46
Energy = -166.91019964 eV
Bi 11.035605840855514 8.656784459839303 3.406687335581945
Bi 6.309591585407384 8.321445312700572 1.491390993764855
Bi 10.119182268654164 5.58187119690032 1.6538338744246603
Bi 6.205966846802736 4.1009553903459315 1.0072171269728323
Bi 3.932413240809296 6.6162827561655195 2.4596157890868837
Bi 9.223978907981968 11.272090375003819 4.729610383228494
Bi 10.024065138470327 2.4904578627613407 1.5912444318761116
Bi 12.062896765056344 10.556050808760576 5.5446626387994185
Bi 4.802592107792908 10.045037294313659 3.4429308015169644
Bi 11.916318908990744 5.798078855278859 4.118341853050415
Bi 3.1290781237412655 4.052515886304553 0.9015596870485386
Bi 1.5682419037152542 8.30772142364006 3.6243573009673917
Bi 8.259647475230839 7.160685356778195 3.5828786927395746
Bi 7.2438005980938165 1.2826572276810904 1.2416069318019187
Bi 12.594992020152441 5.653115070119598 3.295169026263938
Bi 6.786605586462729 4.1353044792686715 4.073573506955965
Bi 5.318015630387013 11.772576522917747 6.703400421348854
Bi 9.643454835168715 4.5168932026084505 6.025082376770854
Bi 4.324935190229356 5.468326093607521 5.3025278378356875
Bi 8.178416486062009 10.888808666862767 7.437983365420489
Bi 11.64754417463089 9.5158231733138 8.378020076441718
Bi 9.94414301690661 1.773494371820145 4.57554178256003
Bi 2.303078272600163 9.997337053588893 6.760333152718035
Bi 7.210833061371531 2.251556078641851 7.650597183294858
Bi 6.774190966167437 5.20163430777797 8.35442588876267
Bi 9.172581137366564 8.33372040698428 10.909773779399925
Bi 6.963277660428623 1.1031006903571015 4.4202903365446415
Bi 9.20964320823766 7.658775787295777 7.882887128042858
Bi 5.689579579727079 8.858505884292486 9.774470342911428
Bi 3.733639404299157 11.183687074323336 9.274295239470659
Bi 5.896276507396165 8.814836303845512 5.9439790184958206
Bi 12.112822060314212 6.516165924589501 8.084763227436472
Bi 3.36397148897254 7.485457246438619 8.331182016439213
Bi 0.8981168742530401 6.488816181477484 6.090195949487258
Bi 2.2521992265663475 3.622289899945855 3.7706631749397697
Bi 11.53842364703681 6.3866788486467705 11.094315365381563
Bi 10.185839239010635 2.3667632339490408 8.22378188154453
Bi 12.11282206031421 8.8291197910589 7.536357714173953
Bi 3.807670444881529 4.138618638281449 8.75316814208817
Bi 7.482145580124546 6.580314754892178 12.786290526786543
Bi 7.254427207911496 4.057020037300772 11.120532253688316
Bi 4.5866164214436385 7.562672138145435 12.296393577297783
Bi 10.2418135716643 3.6039071366309594 11.025233471879405
Bi 0.9157110581066936 7.998801771149667 10.146061164313007
Bi 0.9248851958480068 5.007959336669858 9.987248860982751
Bi 3.4544159192209203 4.737133897935174 11.695700369677585
