51
Energy = -186.14412109 eV
Bi 11.661589771496505 6.984039954416813 0.47455162212326757
Bi 9.600373044364494 9.236168473697617 0.31515465309242396
Bi 9.39465860242757 6.78980001880381 12.938891779765573
Bi 9.180312256883377 11.798499730302975 3.7333911314212185
Bi 10.243840682310125 8.924754090446495 4.471786960600545
Bi 10.208531292660508 5.551110198864291 2.74599067079224
Bi 12.529654368485437 5.295062402809346 4.7249837586910735
Bi 4.897081365375419 8.139571042415746 0.8890442273827722
Bi 8.778839961060978 3.176105742371571 1.278009698146635
Bi 7.9143139148691315 8.045207651937607 2.5508283700789582
Bi 10.657543442049198 2.7410620950469786 5.921372443281214
Bi 6.474066642695772 10.971440291416378 2.7033262775507167
Bi 7.261244894975429 5.510567646006308 0.23262115468588282
Bi 11.527984414165163 7.045722683231033 8.921785228610108
Bi 9.643248434560364 9.555569983315749 8.348899032851305
Bi 10.061768238915935 5.779199168482022 6.415923172144714
Bi 11.963502032344488 3.7715109453933415 8.416409362218467
Bi 6.868127151779495 11.312273788650677 5.658494303499075
Bi 7.143280415623223 3.656957264539912 3.8163871044171263
Bi 4.0390508786123 6.826144379156041 3.6075891644725564
Bi 6.476981925983517 0.9073833599683547 5.017995727067994
Bi 4.180875673833394 3.7456963690452385 2.8877588416197457
Bi 3.4598831831262653 5.419239891383833 0.36928529078805855
Bi 2.5463945095094838 9.693955579183548 2.0401824232120167
Bi 7.773251557798886 8.411924940281743 6.295875595098428
Bi 1.356505684325142 6.848903768459167 2.2085810502655296
Bi 0.5895700365100902 3.7974125289705682 3.850049174770751
Bi 10.076438520731989 5.978225930937505 11.41558638834022
Bi 7.349185158055256 6.679733860937673 10.28423817334064
Bi 1.840203630394745 5.389388177952388 6.128675772936617
Bi 4.468535530467305 8.08760385630938 7.575476399110513
Bi 3.0041459104822064 9.759986428242348 5.199117189405343
Bi 2.0615559915828516 1.363811726508326 4.979512465166711
Bi 7.554295322005185 3.5526788129040465 8.559739176877494
Bi 9.84921560704815 3.052109245031784 10.485850405487279
Bi 8.479103916690027 0.9394798465903291 7.326954206703549
Bi 5.115171867530541 10.114993360680288 9.79602899473278
Bi 0.4992673923978614 8.141442439605505 5.925281749455114
Bi 7.927226663380955 9.556051184412057 10.895207460216985
Bi 12.6587012474795 3.073241673937417 5.721674679409569
Bi 4.417155864435716 2.7930467078059373 6.332243287950683
Bi 0.07769114398457357 1.3195757737195184 7.342544676483871
Bi 3.8261530833185176 5.051824912181169 9.384557877857196
Bi 5.942793331751124 6.434752227567331 12.938891779765573
Bi 1.7535305774500944 9.021026288504512 8.596164971446086
Bi 5.973094257242008 1.886801259925052 10.586316205387512
Bi 14.208382275814525 4.254736869235864 8.054955740252122
Bi 3.7761466487305007 8.434201941798545 12.056578815819652
Bi 3.30191855084336 1.9779779662844037 9.080308733653956
Bi 4.324541521860932 3.9682894009101544 12.14882632032671
Bi 1.6200525598728082 6.73761159553852 10.625540019905444
