53
Energy = -193.10508109 eV
Bi 1.5866638084861326 2.764892520807712 12.3284854221012
Bi 1.772139788351125 0.8054578072171354 10.057453397043352
Bi 14.471499143036024 3.2335236972069206 9.824143792286153
Bi 3.8107499844687314 3.101417760984794 10.21790571816251
Bi 0.43565304528488286 7.010500486030615 10.476880756642755
Bi 4.974621368569478 6.179699249669794 12.734661331592047
Bi 1.4722417271744657 3.721457592383503 5.775963243825554
Bi 5.554930728528863 14.225847489735541 6.287655828885428
Bi 2.1127793513543622 5.122739538906011 8.521250153584681
Bi 4.305868653608519 2.6994112134843555 6.501611084581294
Bi 0.20729772888546688 7.690827363679604 4.184367241833088
Bi 2.3793739059369763 7.8225296635849695 12.700078110473973
Bi 6.8677517291319035 1.2795217053707342 8.526708921522303
Bi 0.7515845838272966 9.661128288095165 9.171426640310068
Bi 6.589964429206744 5.124829003847885 10.210765013703618
Bi 9.87396867832393 0.9713803240607654 8.132164895690865
Bi 2.085863928730225 8.29641575928204 6.513374489286666
Bi 7.375990749738381 0.5287494992069701 3.9958245359304185
Bi 5.233325870447989 2.6685734415858255 3.5801581776400897
Bi 2.749158710884579 5.984817040537404 4.303246439512244
Bi 5.305752775605713 8.934518844467188 10.1088830396314
Bi 7.759707626355782 3.791956165405912 6.914892262923591
Bi 5.5179212659868115 5.919381189370855 7.44760434528918
Bi 6.837967394680285 8.615930226554987 12.684623166194848
Bi 9.713450847100328 3.8345231861352103 9.294324607149974
Bi 8.907158112404561 7.155268954523163 10.914908411720353
Bi 2.9251061236502536 10.46131517606864 11.2047447948604
Bi 9.915849514454957 7.874060317520014 6.421907292984272
Bi 6.843947009545713 5.275029480698217 3.5206190547292775
Bi 6.531752149921143 8.513923996136683 5.670504828044448
Bi 6.98763688068768 11.275925731078118 9.06129295421825
Bi 4.82526559175852 5.709615302066438 1.2489085122164372
Bi 9.48261808574856 9.48637489455893 9.049370639116043
Bi 12.511714192734107 7.179972551845299 7.87926800786708
Bi 7.349714237725676 4.028946648945488 0.7932240390986272
Bi 12.21287646633594 4.200292907558175 7.279836551117111
Bi 10.093010635623832 1.4637325099813066 5.083224141222628
Bi 4.803254954207733 9.112225465995785 3.0477595874723304
Bi 1.9955048987575486 10.138396073105419 4.026528279079201
Bi 4.73929490940194 10.580240050890557 7.013372249532587
Bi 10.378018936245098 4.597338493325407 4.863750166888911
Bi 8.092988839144828 11.291995681047714 5.543275655210531
Bi 9.116657632000152 7.738707550548565 2.380987522075063
Bi 6.121950624279489 7.6429849538037224 13.691144959380116
Bi 11.817293523610822 9.810601514944521 4.9550285516477715
Bi 5.383975901159121 11.955606041186961 4.330432563344792
Bi 14.471499143036022 6.052147427184282 5.860107218668388
Bi 8.895191302774748 6.460229399147494 14.16526606063691
Bi 12.996064254349132 5.342405289219233 3.344037801159826
Bi 6.044739108812679 10.387449650073414 0.49970653515710417
Bi 12.138553884817577 8.123609333397933 2.451145199196013
Bi 10.103709538299992 11.819156887774469 3.336803313832714
Bi 9.06612093464116 10.323712451070554 0.8580156708944602
