50
Energy = -182.15236311 eV
Bi 8.705698626730886 2.9553483490719183 11.03631380353889
Bi 8.716576140536517 0.5526135705924997 9.118609654223691
Bi 5.696415096952796 2.6579332773841147 11.326168133867302
Bi 10.302270609659967 6.563184060107308 9.49786483979508
Bi 12.646872387823235 7.46396218476865 7.671657692518574
Bi 5.304602763489557 4.903320784853272 13.35306589912598
Bi 7.38435474966091 6.587915141915653 11.790366633164155
Bi 8.187540832637536 2.32324952136616 6.718871063989717
Bi 10.402941604980933 9.58151784749321 10.07804641167887
Bi 11.34985300702111 5.931326601900532 5.286813870607937
Bi 7.234974203409376 14.049281207031253 5.655527193749475
Bi 6.875515186047908 4.715877328428975 9.364924706285075
Bi 8.366699858919743 2.0049285991684194 3.1284162682363648
Bi 5.860581197993316 0.9165038970050239 8.06856928992636
Bi 10.496120901445368 9.588666028256641 7.011456043484462
Bi 7.737389506949469 10.977366630442972 10.675743911847597
Bi 0.8004687519506558 4.260054344734374 11.077615795560625
Bi 10.874805944946239 8.15369032580448 3.1510073636310048
Bi 8.853038809148115 7.0027347036251495 6.75882353100531
Bi 5.980768860338565 7.625199403175295 4.293796822683192
Bi 9.34605119870143 3.3999940865729874 0.547758018325976
Bi 5.554843173411021 8.864636370765737 10.969826775599909
Bi 5.784177201634313 8.391565198151813 7.9215301941251255
Bi 4.109066684454205 2.7049769620170063 5.317713855332211
Bi 3.383395891616997 6.153465789967072 9.08344417723746
Bi 7.136939947905975 11.197056084737193 7.664281594804236
Bi 2.7119015978757686 3.1395416420201046 8.91620760138987
Bi 0.41963401849252696 6.8564178368239865 9.475668441889658
Bi 8.330592690613258 9.567904763823734 4.089273618141506
Bi 0.16711210077539418 3.0693674588039404 7.219489989023109
Bi 5.5199039162613 0.8118232752277644 3.404618678104055
Bi 4.601875325631567 10.416115590180654 4.477756390324054
Bi 8.914188447549627 5.072491128099943 3.0229588060315606
Bi 3.9567338598881205 4.625693769929166 2.920494979381571
Bi 2.8931521998587835 6.275743271744282 12.11740978398073
Bi 4.106576088892692 10.839150326410463 7.45549977178926
Bi 4.151856218057332 7.848534406162612 1.7079364114500337
Bi 2.502657462955847 6.581750927169248 5.555101815458909
Bi 8.446345800556301 10.590786274414603 1.1696636188572163
Bi 0.903545969248683 4.873376288412656 3.239627458672752
Bi 6.738911916723552 4.914903407688115 0.8825812587126517
Bi 9.938978936522757 8.088927022490013 0.1704391577755039
Bi 14.138276045479255 6.0063885324411395 6.623389481031538
Bi 1.2150121089193755 2.0888424319770653 4.4979806892896725
Bi 2.005029686332687 8.975288702074778 3.7488611515269126
Bi 7.294242126974586 7.234192591384258 13.35306589912598
Bi 3.687035997125007 3.105497999200619 0.1803790587092868
Bi 5.829570097787004 9.734066574718012 14.293652527296828
Bi 0.9127443935383153 4.3185329529864225 0.08164696974411809
Bi 3.2522230678967023 5.898873129341643 13.618521313896139
