52
Energy = -189.46057304 eV
Bi 4.113133564014374 4.713384899381222 11.08533329878256
Bi 8.011324206806007 4.051947272204173 10.921162748894439
Bi 3.894255140193649 6.574455718447109 13.542934344735814
Bi 1.46659360317507 5.503456427173913 9.67142760118454
Bi 10.804106749967923 2.851942686582825 11.056463250610873
Bi 4.383311632872802 1.6254328056758178 10.30426524218972
Bi 2.7908666564013234 8.10042478589692 11.22616103114133
Bi 1.833686489730147 2.346155831555437 8.961187690395574
Bi 8.841489203211257 9.606365157106499 10.585931924887213
Bi 10.419779359176253 5.860516855318652 11.223262909677604
Bi 5.720738306155622 7.391538724559951 11.230155446080628
Bi 14.66026435645097 7.802201821797138 6.814916529534858
Bi 13.438795011153866 5.186976870243769 5.704094689916995
Bi 7.578512074601977 0.8581915716435851 8.446177399934655
Bi 4.535930461929762 10.732218249954643 8.990828216454355
Bi 7.9492562854495965 3.8479823072940764 7.7993081647428175
Bi 10.90789988143619 2.9304393741442585 7.917402558248406
Bi 5.283537428702619 0.18748283967163262 6.528050344699831
Bi 2.705143581190286 6.368289353196204 7.0079198314099616
Bi 4.4895918735536 2.962146231839983 7.522990430438845
Bi 2.1843036894582553 10.753813147055173 7.033060890817833
Bi 1.5614205213452 3.94792834710692 5.505843630354979
Bi 11.76632184876755 9.264124471706637 9.619522135666399
Bi 7.954007357664724 7.745594243293101 8.303938207196557
Bi 14.574848678201402 8.454704436290234 3.841105864883026
Bi 10.073069900226617 0.17056697153667977 6.798824411374599
Bi 10.847855752625625 6.661707141533981 8.267234328309272
Bi 12.506941549058713 4.207808394665152 5.242121087231357
Bi 8.992821134936221 2.1600797509457728 4.801658107652581
Bi 0.3525829397800904 5.471872304645339 3.0760968998733147
Bi 6.554616464138533 0.5565808076115792 3.791643147215586
Bi 4.809965310860915 9.392108949775395 6.268521125367787
Bi 5.166604803426088 3.0846564472788756 2.7880664864848295
Bi 3.477123147060888 6.860586034874618 3.5335912365721023
Bi 11.583506368606 2.2539770149166407 3.129437620416859
Bi 11.896014084460235 8.871847431619479 5.301238871322134
Bi 2.1230586090663595 8.915966963955894 0.28640641842788334
Bi 8.220461934940657 10.735053392552077 7.77055375414535
Bi 5.9319976096352365 5.169888147756126 4.884644099561962
Bi 9.206337620918115 7.523859550166246 4.805589849984463
Bi 2.4723955261131367 9.891922431331999 3.1701952361056738
Bi 11.180220629966504 5.261601161286424 2.834561052273651
Bi 4.654020653088777 12.415169194070698 6.453609644913799
Bi 11.210618142716482 11.108076042686193 7.238657418645141
Bi 7.876340894380494 4.646060779519168 2.5741101049103445
Bi 3.1309526210348437 5.970332425035285 0.6195669685828799
Bi 6.067950192701896 8.621487110386736 2.3303706998569855
Bi 4.9945766956429445 9.812572398799764 14.372187296496726
Bi 10.43398213573125 9.218960220804922 2.590136126226945
Bi 5.4862955549846415 6.929691439826206 13.542934344735814
Bi 8.006461857493983 10.279297060964932 4.089121083167818
Bi 8.008773656551586 7.052951231477137 0.6263978497507632
