51
Energy = -186.44138789 eV
Bi 11.973871209810964 6.870822195696971 6.654824868198551
Bi 10.779927094504053 7.734488923047844 3.5452782236133102
Bi 10.16549512587805 7.803253728055914 0.46808463380324056
Bi 13.350016771482876 4.101576436806218 3.984240730323578
Bi 10.296821805520965 4.18824970927149 3.494709189016537
Bi 13.0933950219395 4.027992321253098 7.026985711711711
Bi 7.436668702240955 9.003029217834602 1.3128500070525275
Bi 10.576791412744699 8.219614265228063 9.101226584944449
Bi 9.154250159607622 9.790105638162641 5.251291097800104
Bi 8.403534026761424 11.520867323381816 2.8566110587147393
Bi 9.865318702053255 4.713439973233539 0.47056825133279134
Bi 7.811618107276879 6.900137041651223 3.5042761575358363
Bi 8.985441103843689 6.491949157434934 7.098098557129597
Bi 10.691904057629234 10.924894083985734 7.708882361144537
Bi 11.727839023781424 1.5122461810302028 3.614198323837239
Bi 4.186738654581304 7.0510616095630585 1.0384359330042423
Bi 11.292980258088749 1.5807585945953122 6.629289083358392
Bi 9.188709786712666 4.295315456381832 9.219938243892091
Bi 4.436747787293749 9.669306833151603 3.677216036847039
Bi 6.6781764300842905 4.737767814355524 12.7131383431318
Bi 6.911003426910343 4.471740436111989 1.4551022348354652
Bi 8.119121261545702 12.483153936194238 8.364380314088706
Bi 6.9559371414720355 7.78671820749371 13.196331847702096
Bi 5.781955327277438 12.410069910606795 4.188689135233646
Bi 7.380847114612832 11.465639130561692 11.15655349417975
Bi 7.206876432221456 8.590672677969437 10.238312266229583
Bi 5.706456909342077 11.217300111519362 7.010835287722526
Bi 7.29063630866486 2.0384188025997227 3.2788611958407214
Bi 6.186967063602385 8.35081856961133 5.826530276971472
Bi 2.2529597220278665 9.264972671973084 5.878519839002811
Bi 8.358642780010644 1.9746496540351817 7.457729422010919
Bi 5.029001398932362 1.9700576194262283 1.208398113072671
Bi 4.098297147907675 8.902264370526744 13.136737699378827
Bi 5.344566318799915 2.0690330408802553 9.748824141895016
Bi 6.202355069333744 4.963736145946288 9.716083969648713
Bi 1.2059737274174893 7.637826983352765 1.396146109838546
Bi 4.183980494652495 5.835169561436423 3.91721999130286
Bi 3.758150970403588 4.305009237450753 13.534425483619419
Bi 3.7135068960407898 7.3655602062455126 8.019641688341606
Bi 4.605039480461998 10.296106321855127 10.408428565335974
Bi 2.0831317127955833 4.9300393042814905 0.318769193248554
Bi 6.50633366817183 3.7221836674903224 5.696942958367788
Bi 3.334731857404097 6.481840476460428 11.472296759984419
Bi 2.7763217231069715 2.3817708560889455 11.372314043142016
Bi 4.084417645636531 2.3055946422730966 6.970036072232324
Bi 2.8441640123777656 3.285475247274292 2.812265966183789
Bi 1.2691357923558628 6.788186994702193 4.352266327018004
Bi 2.2982848850977495 4.7738982812361135 7.07910784117419
Bi 0.3214675167582408 6.5141508327777204 11.075750353778572
Bi 1.2938315794512194 8.714121025311867 9.213150415099845
Bi 0.7803382935256905 3.904726268393865 9.578568454094938
