55
Energy = -199.29197728 eV
Bi 1.6036016693097987 5.752451411756375 7.621445317253139
Bi 7.250130926660335 12.208533838683142 10.373523587685824
Bi 13.208090812887749 11.918394313562795 4.052023943589014
Bi 4.004373870417722 8.47722721868696 10.319091583352277
Bi 7.241752300022996 12.761112284587025 5.89346237626953
Bi 0.6260841031200085 11.125314340311688 11.746490093146733
Bi 14.275740316868125 7.222627792442744 2.6248697807445267
Bi 9.645361036174336 6.661146826945373 12.17314686777406
Bi 5.941845094092304 6.48822939058884 12.80857176324489
Bi 11.714035803795475 6.397555217760842 1.2069777419264887
Bi 7.7787265820926 4.980810649278628 5.498361866318937
Bi 3.3273076055065762 6.852568430097719 14.396100391269874
Bi 5.456818316724232 7.117208820912733 3.6744864329289357
Bi 13.229338433242622 2.451685470076871 5.415434882651242
Bi 6.576378469846862 4.010827331008696 14.560842253826985
Bi 5.612371829689454 7.117215578740027 6.804825372647508
Bi 12.211440676625447 7.229547671982728 10.368600688158788
Bi 2.068483756413024 8.808970265731046 7.993326296429523
Bi 4.286257533086323 4.375371216901171 7.102103836724732
Bi 1.985963685717426 4.731716543141696 10.483455671047121
Bi 9.628408419252041 3.8159477725865063 13.121440848092943
Bi 12.701134663298411 9.31277760939617 1.097132537547805
Bi 4.626375476015569 2.389876130508724 12.894310771161512
Bi 9.607864328456065 11.808296142210045 4.157659168099684
Bi 6.6437378537275515 11.043446124292137 3.4842031062098062
Bi 7.670759262956532 9.479757855270428 11.733638111775152
Bi 7.659771996351112 7.232805179845974 9.476312728655069
Bi 14.852483994696112 3.1069419552505746 1.4429719801975187
Bi 10.28539669852576 2.7708587055344274 6.188827179771785
Bi 3.407366510455573 3.9810042948661937 15.176554499528086
Bi 8.664410556688562 4.160889700602014 10.331398425937605
Bi 5.051312013853279 4.458912572329851 10.690167628938456
Bi 1.6379858460143575 7.381701764796525 11.904333947428485
Bi 11.240271250091928 4.3978992450195 8.602676214770597
Bi 10.409794506984387 7.286823057163981 7.886671489705065
Bi 11.816330176221932 4.984388562740404 4.5531364877563725
Bi 11.982040220632626 9.145456414850145 4.04257153046796
Bi 14.84299972272357 12.193907622311228 6.586668093982822
Bi 8.433660920055962 9.10170822692966 5.074523707163536
Bi 12.069906068283617 12.370697728373154 10.618365112900875
Bi 11.930508451697504 12.308024336430707 7.444989464819855
Bi 9.805124936861882 10.567131510539609 9.7914608377249
Bi 8.50323624777037 6.744503502644673 3.1067167396142943
Bi 12.138058501258215 2.6131030204471384 2.58915627685948
Bi 5.153985635818202 4.105318562312197 4.1366215971620575
Bi 13.800337664476 9.871852214620022 10.48059733763168
Bi 3.8533965195395385 13.51782391379234 10.135382368259268
Bi 3.6581423508568256 11.056062279525369 11.9120001000169
Bi 0.8200589824839235 13.951774306711608 10.587537278452304
Bi 0.09407462746142006 11.5084313776249 8.79773432921788
Bi 14.335376810516689 5.529097295161297 15.17655449952809
Bi 6.7279036269674295 10.470497859850095 7.9071706963077535
Bi 4.106696466343496 10.395357851099938 6.271574286978104
Bi 13.435474291445024 9.651098677642535 7.430539727465592
Bi 2.558323838339123 12.794124272936658 7.518892332180605
