53
Energy = -193.70175134 eV
Bi 10.495127764227654 2.547289903961017 4.668488487028348
Bi 12.970635408898515 3.904575639823006 8.09287406428698
Bi 12.835343310849979 6.376273867403987 4.522677013809066
Bi 12.227490940131478 8.68039828841425 8.861540115616567
Bi 7.650424882023337 2.76499897630304 1.325995542793058
Bi 9.282052996256375 1.067452696580116 7.025430883584482
Bi 12.204533156340437 5.9631788210148535 10.243320235670755
Bi 11.5318686660759 1.378590994321689 9.07611906349168
Bi 11.989773929052074 9.306792175149472 4.835888976046763
Bi 10.79225515905282 5.059216607786998 6.357144317563378
Bi 11.197241981188936 6.1691586989034 1.9424941856369418
Bi 10.567702381606901 9.188225307578211 2.132830000982241
Bi 9.606565194538877 3.0514048678931442 10.803248039679925
Bi 7.738336870080835 3.7594973933991684 4.1629220282487625
Bi 6.193315397493901 1.16602240978095 3.492190720491364
Bi 10.418329835179279 9.27394335399375 11.236548582828933
Bi 5.503296372519713 4.646582382620798 0.3053762357733602
Bi 7.548696826041846 11.790312007313704 5.528193346935178
Bi 4.673434957076139 1.4413586433393502 7.20725417785763
Bi 6.865259172733319 7.372684167915541 0.7066514489630218
Bi 7.894516369202983 5.900798601849988 12.810211561145845
Bi 9.82183013557337 9.373343201896425 7.021111398534542
Bi 7.904302980912844 3.523361304181031 8.278235509900028
Bi 6.915886548889259 1.6642246049532623 10.503881056392322
Bi 7.798800964138692 11.826032789235283 2.424007037355736
Bi 8.620343419717898 7.139850854605961 3.1992768334920725
Bi 9.201928029041511 6.6968974070464 10.171740471074923
Bi 5.3728759749724295 13.065938001986352 3.7118663528907088
Bi 4.919017838272548 6.285683400174633 2.8050428162395713
Bi 7.6547249892258105 7.222211029028716 7.043656382669647
Bi 8.31060960992623 11.103632769402443 9.870147651539538
Bi 5.622129086907055 4.000645054608302 12.009682401796043
Bi 3.4709773222797984 2.532211591093575 3.3062292965871922
Bi 6.70387246800445 10.719832397567641 12.485842101911025
Bi 4.376672992914422 4.152490147442902 5.765040522644316
Bi 2.396109290282742 7.374528502196427 1.4963644270125767
Bi 5.821467118133093 9.272174416819146 5.281162469290387
Bi 5.506990710534097 12.568396496135422 8.28149626461203
Bi 5.195458584363885 10.286486808986984 2.375165394715786
Bi 2.2130908944274674 0.7956074070559239 5.486299690892454
Bi 6.131539352425933 9.091504114174471 9.055109775120291
Bi 3.03693021222941 2.7904655788315815 9.450679404304706
Bi 4.8242144193553065 5.289759012948279 9.330565935922682
Bi 2.644870519748671 7.215249282974069 5.6788452697276055
Bi 1.4564501784333412 9.282651392157089 3.704355023672698
Bi 5.712846920475383 7.871522380243302 11.933877971553892
Bi 4.218624330616386 11.831910854607242 11.005282704252778
Bi 0.5018920692282394 6.411023432629341 3.6573937623149684
Bi 1.5393433546053426 3.7185202988349757 6.963131677274234
Bi 3.552885841401904 10.75742903780712 6.828312105207193
Bi 2.354301384645697 6.832874188355051 10.306749602810285
Bi 2.384967796354458 9.793700779226143 9.562841416135058
Bi 0.5887715515054881 6.65819848331124 7.837487801315561
