7
Energy = -23.3481176 eV
Bi 5.417026417837119 9.563649449686507 8.077907258681792
Bi 7.930956159070541 8.296994821316732 9.552690264400425
Bi 10.04120138682461 8.487910297515173 7.395733031094485
Bi 10.293207342784918 6.09051564482124 9.139006801685946
Bi 5.808801547074004 6.525732641555378 8.019930849830969
Bi 8.254787906596706 6.459918585387732 6.007493687520083
Bi 5.780718184323385 8.142065582463953 5.4084640137557205
