8
Energy = -28.02314644 eV
Bi 6.754880463174712 8.907770176372722 8.336100876649974
Bi 4.601990749976702 6.754880463174712 5.1736600496994525
Bi 6.754880463174712 4.601990749976702 8.336100876649974
Bi 8.907770176372722 6.754880463174712 5.1736600496994525
Bi 4.5462769263494245 6.754880463174712 8.261257545031997
Bi 8.963484 6.754880463174712 8.261257545031997
Bi 6.754880463174712 8.963484 5.248503381317429
Bi 6.754880463174712 4.5462769263494245 5.248503381317429
