12
Energy = -82.03886645 eV
C 6.595634560426488 6.597427045565093 5.8183357570288186
C 6.571497419442667 6.569883191822325 7.352998187226652
C 6.603834906827294 6.598594511425564 8.88769233833705
C 8.099412495743271 6.599309614186157 5.814467446916307
C 8.132084121947926 6.571446870315563 7.348919075444785
C 8.107436945474825 6.600174000031202 8.883824090945458
C 6.594377444659395 8.101105397601167 5.818034673470212
C 6.569663678077938 8.130454074122937 7.352540710972878
C 6.601971398375339 8.102395224361834 8.887433339001142
C 8.097977253129985 8.103154642299765 5.813824664775606
C 8.130187074972119 8.13199357123495 7.348353962289055
C 8.105620659553965 8.103759815664903 8.883274660237655
