16
Energy = -122.10913687 eV
C 4.00374314677226 4.965530241491837 3.1133012037378176
C 3.8813759722796326 6.3125823901387355 2.90490169218952
C 3.727387819120948 7.46070500514279 2.3557246730034453
C 3.54645504782691 8.572269549778571 1.6875443878530247
C 3.9779854441585307 4.314360627480541 1.8624200920778817
C 4.11270972090395 4.108487202095954 4.277943524448128
C 4.138337792070988 4.48203925847203 5.623423382962139
C 4.183878865346165 4.417149980271599 6.87296736831361
C 4.29116375334519 3.468824814629343 7.823634223187307
C 4.371163804002645 1.6422971156867632 6.492295520363838
C 4.381373748769803 2.2118697810388017 7.744391353488025
C 4.299370946685085 1.8866858875820507 5.282335197415631
C 4.187918566142412 2.622819988141997 4.064745468855052
C 4.139088766183437 2.1055891043822235 2.795422731717517
C 3.9317988378457622 3.7512604867519506 0.6033255557881795
C 4.0390808307639015 2.8878523728459147 1.7088993582635665
