17
Energy = -134.66195286 eV
C 0.9106606573392719 3.209781741349136 2.422283686602264
C 0.36192014274829304 4.020011635074811 3.6874185980409866
C 8.497613695480535 3.4444837290769836 2.7078971419721234
C 2.207802068642288 3.051436763919851 2.2352556676976523
C 1.1970657380293483 4.538291193507082 4.568384326236443
C 3.0353621470391223 3.6093651049739783 3.15678390819324
C 2.521307198370457 4.3491094777281765 4.333362205887197
C 4.444599987596775 3.8654090297930943 3.606978933024689
C 4.564193122518866 5.200830565761478 5.811993780803045
C 6.968091265799668 3.7449291121731023 3.474339644509591
C 5.723226105125467 3.6372661514733187 3.251126316919843
C 5.6176799056135085 5.545389491926923 6.426458035656891
C 8.070482377857594 4.075204562176574 4.093747288291001
C 3.914170918887046 4.604587695364209 4.797985189967957
C 6.8965020426466905 5.6500194722538515 6.6633069439566475
C 8.028656215931779 5.319448266152356 6.171511939641931
C 8.497613695480535 4.678412212767448 5.135318618004869
