20
Energy = -161.09316812 eV
C 4.195934950601146 5.926666180199024 3.574525388530481
C 5.254755117464109 6.703209141307985 3.606841135567223
C 6.37434460496945 7.247178286455552 3.7974398457076033
C 3.4470980852718793 4.932022511721181 3.772365780745234
C 3.1189115707152704 3.8130202253682732 4.3873467703073725
C 7.544328769820491 7.7504619683250775 4.1207758554977865
C 3.373385793846592 2.966340858538139 5.287166052518665
C 8.58798920229064 8.262476494923233 4.599739085811104
C 9.935059971236786 9.443816120696292 6.387777065581637
C 4.03527340333997 2.688558685082639 6.393094934250937
C 9.46642808402107 8.872125364212192 5.366493887920799
C 4.794647077694317 3.0233235327097407 7.3436965553824916
C 9.893845199996525 9.796152672011262 7.657228966599888
C 5.46051230168173 3.821949720787824 8.146291694210571
C 9.293197289117337 9.692329871521197 8.762906035754659
C 5.959555026856349 4.816194909130895 8.73768501197821
C 8.40319803987805 9.094676149153392 9.529092037833006
C 6.418115670773151 5.944103949635835 9.230113766441995
C 7.569233971371323 8.171123101064913 9.730523090421697
C 6.892850977731306 7.0529353658324085 9.587562147615701
