20
Energy = -159.72122121 eV
C 4.762124537210737 8.270698745660853 4.0354305595033795
C 6.986032343317384 7.987947658935728 2.834768000122701
C 5.76748815846124 8.23687819028042 3.2932475150418803
C 8.159087528740427 7.545239104896825 2.846050319276609
C 9.257091747357986 6.95571422785077 3.2882680137296285
C 4.038136390017831 8.03238567347612 5.1301373475758485
C 10.015187623870728 6.359775503730994 4.09305230232526
C 10.398486042782848 5.787655445844296 5.221994345637515
C 3.591263670291174 7.658357931255829 6.224602423711703
C 10.331084358381377 5.35286538444227 6.397283283179689
C 3.765289186166847 7.0004065871735435 7.454785535159533
C 9.776204747920481 5.074645674759978 7.56821802774633
C 4.999342525022403 6.536928034861694 7.924298644776332
C 2.9640961476242373 6.513301527112437 8.471279057475332
C 8.932592160863974 4.974118550738269 8.485443037718884
C 5.287392458956711 5.787447535454795 9.070930042192703
C 7.748521383181971 5.097748078297732 9.085846581873028
C 6.564920795899587 5.2991810297034005 9.391006512132465
C 2.6583558189016223 5.849560516389613 9.613365054584705
C 4.004790524161516 5.686632748265364 9.577481545367855
