24
Energy = -189.05596346 eV
C 7.892127213329533 8.92335218465921 9.321265797644704
C 6.757497864358401 6.09420726481016 9.751106202769138
C 8.758486963344842 5.287596502412242 7.834179791514858
C 9.577095049775041 5.98150690734407 8.628257040372837
C 5.937918380315635 6.486769493469546 8.618538428975642
C 6.635297737850422 8.36255289731672 9.732586640643909
C 8.04790582468735 9.544997636703185 8.000242970227076
C 7.703019842424613 8.370748281158766 4.996790558882641
C 6.358899306709598 5.925361733477761 7.346746496037744
C 9.10523718012905 8.068638287450183 5.299006246460347
C 9.581377339869782 6.998667138817499 9.374022879457666
C 6.8560928374432235 9.557774126464768 7.181709965534076
C 6.8023173875946155 9.073086161295869 5.753218787093081
C 8.80923560169465 6.651697219795162 5.264054077418544
C 7.404584046121563 6.890119601464411 5.212227030639538
C 5.748969772656984 7.924353536029514 8.718662588380973
C 8.628199368431426 7.8178770542557094 9.948551782813604
C 9.715691685747235 8.92807213791486 6.20208030172676
C 9.208860483023226 9.419907152400587 7.237422265629778
C 5.726284561980511 8.710687962353475 7.539551686689555
C 6.303553504171491 6.747374149439006 6.111133376491059
C 7.530052150266497 5.182387730506724 7.551599930740192
C 5.823277285370334 8.083589688513642 6.265769740946418
C 7.316178337540174 7.196834465935083 10.339434316050285
