25
Energy = -201.51822104 eV
C 7.360978300286558 6.106553772847827 3.027742051622297
C 7.419828327223783 4.868932861821889 3.224743442544781
C 6.980383218975923 8.557443111377243 3.9482321279723065
C 7.070585787114983 7.159183758393262 3.868652472203492
C 7.184795723707645 4.2020973309906005 4.426054136908531
C 6.621768399100387 8.857897678215116 5.271738631155414
C 6.760922793337008 6.554637358620186 5.201716564666975
C 7.258337743252067 2.852339786138689 4.768109227962847
C 6.798207480376043 5.166767137723006 5.521888027488319
C 6.457417646306792 7.602532514669279 6.08641113874019
C 6.479174682889299 10.123972723342675 5.801253644086995
C 7.029825120020053 2.301841492781103 5.891247943446184
C 6.379239232179255 11.39486661444641 6.221093053930384
C 6.4604830831323845 4.878477495374271 6.878122058187915
C 6.6751848829997265 2.422363148150538 7.136739216519457
C 6.107839276067964 7.310284248933363 7.420439005034409
C 6.07689246612835 10.512137022814992 7.266024438795446
C 6.11668349796801 5.936898692412283 7.749744194957878
C 5.8157118401552585 9.63390055666839 8.152704699402417
C 6.363399895386004 3.6312195447224767 7.726714046283442
C 5.748307303676404 8.314062848899962 8.49848786072352
C 5.796313710469401 5.353696499058947 9.085474025230715
C 5.956532875032832 3.9754462238151995 9.045728809070592
C 5.42908021390024 7.667672776827514 9.69754100325163
C 5.467641050210854 6.430309350851731 9.89893272971108
