25
Energy = -196.24420958 eV
C 4.917921310810406 3.2357349833270193 1.2730118598242404
C 2.440898210545385 4.829758832359016 1.9365765141460738
C 5.697939410129848 3.4926373796762746 2.4250954584013487
C 1.1574546616345434 5.579709559962495 2.1358981296908013
C 2.692204179020841 2.2358702837857756 2.202861570899229
C 2.5454432629644503 3.4343557414924097 1.4556378605321245
C 4.887438334614151 4.5317029388351715 1.8909841592365901
C 3.6507909875376683 2.631050167725369 1.191720995960704
C 5.9802850529087 4.294307822141164 4.6208123593081885
C 1.34955981041949 4.859379791947033 3.2056791799854647
C 3.7976902045522465 5.2282994097580575 2.446469625792249
C 2.646898366283497 1.8981669569750022 3.548718926313905
C 5.940719006271798 3.1353410163116755 3.770911803368165
C 5.26766030476102 5.499076669966377 4.5072213901026394
C 1.9243381735211875 2.7477465183176975 4.5370239689133856
C 1.884285625775311 4.214942598744432 4.303992975425346
C 3.965873364135844 5.492588899900265 3.8821821693394587
C 3.8863631211053207 1.4991083748076635 4.219815125485385
C 3.888486873151372 4.2232821937756855 5.924683114088518
C 3.098142172877211 4.844780546022476 4.843063547469428
C 5.1815575838387105 2.0715311001435426 4.343895808679927
C 2.1748847344464446 2.5166312204278904 5.865182017894056
C 4.3215590875576355 1.9470446505000674 5.47997222749377
C 3.495752060703837 2.872302481546384 6.266300383852706
C 5.220764851727216 4.699560612845501 5.737199579090734
