32
Energy = -254.22738806 eV
C 0.6077678859181883 9.119099588000372 2.8954719296396956
C 0.677148054666679 3.5872304227911 1.8012416978934962
C 1.1047073970928971 1.2545591389222492 2.699390501381058
C 5.337788843842928 3.776113505436295 1.9117909145255492
C 8.005586597473158 2.4474821724950835 2.9152903308186957
C 3.012606554490134 2.6276651594717158 1.9661406770014758
C 5.325228506196328 3.6570683218314017 6.9771331122974996
C 3.57483869601365 8.369462070395759 3.124932797189039
C 0.939654185129321 6.5688896255992 2.8257629753781446
C 2.5478603687180326 4.7307387320085885 8.187043084939505
C 4.0290629468754515 1.1188557608757788 4.52102167675879
C 3.496008791331214 0.5716439876498937 3.362810713696157
C 7.763871424230751 4.501677435494273 2.0906286765975666
C 7.273845434909259 3.485058052860275 2.784194361921811
C 6.659144804708185 5.773658699000372 6.458266423360845
C 0.1982168849539721 2.3768946419862353 2.506690629487569
C 2.3703235081426 4.18733518855851 0.19848931413986695
C 6.022658354493614 4.768959593871014 6.896082446425204
C 2.222495696131784 6.573189157390083 2.942532338455039
C 8.942608697816741 4.6698790028857795 1.6213269126317975
C 7.096502690783647 6.133661049555621 5.262933744343352
C 3.429640956320738 7.116654612557681 2.914387239378267
C 0.558693037827272 7.871475034618075 2.935382474008854
C 6.8864627973756045 5.454927631308208 2.9621947784695126
C 7.267779468424924 6.172147172492621 4.0117565866374445
C 2.0456736448354924 3.5061034846282753 1.307662489010943
C 2.5337489557267157 1.4924788131696831 2.6455292825263848
C 4.341341376295573 3.0309585462150594 1.842509539678514
C 4.3713684017063255 1.7612428275223557 5.535849799488459
C 6.284201700433396 4.659143930874188 2.202988870328494
C 4.8528969768176315 2.6509870204505015 6.380230092145511
C 2.5964984566842344 5.213784812968976 6.9771331122975
