39
Energy = -317.2203951 eV
C 6.574223835853138 6.428083866057665 5.680050460786382
C 4.093700264273432 2.5811532292479904 4.364612915665757
C 5.545680538803635 7.233435522181127 6.1878307969322215
C 5.855274483064934 4.667764940858164 7.337187818490153
C 3.7233025390402794 4.612317978599211 2.3402183829225716
C 2.6452199681280897 6.172496061549407 5.4432072984512745
C 6.293748591325115 7.652628013060839 3.6734890513785867
C 7.2226152285353065 3.4603114337535446 5.091277263185865
C 6.767298007432276 6.4320595272966665 4.187706611911571
C 2.2137481355752504 2.631328113759814 6.513555029738165
C 3.2669506839519595 3.1152845789467984 7.311832588448573
C 4.854456573145779 2.338723154249228 5.577360990288509
C 2.871978921603507 3.5091681926690446 4.36340755109823
C 4.6158320046833285 7.9880933336089175 5.346547413460628
C 2.8706103722600855 4.661725004430634 3.4806244385409526
C 4.527933921132611 2.5924356787376555 6.984449283543653
C 4.4844971775963645 6.64290046204187 6.9944625090697885
C 4.54931743500518 5.325898828233474 7.4549222527205155
C 3.331289650265208 4.590996049029777 7.284435485810797
C 3.5468278782531764 7.125676032187366 5.981264622592794
C 2.4727021876783417 4.979011461270895 6.205965356679605
C 6.25658842680702 2.7363067240958006 5.815639111185979
C 5.8059682812824835 3.2748365629617298 7.12100797531276
C 2.1309441652284358 3.6647779498777444 5.575308005714033
C 2.5334853568739133 6.005072622592508 3.994421562229423
C 5.251446774695351 8.183666063369568 4.166398292629088
C 7.9866740342254 4.275255861815196 5.945876859362321
C 6.9622633733834824 5.36670210822866 6.623894390278395
C 2.891204012115696 6.9566903381099685 3.0628902164138303
C 8.44784123425249 5.013633734004393 6.900537841089709
C 5.837589308685543 3.831654997340924 1.7211197207723188
C 3.809533635688892 6.880259521483089 2.1858961039308356
C 4.581391315934679 5.765309603286071 1.975004461982084
C 6.237268148278285 3.0221443768115623 2.8627692277661883
C 6.9480897381838345 3.868390195422596 3.7487285550883693
C 6.781732619601292 5.250844111310146 3.305609236438242
C 4.836892967122253 2.5803139339056056 3.155250515756356
C 5.982478034919113 5.211944443187953 2.0428576975051502
C 4.480581730520369 3.459886945831917 2.0815636602334635
