41
Energy = -328.64035051 eV
C 3.8570589625324714 3.740856001800364 1.142855451574619
C 2.423701050505601 3.12573764878032 1.037276392827522
C 4.326422848023058 2.5934254712077176 1.7906335388655878
C 2.896121765406474 1.9763223098262477 1.6483197015875537
C 3.892302569573353 5.983138564424049 2.584349575314438
C 4.379917317064895 4.99725673127094 1.5705584401281218
C 1.9048162620366864 2.7790184357137186 2.3772887923704062
C 4.820177137083055 7.019945372988853 2.8864945391477943
C 6.6103631071229 4.5166790174732006 2.5178316439779733
C 5.19372877981276 2.4437631915809472 2.952463475977683
C 6.353652232452211 6.88461845678221 3.18845961666666
C 3.1169681167196472 5.471514370324221 3.8236338687036664
C 5.716586430797734 5.02936277691868 1.6205077516202486
C 6.290845059949132 3.300454512171963 3.2812643637637713
C 6.935170552848833 5.575288638629038 3.437644077492315
C 6.227999979076399 7.758046378278464 4.285136103659588
C 1.977677185616737 3.1592952696999164 3.6548102532544937
C 2.0712039025447595 4.50224797065453 4.3867631493385
C 4.756908103084242 7.963204271538829 4.000594539670894
C 4.492216298145861 1.8873209488893032 4.094627080758477
C 6.877556140240688 5.028395327186131 4.788614265610522
C 3.646896486196645 4.1179356231236515 4.5097092191737955
C 3.533906802151128 6.2170775983992685 5.185697702230343
C 3.1459872669496605 2.5830662769022292 4.441898273630627
C 5.078437539153679 1.8114315006023354 5.36766729068304
C 6.632768141394943 3.5850159222392697 4.658573013029023
C 5.914341773774908 7.15648332696652 5.562394208199202
C 4.438210452937213 7.372420409230564 5.219630772950848
C 6.07696352914726 2.807371034478295 5.6934260943907145
C 1.8563876736695755 4.614573437860751 5.916096410912996
C 6.257792155026116 5.812253846363299 5.849989816677327
C 2.715887938767338 5.697342289163909 6.341569782719387
C 2.867458523287354 2.319719981885386 5.90360577909463
C 4.066838530656623 1.8459077901717402 6.439646991226712
C 4.172081239023357 4.925317469787771 5.6050052758589075
C 2.280837382725702 3.4415988759170157 6.657375935082717
C 5.574503031119572 3.4925418475750063 6.884764467163959
C 3.7821094537010773 5.08363499899479 7.235473296934279
C 5.25464825939004 4.957361154837101 6.635027273579144
C 4.446347814702982 2.8532839761549527 7.423600335932195
C 3.340411753347612 3.7739805209671613 7.602930985979501
