43
Energy = -345.08316597 eV
C 4.503221004460938 4.196370858472772 1.057783730825368
C 2.526917939840557 2.4286229941300315 0.8864258112946718
C 3.668662697866943 3.1901463214442756 0.5234783800348015
C 2.483276419160648 5.43809469847322 2.0502550721705117
C 5.517328629466779 3.30753225032344 1.8452731039315526
C 3.864437979502731 1.9003454589111222 1.0947233914789845
C 3.9001917314222943 5.333191876041139 1.7501214347767309
C 4.912951246244054 1.9151160268216327 2.0407709848493734
C 1.6436846741176931 2.8067230851177847 1.9664791811775393
C 6.475673595288082 3.8896138059542364 2.90634115547685
C 4.781726649814134 5.751816634779306 2.9567693886422246
C 1.5745635816602492 4.176385640147206 2.28588871204826
C 3.190177457182648 2.5422344879451786 3.637554687598643
C 6.280576163615746 5.440005419186703 2.8485084521081583
C 1.982652529705651 1.9037439985676792 3.1303642055673957
C 4.288751035201779 4.471910560338184 3.682838956290741
C 2.1875145945817565 5.923004042772507 3.398522697266899
C 5.176195121839928 3.4500411619974423 3.404328824721828
C 7.188414382050039 6.393102382873703 3.34925005876686
C 4.615607039103746 2.0867360700169497 3.621152584935772
C 1.6329694901415601 4.5689492165970025 3.751830084102315
C 7.265882540293561 3.8682959779023984 4.203523210386994
C 2.9700307401284625 6.5008446513792055 4.441342353183299
C 7.22801775485664 5.392328897439407 4.380758285616025
C 4.410599728845549 6.55698053450593 4.20675602551823
C 3.0541476500891838 3.923096378112908 3.870059818567572
C 1.9045693840781044 1.7827390244415366 4.540800003841055
C 4.069046626890252 5.817476196675992 6.36866222978993
C 4.604997671363986 1.8005099776010938 5.183805844314781
C 3.16184031973927 1.7408445255430605 5.565007767552803
C 1.3216306648604528 2.7381466089687256 5.487853170311629
C 1.2100924442192387 4.115369936668949 5.140688036909214
C 6.7874483238055126 3.3222254786877383 5.388831614738588
C 6.408330117306162 5.640040188566149 5.59996049408349
C 4.09664035531812 4.490448946136472 6.985727388329494
C 5.54649710163496 2.578705863708559 5.88396330112294
C 2.7711248552799232 6.024024630738752 5.79077640772711
C 5.124642067888994 6.259390813034722 5.471705814514919
C 1.971380887200154 4.873573524645007 6.11863775150935
C 2.4341886114717672 2.6215533700855076 6.437723190066904
C 6.44626987334742 4.423782137909082 6.322940802218305
C 5.294989657490948 3.745817259247242 6.803398421210574
C 2.7899203018161853 3.9378997272821494 6.886198810613752
