49
Energy = -388.11972394 eV
C 6.80005148360911 4.371984709501049 1.931848493228244
C 4.746910093176477 2.7741233605636872 2.1133831463855
C 5.44468021593843 3.9773990577907843 1.4328189788846941
C 4.537314131092326 5.202284158590702 1.8756872339969364
C 3.1091978876184494 5.462608508636334 2.371022096390779
C 3.2914999345763003 2.8930142817103937 2.715909750831319
C 6.699322145544004 5.804282848460845 2.3492047112420336
C 5.398022170536305 6.3363328973514985 2.243522957266315
C 7.494614917930383 3.6033894908638935 3.0162184751556254
C 4.600629848130857 7.258927039497091 3.0478648394718872
C 5.5677547161569025 1.8404267875811415 2.9899518201831525
C 2.4602445902569356 7.371909791173209 4.229661223232233
C 2.669735028367645 4.220886131112783 3.01617375496123
C 3.2073548295820995 6.775503526383656 3.0509551611891896
C 6.769582765099111 2.4733788037351117 3.510676923889265
C 4.9456078771125505 4.0863763518099585 2.874197433012235
C 3.472331027336819 3.4011397932879364 5.3204400834105865
C 7.752162990141881 4.6511723688235795 4.1216730853289665
C 4.61850698774856 1.3932334570271214 4.031561944570549
C 3.2907425090023574 1.882898253870909 3.7293038511118586
C 7.291893135783158 5.875275679192557 3.6406441043068827
C 5.354404885599819 4.104983225734204 4.152365529324057
C 3.7273770073540864 5.525090682603772 4.806490717389876
C 5.96561989335469 7.537831800616638 5.243348130009528
C 4.854898714486262 7.843963987860513 4.340335164094539
C 6.104753205251749 3.0505141967894387 4.702924229209229
C 3.037650100920259 1.981871533536666 5.247588652003126
C 2.7539545801907432 4.376065749274056 4.521236355172345
C 2.001751824526654 4.2583517551851 5.885512172612668
C 2.7913849902426016 6.463777470141336 5.302782894861309
C 5.086582016813851 5.3664927347446625 4.755291810454983
C 3.5999835056156235 7.9272200183371 5.153132627941234
C 7.283716337934371 5.022099060292615 5.573419069712731
C 4.364986697675072 1.286977370473139 5.525641805441417
C 4.511569428223724 3.683749938640534 6.2647987715572935
C 5.512867115783113 7.613729055577739 6.545252865346924
C 2.4563946545606257 2.8527558392914347 6.408855912537717
C 6.511986407931076 6.198572361208222 4.8936851703584745
C 5.952615063567216 3.104472621387579 6.178599300781143
C 2.29901755717067 5.5020363996932575 6.511130995863763
C 5.445788103629663 6.473137174791062 7.516653389184855
C 5.7514661963511475 5.114227475333106 7.557711067156685
C 6.675179221821915 4.36974881736872 6.6676124598489785
C 4.009343391387488 6.726475722812168 7.557918614644166
C 4.9310575002957036 2.024148124633043 6.639441445647622
C 4.323028936815884 4.395822307540826 7.563835905312264
C 4.053975768023075 7.862160454895824 6.600756036356559
C 3.865133366566084 2.842462358680019 7.433249139605721
C 3.2908291148664977 5.5201893372920665 7.523184571220918
