54
Energy = -433.9793019 eV
C 3.489483390304347 3.8473514888882048 1.484452037925485
C 3.4189397502793653 5.371774880675308 1.3361254598222605
C 4.5703808520635585 6.131536192565371 1.8819277992310965
C 2.228845258468339 5.763871875312975 1.9707535682921922
C 4.623924550309987 2.8369789317211875 1.5775312966149395
C 6.106586062027358 2.88717318107051 1.9791052158024263
C 5.864231611930419 1.6996349408597016 2.8068025407970567
C 2.152861792683689 3.4220206911224356 2.1724959629220035
C 4.496162353274433 1.543056557903472 2.3140211779609143
C 5.5487264148987085 5.160518616501464 2.490275589888651
C 4.353844476341117 4.0177677944861605 2.7658255855395515
C 2.6891354258325957 6.766865951527794 3.0063411084846305
C 4.116186128655091 7.087678493054536 2.8236247750970747
C 6.763158242562358 4.189704252551593 2.1890747466778024
C 1.4544262636076715 4.613602381982018 2.4659157220072836
C 7.918052623525375 4.4916966390883175 2.9576377609634394
C 2.795789343650759 5.7166188789110315 4.129528947098337
C 5.8711818406874245 1.4941137861889755 4.223403465649091
C 3.6301432359641885 1.5060113353565117 3.447247808587822
C 3.5808528487305415 3.4038461454188824 3.7923039301678676
C 8.295476441071507 5.273355290465665 4.399696725573561
C 4.644700758206584 7.424206063192732 4.164481363456519
C 2.439554301133303 2.4761836739951018 3.398787040227826
C 6.160708660767444 5.631938529578274 3.7617114176586317
C 2.244284050262835 7.134610856298369 4.40832202044472
C 6.178387301600899 4.337941237389704 4.526899225334737
C 0.773102656135481 4.799282931233451 3.7884717578610143
C 8.407933995471558 3.9095089015557933 4.159582813515909
C 0.5703379804440261 3.7067203829325766 4.595460042565481
C 4.468390252577761 1.3523019487234398 4.699568879657823
C 1.4433332734110622 5.835499253280057 4.77155938327656
C 7.357798759591761 3.332453945293049 5.053372175570665
C 5.884716666102154 6.769631528731795 4.546640124003885
C 1.4769756143189237 2.530066367460729 4.5635600349677805
C 6.61960684512506 2.0863914072288376 5.259789971217441
C 3.573225958599548 7.42050107313664 5.144253387640989
C 3.8192158569282912 5.243014773938815 5.000084306199733
C 4.402806294242269 1.889518803259564 6.057564200769361
C 4.966683349615439 4.380135623913614 5.002547776262195
C 1.5727880716480664 5.189498112631714 6.143788520145217
C 7.4758081629401945 5.4867564517770795 5.767439829717072
C 3.740370223318069 3.7469626787630155 5.152201122590518
C 6.338898551039832 6.384177529307608 5.916382282032283
C 5.746024213692612 2.366199977289501 6.370689842431263
C 1.0342381672944596 3.933258058073708 5.964767461719295
C 7.281042640532221 4.161568466485144 6.328828417197293
C 1.8654814804132342 2.7127376836945425 5.93965949591552
C 3.847502457996355 6.302379316088016 6.223013152128506
C 2.8550118138168386 5.35432381543908 6.869804844446053
C 3.3124958627659615 2.941087657949598 6.371273885151331
C 5.074638970484893 4.621578817666112 7.303123362248269
C 6.13488556389774 3.6612198730758005 7.029717559795092
C 5.234524980835076 5.974029731676165 6.7461928932034745
C 3.6359001945362843 4.228899059902466 7.306133022158097
