55
Energy = -439.43413043 eV
C 7.340314103524344 10.590560062020073 11.010670540154909
C 9.767419798552904 7.96360504550604 11.339188404499335
C 8.510433361008209 8.628823162388112 11.617666580230484
C 7.258199773043367 11.407819045756995 7.865581897210068
C 7.058535892787274 8.274756078913242 11.683315680871102
C 8.39290500388038 11.88566702451462 8.568436240475082
C 9.105987049803062 9.224180207989226 9.64201524919692
C 10.044048335515365 5.705895156294514 9.945824726640385
C 8.587787808380527 6.077699135498972 10.213498714790843
C 5.596166121442448 5.652531754046914 8.81417116422598
C 10.346153121819947 8.582806607732529 10.120953372137276
C 11.543218385301136 7.059983284222457 8.472247649620005
C 6.247092566737106 10.379568868865721 5.785215205610452
C 7.958428192213823 7.018869900977748 4.982756490033383
C 4.542507228505281 9.080306128348951 8.563632000895906
C 5.450538757618823 10.25206642964281 10.530694168745397
C 4.719329652706009 6.706865109327545 9.361361702926361
C 8.568612839826777 10.27542769612642 5.734844721207519
C 7.342060002524547 10.896016250230112 6.521553552981784
C 8.000968636948784 9.390175879302223 4.719702260848358
C 7.798969069154469 6.019333884350493 7.854558915095623
C 10.734433314484964 5.871613085935159 8.732771257263874
C 9.678460158274783 11.738942090225386 8.297311862547891
C 11.149333387144999 9.478388866160705 8.080993234286444
C 9.970402386396977 7.7590686959505275 4.1328323696572795
C 5.291107952341972 6.488784549396638 10.72388322028462
C 8.201230036113431 6.955164728759188 8.919787489422859
C 6.403687720069195 11.325296484790147 10.214553689535434
C 11.052949112577675 7.950552387325564 6.2290684495536635
C 7.289755379547997 5.819096767603588 10.836402505534862
C 6.148985457752639 11.211925915718327 8.793638210035486
C 8.48499119685496 9.870667758279138 10.8062751754031
C 8.643864995162494 8.14360212480847 4.305740340355218
C 10.784694956585696 9.225316895218755 6.690418246323933
C 11.732014145755667 7.020058108603255 7.033132268918826
C 11.267707273403467 8.359603446693605 9.036518900154272
C 10.262048359861637 5.425539819946179 7.38279887460898
C 10.315597798281695 6.912877146585498 5.351352263263476
C 5.116821322865537 10.199823772598457 9.072318645246924
C 8.96269388021506 6.422793285708446 5.758034232307041
C 6.404180104590487 5.764785533624391 7.638920141501479
C 8.480922091277124 8.255590000555026 8.88315212279196
C 10.890975032049568 10.906185449089799 8.267118462486122
C 9.905118572032553 10.3144244733164 6.218024474653022
C 6.123663591066873 5.438249835238993 10.126348243245644
C 4.321471619592457 7.8712253447227605 8.79511912281678
C 6.600028032013923 9.637520835671012 4.80756907874047
C 6.134344326647406 6.055020854055786 6.290593279052149
C 10.301847484427299 11.38252858886117 7.074985213071625
C 6.361479377016738 9.554176623238716 11.420415639313706
C 11.141841510813103 5.909762543897594 6.349320592217234
C 6.679898710574206 6.589237604720355 5.2974270412439495
C 8.918110233127466 5.6864733987503095 6.9714611991477895
C 6.537435882047538 6.980952261289281 11.405086280790025
C 9.744895339358566 6.618460452225225 10.92540507744692
