55
Energy = -445.33402283 eV
C 8.77703778753775 10.481066535873355 11.453116403877003
C 10.554377784634015 8.83038261612814 11.859778560312458
C 9.191130637010453 9.287755724963109 12.09002307636963
C 6.703825564749547 12.379005320090585 10.039995724627753
C 8.395616769027011 8.063481034896954 12.235981801702954
C 9.321005475001906 12.059567323409887 9.528994873335979
C 7.9877120627416 9.806735348223949 9.377750953212614
C 10.579638507114685 7.38462086774191 11.718580805633795
C 9.978765623305158 5.474701244583536 9.466237646184569
C 6.510030516703066 6.99352396353006 7.685002203386759
C 11.454151245270767 9.427225629246205 10.91403791179016
C 12.472235455127908 8.063624731392661 8.884459719486477
C 8.223081879536055 11.030398800835686 6.5812410709398526
C 7.078212746764314 11.189682924037204 7.389311046480372
C 5.504695440522979 9.369746146602207 7.9146916312665425
C 8.193287453077312 8.561181309158954 8.861598924728606
C 5.486028336430932 8.618530808887195 10.276078884769156
C 9.569950265891507 10.992624336746504 7.099919024734835
C 7.350825571913568 11.095604150459797 8.773648174283627
C 7.956699081778334 9.934647155898638 5.664904856281771
C 8.849063330463656 5.20837439306028 8.6981547550621
C 11.456975819757316 7.077924528839292 10.62942534547791
C 7.94459773599583 12.343952419921196 9.495849260782393
C 11.904572133333678 8.059294253745495 7.583786043272817
C 11.388208093681957 9.318274348825886 7.061622152984893
C 6.127657134252579 7.857368830621575 11.037984596035887
C 7.466063171480171 7.601861600377194 8.522379918416277
C 6.331749393911941 10.838030905626962 9.907552887875347
C 8.887648778185325 6.516903517659968 5.3689185066380976
C 8.271142049096454 6.241214095949624 11.21156750716059
C 6.074838408138789 10.273324416664815 6.97739345574655
C 11.056035774652116 10.652556554574005 10.330566781641036
C 9.207628100739498 9.132459799067192 5.583003119890183
C 11.962996539600825 10.138699046775542 8.053586849783876
C 11.84153981164828 6.879127652703181 8.378402480759625
C 12.121340450180712 8.29103881451286 10.229589186470974
C 11.166896512648803 6.227718512332625 9.485943726956224
C 9.392447943585873 7.807065556350571 5.23672036539368
C 5.449654985835659 9.657130573193172 9.353471743492605
C 7.400043345063698 6.39859640587459 5.512616433078047
C 7.200024565421183 6.005355031269323 6.892401775130458
C 9.280394323845561 6.9523445031978195 11.966868072716357
C 11.234844964652249 10.915610997689836 8.908153749252683
C 10.184836687484761 9.811230856519488 6.462219321351729
C 8.705365137523502 5.529858919546844 10.094632037003246
C 5.640299257233372 8.02941706376821 7.1961276569675166
C 6.565625551099979 9.589966046087861 5.800230499298987
C 5.968748716175171 8.281452022905288 5.778252348334888
C 10.051587210845002 11.530769143810188 8.360640377362321
C 7.556010045709195 10.214392884680722 10.639830609620827
C 9.438509926034376 5.694121565119733 6.369137806409747
C 6.566482001275247 7.341459986082446 4.974060053031815
C 8.471450674957925 5.442501633214024 7.368604612927233
C 7.297736443263138 7.3625844683286354 11.558505016459005
C 9.76348868963118 11.248724589940192 10.67125956535258
