13
Energy = 0.01136943 eV
Ca 11.191982672423668 8.619533347046504 8.172736179005401
Ca 10.396700062782857 5.341249804144065 7.248059172413876
Ca 11.081625788129635 6.691668006625013 10.894113991811711
Ca 10.656855434761892 10.399359507323066 10.944062991316791
Ca 8.598344413790198 8.34703530717641 5.9020848246808395
Ca 9.664138187774178 11.65017158468009 7.3309724366028615
Ca 7.502104253062026 10.512068438607217 9.35826087661428
Ca 8.032654270218691 5.898500639153731 9.294356613166004
Ca 6.06561688788351 10.826802112170894 6.193339686985412
Ca 5.32461833016697 7.971074990098902 4.752009605726314
Ca 8.036193760635845 8.20476230925473 11.750323655963069
Ca 5.363278118702631 7.940225278997212 8.278152735735299
Ca 6.70114830418604 5.337863245979875 6.120298010665686
