11
Energy = -10.76935515 eV
Ca 8.455074268181487 3.533173913865038 6.412419525722253
Ca 7.203720528244519 6.042732345217154 9.055855626491745
Ca 10.747219238348222 5.967825500133683 7.9609883160929655
Ca 9.81585097819655 8.296792031148948 10.917747565118095
Ca 5.049341276048022 4.661159923758083 6.169897709649835
Ca 4.560737028885606 8.183028575815463 7.1371566688616
Ca 10.126375502154733 9.500173904522665 7.435827506077165
Ca 9.185212882973648 12.143622942081208 9.68345525279552
Ca 7.844730457066131 7.264040614709387 5.663169771103624
Ca 6.652410523281271 9.587817572474592 9.74899109895563
Ca 7.048911727910185 11.043767550733586 6.368444135023544
