17
Energy = -19.67223129 eV
Ca 9.021395985125125 5.715117169383626 3.9955301967564085
Ca 6.314741372332645 5.27499502194299 6.650588954498931
Ca 6.789111569787751 8.660353022676388 4.942174996956014
Ca 10.604960829922552 9.232547052777903 4.438842734328877
Ca 9.812680630690378 3.76237324414566 7.250695878640955
Ca 12.243811172000509 9.520366135735287 7.95834207590808
Ca 3.4405320235453067 7.774351119499508 6.511721677212115
Ca 9.446546596874962 7.332832230132635 7.228669673119321
Ca 7.98442176029376 5.570760586623336 10.138163551228406
Ca 6.2994833085819515 8.503762764561023 8.646364870339706
Ca 4.1571420752012855 5.8573329833216095 9.792960030650388
Ca 4.897776775726333 11.347095323930526 7.035895190788314
Ca 11.763863983010008 6.102204897696326 9.70246144579776
Ca 8.770129664431112 10.998095794384634 7.374832017955809
Ca 6.1237917977709095 8.223915004908644 12.22500216516503
Ca 9.512186216915671 9.085389817594793 10.60081212183293
Ca 6.679458041030348 11.630432712368105 10.486258762119316
