28
Energy = -35.72227467 eV
Ca 13.690352068686874 6.987351846052382 5.446534777423582
Ca 12.809251966878257 4.948633660168293 8.50872128494026
Ca 12.847846821292654 8.826098587807062 8.848201391011866
Ca 10.738847191767807 3.8167233358602166 5.36719517517348
Ca 10.696152811639395 7.242243563221004 3.1844179690811765
Ca 11.59892501705999 10.27652139922774 5.472999414811948
Ca 9.401283321457678 3.2795124202440302 9.118294419798996
Ca 10.363890107606199 7.033449442644343 6.748964687520992
Ca 10.174319230871395 6.798975543493287 10.552470997123772
Ca 7.479971216914838 5.7112908900083506 4.532898902746399
Ca 7.183347117376199 2.513122668170273 6.23895057229041
Ca 9.238459550494218 9.968313682561812 8.508049014394576
Ca 7.13392297806755 4.959050236884422 11.91345966875535
Ca 7.930179678073466 9.471938148421586 4.831988302707006
Ca 7.497205041537073 12.801100073525566 6.740721141980838
Ca 10.342676685895281 10.370928262643067 11.893880617979711
Ca 4.086967826615927 5.1579229735160705 6.607799486405493
Ca 7.171676209492701 6.117018121956913 8.314861679217863
Ca 4.479527509513127 11.54044810424232 4.904778200004321
Ca 6.918544245393253 12.226097880093182 10.47996683796163
Ca 5.65998182156972 9.61537424941724 7.857743026910488
Ca 5.413158288225647 2.9862470698817445 9.43399958354732
Ca 4.534752416136466 7.955830527708797 4.360468797016851
Ca 6.959578330978477 8.620052393433102 11.35788733056034
Ca 3.9005583652218765 12.88370811106219 8.26510443264553
Ca 3.965688791303103 6.551888579440668 10.175668799442901
Ca 2.3054113621036825 8.893938227869075 7.351497219019421
Ca 3.58734433040324 10.233998592588394 10.906730089454694
