26
Energy = -31.76426 eV
Ca 9.71432598708134 8.496055053807162 7.135455071687659
Ca 12.715034956318034 6.17305128729771 7.6147836322933475
Ca 10.891294986115904 6.90449354295142 10.66599603940271
Ca 6.411690451265005 10.889061778924239 8.436371411637897
Ca 12.1876536129791 7.500943817860196 4.213210242990092
Ca 9.80945592931194 10.713981553763379 10.099049837925387
Ca 8.913909789325789 9.353687173517462 3.653108654367525
Ca 8.979517170289952 12.237509258644284 6.377584886579016
Ca 8.522398291144896 5.116295774644289 8.145910949879974
Ca 7.598045966884415 13.958587896119575 9.804067425240596
Ca 11.183906544925476 3.0283368276037548 9.06909081223939
Ca 12.23594899732698 3.757031284944885 5.048133796793526
Ca 6.543625429354579 11.048457324961012 12.122757472074031
Ca 9.124010705369349 2.0787169647530583 5.9372237714068605
Ca 5.310055222367548 14.018856319379777 6.850614442491015
Ca 3.8770340303514663 12.878648432942194 10.16853445602537
Ca 7.404057785857359 7.84765652820713 10.379548034917924
Ca 8.961736922236966 5.653807804396693 4.578010223576615
Ca 5.8843784275798 11.042555222265774 4.670935429657972
Ca 7.2004531084518915 1.8664422396419365 9.113303405925574
Ca 3.8875136815121114 8.882266168413672 10.182959964878075
Ca 8.263591009729693 4.365383945360439 11.692140777014657
Ca 5.0453069783077655 5.102359271968222 9.566861623980051
Ca 3.0388599165342045 10.88033109828746 7.075571779316191
Ca 5.981253706928677 7.690064656198943 6.688558925855523
Ca 5.797444711481764 3.820536097744853 6.060232156168443
