4
Energy = -1.0009971 eV
Ca 7.7653123471333885 7.8777361817954885 7.83870808965439
Ca 4.171699292885823 6.595893803628403 9.006509159222132
Ca 10.960241258144714 6.877641239516752 10.008818124735651
Ca 8.011576337650428 10.09016525386617 4.509816259795987
