4
Energy = -1.01037965 eV
Ca 7.955433581156784 8.989672125996611 6.378529428303848
Ca 11.086593518766051 5.089320470404329 9.64189925381973
Ca 8.258614616347225 7.737700238556278 9.891257444021214
Ca 5.658749402596625 11.577650664801908 6.880662768290593
