55
Energy = -410.09016718 eV
Ca 14.889970468343801 8.467734601110312 8.80643137151041
Ca 16.066984144802312 13.478276499388608 14.503238864379432
Ca 11.002090155768794 10.77849905310039 14.677940901801824
Ca 7.3638475834722446 13.895898328181303 14.64657433754417
Ca 10.306571108199767 9.854336859341002 17.40897898377383
Ca 15.224460826098584 11.659658220371782 7.807055258332448
Ca 16.69605339559871 10.733229480680441 13.521438306705512
Ca 12.509682543347411 11.751251403178527 17.42573713873573
Ca 11.784604874656303 14.77889763481418 16.59810363402771
Ca 10.300172165235368 10.409205003336696 8.751623212853007
Ca 14.447163322873493 16.20916751208264 9.581290226313447
Ca 11.068753072726976 17.162026794494526 14.66660451191463
Ca 12.201010737791218 15.592839693333843 7.415686900344723
Ca 10.503579766034456 6.466686696193115 12.662763446203064
Ca 8.254077616542704 10.183918492808841 10.734108241360193
Ca 15.090931617290577 11.089912369770929 16.16817942952921
Ca 8.22598966232546 14.572605975072968 11.695445562809788
Ca 11.050730549090684 9.356715546865962 12.037478356419532
Ca 12.93914896953073 13.195222356187905 9.032433618114108
Ca 12.04336150987871 7.99861155983475 8.338645942944892
Ca 16.396091571642675 13.85904283890117 9.550265667007217
Ca 8.420248961498045 8.444873144282903 13.06295042516085
Ca 14.46484179565455 13.894504694328548 16.871247900725827
Ca 13.8606944053423 15.801712148451966 14.641371936769405
Ca 10.067120042060454 17.173747301238972 11.852858753761264
Ca 8.246688917589847 10.037673125331409 15.490124231538235
Ca 13.233117240644228 10.233501850024851 10.15574078123931
Ca 12.875436429338722 7.031626358916559 10.878198099925928
Ca 10.012025115276687 15.147911797554851 9.464721155388087
Ca 8.524216605776333 12.66186840897108 9.373637090662024
Ca 10.4896026587502 13.126650452592502 7.26331484020438
Ca 13.705988200415467 10.311092946621923 13.384848245799887
Ca 9.563939802658641 12.630659967636886 16.43896045910459
Ca 9.813676150681015 7.629239436706484 10.150672998054212
Ca 8.186535553358192 16.600975391741887 13.901033759227257
Ca 10.403414319860175 7.8126999284885255 15.255266957242908
Ca 12.958654892707889 13.058773767401277 14.387920491881356
Ca 15.404100920569348 8.275293178593735 11.95495676877769
Ca 17.46127639611026 13.117710707177528 11.999609330700164
Ca 12.970346257305025 8.931163688323549 16.436969309182256
Ca 14.510890413620976 12.845459864005946 11.677036724801733
Ca 15.467047926290219 8.461902325961807 14.920350556787463
Ca 12.34050812523358 15.096799306716518 11.672421031310748
Ca 11.919014610291411 17.4534491961117 9.728047107717495
Ca 13.07737640286396 17.700215541928863 12.368681838296766
Ca 9.008145430088753 15.610792213961652 16.344318764454147
Ca 10.229627495405236 14.336294064350882 13.904004441421538
Ca 13.066466587714885 7.290173565452116 13.8666493696949
Ca 16.27735609628518 10.767618831367042 10.486674858852664
Ca 13.179761967370677 13.14098655524327 6.024853875390196
Ca 8.588173106845147 11.80910157646935 13.075928104110721
Ca 15.01999102442844 14.701132869730895 7.215060592275647
Ca 12.720735411134257 10.535480971680634 7.20279978511478
Ca 10.996438886072086 12.362777672861592 11.31525088302415
Ca 15.594366189506536 15.495500230722168 12.22659461877737
