55
Energy = -406.56755534 eV
Ca 16.37924900184118 12.520994357237589 10.492332510827886
Ca 12.233235703149509 16.226840019812972 9.18474557587756
Ca 15.241155250008829 10.204223663639139 8.840817751518683
Ca 9.605335028161795 15.71192577120156 10.24556787859006
Ca 8.257707244760766 13.328986737513222 11.229488636291332
Ca 12.743354923975348 19.029322461732754 13.0347916352247
Ca 11.211248879387561 9.535079165507959 16.26652870005183
Ca 13.925755241214636 12.888341950674297 8.822468646792162
Ca 17.507154987620865 9.890658412494933 10.608760163478937
Ca 13.101543649919593 10.966499933846292 6.631440055926385
Ca 9.095526914798647 15.977260429188911 13.130075179509141
Ca 7.515286577722965 10.624658520974032 9.570855043612074
Ca 14.560537739729549 16.898361699239036 13.577660159162535
Ca 8.313550612201308 10.303163894911082 6.957280147113215
Ca 10.3017087308022 11.828774830716664 5.6562539903943465
Ca 12.196130305902031 15.730714263928991 12.205720915363868
Ca 16.04932972725157 7.505185563913802 14.00005080361001
Ca 18.24859966631816 8.917979559618427 12.96517581605381
Ca 13.556058743456845 12.911045622962448 12.42991082866205
Ca 14.775007865157244 7.931805925378534 10.84970305272573
Ca 17.846107846167346 11.83544279130581 12.983131175005228
Ca 13.31157972241677 14.794182491791984 15.23583510152268
Ca 6.712077821146092 11.065896409529252 12.601359251632166
Ca 17.114100671137734 10.006351311871846 15.262591228137193
Ca 11.672101154136426 13.699166700938038 7.236186035634712
Ca 9.26403172711758 11.964840131084175 16.78886126384596
Ca 7.786069923385272 13.446808326118008 14.43507098131849
Ca 10.750850555169347 18.13969973663914 11.2528993782298
Ca 12.220991493488006 10.35893586336692 13.551835794793032
Ca 9.942760768527224 10.774899003439671 11.299652158923427
Ca 13.78055941555248 17.961664163041473 10.769981862642492
Ca 9.257057851554533 10.617830682537681 14.167477570179932
Ca 6.691650029961308 11.058411586540585 15.61903595342052
Ca 8.833335216334582 13.144733883869973 8.120815029614791
Ca 10.327096212189067 14.770533216802027 15.677563959083647
Ca 14.808617725122764 15.259549878362925 10.659573366218975
Ca 12.113474763324263 12.285480791615083 15.89123853274336
Ca 10.028888555524292 7.7826138998971395 14.12807625153054
Ca 13.345772156164111 7.679895543807082 13.462235208447595
Ca 9.480686395467075 8.34128482695226 8.863278110960781
Ca 10.841420573722404 11.021646704341334 8.476678683753317
Ca 10.829775339180598 9.046031983870112 6.291764570923754
Ca 11.297096053381784 8.03074314389002 11.299965461127918
Ca 11.399554890972203 13.421188648528648 10.229243954852473
Ca 15.999119256614204 14.249733675191827 13.113323576092878
Ca 7.003089348162095 8.579287903752283 14.206773752151047
Ca 15.29121082871481 12.28452250460654 15.07316281732015
Ca 8.494856000917581 9.007105766916144 16.570546689117542
Ca 12.987852785464291 10.392053858311728 10.576005669492732
Ca 8.115764219788133 8.474946468470462 11.681078181619727
Ca 14.336718558658037 9.447430594645319 15.596360361199537
Ca 12.624035869566724 8.369971251800155 8.411127760075757
Ca 15.336213419228866 10.251309065588051 12.752121039339103
Ca 10.542912399916148 13.268265042150336 13.214781221736603
Ca 11.74768115844547 17.188306863932805 14.753328056526737
