55
Energy = -408.10192636 eV
Ca 7.006090647756355 10.541406153663887 9.313548002991253
Ca 16.769036449419463 13.233635316819644 11.222277384620527
Ca 14.126374872026672 8.47197636648613 13.844894411831714
Ca 9.673408497012211 6.704102034410113 10.889057438490441
Ca 14.064997127694648 13.438978933579335 13.535238137177638
Ca 10.211638814666735 9.14695070991271 16.24027602441363
Ca 12.47131031408438 11.587588945074977 8.797762315321616
Ca 11.402636971282543 13.872174190906309 15.879718294632891
Ca 14.178453115344999 8.511399301407204 10.85383048173387
Ca 9.44761597449689 11.420104393133164 10.680242860112703
Ca 9.463207337116936 11.141164699556251 7.571630975618183
Ca 10.925108523609117 9.153691236385324 13.055800498681615
Ca 6.894421325551271 12.665378329598346 14.639119811656101
Ca 6.7445325943344345 11.319115842156078 12.21035950468441
Ca 7.6611273605563746 9.73645559061142 14.734396729656114
Ca 12.183589986881072 16.2013168979689 8.820277103816672
Ca 9.189529965770861 15.951934110500725 8.68532092511934
Ca 16.2381501142341 13.480348694002972 8.420936102769428
Ca 10.206808554652714 16.55946121960263 11.228619381782105
Ca 12.179505848315053 6.57870497172288 12.170501697649454
Ca 13.90067980605658 13.550279962210192 10.44154296876412
Ca 11.830908619212698 6.918949704296413 15.075022883429227
Ca 9.233361904488785 7.041323588185785 13.856132890277557
Ca 11.231428180746617 13.97739134448064 12.754043180063665
Ca 15.590803785891097 10.875907453824327 12.69704652497572
Ca 15.682182183992905 10.862825705810605 9.670433812375755
Ca 8.943129447882434 14.513890931669252 14.872088757194579
Ca 12.32788078399043 11.16166135546491 14.648570169672833
Ca 12.63375699892018 11.193381197298569 11.746232509606923
Ca 13.136977158656679 8.849410351216815 16.609574910551334
Ca 9.116183380978988 11.863396828532371 16.550061793629332
Ca 9.473876523713775 11.772633285373807 13.586253749818962
Ca 16.83383860914969 12.961554211097075 14.322229296692583
Ca 15.887287018957167 15.69898367310194 12.619551089122435
Ca 15.269244234106948 15.788621008566292 9.692755261081446
Ca 14.211547425147153 13.416298172269567 16.521005088417702
Ca 13.412067720523458 16.209467952339367 14.828283232044102
Ca 13.00507783558893 16.4186546517575 11.790315114294172
Ca 10.596396480281053 13.936429102495955 6.955155878187548
Ca 11.264423770404116 9.162703683615442 10.093853472242515
Ca 10.883348482800464 16.52385090554423 14.090157576414063
Ca 11.080879910443125 8.740125054585985 7.102614217293294
Ca 7.976673249463025 8.899107635136678 11.761117976175367
Ca 15.078627749284527 10.745862513793112 15.642534246244354
Ca 13.813245023733545 9.058498530708995 7.866333348688149
Ca 13.566890665590746 14.114475542797397 7.2527762035237275
Ca 12.117502461016908 11.323693489830003 17.484934277947403
Ca 12.111182277710421 11.363208962862982 6.035550086273428
Ca 10.724715775464498 13.8457347206233 9.889262784525831
Ca 15.922931788585089 15.252612714335791 15.334082937773388
Ca 14.926036124325366 11.57274064877568 6.833639386995796
Ca 8.22388451829215 14.129338090197699 11.868356116581046
Ca 8.604574908088564 8.429327336208084 8.767572902545897
Ca 12.429651753069853 6.804025245545944 9.23814604101456
Ca 7.937549048635791 13.324036507948849 8.725251232802028
