11
Energy = -2.83797492 eV
Cd 8.48392359239849 8.128570322689326 8.259607681644969
Cd 5.368156776096256 8.596511112985715 2.967409236354912
Cd 9.045832218568956 5.132338116215 6.492161658304264
Cd 5.551606168087149 7.208231039406106 8.887489984458872
Cd 4.076263617793526 6.59071001962932 6.326579977526012
Cd 6.063126992520194 4.219073791915614 7.125428700410321
Cd 6.665752680837632 6.234434423122551 4.682245909928164
Cd 7.496495335102417 7.93937013319006 11.26456768807533
Cd 7.9402222452997 5.32117386035607 9.45614847675541
Cd 9.071084926594683 8.084025760345313 5.306586005814864
Cd 6.135481159890212 8.994975447495753 6.159731680399868
