17
Energy = -5.20494735 eV
Cd 6.320720331101323 5.126488874764824 3.686023994373909
Cd 6.672585744526659 2.0239420518477194 6.61975367815459
Cd 7.394503563143156 8.763475335131396 4.5882336179722545
Cd 8.19990246935201 4.051827904472709 8.218681631158102
Cd 7.402957477986814 6.407024958972803 6.430183285448205
Cd 9.08660078516461 6.231442839781218 3.7263465837159053
Cd 4.467285310229756 3.7567896039904642 5.761824783944873
Cd 4.347638693019201 8.94603764250298 3.968983559678554
Cd 8.648254225208301 9.679060105132917 7.459727537175322
Cd 9.044959652898413 7.027483578797192 9.006852574738373
Cd 5.556257239054858 9.311741005729212 6.908136311547937
Cd 6.079420248382771 5.9495419766700115 9.265082489263596
Cd 8.909376417754041 3.555381018212408 5.20144903608382
Cd 6.925616022890513 9.111259621375106 9.917098925757138
Cd 4.2166265035824555 6.490474508764308 6.850025574692807
Cd 3.45805577570742 6.069774149254803 3.797999766828452
Cd 4.016805825644883 8.245821110247253 9.34116293511291
