19
Energy = -6.21251297 eV
Cd 3.4709279254766745 9.103781208058766 6.026486228220557
Cd 7.051314632634972 5.173683603755128 3.0314271312807284
Cd 6.567603962225189 1.2241898139292147 6.038737611594956
Cd 9.670824123042639 8.152594328554956 6.945308947522015
Cd 4.705810615204712 6.59293733895996 4.8189910308503565
Cd 6.1455097570581305 5.215967060681764 8.620232045896064
Cd 6.60811143019528 8.592634301269593 6.641417881834775
Cd 8.206056399969865 3.038174547555498 7.822825578008272
Cd 9.31343311241939 5.47920386240651 8.923716192112419
Cd 6.9600645506467975 7.873361613909669 1.8114343371754826
Cd 5.4813769844244336 9.417621142246137 3.8762674541141315
Cd 3.3273560657447963 4.897448976690009 7.283890532103815
Cd 5.351421296761654 3.8189901607484464 5.227067504131676
Cd 8.029504203155943 5.542738287936763 6.00927768475725
Cd 10.297546366741939 8.154800621943048 9.83324031603222
Cd 7.334513697510948 8.065943821253487 9.698774342506626
Cd 8.713361447329323 7.987306678563963 4.216889663566485
Cd 1.8006285846355445 7.388117839265042 7.842052055152216
Cd 4.55313291024597 7.869002857696253 8.920461528564015
