18
Energy = -5.53686341 eV
Cd 7.038636231979065 4.800171232992584 8.322620017103093
Cd 4.407349248244405 6.209449143563147 7.298613267371506
Cd 8.482173511807403 3.030401228589206 6.0730907609319855
Cd 3.8705802834227345 8.375905465358322 4.987899993249858
Cd 8.311787532178737 7.567310387192459 8.941875539755744
Cd 1.9625761821231194 6.071945947465088 4.466250019821155
Cd 4.070114544428303 6.910865352715478 2.323684520699767
Cd 5.109180797716789 11.486114621169936 5.439879978358551
Cd 6.438633600921937 1.5620989170669504 7.715966556983631
Cd 3.68964919547341 3.833040010151305 5.572193328252814
Cd 5.254076408938815 4.1737064163534905 2.899581301912182
Cd 6.614673571711334 5.293277060075301 5.222168466507617
Cd 8.983472563938959 8.915040854137711 6.2174332145940845
Cd 5.902459875774697 1.8843980480638376 4.766613954504175
Cd 6.0838195957576815 8.721710140541115 7.131843737040699
Cd 9.331107772385232 5.918593209020274 6.344694499516796
Cd 4.28142267471678 3.4292658277256725 8.534500545927157
Cd 6.850850777845066 8.02853578753348 4.028182939439955
