17
Energy = -5.40416943 eV
Cd 8.241752641017035 9.610825904338103 7.446248514680614
Cd 8.653500153096669 9.168018914613727 4.422095583760864
Cd 5.779000269774416 10.26383564789351 5.796494419249096
Cd 5.569595955365191 8.727747991295796 8.806917738130714
Cd 9.751990583398118 7.005393124169055 6.609569753286335
Cd 5.929155101141856 7.841086125443037 3.8289948477648372
Cd 6.706308098583249 6.71163688121928 6.862757463724249
Cd 8.32829356066754 5.030391144946909 8.679068632667274
Cd 3.723004078179832 7.8113271478684005 5.970992819010212
Cd 2.967105025266921 7.055534162167102 8.809422191731304
Cd 9.472437263843732 3.8839382050591778 6.070139417402376
Cd 8.29528639535522 5.934623436017873 3.963578741896756
Cd 5.159942216802327 5.076001685586157 4.834717536728188
Cd 6.061451120007371 3.2108795084105184 7.359580403515256
Cd 5.440034439656204 5.494388060264576 9.510608427237335
Cd 3.1243462766207433 4.641463477324557 6.993656283480062
Cd 7.176653720698427 2.9127654828569187 4.415014125209674
