13
Energy = -3.48446964 eV
Cd 5.644442464005199 5.96365205190479 4.2021598616679094
Cd 10.16613264440755 6.961701728881342 5.298623438723116
Cd 6.931383664972728 8.332809178008464 5.676422299104059
Cd 7.407838742587205 5.271855690777936 6.61284667711162
Cd 9.435261476384017 9.999324208318738 6.395666270556926
Cd 3.7233166074662623 7.843074780574259 5.790747092185572
Cd 4.201510990264876 4.804934633066259 6.720429682056456
Cd 5.43004341940342 9.031580991812872 8.30536989549479
Cd 8.141215365506172 7.7148122716919625 8.592342029671068
Cd 3.146739439341425 6.962284100334119 8.749802514934279
Cd 10.162790621245653 5.0177938763767544 7.988798403418021
Cd 11.28446258404985 7.9836531885324735 7.990111816799484
Cd 5.957357359638086 5.745018678992484 9.309175397549138
