18
Energy = -5.58967968 eV
Cd 5.566380790677536 9.685759870773403 8.533882235128837
Cd 3.1913804934277628 6.791557273422427 7.9557254087087745
Cd 4.023215717373925 8.954537463139836 5.781873153607794
Cd 4.519524784713584 4.143011652796544 8.935642518913298
Cd 6.1718109505763605 6.761127139582567 7.495064027816787
Cd 2.3031668480460255 6.598538219687514 4.8561668832325555
Cd 2.346696358735702 4.053932364883391 6.754642065797351
Cd 6.671887926807169 10.585351156299126 5.700680883745331
Cd 7.692657301927725 3.0943121368967548 9.101091025502537
Cd 5.371065667474437 6.4140077185513515 4.441966529240458
Cd 6.165681201387584 3.8900313703285674 6.350721810140044
Cd 8.05738451949918 7.930980193770825 5.279067139644258
Cd 3.9899409471008433 3.6673318487780393 4.236054064865184
Cd 8.83820345827804 5.45379851574281 7.0413373692493755
Cd 6.8774045904825565 3.930917117601121 3.2217564800378407
Cd 7.421288582860678 7.088648845927207 2.2803477766016202
Cd 8.887096538655706 2.8401262744120666 5.371454463563529
Cd 9.457818031983539 5.469586794381461 3.9364709697459364
