16
Energy = -4.65664628 eV
Cd 5.616282496916212 7.307409012019095 3.9353015929299966
Cd 8.663794852760104 6.203760578149301 3.840235104739513
Cd 7.79759151800526 9.322490740610261 4.310515199660814
Cd 6.631194658577197 4.4238873338937905 5.444372777845278
Cd 5.1205548464514745 9.58184909019106 6.3658638455841885
Cd 10.232926381562837 7.752458818914213 6.057016525111021
Cd 4.309383343628853 6.154571641169547 6.486011301542494
Cd 9.640529840867668 4.657982790651142 6.42212442839712
Cd 7.256078123958495 7.055148514964971 7.203208588394234
Cd 8.497968159633361 9.980173310638607 7.245932549870826
Cd 5.616920282124625 4.777394495632907 8.893659369039792
Cd 4.16697325597567 7.825947534020433 9.086495482405642
Cd 6.371385406877625 9.796344785156181 9.48780329223148
Cd 8.729767088783221 4.90250726380912 9.49191989744876
Cd 9.294706393515716 8.02571055246045 9.494753115148535
Cd 6.724575076197475 6.902995263554836 10.905418655486372
