16
Energy = -4.91563933 eV
Cd 9.47572162192708 5.552110579513128 5.4064607094911565
Cd 7.168326287199763 3.7268540430844195 6.021705484962155
Cd 7.556783990141108 6.20504754996182 7.908782142386364
Cd 10.453935893477828 7.078814003167084 7.983017667064407
Cd 10.104592920016332 8.605152837882471 5.364432653847001
Cd 5.903444805909857 5.3034665670211485 10.258149926925183
Cd 4.3290579065517605 2.990966497060068 5.013370804991919
Cd 8.231408068859617 9.277128789767742 7.837286676231333
Cd 6.456617355172517 6.527669678679788 4.926145164983874
Cd 4.744397930299853 3.5793644399666253 8.030622836734452
Cd 7.19403025057385 9.51484923409173 4.8250634808543635
Cd 8.61571405305646 7.419959404091435 2.9777117384297873
Cd 5.360587439643599 8.386498086741902 7.113424922386752
Cd 3.570406124939235 5.830700396604126 5.683280430172301
Cd 3.548660339978586 6.465667875410677 8.754748050382322
Cd 2.077744372951816 8.327179377654973 6.687226670855726
