10
Energy = -1.97184446 eV
Cd 9.612563691204624 9.780113419484026 8.153923211863496
Cd 8.611803528179943 8.105110963211 10.914852377570227
Cd 7.477582016552249 10.840605192978638 5.9725828052574865
Cd 6.756611692936125 7.530637138704218 8.404232457958576
Cd 8.296589200969255 5.129524905025701 9.84922634554644
Cd 9.109557618139231 5.473274565129116 6.57817861719205
Cd 9.653543461684102 8.274488326390397 5.547614006162547
Cd 5.806436551648037 6.511431772618712 11.44812470304328
Cd 4.727442659355926 8.86441875949145 5.659162128492277
Cd 6.919566507443044 6.5309574632571055 4.457197939399857
