17
Energy = -5.16891087 eV
Cd 6.670297800722034 6.293378151341699 9.773320075524884
Cd 5.856425469440324 9.205875555663358 9.136022369275155
Cd 3.8072402462518538 6.702174867317237 8.79546008660073
Cd 7.744494780946069 3.641366246153782 8.755700972740081
Cd 8.666993596711759 6.320063111594544 7.418730229885747
Cd 4.671489267225941 3.681065632898106 8.337331407877842
Cd 6.731212944519766 4.430888080977284 5.891586261079829
Cd 5.812607826764704 7.553887417312175 6.548064906782301
Cd 3.650142518219717 5.387613473432967 5.9641966985405395
Cd 4.89447817043212 1.887304552317189 5.547080924404456
Cd 8.04297646189048 6.96330534220053 4.471809412030327
Cd 4.400952949860481 7.495007385580115 3.7167446952140035
Cd 1.8877062195168912 5.787563255009047 3.2612561473608523
Cd 6.687563431435137 9.243854115998364 2.745380922736434
Cd 7.486135259786256 3.502082289590116 3.032327598703748
Cd 4.488420458191283 4.144010411735431 3.15485662386315
Cd 6.629140496826249 6.20800621461899 1.8758847402695702
