11
Energy = -2.50059444 eV
Cd 7.6327229658572655 6.21629652457372 4.060098489844136
Cd 6.185441455247133 4.6007014163157764 6.364831938721802
Cd 8.635639156693813 6.4335035830252 7.006559246188919
Cd 5.805490125115787 7.702908845009296 6.135454881202303
Cd 8.217802499500422 8.483819263600257 9.594215255267269
Cd 5.361312134388213 9.342861827097984 8.81970424200564
Cd 7.7447227831033665 10.991189945531023 7.608425827334414
Cd 10.318030506549839 6.248022881483193 9.784552184852505
Cd 10.868537252023945 8.624286606926777 7.803464611133866
Cd 7.24522627052969 11.266524864713437 10.861348528374752
Cd 11.118753345391369 9.273074159847221 11.129826736271426
