11
Energy = -2.61266506 eV
Cd 5.643863909667595 8.048553950024994 3.9190344148571876
Cd 7.552600600412597 5.582634283358437 4.270144918164608
Cd 7.580489572802349 8.450687878557282 6.218756599626175
Cd 9.050691342248001 3.1199582806876562 5.277261690604838
Cd 4.681706218073301 6.661632422051781 6.411930781015716
Cd 4.425373064060301 10.026865755724694 6.224653823565521
Cd 8.967119174109714 5.2727575061818115 7.524581840624379
Cd 6.328560666574048 3.8326971202327162 6.702925222723842
Cd 5.471112897856659 9.246362003422536 9.161677959406207
Cd 8.371981745491029 7.918587820422369 9.15754759852903
Cd 6.011566383395467 5.9243285540263875 9.216550725573297
