12
Energy = -3.02311781 eV
Cd 8.50297632936832 6.592094496630751 3.8423677909960587
Cd 10.48877714530644 7.287044659327572 7.067421273209954
Cd 8.840547620635448 5.967467453110712 9.41334540659896
Cd 7.895709604374363 8.503948229695492 6.2571883535688375
Cd 5.748939812884216 5.428591399228252 5.011624395404161
Cd 10.01587631887606 9.018628676547793 9.608498726796528
Cd 7.923571034247223 11.207292618559775 9.928962029783909
Cd 7.897005522868661 8.601595240122679 11.84591688384293
Cd 4.821874017359446 7.770391184713619 6.635703382904376
Cd 8.385587333575813 4.926723691502066 6.463178480724369
Cd 6.027752032112327 10.385005164941708 7.724390625039033
Cd 6.348197609590875 7.691586464458993 9.277083105794118
