10
Energy = -2.41151817 eV
Cd 7.475264479284871 5.645285933625491 5.840763041156787
Cd 9.200648104597711 8.168436089800993 5.209645397980779
Cd 6.145470951812235 8.392784984895332 4.8551396585401525
Cd 5.105331648302178 7.132189496387707 7.6812448139530325
Cd 9.59915584173145 7.222913040320133 8.25578355781919
Cd 4.844192013991909 4.109441611862375 6.659790914083989
Cd 9.910881081518582 10.264896184359179 9.114626442806228
Cd 7.350321436774911 9.73263678999322 7.365834811569671
Cd 7.139731211998145 5.203904756974342 8.960517947684108
Cd 7.249296447366208 8.14780432915925 10.076946631784397
