23
Energy = -7.99550048 eV
Cd 2.559108843030615 5.315906746617796 5.24950941986775
Cd 8.928817201397312 5.583015493599236 5.043899348162953
Cd 6.226221546206991 5.8586359896248466 9.761972230314859
Cd 3.797115859164995 5.218258472867419 2.26597210315214
Cd 4.767928840909446 8.534401762874479 9.658550049115929
Cd 5.287444557497862 9.112579773557533 5.943259685266889
Cd 9.06029690078851 5.54684307125611 8.287900795419354
Cd 6.720560835753359 7.762280770159231 3.4671938170151093
Cd 9.735623466359286 8.155666279460725 6.840951446999236
Cd 6.737922718412209 6.719110136448344 6.786308718337238
Cd 6.491630389052846 2.5174458816070553 5.7971758974643794
Cd 8.049064066776902 10.122574507654937 5.248958741651484
Cd 9.335650950737932 3.013105044897696 6.54295921635409
Cd 10.472832945762985 7.960640996143473 9.858132347326846
Cd 4.649937578021033 4.6239464323646295 7.301758588246925
Cd 9.764304719154966 8.154840777068106 3.7439702854019994
Cd 7.645720392275784 8.251771338629597 10.981974767351652
Cd 3.103215678443694 7.3994427113324175 7.400340506019279
Cd 3.566513397960069 7.78265122994828 3.9610490645349934
Cd 7.0841745372093845 3.1890595984607386 8.71887008292736
Cd 1.4468116902462174 3.3120431470330636 3.200715238072245
Cd 7.312383580684827 9.55931394778643 8.243372899449264
Cd 5.954470202446062 5.004216788900683 4.392955649841312
