25
Energy = -8.43989689 eV
Cd 6.331550727944851 6.529370500238638 1.09126171930103
Cd 4.874052925120167 4.015268191707971 1.7196791439397476
Cd 11.12302780790291 5.238636451076007 3.1521158732572774
Cd 4.960998252130454 1.7299354553784299 3.716686823914157
Cd 4.457564451124984 8.311556049322403 2.5519205647523515
Cd 2.0237790796234263 6.726572053318991 3.627259121930005
Cd 8.290403062262897 6.547385230119001 3.333289814642443
Cd 2.5680463623379137 3.7229191209329064 3.5798775310790765
Cd 6.857063887984346 3.9358881248561626 4.126758528448895
Cd 2.732791176435924 9.521410448180655 4.747318077629452
Cd 6.223524214261388 0.7315468652155167 6.283642799375336
Cd 4.834370184952724 6.012048687506752 4.844926332274001
Cd 1.0374331785700253 7.555219380190269 6.5081775351246
Cd 0.3656794416215553 2.4080876528013873 5.383042011554931
Cd 9.360415203463607 4.571915869207078 5.564940975464838
Cd 5.7413364901748905 8.920769818553408 5.334416315461611
Cd 5.7739425556130035 6.968715026880105 7.784278230022268
Cd 8.317325076856648 7.51138611374661 6.173097600993495
Cd 3.3336336027502775 1.9166196595408311 6.307377298701059
Cd 2.487990601330798 4.9313730205583814 6.467197563295789
Cd 8.621257883112262 2.141925602958012 7.2083164881949555
Cd 3.5133940638965813 8.823547681195336 7.700167916507785
Cd 5.453116309837736 3.9637792078862644 7.072668432277476
Cd 8.069007042507204 5.076885594350334 8.276921441580157
Cd 5.509848577199661 5.04879035329309 10.306214019292812
