21
Energy = -6.83867314 eV
Cd 3.1717519723401137 9.444367983076667 7.153291000032024
Cd 3.9848574160684507 8.638846735015385 4.32287943768558
Cd 5.3025759063703966 7.651608773303255 1.8398529419104557
Cd 2.988163582441685 6.387353351305775 6.139021872756397
Cd 7.300788186504903 9.040662433955761 3.5867074482207792
Cd 3.7960822304999677 5.54319093746887 3.282637282809857
Cd 6.25950041439746 8.78275601058675 6.437896576721265
Cd 5.223925312581103 9.104738001921119 9.38039052659781
Cd 2.8753616469327787 7.106134955272166 9.112160723287944
Cd 7.07352101554207 5.750539142122611 3.3313243219966022
Cd 6.13914556253808 6.210598810361622 8.739770990743981
Cd 3.9810441312498583 4.2778943386083235 8.359063652645576
Cd 5.627887732951606 4.766211977088417 5.780579929758467
Cd 8.221814185033603 8.250733094675882 8.662572369480188
Cd 8.719845308856403 7.089486121813489 5.641490671103094
Cd 4.7744901964447255 2.7809622498724176 3.0338522926198035
Cd 8.771868098687934 4.0140648713146945 5.372756081942385
Cd 7.153483704189405 3.303649946415965 8.139328888266087
Cd 9.36086636481817 5.4023469251024006 8.195873746070646
Cd 7.5179874541261595 1.891108035566396 3.6309786970749367
Cd 8.333247050563827 1.0782804960594268 6.470901527629925
