28
Energy = -9.59801819 eV
Cd 3.567581275404283 6.158992823255515 4.951099353982001
Cd 5.224994553627527 8.661250951424357 4.364141872487866
Cd 8.07837322545395 6.381086413083759 8.76641299177001
Cd 8.572983380516487 7.887473315886509 4.410027556957383
Cd 3.283590888579674 11.43240954056179 7.819297994367526
Cd 5.3072138167789875 3.838963206882369 3.5979838629455685
Cd 7.652817437452856 5.488162931122314 2.3945699949574943
Cd 10.991224956842997 6.222282767637599 9.015071387946964
Cd 3.7392689364779104 9.932308195140394 10.543907442641359
Cd 6.54418730297288 6.216622779908941 5.890734758575601
Cd 9.846110430487073 8.617248665169726 7.476657691582908
Cd 2.409674882176143 7.317701458219801 10.258478421073228
Cd 5.97562528870693 4.3787221378688415 8.184936682148559
Cd 10.026245084645781 5.78508194638078 6.175674174166747
Cd 6.2390098153429925 1.7004721407371546 5.568247841299705
Cd 6.066967607933876 10.69227598052662 8.89356054969762
Cd 3.856737282236626 3.3700456277137785 6.282197627168524
Cd 4.607356232431304 6.49395807164828 2.1442709104621738
Cd 5.388531308365547 7.488752833339803 8.71496507204362
Cd 2.8877680032823125 5.630506798322586 7.912125496419482
Cd 3.2041387230776612 3.7958889931631616 1.29408231052881
Cd 13.368253508398569 7.790386154573983 9.912856233705645
Cd 8.223310533125785 3.870421474503291 4.821302093259918
Cd 10.5083369590128 3.3521385359970424 9.233616190030705
Cd 8.31037636679957 2.4703600282152847 7.571845516561958
Cd 7.186122196239058 9.53312837610294 6.460959684226861
Cd 7.002571353474116 8.329670561618027 1.8979934333069128
Cd 3.298244055606451 8.531302696444993 6.810598261135
