21
Energy = -7.22220012 eV
Cd 9.894573606040554 2.094948383808654 8.084822730959539
Cd 9.738469709752378 5.01829202820291 7.464245606976189
Cd 10.005473297104023 7.562915565117358 6.08828118862972
Cd 10.485652666061082 9.722305751725262 4.114508870345797
Cd 7.637114618954515 3.9264853326799325 9.475926187162768
Cd 7.375906184557261 2.7469822129043893 6.5494764350573424
Cd 7.9004838504391355 5.5312851454898215 4.932298006428475
Cd 8.185328993739796 10.165474890565209 6.189089830794609
Cd 7.853787632644865 8.455577253629121 3.4806617827448463
Cd 7.531635566613391 7.194352326578148 7.974524614987331
Cd 5.582588528752476 6.019922643730614 9.982913244489264
Cd 5.308753794543318 4.989176569627887 7.10448692086899
Cd 5.907007581640768 9.749887742937032 8.051253273229772
Cd 5.515441918988385 3.4827408054504523 4.402645804180338
Cd 5.757175403347362 6.542545110362913 2.780914500461107
Cd 3.3431881635737524 4.8622353624999395 2.9570577281405828
Cd 5.587486009864473 8.018755354699252 5.55231905235686
Cd 3.989507846671968 8.570799071211908 10.00799826115845
Cd 2.9050279272610133 6.361981567621558 5.45864468364811
Cd 2.7457156323221925 6.144453248423688 8.501511555592813
Cd 2.95371522622195 9.04291779182815 7.050453880881756
