29
Energy = -10.56873448 eV
Cd 3.1852279034772306 4.012249813303406 9.65362796757223
Cd 5.6133090847574705 4.78100624649052 4.966059569963807
Cd 10.001384359434056 6.903947853031782 9.057672484782982
Cd 5.926181071144511 9.686283651894374 5.7521086225347995
Cd 2.960471852319636 7.0002018902867365 9.54975442266911
Cd 5.608703148006322 1.0670380847439884 5.686417543125336
Cd 4.623157760616867 7.627712718983608 3.7148010438184387
Cd 7.477649316422239 4.052673421215675 1.267519121850881
Cd 8.437951625391209 3.834308447537744 4.132060231568523
Cd 6.236090041233118 6.478717869427471 7.415573284823425
Cd 7.9531630300733696 4.562794751438128 9.126472753007919
Cd 9.5276299766764 6.139587660431106 2.4229230360797067
Cd 5.375449015300661 3.3451350653775416 7.69739124726224
Cd 8.335247355518653 11.977080093990379 6.661630436429676
Cd 3.262765255350521 8.338481178771591 6.268355348901217
Cd 8.364492140952695 12.528743548099097 9.73418865015569
Cd 8.199156324967152 2.594773313567602 6.84485395822935
Cd 5.762684708420151 11.795935717766444 8.3615119465488
Cd 8.503531441763766 8.770416481716763 7.10308614663735
Cd 4.541637755151299 4.992244453819975 2.0970592079260397
Cd 6.790908691455862 7.094564240177545 1.5843788859744448
Cd 5.539461966390935 5.361109134214333 10.82683282154417
Cd 3.354523526525768 5.461966639782453 6.816045090858375
Cd 7.559958512564006 7.222725317580796 4.594378684566155
Cd 7.273718673049203 7.707371952978566 10.323756440683287
Cd 9.25412973271469 5.544894131188071 6.5086943178701935
Cd 5.698095805023493 2.329790498752814 3.0281098180743276
Cd 5.101958369693066 8.921992505804594 8.770153656631045
Cd 9.41105954970488 9.745951311725593 9.914281254009364
