22
Energy = -7.54792686 eV
Cd 6.085759039419251 5.7750909977508025 3.2879321836019297
Cd 6.598211499880414 6.758244580332452 6.484442680722307
Cd 3.9518301509600797 7.2182831601725574 5.3960524834499255
Cd 3.4324307599811346 5.115325366138278 7.5905498421702635
Cd 7.3187284195021745 3.894197861085928 5.736006254831125
Cd 8.23439198653912 7.862131153371752 2.5362430106160647
Cd 9.162870720750805 6.133692002109051 4.773968795479404
Cd 4.801906935725229 7.687273253425171 0.9417781016639312
Cd 3.0642389215983337 8.879211377809064 7.783313708731361
Cd 5.432538449563719 10.099544269753086 8.962170342964216
Cd 4.303309605298929 3.970910083280137 4.927498012411722
Cd 5.698565568759781 9.00232085566545 3.6154234945728403
Cd 10.455832935465907 7.515202564734262 7.3563666471246645
Cd 9.626120052281994 6.135512160449673 10.045306601976584
Cd 5.613190830683945 10.070210397480997 6.351728881836553
Cd 7.039579533353357 4.848699542518489 8.813385821651087
Cd 5.413114529453451 10.099544269753086 9.335726101779443
Cd 8.412401392163789 9.019597264362272 5.637219969345715
Cd 7.817781259608516 8.320067098298743 8.754312582428533
Cd 9.781190549352953 4.533689841234525 7.405698542872072
Cd 5.020450933480023 7.01929136927274 9.201944955458975
Cd 5.206976777559648 2.663719239666497 7.534351835694493
