21
Energy = -7.167097 eV
Cd 7.051080295289305 10.47592940656042 5.022202434167096
Cd 9.280793546753953 8.512187721322285 4.393194195047832
Cd 6.386008713919663 7.952903643163124 3.321364225683725
Cd 9.252198137530238 9.5407674356749 7.270639662996243
Cd 10.321682524499654 6.737240886683384 6.785442284298136
Cd 6.368390320007104 10.095442466325327 8.000432571520198
Cd 4.021657547322579 6.04710158471761 3.0578858266534645
Cd 6.54803044420558 4.430517952248211 3.4547957607066357
Cd 7.6391714974017475 6.216435372188098 5.541714915915463
Cd 5.250059858154097 8.05577855280303 6.201372364366301
Cd 6.112422832862042 1.3193307687580702 2.933388114634113
Cd 2.9362787192724022 6.262922405097944 5.817999140976705
Cd 2.900932859470677 7.069595773289108 8.673974935261041
Cd 7.578377902987769 7.306111554873669 8.513742023497121
Cd 5.33108713023335 6.3756450846699 10.484857035218521
Cd 4.437135234036098 9.253563036412263 10.003650043378695
Cd 9.830906379422313 3.97470473223294 7.802463155518609
Cd 7.419494674508188 3.131271113450498 6.162588946249766
Cd 5.373037727758057 5.246567540825136 7.555637747917962
Cd 4.353884838224144 3.5197636985321337 5.279506644565553
Cd 7.522272641843982 4.39112309587409 9.638051797128952
