20
Energy = -6.49592995 eV
Cd 4.033520507527644 6.230437178768565 4.467723035857801
Cd 5.278870603001936 5.94977838607179 7.182787906752578
Cd 5.769967003106121 8.602545090704563 5.130628272672239
Cd 10.036275395291122 10.429382198385763 4.5557608969175
Cd 8.262060547350327 4.921797622731211 3.7699224212406723
Cd 5.306973213486157 4.201887114074977 2.6489167278625283
Cd 8.462338444583976 3.541694562267313 9.415033547349624
Cd 4.93909114422601 10.260307085845119 7.6455557962645315
Cd 2.891803010980748 8.221736142846412 6.575411650805823
Cd 9.261145785962922 4.130752560331097 6.585710354331694
Cd 5.018572355297358 3.284736905616332 11.443689217162566
Cd 6.330809790167166 5.66251877937583 9.995599070513771
Cd 6.334826014497924 7.086578724236588 2.4596610410365267
Cd 4.113203231793886 7.859741349151643 9.337727729832258
Cd 7.169244535056708 8.242377626998541 8.752608119233239
Cd 6.072835579186504 3.635889403502781 5.483913931852704
Cd 7.874951541721384 10.21544162922505 6.612740726586901
Cd 9.038820633256416 7.8817931304666295 3.363949231195632
Cd 8.066589702809807 6.869861304386803 6.170269038537662
Cd 5.73296097551148 2.765603219828425 8.397251298809335
