20
Energy = -7.18320014 eV
Cd 9.032233188895308 3.2486009600904944 6.541655749786209
Cd 8.94728445050456 5.851904601736913 4.766022087567805
Cd 6.076449039781666 2.600023046925515 6.931403932767301
Cd 9.47975396660551 6.611880650246905 7.598351418383505
Cd 8.153537583014668 9.416582204175516 8.780907596890334
Cd 7.154623170343822 3.409652315303146 4.155331899753951
Cd 8.538305511028467 8.20152520916847 2.8194349910692584
Cd 8.552874066747844 8.969501786267049 5.785337449283583
Cd 8.586435792393509 6.971505207706172 10.495908059845275
Cd 7.4291312519964885 4.689361496610658 8.814953615239911
Cd 6.532824158795394 6.458490900832039 6.502537191867313
Cd 5.7400803301571 7.472003763346982 9.556088709563987
Cd 6.049550850343997 9.506100307206736 3.9016764210038963
Cd 5.663864616227024 9.265876252628628 6.977899902471188
Cd 6.185864029110032 6.3412164747831845 3.3752014458779214
Cd 4.450927093561711 4.962334917463479 8.266617782680285
Cd 4.496191461293943 4.615171632054994 5.179354240124108
Cd 3.1123922565570576 7.9589687085093805 8.11539068385096
Cd 3.806859046845538 7.736038470870573 4.968853567373528
Cd 2.0137475084213787 5.71619046669789 6.470002627224113
