24
Energy = -8.36172625 eV
Cd 8.137772504075212 2.632659192206286 9.056797545360206
Cd 8.713153784240198 6.314841506409106 6.803088526847605
Cd 8.372900555924184 8.326713120638043 9.125912880924824
Cd 9.079110535375163 7.434209893490751 3.891657624443395
Cd 9.348136740772825 4.43082689295643 4.305726037021806
Cd 7.056362157816107 5.461668517521794 9.242498196248976
Cd 6.637883831154628 10.520310226121806 7.9959649796611805
Cd 5.1377353197974 1.3945024078296993 4.952126040526485
Cd 8.37995753116148 5.546412588017052 1.5314509072603206
Cd 4.9528055533430555 3.232059605412011 7.973536008049375
Cd 7.420920605597451 3.0550978523891805 6.0894722538751225
Cd 6.827452522920052 8.48714083444637 5.459958013459127
Cd 6.0217657923950725 7.047048815776633 2.9008087262133087
Cd 6.325776635872943 3.856524015229432 3.1363151447913484
Cd 5.097398595013737 7.763328302948482 8.226880288467136
Cd 5.842907707213495 5.633799396730687 5.767304859102946
Cd 3.080343064492369 5.707480918476728 6.989518914295082
Cd 3.485859366640409 2.675586919554627 2.727577265117519
Cd 4.309426803388479 9.93766253462003 6.035353160673929
Cd 2.683878773478798 3.0339334746678914 5.706691603545744
Cd 3.9434434450244513 5.527475359315299 10.100199941777879
Cd 3.4659312531469926 5.571318556814459 3.778451005901745
Cd 3.7201553033754453 8.949110625777402 3.0408677710763072
Cd 2.132125555673364 7.9652211281888485 5.376399269093283
