23
Energy = -7.68780507 eV
Cd 10.413463055170741 7.318028326776785 4.4621654354805464
Cd 10.605038471429198 3.812495433855573 8.581676949249138
Cd 9.432998310817137 5.021973220518038 6.119344509693527
Cd 7.803078101775089 7.613818621187623 6.531887964718782
Cd 8.44026784992728 10.431390186653688 5.172330670214136
Cd 8.089401545448995 8.557343135898401 2.679045148049091
Cd 8.726670286503373 6.12204152213165 9.105163058406642
Cd 7.627654020883933 5.5177241952572365 3.8258164331752793
Cd 7.587477009512254 3.3892940854288174 8.287983227284906
Cd 7.364246043627711 8.594324454957192 9.761263550584278
Cd 11.001965059987912 10.152185510960459 3.63517972088807
Cd 1.5779462903045027 2.5664748350658666 8.921629424944854
Cd 5.645477900757024 6.192373422613241 8.667027635776748
Cd 6.221057717997681 3.3829246952481307 5.599256951984806
Cd 5.560148575788613 9.04749528670489 4.897965393963996
Cd 5.427791264100188 7.118128162965114 2.4741412002174408
Cd 6.530197259104935 10.447365281310304 7.454284348547693
Cd 4.579373333867038 9.551803961249917 9.571050257255079
Cd 4.611928073320278 3.070437127665209 8.454002007555884
Cd 4.785138142058753 6.0266762470057875 5.458987873006014
Cd 3.637963849304127 8.120138204287857 7.19312138677918
Cd 2.7857531679561722 3.365282272596544 5.909676509689444
Cd 2.468693038816827 5.504010178121575 8.160728710994047
