24
Energy = -8.57219103 eV
Cd 9.792702977712738 3.6899719561533066 4.609944137183646
Cd 5.21134071003813 6.599547616266579 10.999367765478306
Cd 1.9480024551426824 7.807494934604921 8.003021257836728
Cd 5.100202129283281 8.062863190808484 3.600843482498593
Cd 5.659265818279241 5.117797948924643 3.5689670032500707
Cd 2.137234828955918 5.327967939330442 6.133699406682057
Cd 10.12108837796523 6.087585222076745 9.000923839197931
Cd 6.98309659121614 2.6187314242286996 4.460631494970635
Cd 11.6797017283244 8.259732882754474 7.788630864965296
Cd 7.358131586986162 10.000988970001613 4.251600605314263
Cd 8.224973281108683 5.402101438872502 6.715672908726653
Cd 11.220545094885908 6.09756457537633 5.671741654330903
Cd 4.832388008928079 9.95283734792307 5.947601365299893
Cd 5.889193995766723 3.2655204632610966 7.122191356050235
Cd 5.515275111569107 6.543760177472079 6.255673358562452
Cd 8.097340683784367 6.946212640035957 4.039430333824608
Cd 2.385882036193682 8.10274853189362 4.977201618427908
Cd 7.072406789493721 4.810604369822234 9.4010008150393
Cd 4.893396988191788 8.512463597134124 8.610827460422165
Cd 3.725110291372914 3.1562969025377536 4.875726710918887
Cd 9.953057747927662 8.969252659423287 5.469533132675587
Cd 4.009196943486202 5.30401248632413 8.532280380592201
Cd 7.534511089866433 8.723299788210975 7.151952944449782
Cd 7.75472998622809 7.739418189269569 9.910311356009993
