21
Energy = -7.02117123 eV
Cd 11.69375797137254 8.284881850267066 9.423455745262427
Cd 10.58854981813506 5.010444227421652 7.288198578801406
Cd 10.168537667246584 7.9590376302930155 6.373938530939938
Cd 7.639085782550643 4.25170696668791 7.870976976988701
Cd 8.966219402697675 6.8353564751182665 9.029721900837185
Cd 4.8309293790747025 2.899835368220018 7.643136224050886
Cd 6.112726542000323 6.757386263030783 9.403932578322
Cd 8.793695354091858 5.3321395071219895 4.9544102104382715
Cd 7.925657674279968 8.205527419918463 4.436492999756682
Cd 6.38008587623178 3.5038151468936833 5.06977433344786
Cd 7.432219716985938 8.999533411043148 7.431604286476272
Cd 3.91823860339993 4.929337570951556 10.004534344981847
Cd 6.199930709421067 6.424094061409117 6.282879918758231
Cd 3.5447591027450525 8.21396319904344 8.527510658056208
Cd 3.280340289055235 5.441280405984489 7.087753456722669
Cd 4.902721405461899 10.378751718952525 6.787202516090547
Cd 5.508320328387663 3.7611820842221073 2.231766609933091
Cd 5.757956505499487 6.662628318621876 2.929876957914194
Cd 5.310758953785604 9.671709975262278 3.764353000378914
Cd 3.410263420824613 4.702851279637396 4.163240097475727
Cd 3.593545309691479 7.732836932837717 5.253539887305755
