28
Energy = -9.43188682 eV
Cd 4.8113006704021535 5.030397181270198 3.698803385707976
Cd 9.807298020110917 5.854517596440428 3.761194475785275
Cd 3.6332809502201178 6.1953145607805515 6.383810093891195
Cd 7.612823335863315 4.66545177796057 2.2036396702000753
Cd 8.787741287326554 8.454659685998045 5.0365023191640645
Cd 1.278700204784256 7.944482688013051 8.613648978935878
Cd 6.856622179765647 2.3065438018442244 3.993683621910142
Cd 4.216836743744524 7.4627345769989075 9.092475706459307
Cd 9.00303122723458 6.782174770780106 8.614635795818742
Cd 5.9654345403361395 7.094041463668858 1.2543195181934887
Cd 10.23439435519004 4.676426080585979 6.448691527389191
Cd 1.9470390461987408 10.495401815281246 7.169243731476458
Cd 6.780145989269264 10.468048924677039 9.52991800419697
Cd 3.7404557625107318 10.394700902642715 9.649756506439573
Cd 5.149486603309364 3.543482290513232 6.490794766384031
Cd 9.259145754909259 9.631721970282236 7.807927388577751
Cd 5.006174457994282 11.38458723070356 6.922822589222351
Cd 3.5774842828611373 8.97302342130691 5.216053336518213
Cd 6.06372552220523 7.8193592641943805 4.127460590497339
Cd 8.875899313489892 3.8164418668000573 9.100989335243513
Cd 4.492888454999548 0.6503379405756485 5.540296753234941
Cd 6.363568601533528 8.521786886919235 7.083721863790738
Cd 8.499598128727751 2.104471310231894 6.51521025856911
Cd 6.321432228508646 2.2285463437609963 8.89591227148146
Cd 11.26592062173875 7.54227296480285 6.5435202764870946
Cd 7.330292520290178 5.575971325897589 5.838721550532505
Cd 6.2218600329428755 5.440981468769274 8.762470800255805
Cd 3.996528553773045 2.1954932124977966 2.7478620915069536
