21
Energy = -7.00770971 eV
Cd 3.1065809231384702 7.733588829391568 8.032347706442449
Cd 3.2500051578850226 6.82511262051268 4.645035444331639
Cd 3.8677139842678 4.930528123673596 6.957062315912629
Cd 4.014664285829278 5.68407366503793 10.012004147311428
Cd 5.4481384206267895 4.666913719419815 4.006901106500376
Cd 6.027724642226669 5.718148554978515 12.124123681714178
Cd 4.834879011751963 9.068240280531597 5.985046875754322
Cd 5.477047626657255 7.222559195751489 2.39488566102271
Cd 6.19394817611417 8.189145857878138 8.666256244631352
Cd 5.828859301849156 2.585395498751826 6.4934098305768355
Cd 6.59531584204282 4.8021179741771824 8.41449335856586
Cd 6.68170095312588 6.66563766236131 5.9578779220991125
Cd 6.4642575385001955 9.877532548277733 3.467456315794338
Cd 8.237559181227407 6.692987749064295 10.481173860639728
Cd 7.749260036894994 2.560550454041039 4.2219160762432075
Cd 7.733398793816187 9.607748973366585 6.25056021417895
Cd 8.962884557657116 5.205501485193464 4.740112022720822
Cd 8.465172950802744 7.65587412493229 2.9543389729333236
Cd 9.42613204730004 5.630212628511795 7.8089276121956095
Cd 9.379927853605123 8.75894688968286 8.576616197755614
Cd 10.176969954014197 7.841324403797752 5.731595672009105
