24
Energy = -8.44177585 eV
Cd 6.601403286022002 2.623870535631717 5.910277406152318
Cd 6.486491511112446 4.223306334895351 8.605566816922185
Cd 4.256032796795599 2.281575372268842 7.832296764626081
Cd 5.796628907389131 6.187422248702595 10.925979673681507
Cd 5.084495857484145 5.724754957396215 6.3486857404061245
Cd 8.687353664396959 5.083906112700161 6.746993021108737
Cd 3.4877550564587834 5.082445263388807 9.215965329971237
Cd 10.259349400234616 8.715431301905285 5.655624102569941
Cd 9.681461265051741 5.028873512804874 1.6097327116830877
Cd 7.117019314929028 7.237209130897921 8.329606240756462
Cd 8.761935586329795 3.5038210732822623 4.061794059135675
Cd 10.368252016113669 6.081062493154505 4.369001392214086
Cd 7.973992376261341 9.865968466752673 7.133002353262443
Cd 2.4199213951821945 7.122578633174394 7.130143274228868
Cd 7.4553355010386095 7.192456352317012 4.748441073431868
Cd 1.8593286244386968 4.093182581292424 6.928017359034633
Cd 4.217076597447253 8.220263967484133 9.277494626480497
Cd 5.870728809618919 4.551157869684131 3.6398336244492815
Cd 3.699303684260253 2.8045380243955584 4.83644334889343
Cd 7.194767895181214 6.526298498824601 1.3027990975734098
Cd 5.199015022023202 8.856199183588693 6.391827832045604
Cd 4.986017875680181 7.463980018003633 3.1332618466949542
Cd 2.6065053817758703 5.597679167350173 4.175410957390136
Cd 2.7095645453562165 8.674666379979284 4.541000720229599
