24
Energy = -8.05184988 eV
Cd 8.208476367154725 7.606418654819422 9.858546955296948
Cd 7.730282667961465 9.152705985737082 7.396834339244966
Cd 8.072529588154136 10.90960286776706 5.062320901560242
Cd 9.35203330533427 5.082160620297911 4.381519464772614
Cd 7.929468976973229 6.103992378482377 6.892157046085816
Cd 6.985736734562837 5.641353768686232 2.458575952512638
Cd 6.551062287827479 4.022677397883495 8.821439253064563
Cd 6.953870656207356 5.512329535821675 11.56106124127305
Cd 7.456082866077778 3.1192307736221987 6.145677089405266
Cd 7.6153622536600745 2.800704935325383 3.179758556585398
Cd 7.988704838951469 7.958493975347628 4.272280482160136
Cd 5.1427509759830174 7.485477413080224 7.618223352047324
Cd 5.261355056550125 9.85176715098316 5.360722473903156
Cd 5.412398391407049 5.488061072525943 5.253539167233152
Cd 4.859881497888789 7.733512236972278 3.0399645803108624
Cd 3.61696127967256 3.8921625050384687 7.6800309194592264
Cd 4.310481516550663 2.6007439011622555 4.927341594018783
Cd 4.348187360427172 5.788791414662064 9.88964751478534
Cd 4.224797898612201 4.610955699452111 2.3726579639513563
Cd 6.2829951352022775 0.28983164461410804 4.710258141610867
Cd 2.951173597884201 7.721598712303171 5.563976145484575
Cd 2.121843522965743 4.7838562997886545 5.231845653611863
Cd 2.016425985667035 6.629713238608606 2.8064210464804353
Cd 1.8443660381083744 2.691364384151844 2.9203016932745225
