39
Energy = -15.99719746 eV
Cd 10.58349464608855 9.411457511665418 5.456732907117674
Cd 8.446920140988757 7.643309358543213 4.26297446008433
Cd 6.024623158626205 11.505235498306185 5.840842523788159
Cd 8.995016789347739 11.742133695928144 6.266965476794193
Cd 11.687456128398784 6.792084809969933 4.888747749759806
Cd 5.8167738130011575 9.045680457624918 4.117442781207977
Cd 13.255904171059296 4.357750012223748 3.8528235369512296
Cd 9.479511649473396 5.6633134174650515 6.483888964483202
Cd 10.174937765495134 13.446830690842834 8.463620964721926
Cd 4.753623049245766 7.6785277613974205 6.5353894478537775
Cd 7.4098010799579885 14.120775173948038 7.061928258331849
Cd 12.85270149728396 7.890136404913528 7.556183800167255
Cd 12.314714831045807 4.261427913582766 6.8249420919446155
Cd 5.333007337105281 10.005723630301086 8.548027513280829
Cd 6.999142264907692 6.091512040822483 7.94643699746494
Cd 14.148899999987437 5.503163380891651 8.953241541915219
Cd 7.838878169490158 8.960181419404378 7.060487716902395
Cd 10.071868121456154 7.8786812492757985 8.636190267453559
Cd 8.203855749313762 11.143343660638442 9.20104432017468
Cd 9.512593647068929 4.9674398422820945 9.553865537430125
Cd 12.060639710133463 3.513459290514565 9.778301815570677
Cd 12.074974936534893 11.930454794644897 10.65545317698602
Cd 4.409521834648892 6.949872290893348 9.417303294644071
Cd 6.957270127616555 5.4181122351807955 10.921371647957384
Cd 5.006087984112599 13.024074886556477 8.36792327629745
Cd 10.356853561701433 14.238569561095257 11.334612009793554
Cd 12.112842152495816 6.897002791394097 10.777632368346856
Cd 7.467866257713931 8.361643556687435 10.184505007590667
Cd 4.811741281215674 9.122916329748323 11.605738473499457
Cd 13.706664826952561 9.35884823747001 10.180729520147779
Cd 11.377878787484468 10.63765276765483 8.057215696806308
Cd 4.553022118873269 6.30994780677023 12.367006521065754
Cd 9.515483980970593 6.875814149987772 12.141204697748192
Cd 8.615600256551183 12.086032926960174 12.23693674346733
Cd 7.479445820832288 14.104613268733393 10.060300861329877
Cd 7.427263729086474 9.584888736642068 13.116189723609613
Cd 10.10711510721819 9.703473021329016 11.122456494853937
Cd 5.735138498381362 11.825115344832328 11.078176502389573
Cd 7.113380277486111 6.741315332228942 13.877680569417896
