33
Energy = -11.81013763 eV
Cd 5.647624060690105 6.769326868750878 6.150626148433036
Cd 3.282362180376813 7.780995806739285 8.132314222042433
Cd 9.209516544264808 8.357887720836185 12.161837096974345
Cd 7.495605451266643 8.04175448031147 8.21855440431367
Cd 2.537633684763808 2.344882874067528 3.9347729033132346
Cd 3.954656407991008 5.705417084145755 10.391103439737336
Cd 6.418093874600792 7.575077904831851 3.3120497326913307
Cd 6.059468131832853 5.241602365314337 0.43983146292560277
Cd 9.64367246100394 3.9657227675698477 8.238523304426772
Cd 3.7582619490162372 4.836878355618607 7.587299674112204
Cd 4.726502096848861 9.664236934561874 6.340857705169287
Cd 2.0525591382281942 11.824907374143011 4.453098001415874
Cd 4.3100946780127005 9.861273984960382 3.3472327614637116
Cd 7.341685195744009 11.130256663144257 7.497309093447006
Cd 7.809028451010065 2.6537073362027472 5.479636110097432
Cd 4.027441578328035 4.73979466535408 2.7427087543739215
Cd 9.398235287496327 6.2021290922273336 10.17700615967314
Cd 3.4112386032411224 7.506780169014878 1.8010313514800216
Cd 6.444853859668527 7.05683226469904 10.999805970184509
Cd 6.820107562542039 5.097422664816186 8.503855658382362
Cd 10.665155281007506 11.824907374143011 8.038004834035807
Cd 10.3282628840145 8.92367028739879 8.846156162478765
Cd 7.134034359024384 10.366330756393257 4.570057625245035
Cd 5.263300058790873 9.689006898692512 9.453713866239273
Cd 9.673690679725269 1.1287766929040832 7.311702467342872
Cd 9.240121461290716 8.497152087617286 5.7105776973575
Cd 6.636600489504098 9.918597409338503 12.102294852759535
Cd 9.924577823397806 11.437763537733872 5.212322530021177
Cd 8.49252847770136 5.608012097174303 5.822800489195011
Cd 10.953889142847135 6.481333653625051 7.319517756440702
Cd 7.081475278783285 4.6595288320658215 3.341618855073463
Cd 8.610426463998754 10.96069377888879 10.191813089564512
Cd 4.92919871970472 3.2916365155807603 5.4421810530376975
