31
Energy = -11.24379258 eV
Cd 8.953370641503508 5.790555757622331 9.708205934236101
Cd 4.904096857575462 5.808112585550388 7.107004807133036
Cd 9.92577994416908 12.241222424509978 4.388385605609036
Cd 2.0115241453021384 5.345182033004757 5.823773263953172
Cd 10.635813331411338 8.03227040702946 8.479541754019193
Cd 7.592657229114085 7.690062570029446 7.492835684636301
Cd 9.51798067428503 5.864358902594076 2.538229886502907
Cd 6.760029802264651 7.014974140057254 2.294600420985201
Cd 3.626896823686174 6.073680239280281 9.928246614048103
Cd 1.1032371203292979 6.595557284398388 8.473222198066166
Cd 9.040862169925727 8.826219072223582 3.1521667580308366
Cd 6.314335119016127 7.070123601420215 10.72077639739792
Cd 9.458588005365286 10.844643608204866 9.199548970865594
Cd 5.400981963206961 8.31135360691722 4.828038455879491
Cd 8.41858755764262 3.741166082855002 7.519549645553637
Cd 2.7013218164113426 8.251392842877692 6.163266557017321
Cd 4.7087645258956154 8.68178149316882 8.307904180401659
Cd 9.468033784714937 9.91838476446747 6.29600358002834
Cd 7.767122653980032 3.7809154411362083 11.729609687044722
Cd 5.883084895544503 4.110529903061119 9.422811895467225
Cd 9.966268710479445 4.158695379318585 4.937495350751833
Cd 10.191938675332015 7.108749987835224 5.545262567090081
Cd 6.608017227110971 10.113992599061387 10.195829118637533
Cd 4.017168486359591 3.154964479421798 5.806622776392949
Cd 7.1095964320976215 10.70621475085327 4.4078751617677465
Cd 6.551213017848738 10.854530128285308 7.297819337212369
Cd 11.163255016337942 5.102199772929306 7.724843789840012
Cd 7.317672358364718 5.6574139665851275 5.252984139016106
Cd 6.306410659558025 1.7693827221751381 7.065431411878598
Cd 8.992343741770275 8.494344769400936 11.171739152480125
Cd 4.607122150853279 5.363686901521068 3.7405027615746778
