39
Energy = -16.08230577 eV
Cd 9.297962504603312 10.957178816581173 5.93504693622834
Cd 12.883709173210162 7.511694505083306 5.7345584384259345
Cd 10.481626336394124 8.521297653470596 4.424172760624659
Cd 12.691793459578188 10.500672036222396 4.9659218814639345
Cd 11.748030339504092 12.588656053372818 6.81319591342596
Cd 6.319009138658566 11.084459442639778 5.520356608028376
Cd 4.9384957470787825 8.492732482904415 6.074453039091615
Cd 7.63505900734035 8.420386002165522 4.728142799854358
Cd 7.490484514872474 13.156673081105653 7.21584315831974
Cd 9.960789495420665 14.481110829032547 8.1576136364802
Cd 10.848474943253915 9.852886785803639 8.267898242435235
Cd 6.838688921871061 6.0615605426130985 6.45301225794919
Cd 13.84089378742778 10.544382268251153 7.840063441373169
Cd 9.921741649222463 7.258704225422144 7.112869409133344
Cd 7.655540214259589 9.350411743573755 8.093007071301447
Cd 4.255682484359704 10.800582786466135 7.758725021989011
Cd 8.790359543114537 11.70714049187902 9.714059365992862
Cd 7.993500158942284 6.351516926405815 9.234011156972395
Cd 5.7551045488788946 12.551819129209308 9.59280049541007
Cd 4.874758813024096 7.106677283348646 8.634984564899227
Cd 8.36149065819443 8.939979009544295 10.997523438140348
Cd 5.421828772223744 9.61458263978541 10.316209325672308
Cd 14.70178192316352 8.43047654029175 10.880074030055079
Cd 10.766653097616361 7.2198902176368405 10.14991719549488
Cd 13.256870879028632 7.565040864672993 8.556704183743395
Cd 11.188378054814216 10.120722597855917 11.19522830489963
Cd 11.708600616276186 13.03137897256574 10.04770824321649
Cd 8.268637474163416 5.028000185574019 11.945444857256218
Cd 5.791030693186606 6.76547801159324 11.379703411005723
Cd 9.193948969735287 12.573770220003064 12.62872447605251
Cd 7.221461089325403 7.123349034586786 13.922439980795637
Cd 14.083572175495481 11.455731887644511 10.646672753718496
Cd 11.190169345220797 5.118558078118749 12.269272271928772
Cd 6.23305231986084 11.778898942986311 12.409804668985377
Cd 8.005250492985645 9.973349597304127 13.868063754569539
Cd 10.960366082904462 10.719389328374872 14.214301775000603
Cd 13.622080149079316 10.066832525039409 13.269493715591228
Cd 13.227109096892438 7.0552464673076765 13.154573535222237
Cd 10.217472401224892 7.760240865969765 13.518862951659498
