3
Energy = -0.28614498 eV
Cd 6.833985000000039 7.542567999999908 6.830833999999999
Cd 6.833985000000039 8.755066000000012 6.830833999999999
Cd 8.495652999999919 7.537108999999937 6.830833999999999
