36
Energy = -11.96330818 eV
Cd 9.862776828934596 6.291772258650316 4.13069963578074
Cd 11.61512544281258 9.691038434495189 8.688018048311205
Cd 2.8671602527488753 11.466808364171914 5.739568204493523
Cd 7.698023727848429 8.155810792873073 3.318643277054585
Cd 11.695976888644584 2.753362946057777 8.438104837962303
Cd 7.268733450752515 4.517059090197196 3.375869422627245
Cd 9.495986258015133 7.71415602465248 7.660581096547567
Cd 5.947239943762973 11.767465601801897 5.065053984932874
Cd 5.757088017107831 6.2853292972256645 1.532871410891412
Cd 2.6337191897535877 3.0405511361495674 5.50004856396962
Cd 10.928299484953975 5.525036971478673 8.982723829186387
Cd 7.413214450222321 6.1926141143802225 6.141731581096765
Cd 6.9435947915391605 5.042003926134007 13.377274887054254
Cd 10.610293122368393 3.795301361806255 5.583735268694667
Cd 5.927682387667119 6.8513362075536195 11.422627316202309
Cd 1.5612720431457028 9.192005156134394 4.272003017344278
Cd 6.197848068531797 9.171929283793986 0.9014607525860697
Cd 7.93920663977975 2.112293002922588 4.929812215476644
Cd 10.202723654044838 3.1198088863647926 11.320454078466168
Cd 8.427521757530029 5.71228865094488 10.576033142250672
Cd 4.30442740485722 8.443126462521334 3.167229710250259
Cd 2.6122847537218945 5.074983589797601 10.612188001255426
Cd 5.821514208656671 5.322508565526067 8.755471183025483
Cd 3.3835502827118424 7.539736969968825 5.966122991379323
Cd 6.181766513057357 8.874260170258403 5.806635110551505
Cd 3.06440436924383 5.06661068937961 7.648224675108872
Cd 4.076932419867374 5.124607209428662 13.31040151741621
Cd 6.726087494948496 11.398639766461974 13.310401517416212
Cd 3.095933560614655 7.912841187062456 11.86704648486396
Cd 4.771088122227716 10.628241912491246 7.973501910554776
Cd 8.326940739414908 3.5893643128161514 8.15797528945282
Cd 4.296725028682042 5.339139204444102 4.095025412104782
Cd 9.755440469791422 1.081893386912518 6.983632458485424
Cd 6.862932084633951 8.40589937383686 8.87654864394221
Cd 3.7551956583495425 7.943000737636347 8.873749905883123
Cd 5.706611148580943 3.59249561319303 6.201977554532263
