30
Energy = -11.51816759 eV
Cd 3.378225262166026 4.322203486373017 10.70897568236329
Cd 6.358126327095927 3.434147088826602 1.8982697683321226
Cd 4.625863898886228 5.838895367790321 1.2886803508602636
Cd 3.4436430964350278 3.207732674718548 2.8314797514072954
Cd 9.110108930354357 8.676158961317752 2.32659692536304
Cd 7.512951991699887 6.237669284194953 1.8419388173410447
Cd 2.6001767156170232 6.139624233145271 3.370933400622596
Cd 5.715053801502625 1.8236492820961445 4.338564815750383
Cd 5.4498464033580865 7.293632675694106 4.0048779221398965
Cd 7.459196086635397 4.589591667740096 4.457726183321036
Cd 2.278592063482732 2.1868564260669263 5.5917983994242775
Cd 7.681402197774762 9.119858061892787 5.094596875693236
Cd 9.681232672785521 6.746045265388277 4.637945255779279
Cd 4.522629522150577 4.707193349837936 5.364794118028293
Cd 0.5082331499426809 3.8732745908735207 3.757934727314499
Cd 6.423374224526309 6.319727296232596 6.883627421452464
Cd 4.855135985531397 9.046028470645386 6.53120469954992
Cd 9.43636498733123 4.62083464982548 6.797015721837006
Cd 1.4948846299010308 4.893737528951882 6.563429804920016
Cd 7.336893928241035 2.438129796361175 6.886548726209658
Cd 4.528126010437818 1.0047616153743568 6.983682132116502
Cd 3.5008407244266952 6.480251433121972 8.123805930341897
Cd 2.301950265938507 7.825784566809297 5.6935405234714045
Cd 9.201397833339986 7.492141332702667 7.537114225851307
Cd 4.857167101044679 3.7515969624296837 8.229874038809234
Cd 7.4513206633288664 9.864332336755838 8.10728380081567
Cd 7.815558959299027 4.395753891280904 9.314285972734442
Cd 5.137217821808793 8.547934501150143 9.551955555236448
Cd 5.29245068946706 5.6028975493978646 10.70897568236329
Cd 7.830958931542966 7.30848052905583 10.169333370887925
