36
Energy = -13.56548341 eV
Cd 6.842720144766404 9.496823932389054 3.1326881767341757
Cd 9.763331009353088 6.026116527379884 4.736683096339206
Cd 9.676564133633406 8.964342182922923 4.31814227773325
Cd 11.156096144594958 11.210051419034222 5.538112580415223
Cd 7.130342567487186 4.6795166560197075 4.829976007487126
Cd 5.511989296810625 7.24590035628703 4.688726084255725
Cd 7.010020655298322 12.135821101153324 4.827259734281187
Cd 9.174574863937899 13.174728735375675 6.628416336390844
Cd 7.245733933109881 9.295178862329589 6.155918554303928
Cd 11.467206438315676 5.377840861701524 7.287393305704454
Cd 9.79606632272419 7.838441931320051 7.318005714290937
Cd 2.8822240521987386 7.310177224581839 6.108919849875362
Cd 6.135040523457884 3.6397345562511774 7.5685591554940155
Cd 11.996295570891029 10.0485091925567 8.099276761859134
Cd 7.090337414582751 6.543819515001057 7.313434426915685
Cd 13.581400609435489 7.585225010572172 7.466316871327504
Cd 5.800262170679573 11.544579826101804 7.601907500172947
Cd 3.874678522936604 5.579177351132451 8.311190708901256
Cd 3.213122400012775 10.26327741098475 6.522749576050339
Cd 8.941951043511137 10.548607786965363 8.33449852463626
Cd 5.0886181282260265 8.624211714028363 8.398477006545473
Cd 9.026826939786112 12.90385765244258 10.049392099702626
Cd 13.809164187905749 9.257985862371045 10.604366776310567
Cd 14.050833396795092 6.311238671688634 10.174080380519216
Cd 6.555894977723883 10.993537762563195 10.45596425411763
Cd 7.81581647600507 8.230750759672514 9.914173987043018
Cd 8.93426322542219 4.418733912839873 8.81252045255225
Cd 6.325957783840554 5.572302744534104 10.188842082578505
Cd 10.791200021348645 8.075016032888758 10.244107384986577
Cd 4.546835649796328 8.023310088699237 11.202644316743804
Cd 11.208611259027675 11.09348586803711 10.935623260753935
Cd 6.289699095805275 9.564807382018557 13.085202768224887
Cd 11.39677390001113 5.056378656477227 10.424619648564004
Cd 6.36507274718434 6.535962337076311 13.101298923926096
Cd 8.972661327257091 6.053494250684727 11.73156653549589
Cd 9.206779883882072 9.452022681671068 12.563911696521034
