37
Energy = -14.07228008 eV
Cd 6.905227892209369 7.28305982603778 11.119490878154643
Cd 2.4024067078906746 3.588565300163918 11.232172053913807
Cd 4.433394995055723 5.767597105103886 10.591175677182699
Cd 8.974201885006554 5.124852993919104 11.642669593388165
Cd 4.087444869654053 2.9171862125953703 8.652099503209794
Cd 9.375176199979142 8.151240759224104 9.669700449490701
Cd 1.2590811340820796 6.102073035463071 10.027119651881948
Cd 2.876399681640335 2.10296245454275 6.018870346508601
Cd 7.731927802091688 9.881147918165295 7.716319968612564
Cd 8.049551910823897 2.9273334440289793 7.049921529922761
Cd 9.243284028141456 5.348048279843612 8.513856613134037
Cd 3.407901807467835 6.759205677525964 7.886380806695591
Cd 6.707070362038491 4.013047524443104 9.45427641588547
Cd 4.766826968386157 9.361272191800818 7.053905390580143
Cd 1.1362959935672348 3.67873140578318 8.132598777897204
Cd 6.496249356339899 6.962319086479553 7.909823046454471
Cd 5.7524253859147345 7.301176055428558 4.918892098605508
Cd 9.934172014754983 8.032104028893956 6.724095349420223
Cd 6.420698770007972 4.1128817990919835 3.682759819731143
Cd 2.1314763071440077 5.117472065809999 5.743158650693687
Cd 8.347036303296585 5.735056374046503 5.569802571347826
Cd 9.238259087689231 2.9044525982386205 4.3544530868081
Cd 3.8536258985936485 10.673435180935886 4.2842367562382275
Cd 2.569405987544865 8.088805009855886 5.204639723043859
Cd 3.6510524348121436 5.589826065669257 3.3211559171407865
Cd 6.736584400292308 10.736317910719313 5.077863037797922
Cd 9.229201202560326 2.8877992157381356 1.4145504350523124
Cd 4.0406392332667345 2.2500407510394567 3.351199918467652
Cd 6.435729247714134 1.7283916434100977 1.3526054655983557
Cd 3.690592545844309 8.356076690822775 2.2884038575700667
Cd 4.549028731041974 4.098668419260295 0.8600047096949015
Cd 7.325511096711442 4.37402974628805 11.642669593388165
Cd 8.527433301461773 8.358220691191445 4.035102620466492
Cd 8.808644938491879 5.671181164974444 2.444766738909235
Cd 6.258736082142305 6.795770248274782 1.4020293517229603
Cd 6.416916834780481 9.693744989779713 2.297110803043836
Cd 5.225763313103357 4.5212808469537915 6.3622775259272135
