34
Energy = -11.41726451 eV
Cd 11.446836950060625 6.430334336319459 5.690087403929801
Cd 6.131971171109594 9.58526973419347 4.940066141731917
Cd 6.3622555038501885 4.6149078945206155 4.933321786578141
Cd 11.341839570947124 9.342247144995865 5.320571099311992
Cd 9.35085503864216 5.907164398844776 7.61432826064415
Cd 6.5947332928709255 7.140120549607912 6.627999667656899
Cd 14.174325121034801 10.735518143947834 5.201510486934752
Cd 13.72507672180442 7.677522836191754 7.158859871783593
Cd 3.723434062998677 5.3472319355561115 6.293262179867014
Cd 6.941235049949943 11.344392973781476 7.322281010649417
Cd 9.770402177979369 11.508775246241042 6.626857009044622
Cd 16.4371242336682 8.606236350949578 6.127808941633097
Cd 4.568564634143888 9.539130281807763 7.621644107451161
Cd 2.2516702176646146 7.845677858382889 6.864981589306516
Cd 13.914648404822943 13.451131422285954 6.866083408876159
Cd 14.25865360253899 11.28150542888259 11.036973617073022
Cd 7.897655988489645 3.261118188304022 7.154797464559525
Cd 15.218602403831587 10.760102095885824 8.122141040554926
Cd 9.04921229663369 8.86011679120836 7.780755458313011
Cd 12.029504931816685 11.473502118034611 8.547380149138696
Cd 3.295472136797028 7.3432706641758525 9.779519521555848
Cd 8.098995497441283 4.6762656727404295 10.041398908034154
Cd 3.4599019638395268 10.305182865296086 10.339414671850133
Cd 6.1758946838438336 11.762072164116544 10.115632791488913
Cd 5.420951806075507 5.189195083302544 8.802356471284758
Cd 6.544111622120444 8.01415483364833 9.522379017903724
Cd 12.709504663603367 8.841084420590244 9.765133032387704
Cd 10.138983972109378 7.577017926126579 10.230334816378134
Cd 3.9605863363822107 4.7242270802450665 11.382676574105886
Cd 8.263371386443874 6.624584190357683 12.26338833960478
Cd 5.445526310850441 10.103092254696632 12.729468543019468
Cd 8.286776177329038 9.781713081782666 11.328669401515045
Cd 7.1559123895389085 12.69253961131891 12.90540550318119
Cd 5.363620374189284 7.16180511708342 12.450722408074023
