30
Energy = -11.58446608 eV
Cd 11.283588506795722 6.955662757519055 2.609734928398197
Cd 8.410564388084266 5.585580723013912 2.4259253453182827
Cd 6.375595382495784 7.35816974338141 1.3528726789434617
Cd 5.464228729674481 5.274415064988977 3.6340419511690247
Cd 3.7940666322696335 7.804015215185427 2.7127498271959234
Cd 8.731526999401995 8.588070545028028 3.2826311086937645
Cd 10.93277371005254 7.7848215999335535 5.619455387074035
Cd 8.317902478500649 3.0183296735499976 3.8031976621699854
Cd 3.0150354211041783 3.760121037780178 4.566792483434554
Cd 7.660370579422366 6.573228378923576 5.375273909870255
Cd 5.958581825670653 9.922420066008105 2.989430041958162
Cd 5.782291399276813 2.5394895691849024 5.160591229605149
Cd 2.247474157332632 6.710001094843532 5.007797654899569
Cd 5.086355624648308 8.176721914603107 5.441257273771822
Cd 10.343507568587697 4.926788198440145 5.015522312283191
Cd 8.244980777577936 3.773619047261038 6.8723266006090595
Cd 5.407698378731283 5.289936340059822 6.8183645152646655
Cd 7.44935583782769 10.09141152852472 5.576650493141727
Cd 3.3377088595338558 7.660731888190178 7.802667369379826
Cd 9.27685321677961 9.071969924948684 7.625300753229028
Cd 2.2802582373130185 4.860328638572149 7.335475595773835
Cd 3.416476046674769 2.0123532741785066 7.066379183048136
Cd 6.210728517768514 1.9797270042581239 8.160432289249117
Cd 4.045630232927481 3.7933654486641086 9.503139450439148
Cd 8.089484108503626 6.459882728164297 8.393837680702273
Cd 6.209505472430241 8.922149011783205 8.254094322254765
Cd 2.4961229612743754 8.34268083135709 10.716211501004935
Cd 1.5099149021718612 5.44145580705867 10.336326717799865
Cd 5.189733516379321 6.635084607932095 10.003598324072957
Cd 6.970664127628081 4.2264469335020936 10.076900006083093
