31
Energy = -10.70706558 eV
Cd 5.997650516991713 2.990716992495082 10.137817066968669
Cd 3.498528711175217 4.36530637727462 5.550194004526866
Cd 10.308864184688286 7.815889872901508 5.684246788774123
Cd 11.436602119901135 6.061562753665313 3.6033903516905923
Cd 8.393810313253995 5.5018486587467885 4.92885042263959
Cd 8.030984512518264 12.047494296535158 7.072897793861804
Cd 7.809232925718968 7.508128067555171 7.458512633473729
Cd 10.421118207771412 10.110831704045383 7.5932646544570215
Cd 9.600385466226397 5.268099355299421 1.3470062906485158
Cd 8.646928264713816 10.8507945818819 9.86537250689654
Cd 8.08078549386435 5.459123697493907 9.961599619291833
Cd 6.656552370028023 8.608499950955085 10.130535298862966
Cd 10.660464012258872 7.112377296600033 8.68153285528567
Cd 3.08741969523497 3.524098316625039 9.60318522886161
Cd 7.83688817499317 9.725028487753473 5.004384841748745
Cd 10.67282474726419 5.680317366796787 11.34420301278229
Cd 5.924538349436949 9.933033984219133 7.386619886478337
Cd 8.92930339955061 7.904967621204133 2.7407292242282786
Cd 6.191633177558434 2.9239414457407835 4.917815967041273
Cd 0.6372811079922626 8.444725265705417 7.9300950060815065
Cd 8.756808029727173 14.061767498403857 9.43916717362934
Cd 4.841265996505563 2.1773735684279965 7.4496240134956935
Cd 5.623809661970818 5.926503001201154 3.5016621771728005
Cd 6.055431710439085 8.812947081693467 2.6177511943891694
Cd 2.7068389738885656 5.9936700477854155 7.906769271612875
Cd 7.364260470511483 3.756493496250779 2.398109612200304
Cd 6.7118009728366586 4.728922389557016 7.37641457108798
Cd 9.408754765807917 8.377032720370943 11.555401362205378
Cd 5.072352457916749 6.07809453467345 9.860932150180338
Cd 4.821086287658229 7.407976675925253 5.999978489486803
Cd 3.6877950726818227 8.714433043303078 8.823936681024993
