41
Energy = -16.57802631 eV
Cd 6.9630288885505855 6.5600815948961975 4.259686701577113
Cd 9.699627576078855 7.652150167978841 3.318281751571577
Cd 8.521623959907561 10.414676641713134 2.8948257326615696
Cd 11.046827763197294 10.469611185370121 4.3788655229077165
Cd 6.517979340330766 9.52581954288372 4.830717511870402
Cd 4.029797377424539 7.6887503373619515 4.617079064285166
Cd 10.687730065908564 8.156534200093844 6.325044141174312
Cd 9.65584296174044 5.380830416432762 5.3275192837617755
Cd 7.857723555074603 7.429811677450795 7.049721918660077
Cd 8.763989211610781 10.602458048320893 6.5061703129748905
Cd 3.6089135480593786 10.571200806051156 5.484185017602927
Cd 7.942577948226787 9.150122606445962 9.623009188827103
Cd 12.530208216918714 10.919418546198104 6.980148881734536
Cd 7.418919670225194 3.8087269175306613 6.615074329753564
Cd 2.5038282094155377 8.104690886807408 7.092489609732145
Cd 12.172006289317643 5.59548548247445 7.088862752938541
Cd 4.879961471428296 5.090700225901573 5.899816296199458
Cd 13.788524530136092 8.101889427596127 6.865928610952156
Cd 5.654128842589577 9.412311713754114 7.674159886915692
Cd 10.480700440376696 7.455939673014613 9.279082914703903
Cd 4.800286302548001 12.68327428033378 7.217415885476458
Cd 9.649294955447838 4.442706998353376 8.444691092689014
Cd 7.3068097838005865 12.096479246366714 8.590045665049454
Cd 12.338158798213213 3.70011764043627 9.56477259896056
Cd 7.606005807549456 6.032620199094656 9.894681140635443
Cd 10.417326968918587 10.719057151334644 9.157385453882807
Cd 3.0311075725411105 8.341807915477004 10.000485953449854
Cd 5.058801086179141 6.553824363744498 8.39342792855098
Cd 9.084385176073326 12.869841210182248 10.804592179563576
Cd 2.6966019599834326 10.995884839543622 8.651260520154262
Cd 13.927815496820681 6.415317294440152 9.531006738177638
Cd 5.211945852087913 10.448609425834695 10.456588066621373
Cd 11.795674044899416 5.7106068869288436 11.63348289332983
Cd 9.243560214036046 7.062686795828619 12.291700108572025
Cd 13.041936309632565 9.328358878203456 9.607206985549162
Cd 6.7193993568387675 8.717025425741216 12.450287972938884
Cd 5.024076477182689 6.562029885580853 11.437194018040305
Cd 6.8858968340529385 11.788866997912525 12.489331976196077
Cd 9.581645446149793 10.190722545706228 12.254836398644278
Cd 11.720105218997203 6.58831619180421 14.681939489682302
Cd 12.208894821233425 8.734304078581426 12.41066585273765
