41
Energy = -17.08576768 eV
Cd 4.112816395224591 9.209529663630223 2.1219657725913077
Cd 6.4800181679937605 3.8648248206465725 9.751525436503401
Cd 6.926165921036449 7.907596116691458 2.3659916901039586
Cd 9.416250777550324 9.463064298903644 5.779640096235222
Cd 8.487600610273212 10.440379796856808 3.075978194147688
Cd 10.887841092004079 5.339857151389118 8.47838847384019
Cd 2.910166997462359 10.43676485197687 4.742555201078024
Cd 1.5827945784931974 9.519643220049101 7.22965601990294
Cd 2.651936270031799 4.866759432038101 6.927979751950793
Cd 3.9856538282529876 7.501481572631686 5.706979290940001
Cd 4.627064280005457 2.5961504276599694 7.859943603766583
Cd 4.219868898309826 8.99008556169032 8.529873385788246
Cd 8.510610311815038 6.013791490740145 10.603550016126748
Cd 5.867591853507776 10.201360879814958 4.481598736236378
Cd 7.951388464884649 4.599260316002338 6.955192204194766
Cd 12.091316955573417 2.359617840731596 8.243986472450334
Cd 8.75255213386796 7.494177262899191 7.907705772710498
Cd 1.8543129663421805 7.72926058123079 3.3294074961638938
Cd 3.50087625509041 3.4117562477581753 2.5475664310505226
Cd 3.6446709274411586 4.8037620537651655 9.893422896941333
Cd 6.9791314914319225 7.28920016390255 5.377922288468086
Cd 2.86632288788977 2.3943279812660716 5.298713915597623
Cd 9.148473508667538 2.1143307399798648 4.240946941494877
Cd 0.5964793978649537 6.9952371274835485 5.982943287426585
Cd 8.516807778513328 5.25404942104075 3.8688622057841497
Cd 10.866455354328329 3.9841957334966933 5.762580856374748
Cd 12.091316955573417 9.88337509705252 4.559935018614175
Cd 9.167328956395703 1.6202735694400208 7.280588868179878
Cd 4.6320191772662636 6.0898813263728515 2.8939721742727285
Cd 6.572894820838876 3.2866537519997623 2.8970478916188047
Cd 9.385233679212693 3.142666294825309 9.857970210378545
Cd 5.5973604110673 6.277757328360971 8.015801556525279
Cd 6.733498357351429 9.894055187420088 7.280864942985075
Cd 4.805481738849584 0.854275276050174 3.554462404788257
Cd 5.329953724140377 4.600244804326724 5.402497594712282
Cd 1.8609222502371523 7.016819467553522 8.936331274843353
Cd 1.217726884270536 4.813124527284853 4.035305082796705
Cd 6.548228883806641 1.6445996478971212 5.816435353143509
Cd 6.689975752968532 8.352763476480366 10.054820073005029
Cd 11.315151114879265 6.970276880794826 5.980695487191842
Cd 9.936470908152797 7.755939904059674 3.351566923268884
