41
Energy = -16.35364734 eV
Cd 11.639780415803964 12.02348086204022 5.093848594871993
Cd 11.161463245017941 9.183942012036825 5.840447243472909
Cd 5.956479893750866 9.872057406395081 5.545893520447978
Cd 8.719854583666185 11.199027440908447 5.776641459412075
Cd 8.436098669411672 8.126585691525975 5.274131754516324
Cd 14.361180207497924 12.717231045481519 6.023711894796801
Cd 13.796851567064863 8.780230550750328 7.176278410852878
Cd 15.882227683415074 10.768998817314607 7.524585036740956
Cd 9.416897525385655 14.187202611313133 5.765398635322802
Cd 9.280161264007234 12.771000173971338 8.573762642888434
Cd 6.542730870349145 8.103601914584633 8.035980851774001
Cd 8.929146930688306 6.2216497367005195 7.518793961821959
Cd 11.64593452549197 7.027367856201095 8.276217567577163
Cd 12.031788315640338 14.274076430757063 7.24365532295488
Cd 12.007974208419732 11.181388838557963 8.209759588706213
Cd 7.383820692007186 6.14657948951909 10.056921595048438
Cd 9.566108809351944 9.510687249156268 8.68405757367342
Cd 6.748361864615616 11.046760056858979 8.303209812093796
Cd 14.483140056518835 13.195968090388082 9.060315376756417
Cd 14.457535062561059 10.106783049541608 10.103425333618102
Cd 7.649052179526314 9.37494186128554 11.075527995027507
Cd 11.67937836554899 14.137802015666828 10.189579781721868
Cd 10.178053510071315 7.451519152470099 11.124525302450696
Cd 7.217771917096994 6.685880269835313 12.860233432470178
Cd 11.390530241390355 10.435917243953662 11.057060265234554
Cd 13.728497753384268 12.416793286860797 11.803591196544172
Cd 13.230056515498855 7.566274487247008 10.73629161376084
Cd 6.517548480046099 12.286315609044397 10.911824055155364
Cd 9.312591484718373 12.599358220342374 11.6166412870461
Cd 9.598248931668898 9.994308152359878 13.470621758854008
Cd 6.733485102802839 8.986296041523817 14.582449974534397
Cd 6.733353020255208 11.872872685755738 13.873127569144017
Cd 11.517427366691246 13.972832972009826 13.16087324661342
Cd 12.259408626644797 8.239670708933652 13.410239578725996
Cd 15.420188521201116 12.166611524163576 14.372312670844657
Cd 9.808203748296584 6.843110429638406 14.184901957111244
Cd 12.50326778618814 11.069160625662471 14.294931338886926
Cd 9.453815785487915 12.910297189402312 14.888466510484246
Cd 7.88866769871172 10.98317199757074 16.652775256011516
Cd 9.635644796267703 8.387325088446236 16.68541836911205
Cd 10.959749601717853 11.03739893770457 16.824048486798887
