45
Energy = -18.70711014 eV
Cd 6.671288590459094 9.433861146338721 5.319566640122688
Cd 8.320655024552517 7.045544611343521 5.0333688210497884
Cd 7.760437502584253 12.397247269606366 4.987089940271777
Cd 11.30968874227779 7.204705187806155 5.591893355615354
Cd 12.433576468165148 4.472337465613505 6.5608162273729995
Cd 9.398529356790997 14.021926373682227 6.918564848398206
Cd 10.787158527796889 12.306906168702382 4.905695138829909
Cd 6.928118302104379 7.884941244955947 7.986390412296174
Cd 4.815964865216746 11.781469837695447 5.8798339793138625
Cd 6.418352955358748 5.038013927566484 5.986391221525344
Cd 9.691348261346068 9.705746049358345 6.049726592049022
Cd 9.480063883616106 6.223569537999629 7.784064022380061
Cd 3.9304574780796147 6.097670083590747 7.213209148936136
Cd 12.722665141569331 10.307816382291097 6.151487460213727
Cd 12.646213112705711 13.141736488407206 7.227791517341828
Cd 8.362189290297978 6.812178312152862 10.596400528560917
Cd 4.03052546190142 8.909180061738088 6.557076386465613
Cd 10.292014680026215 11.905916575820934 8.86274434760852
Cd 6.407933051877271 13.477734330381242 7.747521475593241
Cd 13.771800935706896 7.646703558055222 7.085000251651135
Cd 11.451769641273422 11.444222333546204 11.674200474980232
Cd 7.918149609279321 3.6592716018508566 8.196794680820622
Cd 11.130928982616092 15.555354041079196 8.824290829467932
Cd 10.84825023162577 3.7986567490095235 9.053935249468351
Cd 12.788736977614136 9.898364922066662 9.215968199345337
Cd 12.906776322078876 13.525018402978846 10.169437415828488
Cd 7.716233973205808 10.722920268246613 8.119019852981493
Cd 9.922013892673519 8.917091043654272 9.123094949961521
Cd 12.299977725688226 6.703626202590175 9.388412043108183
Cd 5.753163724060772 5.320277495641442 9.55067137919694
Cd 7.885045445753481 3.7187313963438298 11.166325671769675
Cd 4.733598843720321 10.957921893612303 8.79378930623319
Cd 8.241563403552897 14.733872851840552 9.726209966739066
Cd 6.49756786888819 9.970814669936948 10.9685918911358
Cd 8.550614967608382 12.351229987210269 11.437533472409893
Cd 10.588170273214818 2.3521627092784394 11.823546163832596
Cd 11.902308589170534 8.471581708872252 11.836807925083791
Cd 9.092105634937456 9.486684776433997 12.235557319012328
Cd 4.28494694739014 8.03617927018308 9.6318276604152
Cd 10.529097701466739 14.739084261197947 11.802326714844082
Cd 10.903842273802328 5.370975009945449 11.64230536105356
Cd 10.098066457838817 7.095751724311105 13.869122957041814
Cd 5.701164938800896 7.044778385365641 12.095314621562864
Cd 7.663306249568057 5.105135631392757 13.756288972134262
Cd 7.327058163145065 8.118528521714799 14.367435077384926
