41
Energy = -17.43397152 eV
Cd 7.8460020217533195 8.153722428690775 5.652367358750994
Cd 13.342496524048016 9.324338529461583 6.808159864012967
Cd 11.309587074525934 7.41976975107927 5.761838420526689
Cd 7.586980481738168 11.052854242738928 6.368314459373948
Cd 9.79455157408669 13.39989170992283 7.019893448293672
Cd 12.632684716561675 12.56869995048134 6.9428478953987005
Cd 9.060593734916955 5.5263630809654885 5.493620874003078
Cd 4.928081782108567 9.195266532113138 5.619960485210216
Cd 10.4521978479815 10.276216377305824 6.402502496460652
Cd 5.366544749644154 6.476609785976432 6.931558508529676
Cd 13.308063768636156 6.541981781836135 8.020426472089989
Cd 10.814508183777134 5.035780422961108 7.834903126079538
Cd 6.808214110500002 13.670897833377719 7.523508335568156
Cd 14.00669854564052 13.503768366376812 9.523908810066962
Cd 9.973137630090212 8.078532814033883 8.531776443466127
Cd 3.6442767412829555 8.440574643558726 8.356278404073926
Cd 7.8450219347842545 5.927405816240492 8.366183980709499
Cd 7.070774300038533 8.92887556163987 8.957222683463142
Cd 4.97984687081732 11.223965592507277 7.8578279531324196
Cd 11.804241514367495 10.269719270948775 9.40605413765885
Cd 4.510815818588825 9.744553941401271 10.808727780293344
Cd 9.770314816156509 4.837271145314132 10.552083965443916
Cd 14.441154615208387 11.156390708640807 11.30827826296339
Cd 8.48703842768325 14.515811018798917 9.776860951292516
Cd 15.187549661418728 11.192135138170162 8.14622025801764
Cd 11.193992738694815 13.289640085289761 10.127245072059264
Cd 9.748363283978307 9.137468017544967 11.341398622943986
Cd 14.482853058423826 8.569334884176778 9.781155464723133
Cd 6.1968172365581635 12.405974945478377 10.260449574960877
Cd 7.484674888747674 7.002627636943188 11.25751598938602
Cd 13.584765031511987 8.646965732132363 12.742498535384845
Cd 8.959074880223755 11.243379802469596 9.22633154618349
Cd 5.262208089579585 8.030763498193075 13.160284439892775
Cd 8.968930309231496 12.694423657840296 12.131802963263098
Cd 9.89682024100413 6.467822318505662 12.98557094394311
Cd 7.056341102206852 10.343888305666674 12.232539304960046
Cd 11.295236003026833 8.610099775247269 14.533538672100885
Cd 11.689435276349124 11.2785039760691 12.504225090300901
Cd 11.978913691158827 7.0492986918803116 10.724581937702391
Cd 9.197452779813025 10.694097354965193 14.310104678692266
Cd 7.946818667765465 7.988389597683644 14.623506513251012
