49
Energy = -20.85512601 eV
Cd 12.632611634813518 9.224567391100953 3.845302113869321
Cd 10.865567582464783 11.636115609021678 3.8483287575442597
Cd 9.536958702350956 9.142421900943946 3.0574749416289007
Cd 8.831144937738326 6.572205470494497 6.873808303458641
Cd 7.568398141288769 9.113159723660297 5.250800734508007
Cd 10.779936568142775 6.928857011603455 4.66296891171632
Cd 13.558154237291705 7.489268550290284 6.250233374937544
Cd 11.8474345641292 13.027426373093897 6.181995207815984
Cd 5.925329933234108 7.579515413471399 7.135025865441253
Cd 10.499085289451164 9.344168225126587 6.5047791739986085
Cd 8.749530045541325 11.763707492142784 6.120215303082396
Cd 13.365183335848268 10.381477746473516 6.740461751309182
Cd 11.60993814279778 5.150277493289093 6.916882392338338
Cd 8.596080992225787 9.062697210957507 8.836151126922678
Cd 13.858774427442329 5.767765178096479 8.699089969137745
Cd 7.386787296567223 6.239668170133317 9.520477757999394
Cd 6.321100085301923 10.659756397177665 7.625982027308933
Cd 13.049867800551306 13.122456329032524 8.852158060078207
Cd 9.650492000068908 13.479895814023285 8.338341763032874
Cd 4.946209312549176 7.951300096297233 9.828209619827735
Cd 11.005608852249422 10.861405153382906 9.024217488198156
Cd 9.40656059340539 16.120236388213225 9.489516859195401
Cd 10.276044063239498 4.960543332687356 9.575416239217285
Cd 11.590800864842818 7.9181716412563965 8.865634985494069
Cd 14.43153824490547 10.50134027222727 9.483609195777692
Cd 13.510226571464992 12.093358111907467 11.861281723839664
Cd 8.074886071477348 4.327447591410377 11.701687010153433
Cd 7.1532323756228955 12.55319372944517 9.769250341049307
Cd 6.106298122223448 6.527055169860683 12.288641837152305
Cd 4.71125939961938 10.889425731086062 10.229798938899883
Cd 9.634735570386155 11.763418013660223 11.407868054247919
Cd 11.546339874424687 14.249742914593375 11.219833508507188
Cd 12.696070918566265 6.339560741479633 11.5215518279875
Cd 9.686715451773063 7.544961883640533 11.277512007605031
Cd 7.522359149541655 9.650441640595206 11.400829703885128
Cd 11.455957013726229 11.475936403099551 13.999649639960042
Cd 7.483225460580096 13.635614773575066 12.53379882642991
Cd 14.974175153789147 7.9083099242297905 10.470078724029507
Cd 10.83395504481883 4.539640369793547 12.701432901157931
Cd 6.947246281904764 8.699443148954147 14.256064394992393
Cd 12.002847487713316 9.408741702824184 11.581774057243592
Cd 4.285918485555829 8.925884537816914 12.653549855850374
Cd 9.2102569370724 16.091411162726782 12.402066654064074
Cd 10.030834108721836 8.873495111975531 14.032385221190692
Cd 8.744286760770745 6.211914708407421 14.033113284143852
Cd 9.943932876359046 13.94162695273324 14.473877895113299
Cd 5.499811034135098 11.571818897286105 13.171521621442084
Cd 12.054267181350626 16.120860445145777 13.7208979861028
Cd 8.301415861199107 11.35768279079562 14.463842902353445
