41
Energy = -17.31512272 eV
Cd 8.031169012290324 11.857606816237384 3.931105004053818
Cd 7.9637037746234975 9.33595764270004 2.3753239517602767
Cd 10.63889590906304 10.53344448455888 3.463895797021369
Cd 6.6291072138112055 12.154899654425748 6.428137902654392
Cd 8.339487778991213 6.545656554477055 2.9903915305052307
Cd 11.178643662311249 7.7185828011446045 3.9094043578847177
Cd 5.922718977335486 9.62921628880818 4.678501472844358
Cd 11.615525339027762 9.941250480770982 6.3713875007730705
Cd 6.657441134392325 6.58431139018513 5.610219470868703
Cd 12.415212081208654 7.024781123581545 6.528398186086677
Cd 9.676445033636082 5.530227127040748 5.476881610265244
Cd 8.729232477712738 8.820568129140138 5.811779588528699
Cd 10.425581445194146 12.645912529299158 5.694198223261598
Cd 4.345918731087427 10.177255110408252 7.11616862147072
Cd 4.999540766545486 5.595927634914419 7.816051955644476
Cd 11.702385003590296 4.140054268744679 7.071777692917497
Cd 10.61496667722647 13.60718444475885 8.416604033472304
Cd 7.820404355162452 4.546746084468511 7.671993628565943
Cd 11.880312169266574 8.784140870045542 9.119288618081102
Cd 6.814632498481482 8.521215912348262 8.1062031527381
Cd 8.88957175835122 10.835758463636282 8.006235320126812
Cd 9.60372067533252 7.094147729417411 8.133633265286981
Cd 10.108201750938546 4.133960016197259 9.579941747204861
Cd 7.4018542009734976 6.402084172423901 10.15642000726863
Cd 6.044795163378991 11.855830075468424 9.222069127521406
Cd 4.776210287168039 9.33215433458211 10.143772200119864
Cd 11.195375222551588 11.350335807243304 10.338165176472193
Cd 8.587985000435678 12.926619619090767 10.50730278660542
Cd 2.991177533317268 7.7418119353226835 8.059900171699358
Cd 8.934204616993664 9.096946574683233 10.440328021194231
Cd 5.7196597373694855 4.682450434577262 12.342617971013622
Cd 12.745591609602604 5.8162308268577565 9.311756523479469
Cd 8.384260637141127 3.6022150678224896 11.854262667885445
Cd 4.152875485323478 6.4519126767916095 10.556389190454635
Cd 8.019249487211157 9.283874772810915 14.220818528098766
Cd 9.667242066907786 11.54837290667273 13.006543217331906
Cd 11.001428352421208 8.944739796651358 13.15558915823369
Cd 10.70163922829004 6.6879874678248274 11.23802536271365
Cd 6.835440793724778 10.770376726519265 11.873474279090265
Cd 8.519881367495113 6.423533760495951 13.256402764168747
Cd 5.917397310847401 7.922803813584977 12.60772654136435
