47
Energy = -20.12260109 eV
Cd 7.074236579898514 6.581446912052869 3.6137855024317482
Cd 10.058312357625717 11.928509838803324 3.446372404541118
Cd 8.468442245378716 9.255422219657493 3.4119040340203695
Cd 6.398879988097962 9.093803632137664 5.684022348168442
Cd 8.518114162018806 4.665482611591897 5.688995734220399
Cd 11.626126845709146 9.62111588357082 4.068196372950372
Cd 10.104225502268408 6.955108794630438 4.395336923790071
Cd 10.099656973622933 12.846399502240816 6.232483825007322
Cd 5.582155207592137 5.87992508713756 6.0320980951126755
Cd 7.334725028292805 11.859639651715854 4.581709328924451
Cd 9.534168100868499 9.480125112414983 6.591325643234592
Cd 12.360130342591118 10.520836467110042 6.876905595432284
Cd 13.083585548187619 7.689118903703937 5.758914050915767
Cd 7.168699315479046 4.051222839823677 8.280352789872085
Cd 10.97715399622974 5.920251792666266 6.9739413666696
Cd 7.932297690583221 7.205767447163941 7.642935919016516
Cd 12.192181518723723 12.909971488172447 8.488777139830905
Cd 9.942723935648148 4.09642944113988 9.162983816544466
Cd 9.479487907831045 14.350794127006006 8.744420705479003
Cd 11.863872148016407 14.763136678582471 10.713732505592336
Cd 4.91351352451208 8.436621222289064 8.209811113949188
Cd 7.4653409588840365 11.45542259254663 7.518053049184678
Cd 4.642480633519687 5.362810993435191 8.797830317162084
Cd 9.766465146624395 11.145068837246084 9.551739424320019
Cd 6.957507716711901 13.439862693334453 9.872629346106354
Cd 7.633897356292194 6.172685869493792 10.532949335768881
Cd 11.887842763981965 12.707369895750778 12.831157056530415
Cd 4.9282128765373425 11.386690877667643 9.116147111063365
Cd 10.348573820153948 8.141455736504058 9.157815221553241
Cd 12.597941079497401 5.500785965633345 9.36633395902324
Cd 13.554977045538187 8.324470718219404 8.606267827765024
Cd 9.133768423820488 13.094919588073319 11.832504960656815
Cd 7.440868453692532 9.359579861685345 9.869860374705892
Cd 4.772015258676212 7.189219565723284 11.074865160517325
Cd 6.050725295463835 11.333059843518507 11.890970379208119
Cd 10.474837669074219 6.065787126890155 11.459153850675898
Cd 13.048099752625264 7.738042563947981 11.421379228503367
Cd 9.799722562891676 9.249602049142457 11.944049654363628
Cd 12.648060530836302 10.705426277397411 10.50422228387435
Cd 3.4703577012257054 9.73751747755691 11.077943394821895
Cd 8.186193976354204 11.175735039149922 13.9171942483419
Cd 6.874626882021617 8.42862843330807 12.811643533868201
Cd 11.759726277877405 7.038867817795493 14.11078564484887
Cd 9.699003199081101 8.941563136503483 15.180442411844702
Cd 12.48108918072555 9.875687852466905 13.453447388310687
Cd 8.718695744061044 6.413683688744397 13.860214601434452
Cd 10.797720118292554 11.756365188290589 15.492834363478934
