48
Energy = -21.36621258 eV
Cd 10.112772886256403 10.677663826252099 4.78479375924683
Cd 9.322056494996316 13.324189614794106 6.017522139919985
Cd 11.032782728486522 7.992793823264312 6.240192057230658
Cd 8.419692964058559 8.196461308304327 4.8494694062476125
Cd 13.013777446192714 11.104184183745812 3.1009074999129727
Cd 5.595881826615274 8.687785933860338 5.785694403456518
Cd 12.693996702632202 5.869221863954356 7.334478144804511
Cd 12.105773482460673 13.20564832237931 6.945745412805141
Cd 7.121931468530587 13.345624904940598 8.02209627154007
Cd 9.778023353259005 5.657748978758932 8.116361088174306
Cd 10.008320084957793 11.013559543339692 8.248192889621148
Cd 7.215191584383047 6.080563910081643 6.552352580685186
Cd 7.431773764570473 11.051040420491503 6.01380180476247
Cd 5.357701730047307 7.898560728383955 8.647030059999723
Cd 11.06042120436464 8.259141109045064 9.589276889539871
Cd 12.72051592681743 10.411695403257315 6.127156243144116
Cd 12.110376130207225 4.978811291753038 10.030835543749761
Cd 9.97069349762821 14.107438392553394 8.912420957735785
Cd 13.033640348450538 13.855024037960046 9.752977675193371
Cd 6.997215522172349 5.4947259410662666 9.479689342638519
Cd 8.412760115091249 8.56284743781161 8.14050630293349
Cd 13.862330417359646 8.489617449743179 8.052311292075577
Cd 5.209726030354796 10.874055478243916 7.939678224886875
Cd 14.342955695964761 11.558320585043447 8.29470261070796
Cd 9.44917330263394 4.823805536108799 11.097903827112026
Cd 13.893955019652434 7.150256568504486 10.797064831459812
Cd 12.083737675308624 10.894079930445173 10.268301544499185
Cd 7.626176317738441 10.714546288873443 10.083681756325332
Cd 15.77113990011118 12.822640730757014 10.880683236861632
Cd 5.03551211493199 7.137302876712314 11.483090331679666
Cd 7.911746747673711 13.955568740493522 11.039980331597977
Cd 10.87859655675738 13.520689312575524 11.72238633224006
Cd 9.825235954768734 10.356674390903464 11.987658316182683
Cd 4.531810671451429 10.068757272078102 10.84443411149482
Cd 5.154331844644355 12.945244488164743 10.166311439838573
Cd 7.036554784966627 5.321677064344721 12.653876232666157
Cd 14.969588907706996 9.880510178189047 10.709242455387812
Cd 8.557195126188258 7.850393308150332 11.12373251715815
Cd 13.487879461611076 12.315287918150325 12.73465994476412
Cd 13.076736447356646 9.26986093400565 12.9290813608037
Cd 11.365765389481634 6.687985522615952 12.471740847499076
Cd 8.44212642083513 10.281394958440394 14.902875703638406
Cd 6.251430886553576 12.12814459759638 12.82952298191346
Cd 8.934173265905356 12.927048976870035 13.753528069005654
Cd 10.850784684577182 8.496245699496841 14.661724356006616
Cd 11.387659493328444 11.471356078744545 14.62976251758329
Cd 6.522872696133452 9.24152916579569 12.976223589903562
Cd 8.221533579236487 7.238303628366702 14.470369418778274
