40
Energy = -15.63282138 eV
Cd 9.051728056775232 11.851519688479035 4.5707843036205045
Cd 10.77235923078591 9.503216374949803 3.8361295678985203
Cd 6.44077798834365 10.22423120717285 5.104378744295258
Cd 11.911324818182722 12.994568261454594 3.921502069041372
Cd 10.748659548739964 6.663507890054752 4.626011837392763
Cd 7.888853575445668 7.766845658621794 4.465217222717166
Cd 7.02380601543228 5.698245739184618 6.277298545742354
Cd 9.971863561848847 6.252668949873182 7.404746647882303
Cd 4.673330100143378 13.56507633073906 8.146953774995673
Cd 9.109610166344792 9.287937912275144 6.8503560271834045
Cd 6.7708912739293945 13.162388658953935 5.976014250781592
Cd 11.785317438185269 8.653674772000077 8.207597794754514
Cd 11.752787783328356 11.039703630017028 6.3559131651215806
Cd 4.0333848420102285 10.996794944836727 6.858577002291647
Cd 4.703187223737894 5.353717462633067 8.18022309295011
Cd 11.858928224411043 11.673239571448356 9.397108024934564
Cd 7.535612958890694 7.6759940428784414 8.842412502209669
Cd 5.103086698725673 8.180404174639051 7.042970674066276
Cd 10.404375000195445 4.244918440173752 9.728441809095715
Cd 7.433288080872953 14.441729055183727 8.727464588216629
Cd 7.615566271979913 4.563109241667002 8.99928576258928
Cd 10.366056011641188 7.257862182980637 10.434903756222523
Cd 9.144442910808753 10.011010187785661 10.028784275823117
Cd 9.32202686574065 12.288958763385123 7.767366898754413
Cd 6.743568606326582 10.614975412469558 8.336530091499737
Cd 4.327371110037736 7.680456745203586 10.05545219006905
Cd 11.107253230037168 11.67609260443527 12.499211666863152
Cd 12.30922676736567 4.936800317612615 11.762632522283145
Cd 5.554131240535499 5.061658503065466 11.12998725298336
Cd 12.465300849394625 9.367765255610479 11.18470908164978
Cd 9.784235174474711 9.03192388216123 13.095119641945072
Cd 9.353542772636027 13.211102881290364 10.649181059468441
Cd 14.51370944687398 7.16068791360856 11.802929180184458
Cd 8.060183174512385 11.39243693225935 12.748016113595025
Cd 14.70913660349394 3.950912272904043 13.47147344855591
Cd 7.625830058271706 7.197747329219878 11.83824513404093
Cd 5.996057820065689 9.70915966602072 11.240243109243002
Cd 6.197270099723132 12.565982472102364 10.688360689532624
Cd 11.908027583038956 7.20115771583965 13.71818033493531
Cd 14.75506248391257 6.7209886220086075 14.860457811769866
