45
Energy = -19.97238104 eV
Cd 9.170188912831552 7.822957150794101 4.671990137489037
Cd 6.962355031965336 9.742363956083109 4.447047860159399
Cd 6.757432568373228 7.2233017068715135 6.311380213336982
Cd 8.888117939144228 11.920539531181984 5.4198816019426665
Cd 4.681652779614224 9.529031797544382 6.536585407037151
Cd 8.598329287632403 4.934832648961201 5.96663939161639
Cd 11.349164419821802 5.749332674386521 5.00569261928724
Cd 11.15505785705952 9.865240676443745 5.064886869995365
Cd 5.873856181918234 12.160977978989802 5.814004838419234
Cd 13.747083958301136 10.7070130798973 6.587792921105399
Cd 11.687374534798712 12.763339555960055 5.67476541040973
Cd 7.982145246015582 9.989153721530068 7.737290136092017
Cd 9.912724155571144 7.5774878589720025 7.989656577279462
Cd 13.085780785623617 13.132336986463388 8.227914992313083
Cd 10.902479188996237 4.268931948035529 7.6740077546536805
Cd 4.889271125525073 7.445934926456038 8.534557280219536
Cd 12.81013670264111 7.747654451261223 6.524122197649048
Cd 7.610134832597086 5.525327762173141 8.782005755443434
Cd 6.835423876629968 13.046782096011826 8.357013460543106
Cd 9.815483036262627 13.475941817672087 7.907088835482776
Cd 10.934319011911521 10.41364375260309 8.30093055092145
Cd 13.18084259112419 11.077097590603213 10.568127264897575
Cd 14.113984703285938 8.844123455762945 8.868381119727678
Cd 5.21032440424435 5.587042861932091 10.785858108109293
Cd 5.491477966259218 10.44568855047994 9.5600642109302
Cd 11.321154600896522 13.339455696725922 10.530622740415236
Cd 12.72437061624737 6.2471597155714615 9.195144246941958
Cd 6.122673435424147 12.80176927267063 11.292269734996896
Cd 7.754911170357659 8.25127962206017 10.284905291314203
Cd 10.753385781710993 8.616739214129431 10.728897684567842
Cd 8.4387650461115 14.445217965304916 10.423579319075007
Cd 13.989771700210902 8.46703549006662 11.797861745985788
Cd 7.7633971032005356 4.917873993147069 11.793813324016355
Cd 4.208954627637639 8.313979510394576 11.302264786308955
Cd 8.894245603236394 11.102760415088197 10.504880848598475
Cd 10.327417059524137 5.111341303515813 10.465596809574047
Cd 5.830677046587313 10.199111952792524 12.69455275159401
Cd 11.243471348179636 11.22988911656137 12.854091456114269
Cd 6.584410501432762 7.317911521579981 13.204999975384624
Cd 9.793479354021336 13.842610365327712 13.00121232303077
Cd 7.712116126400385 12.123754191063263 13.852056821230542
Cd 9.67641674148915 6.640418105882564 13.182578014077277
Cd 12.524734581806493 6.008472593486655 12.33501907207992
Cd 11.896287049992896 8.590358118096447 13.96116925072667
Cd 8.805547181250795 9.448111073329432 13.288126062772044
