51
Energy = -22.72811548 eV
Cd 7.7584641278634665 7.3747817202243615 10.215716217877183
Cd 4.72013723429208 7.470864907134909 5.570066735201856
Cd 10.27005175971464 13.570947008331583 7.949833948312555
Cd 9.840617600323286 8.440162247102663 3.1420793076251883
Cd 13.366557656603193 9.588023242351744 7.268690490206779
Cd 4.465788865974751 8.435275709678345 10.77939187999364
Cd 3.6089245539746475 7.114925655313442 8.291303229568245
Cd 10.160617534862403 7.373068636809374 8.42465692497788
Cd 7.611164889826847 10.483872363660055 9.660383635842292
Cd 11.463741633601796 7.2327121495903155 12.378662734476602
Cd 7.363424944925316 13.855678327256223 9.288897313693436
Cd 10.378871529365815 10.311926212349649 7.830512641009467
Cd 4.9582430257557855 4.5946299201228324 7.197741361413097
Cd 7.675922248702187 5.854719676963491 7.440948183159378
Cd 12.594993147278151 11.98581156026181 9.439354468151135
Cd 5.503671591067127 5.359487806652442 10.061546458093487
Cd 11.18013571850372 4.780637919836986 7.101787904749263
Cd 4.747260377058614 11.43824060189863 10.299837714292554
Cd 5.238347267177055 10.519286542936314 5.144575399674922
Cd 8.115269017007659 10.966678756132824 3.69547915462253
Cd 11.968554041740983 7.448117535264592 5.50679601629022
Cd 7.65036158187794 14.345589955165304 6.347852781765701
Cd 6.705810657040164 2.0021751591457337 8.083944467554417
Cd 9.98669099778699 12.69999140968884 5.160491750650375
Cd 9.169357592903681 11.05047910452097 13.225568949940248
Cd 5.2162979700470045 12.677646666309569 7.448735913587943
Cd 8.779914501436776 3.9387772663725715 9.42613744951085
Cd 7.747744081764948 11.195341369375466 6.772825135769785
Cd 11.582952625846179 10.280898024870188 4.66294949727447
Cd 3.7006377192334967 10.11951180544102 7.797222007901775
Cd 12.867015434002665 12.430279799326348 6.470190031095721
Cd 11.509348636887152 5.202260863051872 10.161162746474677
Cd 6.974573653413974 12.651465144643982 11.954564530577741
Cd 6.334785358745436 9.789133108258149 12.67122822557996
Cd 6.381606506637341 8.567427199954501 7.877282271835699
Cd 9.692570051324264 5.728669311384887 4.491774098212503
Cd 6.1174642351222035 6.733708508827271 12.807073075624984
Cd 6.1031887995283505 2.6511924930317883 5.229051797649171
Cd 8.769918056507375 8.402022032230143 6.088728487813222
Cd 8.740078275484999 8.060719053736108 13.440821736995794
Cd 8.842967685120772 3.163998294538318 6.27918175799493
Cd 10.024892181130443 9.265143322395184 10.68908815883897
Cd 6.818271697648866 8.315012132523899 3.6423362878706684
Cd 9.07970685330407 5.264898664776572 12.144970541469739
Cd 6.067201862960227 1.8043340818940548 10.881928459296311
Cd 9.817311409333076 12.763027388193976 10.707949949987597
Cd 12.005347774286449 11.044632328877103 12.199435066880463
Cd 13.259473319458456 6.769755209510852 8.196512463321543
Cd 13.062801826838092 8.82061005472709 10.302745935019853
Cd 6.495652738013962 3.84357482878144 12.851229760863085
Cd 6.751910931642686 5.464490699521443 4.545416632674192
