54
Energy = -24.44343035 eV
Cd 10.238277372783935 5.9188157180876475 3.7812760043607647
Cd 9.400975011165245 11.54186444781499 4.4963485123075655
Cd 12.447720195229943 11.083206791589145 4.96758848860622
Cd 7.568309357125574 9.787589930313011 3.0782070479845096
Cd 7.564857014621151 6.968606554927111 3.688127192748256
Cd 10.561100690022515 8.76153740636711 4.5647509941399145
Cd 7.833210000240041 5.966710599445119 6.538716751031444
Cd 10.305715118150896 4.076829597640759 5.989602472483937
Cd 10.546766825900951 11.197443312120214 7.5188286691441455
Cd 13.05229519623199 9.251343335328231 7.3201233275517135
Cd 8.227629852330688 13.465977272534696 6.658258729131205
Cd 12.354148135863214 4.1727799349612145 8.076917954089385
Cd 5.544641713536875 8.699654320303479 5.113674584553483
Cd 11.183573274797313 13.867254523359367 5.288819086792758
Cd 10.375520601414845 7.5164859729586935 7.607108719235129
Cd 9.450978839312246 4.563301957739676 8.828288366638812
Cd 12.452393949391086 6.470576930534134 5.731428325567147
Cd 5.267522299502944 7.039140249060299 7.520134544632515
Cd 10.516606582568105 14.668237185977471 8.062066375238432
Cd 6.331983788557394 11.633179851347384 5.1195938495976865
Cd 5.333575260567585 13.083870418157302 7.403410696022959
Cd 13.241677286444983 13.00013077155775 7.2626331359326635
Cd 8.28428452599313 9.447121910938344 6.640729532865959
Cd 11.808706035758727 12.956164534548101 10.084573220082941
Cd 14.038524325487646 6.526922378556893 8.339370999762512
Cd 8.132737089701447 8.25170235134247 9.370103291465101
Cd 4.855398437675117 8.08482247117961 10.288331458751863
Cd 5.573663544209288 10.01164525074946 8.01702186211282
Cd 5.962508362916666 14.192361343551813 9.914560896057495
Cd 8.096952029008696 11.465512407136174 9.17454292343795
Cd 6.7390622496801935 5.5350462318701625 9.621447977328895
Cd 8.922066713643469 14.40103309025249 10.477635286222991
Cd 11.507063966892035 6.4743466868644814 10.28812743485226
Cd 12.390394804464961 3.2596081363928726 10.803903177020802
Cd 7.195668559669882 9.912298419790995 11.66447651847023
Cd 3.5028622385783383 9.385159995309989 12.575262647791169
Cd 10.899269500061308 9.60716261546149 9.905216907429205
Cd 14.293141561728294 11.310715198238439 9.349817658645993
Cd 13.887553390390394 8.574005588768676 10.373491536709523
Cd 4.7729222635098445 11.48699655318431 10.58285319765534
Cd 9.009216398136967 5.0899749802124505 11.707299710740603
Cd 9.686264190326057 11.702772180668816 11.867686920673998
Cd 6.725208742384751 6.949821984012882 12.371524848643526
Cd 11.966568328401928 4.974966039575574 13.058278460061741
Cd 9.695819469964395 5.807891431523666 14.644485769397571
Cd 9.556294004060396 8.090626177984886 12.133121363586536
Cd 6.974657636359129 13.010205440730209 12.36230819384829
Cd 12.893623015555956 10.966648891913746 12.123930925145267
Cd 12.60726880624571 7.865513768827888 12.957596972623627
Cd 10.779845441613858 10.011240983307344 14.08868499600651
Cd 5.738806264862608 8.719050309947587 14.542533515331048
Cd 8.563803709458618 8.298902641970484 15.394229763957714
Cd 7.965677896568768 11.093843125714347 14.5144026447501
Cd 4.95089092514529 11.577582591561132 13.922748354994614
