51
Energy = -22.46002236 eV
Cd 7.882896020533997 5.517515729912448 3.630650857085669
Cd 6.394028320326036 6.113889119915785 11.673240554533987
Cd 4.080916163206303 1.3159707880109577 8.079522930142966
Cd 6.941148243591688 2.192246524972709 7.524798711700762
Cd 2.13894047832929 7.687409528408434 8.724159082850068
Cd 9.311323892688588 6.531764893965483 11.00208601508439
Cd 11.985714732541899 5.527499916130488 5.756857902078197
Cd 3.6490858851245327 5.74818325963795 10.467951736121243
Cd 6.336100308684306 6.059139947133776 8.444296749633404
Cd 4.036115078812012 4.333409445564061 7.732114798008724
Cd 1.2062450279712755 6.1119228300645005 5.806982517193404
Cd 5.365687777120789 8.526730297628696 1.3206256435642225
Cd 11.165000561776752 8.85486762781196 9.285127026939549
Cd 2.885197888864137 2.8277162768983994 10.563476346884123
Cd 6.564332788576223 10.692183452577163 3.047597244956149
Cd 10.58423602713531 7.065590199264012 3.512093478329674
Cd 8.554904196688549 4.0703657220806475 9.414585820960625
Cd 8.216734876641823 8.234713333051921 8.697563657551783
Cd 6.869689761986169 5.738417577161074 0.7954074833353131
Cd 5.810324636806864 3.340021280809703 10.21728228632477
Cd 7.47964810786738 8.97039900164979 11.603625922574137
Cd 10.38573056844808 3.922086944230237 3.8392004302358638
Cd 8.44813264718603 2.9096185142903503 1.5434941472077037
Cd 4.2138119091796 10.389679938684077 4.811683767972901
Cd 10.752801767804744 5.909923462889647 8.423291786541263
Cd 7.823610798263507 2.2003267161846076 4.494602310536355
Cd 7.042058939433151 11.864854045851782 5.752313108256811
Cd 8.35058567733377 8.244605001975811 1.8137020572222604
Cd 11.089709874881141 8.386286422937397 6.273100455715895
Cd 1.0858462304531786 1.7558959355700878 8.547890831823763
Cd 5.6737259823233375 3.502571543734415 2.6932880450131433
Cd 1.8091125772672532 9.05492118847617 5.996737544353934
Cd 5.88603769543607 7.5143571315648 4.140325630985467
Cd 9.607466795497313 3.4663294077431255 6.689019580093145
Cd 4.77436602799551 1.8395226540499736 5.141616019718426
Cd 8.47327848015324 6.554777518896628 6.264043065483387
Cd 6.725195878842674 11.199045763257905 8.914967036506154
Cd 8.878263244861182 9.416641671457525 4.553281184711818
Cd 4.157803777176981 6.97560276948609 6.479383866192433
Cd 9.415323946515455 10.738629988599092 7.381057599722938
Cd 3.378769340165353 4.69696755577906 4.193546706573258
Cd 2.941836786075639 7.951700793753976 3.4419133558776833
Cd 1.9751175245916543 2.90746689099914 5.995206008229295
Cd 6.381122942185344 8.926369881814205 6.5931422803632
Cd 9.451268305250862 10.91206095199107 10.610591405455079
Cd 9.933144127100096 5.432867246487985 0.9087556717815755
Cd 6.172625976725504 4.664119847492973 5.770773084260448
Cd 3.951187450073502 10.397529556325049 7.819785849702826
Cd 1.1211882322126685 4.7853886486116 8.512227992960849
Cd 3.972967329657109 5.842544938788505 1.5180119408539214
Cd 4.996685769214671 8.504397693004961 9.91004784737359
