53
Energy = -23.91265109 eV
Cd 8.733275432501449 6.610522132731524 1.4040751371413462
Cd 4.812017185816028 4.845913823478434 3.4153126730481724
Cd 7.84688656266265 9.657362160219277 5.3597977931832865
Cd 6.048771033129757 7.6066779307176535 2.0068602354853167
Cd 5.331838797633907 9.865103548379896 3.737451760509058
Cd 1.7484528514105202 5.468033686081789 3.4755049785615957
Cd 1.3052614563553193 2.9574960497775336 1.7350172222780755
Cd 11.254058261109101 3.267360129067613 4.40390042455974
Cd 12.28379035958362 8.754032618572706 5.78221823094667
Cd 3.3561770726243996 7.320897253752967 5.047374315143234
Cd 2.361760320330365 8.574811729483292 7.6725951248634265
Cd 2.4885554866021304 10.410023697923327 4.984316762086289
Cd 7.26918643093797 9.099977341840358 8.331102622176443
Cd 3.481510993401295 6.0324283109752255 0.7823091972735448
Cd 3.110434487456882 8.510243002245495 2.2667922664506857
Cd 4.928460267433918 9.901226911626384 6.707619096295643
Cd 11.293558399049754 4.659606739241552 1.756584014982494
Cd 0.24068378305121516 7.184843904693686 1.0950696851047634
Cd 11.114392170796679 6.450535255443293 4.197903259742855
Cd 0.4215455471935339 9.487362994010576 2.9882653601484135
Cd 6.301302038679753 6.956936952601035 5.096416165816878
Cd 2.5560892048318653 6.125618725926103 9.376487650349286
Cd 1.0011662666823753 6.012234632409392 6.519580302673618
Cd 5.080126741062147 7.082504197763206 8.049549866060731
Cd 3.8947409115614984 4.614510294400633 6.490963114191578
Cd 0.7376194871354224 3.1075738283427556 6.730435553099085
Cd 2.5272916899797737 3.241835235071891 9.220477221700552
Cd 6.195149627395593 11.891712835529173 3.470844836121406
Cd 2.529289562994391 2.4935842023976473 4.448795933717873
Cd 4.053026687669261 3.20775875088947 0.5627924265155193
Cd 3.7379500206051333 0.8610805845923125 2.2270684494545816
Cd 2.9957612964708176 1.1059644387778012 7.206634588454787
Cd 5.776006679908903 12.169267323647086 6.782940247847747
Cd 3.543290694573648 11.878622962790761 4.821567164884302
Cd 5.695541130624818 2.5829529621358964 5.169339797707465
Cd 8.034433843139666 0.8583931455195667 8.298601112983242
Cd 9.32388985183828 7.446600910992995 6.932490147180483
Cd 5.278844745887869 4.802451239808195 10.072674474655075
Cd 5.364468996273023 2.3386853078908154 8.481374824432542
Cd 7.796838973870555 6.505616795453392 9.647665569261989
Cd 10.355241214393773 5.12320699444604 8.530757048621993
Cd 6.994922141199278 4.6938707459166364 6.997855649994201
Cd 8.2801734794253 0.7992884148680152 5.038480033963606
Cd 9.542860546234362 2.8681455573475345 6.71405552857847
Cd 8.223283129529914 3.4539828294879307 9.742062975586185
Cd 9.58673505818029 7.71017872114555 3.944491847134063
Cd 6.587902881748503 2.1349947077904257 2.0614313335216057
Cd 9.072690301243462 3.491917050102958 1.2471485589577291
Cd 6.451803238366662 4.91508901865169 0.6032234288713053
Cd 10.331612891146948 2.509088117475746 3.7565575652787238
Cd 7.866159126246297 4.610746998255294 4.088169967888681
Cd 11.114392170796679 5.245755564923904 2.617652559906236
Cd 10.883900358869122 5.2686725928222415 5.559185185003785
