55
Energy = -24.0571717 eV
Cd 10.632019517533601 8.04027402238641 3.704658837945683
Cd 5.287725464233687 7.211233892668527 4.7836029879550495
Cd 8.204381739303734 6.528550578072389 5.046072368340846
Cd 9.27006326028376 12.794394078225377 5.3476606148139165
Cd 8.691148866504527 10.12029150121908 3.726550772602444
Cd 5.488970869841117 9.722253338143128 3.4189122030629076
Cd 12.902753164957668 6.562426324351109 4.677039814153815
Cd 6.665150033277823 12.268565300762582 4.363070776167545
Cd 8.331722477098909 4.602229618048906 7.475760646694538
Cd 13.515607655673039 8.779430652559729 6.419664939124007
Cd 3.6630497987596677 6.296160358509712 7.170763577433237
Cd 11.199186730782705 10.503368411824294 5.62257778089317
Cd 7.425235837096186 9.142357886056827 6.3009594297783895
Cd 9.047057304502475 13.9254407284593 8.166574712211055
Cd 10.669636240121475 4.906155389737286 5.520694814538892
Cd 5.730364366170403 4.442408475488014 6.048893228895861
Cd 11.721031945411234 13.394671625702536 6.816618396540469
Cd 4.365734592563003 11.22310675202562 5.862114553771334
Cd 10.230726646485339 7.924105797418181 7.063143436179395
Cd 2.835847018979651 8.788155477576355 5.5779539630944655
Cd 9.450397850859803 10.497521059427283 8.293997361940749
Cd 5.275346786697953 9.267635548529645 8.273665866855541
Cd 10.9544513642295 3.580991958897324 8.304722288793341
Cd 13.258106824743455 8.290178772656375 9.439335282518222
Cd 13.094935403529892 11.138593893430496 8.074640025297704
Cd 11.468867838460858 13.087256260810822 9.818368393122634
Cd 5.679602999906478 4.845365694081648 9.120066271608513
Cd 1.5649401483497258 8.27998768672889 8.181139296608434
Cd 5.347181272169881 9.460352588164065 11.553614271764802
Cd 10.647023930657875 2.583945071323839 11.072498289363173
Cd 14.477204162132216 12.155825011327018 10.467379099411437
Cd 12.669477361377 6.01530965802757 7.6875521625082355
Cd 6.781994992539976 11.982122819459711 7.479190561838048
Cd 3.7278523398995884 12.47976070835637 8.449914992712278
Cd 11.210077245803758 9.957960520349795 10.7202457721548
Cd 13.07249800871616 4.536486324622521 10.249816538364612
Cd 7.676646829521443 12.312389964370837 10.252911152118266
Cd 7.6128954469186505 7.313642754854074 8.614314911747952
Cd 3.801755757588753 7.225185732929652 10.085154378632483
Cd 8.416375240282475 4.528446486960336 10.589645712231828
Cd 2.7373005500003633 10.208963421180044 10.141679127992491
Cd 10.428200508726603 6.888466955287577 9.87070644986098
Cd 4.831338805006865 12.487635191262497 11.158058709037153
Cd 14.660064549625625 9.511801980653958 11.912947218944266
Cd 9.933582576923344 12.454520142742387 12.280978541945693
Cd 13.750025777652487 6.752668613710168 12.133276148046045
Cd 6.3394102039793125 6.642899153563199 11.477911786108988
Cd 8.370386287091863 9.090429358013232 10.944485062527813
Cd 7.174243420046404 11.331033404651114 13.007612274067421
Cd 11.19854573413292 5.237532326383897 12.491120129177167
Cd 12.873159879338775 11.652329626284534 12.97195857787336
Cd 11.507738168125806 8.369694626958074 13.36322481914332
Cd 10.79626136131689 10.930924673160836 14.879190367101756
Cd 8.689463725497797 6.491307786235148 13.042866782243909
Cd 8.524096931122786 9.114117827923137 14.361387334694266
