54
Energy = -23.00720945 eV
Cd 6.320301755484527 5.791811740639594 1.680460640626776
Cd 8.667606838081344 8.013667766884844 1.5615032736048717
Cd 5.9632291740719285 8.588068940738957 0.36172422334775456
Cd 5.199803212701165 4.171399317894875 3.8840469732368885
Cd 4.0956398265674565 9.616649922519104 2.378854528578692
Cd 3.696750389105514 6.805839474254915 3.2162791153351664
Cd 10.888719676054498 9.708562622970648 2.5738872489971336
Cd 8.231040573885176 10.642587730585399 3.4960712207340348
Cd 8.731592905033462 5.579219941640536 3.7245852468861385
Cd 11.323204643150975 6.762850935282256 2.673042348687944
Cd 6.696590634050534 7.974275614552897 3.9609478067349295
Cd 5.476021938617796 10.937418461882872 4.577658817243781
Cd 4.950635744190333 6.420830686313678 5.996583261444262
Cd 7.69489670223318 11.633987187110755 6.491275569697037
Cd 11.162510648490723 6.012402803506916 5.598299469576325
Cd 12.352241800229649 9.785095905530433 5.112340339559851
Cd 6.825223528732054 8.736033720789429 6.832762396288603
Cd 9.420392423404351 8.447229880984791 5.317983843480751
Cd 13.087408085601945 7.910296188868574 7.400428622690591
Cd 13.500991878033599 10.870907060985612 7.631436621870448
Cd 7.353597848266559 4.4394230209121455 6.077256007814353
Cd 8.840011034423641 12.5189228185818 9.173462524670812
Cd 6.8224052124616 6.172750944956633 8.429177157421421
Cd 9.73479532374382 7.615388959872716 8.137112102756145
Cd 11.71857610970066 11.911258585288811 9.81358690438272
Cd 12.294671553792714 5.0821772839445085 8.077065810011318
Cd 9.387944485769488 4.42704331491336 8.164241629455336
Cd 4.255874185066455 10.56999326795836 7.194656239528025
Cd 5.801861489858062 12.735514768653674 8.626491913851359
Cd 12.882694410722111 6.983371132411153 10.27222134428093
Cd 13.855920584392866 9.833867607873376 10.36249396398058
Cd 4.013994485277874 7.833598075606449 8.424856348473485
Cd 10.356914877304668 10.614282011468053 7.389884887140977
Cd 7.625832799862731 9.618201347706037 9.4840715190547
Cd 10.921712616753096 4.585418681620224 10.753752502457095
Cd 4.529738932099146 10.332170848095393 10.177198804023961
Cd 6.7488811315686155 12.10272361623338 11.398912238751077
Cd 9.66596106531529 12.394912504304791 12.061734254570084
Cd 8.582002810417 6.486692502499392 10.828938190004504
Cd 12.127971678736122 10.947388441465677 12.784412616525026
Cd 12.394568943792137 5.847102178252474 13.052820922576837
Cd 5.675305662812355 7.637548561404601 10.974986994161185
Cd 13.778999737396997 8.449504467361173 12.966771814439875
Cd 5.087117221931472 10.0593536646561 13.075671075224303
Cd 10.502432649220832 8.919723331086047 10.646572037023889
Cd 7.118979194872336 12.754841001892979 14.224523192379293
Cd 8.0563226215028 9.294125473289423 12.434299969011844
Cd 9.570709096399009 5.435673323361263 13.61054760289902
Cd 6.710948745256189 6.094208722044109 13.211803616243829
Cd 6.702773291254519 10.194669465713048 15.676509783170868
Cd 9.527287795307988 10.96458330945848 14.71486419869378
Cd 10.734089961703686 8.358801482384601 13.756449651478997
Cd 8.268400682445533 7.664401790481369 15.465782775868783
Cd 5.0669459060379936 7.712274113497005 15.08774436223697
