12
Energy = -62.06597484 eV
Co 5.7641496643910735 6.5223300558605635 5.048378521312475
Co 7.923353676819774 8.973250804579841 10.413524127516947
Co 8.708323303874792 8.431062780443611 7.228430601492686
Co 9.446410783253357 9.750959732404112 8.953411042988177
Co 8.016011734346595 6.947704514446391 5.272241908811302
Co 5.799095537908263 5.961720706420456 7.2840858156298935
Co 8.092886145914333 6.132895707333142 7.420077231014758
Co 7.139219535464081 4.868224000379501 5.757526472159847
Co 9.232497851964704 7.4687633619125195 9.25323760898698
Co 6.491423048674653 8.04869329977357 6.6091840079501045
Co 6.957713920335772 7.546033723683574 8.89611157620422
Co 7.213553727473687 9.762851482576156 8.35928358838591
