16
Energy = -120.32438882 eV
Co 5.287550977771092 7.642864041626075 8.81004053762892
Co 8.773831448913006 5.5322613135061935 7.072841322783462
Co 6.600541045696776 5.375250133320259 8.043761117128522
Co 7.273254097662618 7.9642460056337745 7.503417157182444
Co 5.613422878494257 3.3576757728649764 7.00167026481851
Co 4.320744348570342 5.77771777509178 7.493496883861826
Co 4.541444720244376 8.457319737855844 6.756499437056007
Co 8.703030219785674 7.124798078225274 5.516761790750448
Co 3.5952312652035316 3.9559198367589223 5.986712373660987
Co 7.426760594706818 3.951237282812592 5.631974131774361
Co 6.47810343135138 6.144671763531408 5.727048136484426
Co 6.304881042663203 8.473869172961832 5.198011949824463
Co 4.115429234457808 6.527798800403966 5.254232046483282
Co 5.278424951478483 4.251588680207595 4.292133359115102
Co 5.461433653318534 6.966433304625346 3.338795261674547
Co 7.271620537150051 5.677387840067931 3.464316516081057
