15
Energy = -79.52728424 eV
Co 6.79073142304432 6.447532160559262 8.462530485439466
Co 4.929638251797907 5.242092921922881 9.053069236612995
Co 4.9337687897072495 7.613060681027088 9.136749288109574
Co 6.096267556344217 4.562484686774725 7.131184216468942
Co 4.656881663370925 6.496217364104123 7.152085634804624
Co 6.099380131857408 8.42315350420062 7.264815617385619
Co 8.462444752686729 7.705401980940066 7.155500344085618
Co 8.460844801072195 5.279678340176367 7.067648426768865
Co 6.76871114219507 6.530651096561271 6.107225864278862
Co 6.718674959243197 6.610760457632616 3.82876002049115
Co 5.1031036571823805 5.356287009887093 5.013357885375079
Co 7.395996913158453 4.578761355393384 5.010755248663073
Co 5.10770626463126 7.78449455992699 5.0965480036924085
Co 7.401992132352545 8.553696782799618 5.150455268428826
Co 8.8231166384778 6.562987214201325 5.119081439286435
