14
Energy = -73.15850724 eV
Co 6.398405878212793 6.5032447033205605 4.246373256387272
Co 5.0035462970162 8.31396257541728 3.8448598452486618
Co 7.061476702413553 8.554356462524852 4.845128458045294
Co 8.151061886435748 6.56004562842974 5.820851821654307
Co 4.548242403147444 6.711991373373031 5.456616916363218
Co 6.2953706525632365 5.275155602049234 6.289879640211187
Co 5.17437324700372 8.765917779487056 6.090795975323607
Co 7.1999287992816265 8.160368030497263 7.164640104024859
Co 8.322697969787585 4.7560833641904585 7.427518151491342
Co 5.358047224566285 6.873062174394824 7.662944070299523
Co 8.955847509233253 6.809215230730081 8.048105344363274
Co 6.450935456271527 4.969516408782876 8.659888925165063
Co 7.099338968408937 7.026382856875436 9.273252097777387
Co 8.496634382510914 5.2366051867796175 9.685052770497576
