13
Energy = -67.23383967 eV
Co 6.523657828892958 5.371553390760117 8.42694481664436
Co 6.418662101433178 4.165685587289669 6.374557997537282
Co 5.3371784658226895 7.473512799529485 8.301420095712082
Co 5.1342979247097285 5.6009261833280855 4.761848762440344
Co 4.5998813300008825 7.572101904979141 5.994704813282892
Co 8.464154959846274 5.27898140098349 6.971595489886145
Co 7.51817624902924 5.523094407197561 4.754935690083083
Co 7.794395385599479 7.353734786922067 8.102819084809417
Co 6.391738970139088 7.611308075722178 4.405090116311347
Co 6.569644410241539 8.762061599815867 6.605066582788141
Co 8.434266502231015 7.4607688203762565 5.801125671931356
Co 4.494990721498911 5.513011636671505 7.190359747109318
Co 6.479302127961971 6.478396297048454 6.476671448564543
