18
Energy = -97.41165025 eV
Co 7.420100653680546 6.387317400211652 3.450702872485625
Co 6.180559532980013 8.15465892560436 4.577406519403189
Co 7.842093559178164 6.978680538450578 5.786974796256548
Co 5.8321063670818045 5.922664786558105 5.104668826594125
Co 6.668818936738328 9.027602470879536 6.581365586229607
Co 7.961759326875448 4.685945474377402 4.783169450111459
Co 3.991128671750823 7.043431830472944 4.1136078542732815
Co 6.072420154963238 4.295676900508877 3.4632343552366276
Co 4.623886779423795 7.660408412187717 6.285740370201981
Co 6.4249001515952235 7.096705956249734 7.620003517197998
Co 3.889306668528323 4.706832036782455 4.342545711575596
Co 2.888769763498981 6.068215104677096 5.902843581200292
Co 5.618458115119768 3.6357410951704057 5.699988892701948
Co 7.71929405437054 2.904244446079537 6.153844009186463
Co 7.1403603282250065 4.905031319547701 7.029661488834501
Co 4.705165883472579 5.366965311266467 7.1793982325724786
Co 6.094133365929818 5.282779428452962 8.981147583606912
Co 3.3556056724609062 3.728563374473739 6.315359746599099
