18
Energy = -96.60247987 eV
Co 6.194562120312371 6.588107077629906 7.341320934979608
Co 8.2531086025394 4.361730912405306 5.33318822524844
Co 6.020754495973824 4.648227199416964 5.693293573192783
Co 4.998932255360223 6.924979536171733 5.254629939249257
Co 8.456533886778592 6.414209790281985 6.316360979716201
Co 4.956920325489222 8.765249908327043 6.699805704203387
Co 7.450884571492428 4.66364258986141 7.5448609904970265
Co 4.53448675303577 3.377120237846278 4.599735011391109
Co 3.605570065845234 5.121013524009808 5.645283369207236
Co 8.957992268161052 8.578216427488549 7.014688954173771
Co 8.195180983638727 6.855136180563919 8.540707556558582
Co 8.714941492385558 8.98766728055477 9.258666397535462
Co 3.8345186220512355 6.782077384390445 7.260145534358118
Co 7.111597449338156 6.196839678470843 4.364913330512488
Co 6.874051001972252 8.751003945062738 7.987167886880371
Co 7.0449474780332935 8.202084379940258 5.697974165419937
Co 5.075791884029657 5.307420415574198 3.5683473454491175
Co 4.818996396899834 4.7080613373126905 7.601706665784723
