20
Energy = -109.7157241 eV
Co 4.0191163523888624 5.9945482749803585 8.300554410073659
Co 7.751783519136449 7.987217125097779 4.398996070222979
Co 4.237680677947649 4.564534932850617 6.219373419243975
Co 6.092893289280275 3.460623302478746 7.5812874305281746
Co 8.236005895740275 5.654439848727051 4.756231046345643
Co 7.498363507602596 6.3722607999782515 8.835412177772417
Co 6.310595663885218 7.199382154260519 2.780883885875213
Co 5.949928508870236 8.61309075005019 5.853632200092682
Co 5.7815692449957155 4.917351818432171 9.359508981205224
Co 8.084994394151078 4.826709987972982 7.108348613299495
Co 5.7050691821732755 7.735946315049424 8.079426671929365
Co 4.583819806496261 7.9951023793862666 4.074276409908887
Co 6.288910175155399 4.903060405329106 3.2493969751288048
Co 7.7155998063148 7.1509004359630906 6.633631712839514
Co 6.1144085237611465 6.450370584428311 4.957952279111823
Co 4.715323963664172 3.4393604540423355 4.194009238905419
Co 6.536976636267586 4.1141364430547815 5.410865084292677
Co 4.186436981701663 6.9877027857486755 6.202660541246864
Co 4.123822365662129 5.65104672388585 4.1018804762369525
Co 5.9796416312161895 5.7006378742875095 7.176829433349309
