22
Energy = -121.39867326 eV
Co 9.889921300657877 7.800811663489705 7.486278970035365
Co 7.756365502116122 5.59930115175854 4.89683247726402
Co 3.639509186559676 3.443473079452778 5.797485740279914
Co 5.842006271766226 4.098078439773466 5.116641617101403
Co 5.996173894113058 6.305081303634048 8.54940159552724
Co 5.750002745394005 6.411843399405941 3.842546298165228
Co 9.566884333010726 5.539180248541787 6.371853600073703
Co 7.353774076052846 4.588848276165566 6.974583422936224
Co 6.854787602480287 8.005755145747662 5.11420367600555
Co 9.162732104791797 7.565049321454495 5.286548405635236
Co 7.932072490896225 7.153551433415687 3.255738338219134
Co 4.033976458992778 7.435748168262942 7.863366789314019
Co 5.919963571979082 8.412697015606192 7.173559360888731
Co 5.616489043158619 6.1162152208787175 6.225540118119775
Co 8.210683417291579 9.171317951598066 6.832000915668942
Co 7.481827919856209 8.216745126515029 8.866384727214085
Co 3.9281530951930823 5.395559938055045 8.983170896889407
Co 3.928389235323414 5.319172279216558 4.509331963578974
Co 3.34341907716572 5.64599477365281 6.661926604754722
Co 5.084711029828428 4.184527777675242 7.416384774080841
Co 4.2718175450483615 7.705223044953647 5.38412679139781
Co 7.850432218098871 6.829891225154654 7.132487453044525
