30
Energy = -170.73447545 eV
Co 4.927970528576278 4.002582671271032 1.0295311540731296
Co 6.605246980135048 5.588779607945462 1.7390925801384969
Co 4.213720738983636 5.792763643736074 2.2175983001415456
Co 5.685583351833624 7.856269796815013 2.27779257227725
Co 5.878934220386636 3.7668026370831598 3.1235308615661164
Co 3.5074808771059733 3.507187608117966 2.8923706604502213
Co 7.87808517488493 7.287978627393831 3.1921470786124675
Co 7.927631954948848 4.922123710104763 3.859305939146381
Co 5.98317415435044 6.231264159970759 3.8112403816923095
Co 2.0455757010512907 5.324144422619613 3.5727647032807526
Co 7.124502688907191 2.5851999049649352 4.825193319517314
Co 3.9317531401253114 7.379401722739119 4.041668071829476
Co 4.091747872851516 5.021685812236136 4.450297670043793
Co 4.678861326818384 2.7908042974270946 4.9979288590348
Co 6.172795682923096 8.336447659540548 4.643705408800457
Co 2.633619962877472 6.20900424266968 5.764011358678546
Co 7.496800707268854 6.573608799234661 5.620623882507254
Co 5.030133602354886 6.790822201566417 6.104351702487232
Co 6.154140626017921 3.003532820618346 7.106797261406953
Co 6.214550224727224 4.571445405402012 5.442040850303498
Co 6.61150372884199 7.582367313393008 7.545753270329126
Co 3.9587897113169905 2.2356874350266773 7.201632326036494
Co 4.193125124811202 4.59484215868747 6.810407869465501
Co 2.428902060021848 3.7603050404707146 5.502327142372679
Co 8.290444198292324 4.1232353026096575 6.180137348177148
Co 2.598211699603756 5.910083784779033 8.044259036312578
Co 6.707426253023174 5.264705814433544 7.607523152504216
Co 4.776293656640343 6.271504230040132 8.412396404583099
Co 4.700300475191817 3.848408107431332 8.860049183343532
Co 2.3631547087319205 3.677472195276401 7.933982784491563
