31
Energy = -174.83739023 eV
Co 3.6848548497871434 4.160787240535881 5.282681422989526
Co 3.7402124767816747 4.270602680227085 3.0773190719766217
Co 7.142979704497218 5.649532199799092 7.50750297199558
Co 7.6109495908229094 6.213772510385189 3.5971861966441665
Co 8.810108676734867 9.059574404722008 8.866115870460154
Co 8.358070894084404 5.37906713021614 9.436282726839979
Co 5.680287254106769 7.707601378877005 3.5042752773588015
Co 7.088921298628253 7.515743476829042 9.140975054244866
Co 6.380891653125712 4.1617647796926365 9.160838849126492
Co 5.170315593099007 6.128881750855757 8.845413609501742
Co 7.920839685553587 8.36502598001789 6.84976170710578
Co 4.27836418416252 7.8770882454198805 5.373676804337176
Co 6.572787799079986 5.89691829052148 10.707133576128934
Co 5.444584501298489 5.358381829502335 4.067038736801792
Co 5.499485351649265 8.08690368016596 7.461321662820437
Co 6.508940655432966 6.990471956391612 5.544491640191153
Co 6.166654594173407 9.32905518146652 5.551206143669695
Co 5.577151516265092 3.0838679958263238 4.71620484976856
Co 6.748683437175564 9.892167111457743 8.025694877230928
Co 9.038306785533955 7.336015105692318 10.362228451126395
Co 8.06564031499158 8.335553831239988 4.4438720623956725
Co 9.789959947445876 6.803306932162186 3.7344341380354655
Co 2.589304866022474 6.203422941601556 5.638937717927935
Co 7.211888229746404 4.592750689231792 5.412468373734771
Co 8.840361555603419 6.398605285482849 5.811872851884294
Co 9.374938588816722 6.935253054622702 8.006852011063264
Co 4.714252862212716 5.79981696646641 6.552915087709235
Co 5.621911954743377 3.7921480482325185 6.955174648105156
Co 9.264018115204609 4.671062753439304 4.357971449696879
Co 3.376178773731298 7.324798718722909 7.609923574810417
Co 3.5261634651703226 6.528268203389806 3.583397969265478
