38
Energy = -220.24529822 eV
Co 3.5867396830278895 4.255199877327214 2.253879471299559
Co 5.642486903437059 5.788108386763626 2.447152015639472
Co 5.645924675262231 3.1717074882719634 2.0599768628033774
Co 3.5198974694167062 6.60974754905611 2.027686053489482
Co 7.971140054351164 6.416080001153968 2.670904202966402
Co 6.523133694318345 7.860183984311228 3.573509296169523
Co 7.320093341832745 4.243329549534375 3.179017901950502
Co 4.167449494264793 2.023161112680268 3.424733824243223
Co 4.419258215702219 8.749548440310182 2.971524497914388
Co 2.4680645872196525 5.539356207634989 3.8180275605431016
Co 4.983414279848893 4.184117546382472 4.114224515743775
Co 2.2750184417427772 7.9365941454984625 3.557920961788964
Co 8.026996220926826 7.574215922786411 5.408446636641626
Co 6.358626978107813 2.2770435943220617 4.301486621798285
Co 9.024774705607292 5.612485019792578 4.542637758825792
Co 6.665613756300165 5.778203889075208 4.8638523451607645
Co 4.387829107340551 6.808956725098283 4.249844275097488
Co 2.762174567582152 3.4159229565304012 4.635409922652989
Co 5.809310552976821 9.822944464151893 4.5037858364946715
Co 8.136830100157551 3.5501906562662597 5.23050450216894
Co 6.75468449842982 1.8048823768706466 6.630600623973419
Co 2.3620054427689334 7.000654055383838 5.704871927058767
Co 3.7592098430146645 8.914886254736613 5.218307622231747
Co 4.554327383009225 2.410617141208662 5.806788114240103
Co 3.964637612372001 5.240893640396319 6.061418505662352
Co 6.165963177241979 4.039400090500971 6.493226824492367
Co 5.765268249450772 7.965606547994437 5.856784526914145
Co 1.392259578728501 4.847622151758242 5.847403499213218
Co 2.957845762847229 3.448377455878511 7.156197604733009
Co 8.316377436620762 3.3243443286618017 7.533174280957943
Co 8.159996928060874 5.486170916287169 6.732662171243344
Co 7.094925433601707 2.0296248330115616 8.965885347968527
Co 3.9686639196859046 7.337947737954023 7.28138432314742
Co 2.314972517306781 5.730058945535308 7.785602653089595
Co 6.0994868590730285 6.2701083701654845 7.360789502624022
Co 5.078839053879234 2.7107190983467517 8.111892181611045
Co 4.414443575381083 4.974042128614474 8.352212451251754
Co 6.696006870765002 4.3616373814100005 8.780963747857006
