34
Energy = -191.9855647 eV
Co 5.456278825071179 9.256482779577148 5.979066645731057
Co 4.351139112734724 5.6847693548593465 4.094542184223227
Co 7.333882115358358 6.9141926458072485 7.777017944708178
Co 9.935722746205796 8.634041654932663 5.3483936686005
Co 8.257884880872757 7.151608677765574 5.404703107841359
Co 8.426627160544047 8.872094046002262 9.658219471362258
Co 7.915539772915539 7.189245147698275 11.20470258237757
Co 6.81158956157859 5.745987099691418 9.8186184874486
Co 9.092280232365415 8.399478652481369 7.445693680541051
Co 7.271142065122065 1.2575587443787013 5.359220763980719
Co 5.247106446190295 2.1418326389019557 4.902699146181888
Co 6.758892990735891 2.9826036895234176 6.851318523134647
Co 5.610528117203919 5.231664495080336 7.799575096693186
Co 7.9272633200474045 4.472535066432436 8.292162321111658
Co 6.617964447873552 11.095263283823456 6.516960419750365
Co 6.634794559706116 1.8070124924117685 3.1322351381429763
Co 5.355964968217259 6.997188530898956 2.536599914110358
Co 4.197268870159617 7.894141720549358 4.521149728520883
Co 5.83554708864378 6.772301083142408 5.769702944104307
Co 3.679448499309271 6.300568421281446 6.372329477960142
Co 7.890742570488554 9.507283135275385 5.603778664971519
Co 6.278913123223433 8.006400709135693 9.722079329938612
Co 6.583513583871152 8.172139330100293 4.089160440596893
Co 5.359048027502006 3.777756372024373 3.1572149487917063
Co 5.186327917447862 4.3087791719950905 5.743419739965151
Co 3.4241690255017083 3.5963978348429384 4.430345712397335
Co 4.571451399064744 6.33704459897166 9.536983193865499
Co 6.765426837095656 5.737614490506142 3.880228146050738
Co 4.995587849356911 7.730600892864289 7.79312407670017
Co 9.013751205187173 6.6567217436290225 9.28516113884109
Co 7.247414424044995 3.442094615658358 4.5692116286699616
Co 7.502379074961529 5.1192797242412285 6.181492055800849
Co 6.9962159904737025 9.33868210009991 7.870710908306678
Co 3.320726797873312 8.634844099746287 6.538958784740733
