39
Energy = -225.14409816 eV
Co 5.958023420682906 3.6127532633470985 9.019182150848923
Co 4.078688929283251 3.4584753595006945 7.349606028869847
Co 2.746711675376803 4.055967965320047 5.356219017310969
Co 5.87594307447517 5.185098145480033 10.882214696466392
Co 4.369981504960965 5.236295590762223 9.211244550684262
Co 6.342251511807002 2.619761074871604 6.905738339307555
Co 3.0609987036523627 5.556808305726092 7.25041325716237
Co 5.03058593026323 3.5632214717990474 5.1367904216298905
Co 7.9037286267493005 4.068545555520817 7.807049697498232
Co 7.37734702925493 2.9806557766609303 4.8529513796758215
Co 8.654863943149389 2.244636764220948 6.62332437230676
Co 1.6188715190427887 4.94834994533586 3.475785951026527
Co 6.835669539536596 5.920178112570397 8.913153039042095
Co 5.760166832054147 5.020428132833958 7.032280979262855
Co 4.317781265094685 5.816116683407592 5.255287504291952
Co 3.836788133009771 4.713165436211877 3.19059937873964
Co 1.7282194400436592 6.166477370662298 5.442229691417393
Co 5.492816321428687 7.340637901536232 10.034731808039767
Co 4.6952794668253715 7.141323292207981 7.903473039300124
Co 6.138905561940236 4.043124704613891 3.0837374598674536
Co 5.394713822514592 5.285279373894345 1.3564418223497072
Co 6.864610170673392 5.397556556178824 4.856104791975329
Co 8.948730126373277 4.4143118406195345 5.757565619336089
Co 7.504083573834722 4.264044999864853 1.2338511945391957
Co 3.303840337689952 7.773463225072453 6.12223356513465
Co 2.994560722119774 6.934041527798543 3.6891158711533856
Co 8.013097934936942 6.311913423866658 6.876499141018228
Co 5.329758935150337 6.580943210296415 3.2413405535688717
Co 6.829749188905152 8.189375976770718 8.136091491236305
Co 6.100662037011126 7.396631844113212 5.998061521276246
Co 7.487495126766035 6.150235798314022 2.460066472689416
Co 8.568752360217932 4.388801218865448 3.4185802242184757
Co 5.069245504536321 9.291723112408645 6.891494420335253
Co 4.72000715243703 8.510070210574483 4.43165360365829
Co 8.842921798581697 6.580137868207737 4.621748375454066
Co 7.10830400546561 7.98347102016315 3.929409882915325
Co 8.195541467116913 8.493195306070733 6.043087712663528
Co 7.257106249477318 10.24418768408595 7.33146244221642
Co 6.494655149711408 9.854994889914819 5.181199099808288
