32
Energy = -183.04882506 eV
Co 2.8182469823920835 5.047741869268958 3.8876205299846056
Co 4.995335676534822 2.8370279852834743 4.695253061365174
Co 2.2732643405274158 7.283660323702438 4.144013094091364
Co 4.487019982450572 6.743614059559445 3.397933813671332
Co 2.5185034819218175 5.957002043278347 6.093695315386892
Co 4.934534625685392 4.435572090630237 3.112236270578571
Co 3.9044978240602513 8.983026640690147 3.5201505733070184
Co 3.1012520772094017 3.603400792049778 5.741139976512027
Co 4.618789609669438 5.362498408133794 5.391871700227963
Co 6.1088274846775 8.355120158149978 2.988371126525577
Co 6.743636390676812 4.505828987980552 4.688048126668704
Co 6.706112057073776 6.0001640454530625 2.760383911121575
Co 4.069908152387197 7.701576125739926 5.550336309171459
Co 5.638096469118441 9.319724627878161 5.0523878342036905
Co 3.2564760122093372 4.478366019868827 7.87085237970503
Co 6.480118909189774 6.997134900017546 4.831488788347402
Co 5.309827290107714 3.5554200443503836 6.860243909806802
Co 4.393819636472988 6.468107230000368 7.5916097617356115
Co 7.24644984053281 2.6067190324710445 5.9291189186444155
Co 8.561777816976782 5.871934514368036 4.216573990141154
Co 6.1519819971938565 8.01927981533597 6.985113880999294
Co 8.831576181013801 3.5406287729431436 4.324441248893949
Co 6.544513363347248 5.605342690354807 6.993497768670285
Co 7.819045082792605 8.868148392593266 5.507408715939
Co 8.429266048697144 6.83475854818761 6.324364210613583
Co 5.361238758803624 4.713094817301448 8.907165034916616
Co 8.644623471201314 4.484922613934118 6.335025245812214
Co 7.351909332490922 3.6989688890791013 8.117370823252628
Co 6.458212854513998 6.809534678404223 9.056198194818847
Co 8.136578469531123 8.212010227966728 8.096622507436624
Co 8.465540542462088 5.82881389822679 8.463708460909906
Co 7.24903992004202 4.880877438763426 10.175775198506257
