37
Energy = -213.65650558 eV
Co 2.101163576025511 7.13964776476961 7.7199397736716096
Co 1.3857562304897424 5.1036116927519 6.741719521439216
Co 2.3027208962680383 7.01020282271612 5.34119618346335
Co 4.045151063333317 8.072280206699075 6.7894420443095935
Co 3.9401052176830005 8.464320154544591 4.510494233133935
Co 2.5896517261119287 5.049104852018271 8.669893239866779
Co 2.661432929662302 4.345556491910588 5.010331915806337
Co 4.352174482633411 6.5969728739625975 8.697922917958962
Co 5.912470781763593 9.152371950204657 5.668248347319908
Co 3.909657486756179 5.997485603481251 3.894953466581491
Co 3.7014717986651973 5.74073939584329 6.601990900295286
Co 5.528042819097552 9.822755541598506 3.44157390345177
Co 3.5434808013470747 3.4878163226117147 7.10213135885181
Co 5.179224529934016 7.665548852369545 2.749919203823117
Co 4.005319988044222 3.7720841235248654 3.1773740922069242
Co 6.201839920891375 7.706827945979221 7.621615460683415
Co 5.612793692208048 6.85788583274479 5.258546433933752
Co 4.731749914431985 4.224191513875686 8.97648093096243
Co 6.047323288486203 5.333645167421192 7.3065705373501775
Co 7.157853104056168 8.246077486853757 3.894511720088154
Co 4.993960141952164 5.398377039661318 1.876800311454326
Co 5.060796111111489 4.141164441129204 5.30528618063305
Co 5.851872116461333 2.943998346272976 7.257587781981612
Co 6.823623569034502 6.059729254683131 3.0514647150301393
Co 7.843912491141152 7.361205629226003 5.9901572739976245
Co 7.0344175379603895 4.008436781008819 9.169254339718321
Co 7.385556764492061 5.113612803066032 5.139253289950526
Co 6.41941407625812 6.189405857868109 9.551514727398633
Co 6.3145398857705946 3.8022527532851043 3.292824253872246
Co 8.139794906722209 6.202978570232615 7.973296838847602
Co 8.043922393851172 3.934627969588316 7.133462762981723
Co 7.0734675828007125 2.755462716672373 5.254654783134506
Co 8.902975983946487 6.5688245473235956 4.031950060224737
Co 8.570298368180952 4.397046877500469 3.1649333911415787
Co 9.498450967666528 5.565164444740087 6.1102401592054685
Co 9.270315125982533 3.4691036214979034 5.162238015578725
Co 10.605561737997418 5.041745759580423 4.102488938870349
