41
Energy = -237.74955289 eV
Co 7.968143480869114 8.09240457599349 3.2193621047639174
Co 9.621814379588807 7.929968179604427 4.736424623807871
Co 8.742213113842192 5.868868221345479 4.151707093757568
Co 6.510975714640779 6.4459963851227675 4.202908170144636
Co 11.759946797506045 7.614803731846085 5.125316969836429
Co 6.765437072855412 8.590316715456117 5.125447773182999
Co 8.553165984834294 10.116008201181293 4.644977797028639
Co 10.730106820219785 9.926349421551944 5.7589251932746315
Co 7.845459356416404 6.652781133142779 6.21925448974869
Co 8.466572688812157 4.347300197589883 5.890934388552593
Co 10.151842983175548 6.015407778634407 6.155102070513095
Co 8.813660282654787 8.976451222203874 6.5955271222234755
Co 5.212682166348303 7.031221868294842 6.11018377744184
Co 4.819097730244421 9.40370744523701 6.784168990491509
Co 7.00433713314408 3.6095052784307873 7.680479344365946
Co 6.930599280458989 10.529880022897464 6.493753358409518
Co 3.2191869026709194 7.73454089889976 6.814219432094289
Co 9.154166191596675 11.290412499412986 6.882965132478117
Co 6.178296017956265 4.938714115565539 5.978758681113077
Co 6.681445901356863 8.326742861315777 7.520251845573657
Co 6.7642881556772 11.74811021751019 8.461691124809823
Co 10.997297475044821 7.908883351412283 7.201035506294497
Co 10.342634785318063 9.78495957487119 8.307534304032579
Co 4.6625711827350695 7.594913494818488 8.506809391581461
Co 5.528257029352516 9.812078096681145 9.079593832491167
Co 8.084592338730378 9.97260313074394 8.619325557961169
Co 6.364385248846312 5.9564857919018115 8.136885604143389
Co 7.2206741834470805 4.576078645493648 9.791381275245966
Co 6.878407782999667 8.001562798788331 9.831180009814805
Co 8.92459545713365 7.5733395831692825 8.46694802526252
Co 8.665371504632263 5.202194224966632 8.03180823074098
Co 7.278638589729575 10.56672297777322 10.624193227122504
Co 10.705155942720294 6.010745376003617 8.599419139488402
Co 10.913791371106626 8.015877934728497 9.7247668247919
Co 4.458298920795331 8.198057495549568 10.64196701219796
Co 5.782228655349834 6.234263879930752 10.65597950170474
Co 8.803852215457088 6.202121023676989 10.331513467436125
Co 6.068608746183257 9.169992349153368 11.82452306587041
Co 8.94891849240777 8.792818947879221 10.589956622175567
Co 7.549615545150488 7.494918866902254 11.988246295816486
Co 7.405419731477016 5.2186448378060195 11.971326975702393
