41
Energy = -237.20694148 eV
Co 7.390775425240205 5.098074170280125 3.015895871456329
Co 7.303370043807006 7.192303730359688 3.840331032169059
Co 9.013878078246716 5.573843445266456 4.672517671047609
Co 6.9623250062581326 9.58201514971574 4.451343586448024
Co 10.874462001417523 6.900634263586437 5.29763001079879
Co 4.72334675861532 10.15639584744817 4.616409786117375
Co 5.598241818114556 5.622845880668824 4.544503597916662
Co 8.794363358427686 8.067084926442885 5.3272503875771795
Co 7.203915230091033 4.102619654860011 5.066566101551775
Co 5.777742835082835 4.54369597669203 6.8544621662416425
Co 5.291880403922122 7.938814517766146 4.842134481820343
Co 4.292757504153052 9.076120329050879 6.6196260546666075
Co 6.68288998197231 8.76503386758904 6.585381881730516
Co 8.6073561665338 10.243118024729895 6.0654529808040465
Co 10.568663325686087 8.873290351112676 6.593191673620663
Co 7.237957963669418 6.315070498530122 6.081939815251511
Co 5.768159994098719 10.894661831940954 6.518353666723453
Co 9.502285808709592 6.489197158660632 7.055659697011424
Co 10.817301276849728 4.745810829599703 6.2700931636182045
Co 8.675043528100995 4.109651709120222 6.792221964849574
Co 7.567025912959187 10.617161946189238 8.071960077438517
Co 6.117703998317674 11.57256080233241 9.446419402778234
Co 5.0659264519891885 6.795960197834409 6.936324886947187
Co 8.329532717525307 3.6137471986111502 9.439795056589741
Co 10.04437517871429 4.83779469365676 8.600228514701802
Co 8.728380334889845 8.566453836619337 7.853872416190579
Co 5.251205110767426 5.595459135812999 8.99672494179054
Co 7.449938362712042 5.3033287256139525 8.254377484313112
Co 6.693711159305938 7.5065731016116946 8.64192905941028
Co 8.998866726296978 6.787972394816687 9.426525084633703
Co 8.393684809530287 11.26412120256658 10.16491400516977
Co 9.869485443963452 10.617546316783447 8.211771739719506
Co 5.400254634356974 9.578732792327846 8.574879067296408
Co 4.193489178945266 7.685317926560339 8.884327736808617
Co 7.033177438450607 9.370675602272502 10.237802908257361
Co 9.421645762346804 9.140636329189055 10.008072944159935
Co 9.298041272307547 5.038147084765732 10.888342362964465
Co 5.734838819124718 7.36338344954646 10.724384398533992
Co 7.121075959554284 5.491500818251632 10.54004752905505
Co 8.037243764451468 7.563941690968854 11.361064548308427
Co 8.52801773333226 9.763039869087129 11.989607522350845
