44
Energy = -257.87399559 eV
Co 6.243352223340562 7.141952686430287 2.07166747290745
Co 7.218849130874946 4.867772063256124 2.329373913230959
Co 7.993308967450156 6.723409656884501 3.6074063943834105
Co 6.1353284172374964 10.121337609600687 5.632993914905825
Co 4.850772311228824 5.33129879968498 1.669333787027731
Co 4.120950815305812 7.47837548439549 3.1151536719961754
Co 8.218520891069101 4.521759551862613 4.653137703877012
Co 8.03904933228779 8.402476640450967 5.48264513962936
Co 6.065845022289865 8.120544693368855 4.2294065070254145
Co 9.331272544960349 6.442880774715595 5.674640999137752
Co 5.702639427956402 3.2133228844041217 1.4836832507777515
Co 5.626725955805067 5.670501594487937 3.857384083580793
Co 4.152920651710573 9.147335606094813 5.133809001920239
Co 7.477308031755524 9.671165455183978 7.428196917143685
Co 7.067080539949834 2.8684097200056162 3.534721435977212
Co 6.985637923274005 6.269753540990047 5.6546998645954245
Co 3.2281972847191684 5.361625136186151 3.3475300210642733
Co 4.122190544418855 6.869739192934718 5.407546697238257
Co 5.838971933315163 8.042809268333363 6.757301213106905
Co 3.3183734670567335 3.400930438364153 1.8795883498065389
Co 5.393481232454862 1.2780838869300304 2.6272275152098734
Co 8.064164849320745 7.183419271701275 7.546591827071941
Co 5.135514268514872 9.84503904843312 7.910446670651466
Co 3.2644715683466394 1.5914618795751967 3.414280028688587
Co 6.7007137917239366 8.31687839870131 9.104794072701607
Co 6.123442167835588 3.858022075392071 5.684662213871138
Co 5.765559265985969 1.5211064609307448 4.901409226395252
Co 8.071350776018923 4.73250162624861 7.020016424628663
Co 1.9617637338567722 5.865234902924315 5.321817341125743
Co 3.4231306353894926 8.254534956229296 7.174853741634338
Co 5.39799225284504 5.585367895397488 7.233057697147628
Co 4.769538394696974 3.3627392679016164 3.6699804231412823
Co 7.787909690146516 2.4256514388391217 6.017835913436677
Co 6.825548870003718 5.920952987679992 9.042182976751873
Co 3.8677852158603825 4.567359839324461 5.562835316251328
Co 2.216781665727004 3.4892168335828555 4.277871499945414
Co 4.732811626439488 7.2403707836688875 8.76770742072897
Co 6.442462812892659 3.65381935428577 8.20218395263256
Co 5.5931183918077165 1.8036937428594537 7.14510384541976
Co 1.9538010242610493 3.851815475593861 6.645495646856937
Co 3.093727058258982 5.847843676793932 7.470189007922905
Co 3.65765858520866 2.219631300545353 5.691253611410545
Co 4.687842696982334 4.950494168177156 9.40714020229653
Co 4.0887635609139945 3.5471817703091064 7.676965025211495
