40
Energy = -230.56792436 eV
Co 6.561558977087049 5.936336166546087 3.5940188301614073
Co 10.364202577399569 6.6692479840331345 4.545217396059709
Co 8.148049431620224 6.722584664311353 4.91340295229777
Co 5.238525086565099 4.542261580393425 6.628494189059942
Co 7.154834185553718 4.456553466865643 5.247002585482138
Co 10.33198730530721 7.271189222690669 6.738127814139448
Co 5.896496581751598 6.583150444755368 5.769385894457267
Co 8.839720771009361 4.940672901890893 3.7146790697465226
Co 9.113622830569465 8.770629743017656 5.2474944819201115
Co 6.645106543970751 8.611142923879864 4.8513637835179
Co 5.524676466211749 10.669422143711978 5.581626809462082
Co 6.79553447272139 12.418722437242868 6.9193119573134085
Co 7.62802299141656 10.345778130402957 6.229328335903578
Co 9.385238800809455 5.11489530359933 6.084725624861753
Co 9.509455493604966 9.408110854334536 7.440492126979115
Co 7.326457682708768 5.321333320872409 7.336580846114579
Co 5.334976471106577 10.940695985100582 7.902463522995734
Co 7.781427280484508 7.705855484444096 7.094362976896102
Co 5.623787744233226 8.768386929905708 6.947878798214055
Co 8.832398466312362 11.651397867404663 7.813139173061707
Co 4.196832182475082 8.884562546683638 8.6697492491087
Co 7.05517285722239 11.917654928962214 9.259145508917952
Co 5.722298969371983 4.511483829364384 8.871640101654812
Co 7.2897820552928225 9.789220167937977 8.474347109508322
Co 11.50252266217798 6.123203472975479 8.806971751167808
Co 10.830917425658301 8.278604363042213 8.975403169881199
Co 9.31267117023017 6.017236370319614 8.348664540227018
Co 5.371710690131472 6.611657756220171 8.117446393374651
Co 5.484303005605976 10.257141387069545 10.113302216615589
Co 11.521113637416564 9.792230597312995 10.530252368874164
Co 9.467200134828119 10.364222102251652 9.648745038851938
Co 8.556279353142406 8.05158219803135 9.423476485349585
Co 11.745856803127397 7.341389037771081 10.866987897576706
Co 9.786520870979494 8.597864352121967 11.358605290732063
Co 7.312784152959532 5.942684456186303 9.66238971257021
Co 9.675924135316146 6.316664790520203 10.682136244495029
Co 6.145831932798019 8.078011289446005 9.703352319323006
Co 7.605660133877566 9.75991666339685 10.900441280976208
Co 7.639306261091493 7.497842644582159 11.524993436310739
Co 7.955351696418872 5.2325797809666 11.676973006404564
