4
Energy = -16.46589207 eV
Co 8.295452953716865 8.179174883742709 9.425330525721959
Co 10.278285651939989 8.26779755785226 8.528016885063103
Co 8.587746887353712 8.511086165418591 7.174205157620579
Co 6.612037040506 8.50532077149335 8.083939237359909
