46
Energy = -270.96683131 eV
Co 5.228725351805606 1.7639754552785234 3.141010300804576
Co 4.31121871019072 2.0355255753848778 5.280285995380146
Co 6.573362843468607 2.4472633037408884 4.910563512975602
Co 2.8584400446935585 2.363223485533808 3.4035002970771915
Co 7.027530828774032 3.5615259389196967 2.778437935348452
Co 5.958658870067864 2.2384425026093178 7.196665168971576
Co 4.6058630445321525 3.792259888910031 2.4172540424122904
Co 3.57668966491901 1.826055326652433 7.637613943340721
Co 8.381972630737177 3.971291047290987 4.684185836171194
Co 2.2371206638533874 2.8148298898590696 6.002165311261182
Co 8.228378491230135 2.697528857443826 6.725899920886748
Co 6.61421978042878 4.370771082684395 6.410427073493398
Co 2.2637098467339345 4.6464477077622055 2.477293579393905
Co 3.4339511271362912 4.221457156051061 4.508032775740933
Co 5.748181347188868 4.707453744293898 4.342010685841913
Co 1.0836527794202726 4.055044230305149 4.385513939871173
Co 2.79094340330398 4.170266036670935 8.401191604821255
Co 8.620542362697526 5.535022855690134 2.878758065624187
Co 6.353766377381151 5.800424200714097 2.3416914973357277
Co 4.881246067674034 3.1937051613806084 9.000087648088279
Co 7.212244195882536 3.9300191785635183 8.62086570361622
Co 4.292846973838083 3.9260005995092047 6.731728423926096
Co 8.703301934919823 5.080739622384511 7.028740628399346
Co 5.351350524674274 5.373624678618773 8.382263378966792
Co 4.069642696147123 6.016273247033018 2.953037532859874
Co 9.965692567210542 5.628872481958892 5.165658800957487
Co 7.70837697401839 6.178613757528654 4.86609104909237
Co 4.142909606123911 6.145107970873917 5.798896396775129
Co 7.4477203027392775 7.767619381992185 2.9932531788397894
Co 5.02772911982805 7.996904236938895 2.233488020080362
Co 2.0167862764757056 5.144281131728139 6.381440942525037
Co 7.4902258830034905 6.359758347246162 8.63443149291657
Co 6.3353115058052145 6.753058702037449 6.681381218308552
Co 9.359173758571954 7.720216233312165 4.32671044290628
Co 5.6292690338211475 7.181600804960589 4.327007823011656
Co 8.728315129540976 7.369862089494857 6.666741070890639
Co 3.2671509789859288 6.4335473746370155 7.969855719429878
Co 2.0084152282015397 6.270338376470306 4.291658588384006
Co 2.3268220195848004 7.268481209380674 2.2689596975942354
Co 5.13204355400523 7.703091965404691 8.504079742481752
Co 7.2482841837873515 8.631417000353725 5.283759451200303
Co 5.504694237775361 9.458519342427941 4.011564919770846
Co 2.422220138100365 7.644489344327483 6.196515735863312
Co 7.059957606314644 8.726095589124727 7.624626427642495
Co 4.796358837596431 8.467641783566771 6.212965265252157
Co 3.483912549859821 8.145610534131066 4.111551513000084
