42
Energy = -244.92256178 eV
Co 3.21000256862084 2.734090911071811 4.91178954340866
Co 2.1895801023257793 3.6045666905454343 6.876958609956802
Co 1.828277867665371 5.84037485389802 7.252978354406611
Co 2.922879588528546 5.116388691413486 5.190994354114695
Co 3.9865046749674526 6.3260626917326706 3.0366045611603947
Co 4.506158215004082 3.8389424842060067 6.517552402052181
Co 3.4973052404366727 4.647397106466221 8.5232614768471
Co 5.586888541612917 2.5293319153604563 4.859851837254072
Co 2.2874335211703896 8.044111468228405 6.74418310165992
Co 4.41089654114993 4.032208173860152 3.504382679021678
Co 6.52449658903503 3.2386447132370075 2.7936884407636255
Co 5.702448357205541 3.748353837212619 8.752916223504917
Co 5.227231612051427 5.696541404336105 4.976136527993069
Co 3.6305309967703887 7.494453877177206 4.935871593884435
Co 6.820129031281227 3.054600191846503 6.829969991854101
Co 3.178517585679895 6.9298548828845545 9.071161073310375
Co 6.229819237998721 5.549947547331773 2.9226447824377404
Co 4.042363317201874 6.3756888356980745 7.007085162260861
Co 5.577673325826951 7.089005498813822 8.774078100000716
Co 5.828658047317761 7.83200344465824 3.880940655193301
Co 7.217576364440603 4.228569575411474 4.8149899579278115
Co 5.831990391326401 7.771776879175743 6.288311269857669
Co 7.612219458689828 6.593199631259141 5.0418794275392855
Co 8.41669991805989 4.715490240240857 2.828775744989943
Co 4.100054279573294 9.538033319266365 5.731511195263327
Co 6.298548307567594 5.376833051862347 7.096484328305584
Co 6.3101335784708485 9.837437243921364 5.36475219259782
Co 4.844589319677913 5.458903130453046 10.199297512508586
Co 8.065002951915828 7.019309312258459 2.6951009695831667
Co 8.529393992755963 4.767650843162847 6.848859551282933
Co 4.212835144772231 8.69763400747398 7.832640401184486
Co 7.126309455833207 5.4379999112600865 9.394494542711259
Co 8.119685359408933 3.50545539815772 8.741507903168294
Co 7.779004868261199 7.1769521818271995 7.889345119697897
Co 10.227820155527544 6.14709373664297 2.6496819269232668
Co 8.18790300728883 8.646499617968031 6.125479551732806
Co 6.60608823987654 9.274803232340703 7.810586649331902
Co 9.556043064567506 5.26076988508315 4.7358052947658456
Co 9.391556973432388 5.696908789501321 8.727224655159388
Co 7.82377875739635 9.044987366367502 3.8223361729222414
Co 9.655382838139104 6.8169475026005815 6.558094918510907
Co 9.639807882167664 7.593506335295553 4.326269188922561
