47
Energy = -275.78275437 eV
Co 2.661183261347849 1.9643812880096128 10.082334585201318
Co 5.340878926695016 2.36277737683518 0.2853993061753096
Co 5.764372765897478 4.63601710776952 0.274239513755978
Co 4.217752219448036 0.268218569693718 0.5552895433554067
Co 3.6061801076041835 4.116827252972789 0.8804859117712982
Co 7.379011341199689 3.057060283108779 1.5168501750325667
Co 4.259618918370449 6.456657289835856 1.0509969471104252
Co 6.436700676376707 5.827872894649963 2.065154807582954
Co 1.9969036431720404 0.45977474234976545 1.6533132965763644
Co 3.6681678344285626 2.0002426172783077 1.9379410083236175
Co 6.00760916756225 1.136765329350732 2.1639152532147987
Co 1.6013188943542782 2.9970858537652934 1.8154377668073658
Co 5.425156316898586 3.571720940038686 2.4474150687199727
Co 2.1478540860918094 5.456779346312329 2.031012411564944
Co 7.350807274304689 4.374825188177938 3.652600865990492
Co 4.309668495969417 5.5576572429624465 3.113812865336474
Co 5.284472346833051 7.747678015878531 3.0317702157399737
Co 3.997430210187588 9.979246479769202 2.9024157960660575
Co 2.9155608848552763 3.7471784911225665 3.584700766827028
Co 6.951214593414749 2.1806645004366874 4.0811248620383065
Co 2.929872517500088 7.5817132002701335 2.9326788335107428
Co 2.1424651741146805 1.4933530251455827 3.8290482507784827
Co 4.608993723757532 1.8347195631205597 4.012017919897984
Co 1.9336046322773137 5.840608856689067 4.355499538367887
Co 2.083147369873875 7.999437568645116 5.46854846524733
Co 2.0626587717339846 9.41742013643596 3.897049880234396
Co 1.3259877152574517 3.7611136889715926 5.3308032773770835
Co 1.6450702463835558 8.020350438258223 7.743762342268957
Co 5.8977932858702244 10.151331475421408 4.331385528842903
Co 3.874087740790236 9.185884665522691 4.472100567535888
Co 5.2621461665896865 3.9855967643725063 4.805886994449578
Co 5.720242700174393 1.73599939939499 6.058264993351421
Co 6.361864010611197 6.233366394391575 4.5395685509819135
Co 3.1777054728149507 2.4467874607177724 5.755335281253828
Co 1.5851390271864223 5.932052450482978 6.843531282593457
Co 7.0379234207505394 3.8447505601027068 6.132960114545546
Co 3.932552891104457 1.3404800892970141 7.5448500783484445
Co 4.067753091089932 6.913704158846759 4.898509418261277
Co 3.731053597851935 0.1752785264844717 5.3804589736146315
Co 3.3893653767830365 4.855763774882609 5.956964322657737
Co 3.4669139772229935 9.417420136435961 6.7265490961759875
Co 4.826910405777257 3.5227216021543186 7.314343934490034
Co 5.485500370250012 8.230272934926866 6.026330563195015
Co 5.5605959234293 5.720461239928421 6.611025843837093
Co 2.2923447137188755 3.5085902344385125 7.570694952701856
Co 3.706700254559498 7.209612424942025 7.189801943382883
Co 3.54531192936418 5.264151365773318 8.303653381596684
