41
Energy = -239.9230488 eV
Co 9.136614814342213 5.324256293674085 5.721207537356918
Co 7.072477406700588 8.82902275922028 4.700636163019042
Co 3.2088011361410866 8.013393964558228 5.941201356284949
Co 9.18116069232423 7.280249294069933 9.452812855453777
Co 5.1626153263458425 5.259809272868835 5.810351008187215
Co 3.270831179409769 5.908739126775505 7.102486708537425
Co 5.170134803998985 11.427870671001415 7.25965980610576
Co 7.135583317113012 4.6638447203668045 4.51377505263454
Co 7.047367223008891 10.863394097709827 5.998590953322043
Co 5.143957841169002 9.409321982737342 8.381708227029057
Co 9.015015391123855 5.4588394755576095 3.3681303071295097
Co 7.248846287264462 6.50063905470396 10.686652513982274
Co 7.101132639438139 8.793714870802205 7.121021664217329
Co 5.217391656316437 5.172883337337632 8.266563313985467
Co 5.105854886592213 7.380863239407737 4.684198893021493
Co 7.172828756652926 8.653508232841007 9.536600072689428
Co 11.040767907339575 6.024225701173158 6.933049472967024
Co 9.049267734389312 9.530348425739511 5.929069678738645
Co 11.057646545126467 8.060257643587176 8.244123302199384
Co 7.180366189293517 6.566459422607251 8.284360746513967
Co 5.127344678310201 7.345533824736323 7.113504612797673
Co 9.165425137424073 7.422636804980927 7.032185779178926
Co 7.096443159114263 10.776319649339229 8.389073223206122
Co 7.187324118030891 4.539242488238185 6.966072425936213
Co 5.097516655420704 9.496234361825739 5.9867577498573645
Co 3.259673940913141 7.921252278427798 8.406765772057229
Co 9.175156440099471 5.191196931566895 10.534936031907014
Co 9.096241600168439 9.444267031492553 8.287547475366264
Co 7.126090258530574 6.656001799168756 5.805866270061977
Co 9.191170677445923 5.233623623215947 8.174155377832495
Co 7.087066057617097 6.769225778843028 3.403716554442291
Co 9.076712021172016 7.457680284030141 4.610378348741286
Co 5.209623776804152 7.209574466655813 9.537784015213184
Co 5.184338017046118 5.404582066102163 3.4409318504813062
Co 3.2016229731272143 6.015525939326951 4.742761172379307
Co 11.02334358974601 6.151758053463646 4.566405078024378
Co 11.006347274417985 8.147730496083373 5.789450242014576
Co 7.246263796050493 4.482197968212374 9.417868135673459
Co 11.126722024433585 5.978179062862503 9.302820147088259
Co 3.305224071267965 5.8469092798046285 9.466290928999724
Co 5.347072195160656 5.1475382720036675 10.63454050792735
