43
Energy = -340.7186922 eV
Co 6.488273757870754 3.026253123037681 8.641544554650313
Co 5.777498455542342 1.1942409425039493 7.179794222275378
Co 6.59535849539464 3.152810641965896 6.043836505011288
Co 8.97767685437649 3.6987891903271413 4.886146051483362
Co 7.118598848103289 2.3038136758223517 3.6795981793451737
Co 6.308171061060684 5.251790169684939 8.817166859089618
Co 4.041498907584118 2.0218819763640106 8.743413449344951
Co 8.077574917508988 4.400080950970265 7.3801262696374605
Co 5.035443908725451 1.7807356635536695 4.710683834754512
Co 4.82522335628805 4.104577415121225 7.490975194317778
Co 7.965885807942178 3.895318921297846 2.0133503613654233
Co 4.7674517304990625 4.014702102245722 10.31332137310387
Co 6.7512032096647925 4.857119301586309 4.204389017807471
Co 3.3527692674922243 2.261085447178303 6.535612885691986
Co 8.226650030424981 6.819859914541653 8.118076414813782
Co 8.878026770814007 5.674050688443392 3.106503076664539
Co 5.251485737868574 3.30640344278762 2.6954309844777105
Co 5.831757581681332 7.360395136633034 8.138318309634332
Co 8.652448166662182 5.99043488909844 5.647777792660646
Co 6.195738667702213 5.848625045377344 6.3347676074929185
Co 2.487065779093262 3.975336030012762 8.689223283998878
Co 4.491865803330429 4.0988303985107475 4.89218249270985
Co 3.8252632470210752 6.024802229762119 8.906799097441441
Co 6.030891427825752 5.484974067404174 2.0541072647628766
Co 7.704567836601403 7.952621625582268 6.413864772154383
Co 9.043131586012663 8.047369910000402 4.010627580459837
Co 2.2547429231993488 4.259610540608841 6.431510915357858
Co 7.852539284200535 7.068873246974751 1.5948511499961482
Co 2.4894040535540047 3.1743543943897463 3.9881298478617833
Co 6.848550069609787 7.36474650750072 4.043845694586746
Co 3.8740435989562747 6.225936387474791 6.556406176020551
Co 5.116315663979227 8.342669743849452 5.89786289480326
Co 4.681213492024833 6.509302960230688 4.242369495480387
Co 3.427040019524869 8.518470045819557 7.814339371890797
Co 3.455377340663275 5.223529228352758 2.2895281546697412
Co 1.6235581797921697 6.353653344598972 7.422491765094226
Co 6.790057456227758 9.773556554410296 4.636628905045982
Co 5.026457977043667 7.454829040618788 1.722895865959523
Co 6.765323039294163 9.283949536877996 2.219631517846562
Co 2.2609065118999587 5.809696432364977 4.572899851148847
Co 4.439520139894543 8.988333516814759 3.758902160279021
Co 2.5611137068551133 7.930857482594551 5.310347822130173
Co 2.7774191387297953 7.258944304404295 2.788252942295346
