41
Energy = -236.71359984 eV
Co 10.268693982468472 4.427748452840318 4.531273036395995
Co 8.806908102537502 5.914742967985103 5.441388321141121
Co 8.726264333121467 5.355853711953436 7.74827369244694
Co 9.018948521762256 3.041454669187077 8.375343866325615
Co 9.022359547150073 3.6017727560409503 6.197804938039635
Co 8.132527134745768 4.567246575464805 3.730905327621568
Co 6.800394751464717 5.922063394765647 2.3203139703815157
Co 8.00683802122842 7.673888128925977 3.9523390515998402
Co 6.215216971101483 8.651246708084583 5.20465432476459
Co 6.480069778124933 6.157162963478509 4.60575216261983
Co 7.495959681313951 2.6240371950761046 4.7902851362902075
Co 5.822009753298303 7.978890100867358 3.009726293948273
Co 7.066609537050066 4.113487088148966 8.86756957020684
Co 6.844013552761191 4.663007610707267 6.407918988028724
Co 6.72325092788111 6.358034248229971 8.523351740232673
Co 5.863730993674019 4.006215385105478 3.575259036783081
Co 7.705297954944188 7.4481653625253195 6.595740870283099
Co 7.1074854456993455 2.393428510008878 7.211487656898095
Co 4.482080168286626 4.999171091172648 5.429811907125545
Co 4.4455801929458 5.653485804843605 2.9300761372541517
Co 4.893533483110954 7.062553045919737 1.1598891266439117
Co 3.080157215781805 6.480927132450848 6.671290536121965
Co 6.026221971981268 3.1746084557254606 10.690710082155093
Co 5.238568985997053 5.162320655438713 9.954629902519246
Co 4.246899377437491 9.526956266984268 4.1219599370795885
Co 2.4600335390276733 5.972880735011597 4.2132518490589606
Co 5.148757567343031 1.1532516196897329 7.072540198135973
Co 5.462120574749054 6.954270071965368 6.744107497204308
Co 4.411950996527627 9.386684794157137 1.67971773921741
Co 3.4868675746295716 3.5842366515658517 4.013256892689416
Co 4.26930901435478 7.289222182051167 4.75165989074084
Co 5.157139999635246 2.743188160779108 8.684524362554479
Co 5.3556375115381805 2.787069454784643 5.477951662908992
Co 2.2149664055056033 4.411656863832026 5.880992749102058
Co 3.907379683235761 8.721363649684378 6.538706670353285
Co 4.336300345641914 7.035794790280624 8.713366783294635
Co 3.184007955911286 7.736031450769812 2.69882998900926
Co 4.654311907683252 4.888494868461433 7.792084076696324
Co 2.249126967161089 8.379372775150918 4.799661492061668
Co 2.4023107029228057 9.856247076152735 2.832942232074309
Co 3.6193881752103776 2.9809958806774413 6.897879608935283
