42
Energy = -245.26074118 eV
Co 8.428719709766172 4.425829351562981 3.5711109926534825
Co 8.180072724904115 3.642529706335608 5.763172505426968
Co 9.02508358721453 6.564083915111904 2.9535653774767785
Co 9.622673869225503 5.46943843242893 5.510812735626313
Co 7.413801370759897 2.292798289080503 4.022995262481199
Co 8.542210531648951 6.984927843029096 6.8809210385946145
Co 7.356809521950464 1.3300951415801778 6.054021770959885
Co 6.810180946143298 3.5267700781243416 2.059127221117714
Co 9.452956163181447 7.769282906337821 4.807246392533398
Co 6.121070444909638 4.369627254143638 4.330305993136148
Co 7.253927932756132 2.9115101482802612 7.766639718025024
Co 7.126462650126807 6.702382055054326 8.61418427355105
Co 6.859914154807513 5.8379132885210785 2.459145153993306
Co 8.768278190176183 4.829535961993283 7.73336916067515
Co 7.6817128825435566 8.876183018526984 8.01592046020938
Co 5.232159192155424 2.377014738860876 3.232096829425792
Co 7.512573023068048 8.72206155731079 5.597859108824764
Co 7.126800058637246 8.036020589253189 3.3731574569411835
Co 5.599738489315661 2.732501634404215 5.8929300674907354
Co 7.509129005590613 6.301899115993979 4.861668590978546
Co 6.775454538158186 4.530962069842375 9.27258735267032
Co 4.7314675708444165 4.669903548050447 2.5049887474249855
Co 6.612634576507145 5.048525384370327 6.857567126866373
Co 6.098794518522635 10.047009257156756 6.839749900611698
Co 4.959807007975879 5.925474584456474 8.427731731315015
Co 5.365419601909981 8.917777300069336 4.706333681504537
Co 5.742213225419145 7.298503072521172 6.429706140613147
Co 5.357767208355223 8.345040550471088 8.430591613778235
Co 5.2219756832761925 6.652764411335685 3.947539336407391
Co 4.991305510269582 3.6316245201372923 7.9626107887126265
Co 3.2486875997685556 2.9227516360473893 6.58466303253923
Co 3.7534151634171606 3.5709754132615346 4.469119724598597
Co 4.310321629702296 5.29669933835919 6.018607609604076
Co 3.997375525640713 9.1999757457112 6.679552456278842
Co 2.8630114826990214 4.846368000757601 7.929923537070147
Co 3.2621488764752247 7.140157633960406 7.516232616219171
Co 3.4126458404930338 7.523810527237656 5.192085751327831
Co 3.06801802795167 5.672090331631427 3.826851478268034
Co 1.9999542926096874 4.788581077722221 5.7749820416655755
Co 1.7187734404098938 8.540113283771507 6.473264253904353
Co 1.1252420058186636 6.386049591917313 7.229475394419544
Co 1.2584208267641792 6.8415662971471445 4.9247141759487
