43
Energy = -251.10894026 eV
Co 4.189112211414338 6.148704662990198 2.072991270454439
Co 3.9169189876447046 4.4146661063662656 0.36381646609737733
Co 6.0055832165221 2.9934295340450365 0.4218578405074779
Co 6.284180898112012 5.3638601981227 1.0491293868914235
Co 1.5987005068876863 3.5284312777992426 0.6931955372602513
Co 1.7453146955434669 6.0920189003433896 1.623583988767462
Co 3.6488146557006824 2.198449898234761 1.3389077725304792
Co 5.647002515726862 7.714423844181365 2.9809956343738544
Co 4.350490124158127 4.892906892225048 4.2379293200964945
Co 5.121583698136038 3.850491649014834 2.2818926007417586
Co 7.374770233003537 3.525839317978844 2.4931001842317526
Co 2.779132637833556 4.176047538389591 2.4103065578154608
Co 3.083759154757041 7.981327577829024 3.0699169289879475
Co 5.770119894235623 1.6472805846760308 2.6107109246633047
Co 0.5611920008632246 4.601331161631924 3.1539999392788305
Co 1.5202831168802085 2.268950073532211 3.022828649285303
Co 0.6162449217896263 7.354486424511523 3.5732705733915306
Co 6.421494395932848 5.591816944072632 3.3682997612572447
Co 3.7864776358131227 0.3947984579572671 3.0456033692439073
Co 2.356993863138968 6.001080308279972 3.862684160527553
Co 3.79216619184841 2.497308371346686 3.710163726294726
Co 6.152295138234725 3.276026656424053 4.583015257906064
Co 2.1187183727884435 3.814405704549471 4.711690496789454
Co 4.983152946185579 1.0719110450459501 5.050391336393176
Co 7.308958727776602 1.3624788050673926 4.3771807713017905
Co 2.4527906453751007 1.5974139150665305 5.488163134383739
Co 0.2535889910389828 2.757841398175372 5.216333648064862
Co 7.850725495636663 4.8140308390451345 4.965499000424318
Co 4.391220418320652 7.196479019692072 4.83767474702206
Co 4.068124760381593 3.2753555890765704 6.0027726975728255
Co 0.6419724543345701 5.478315238489792 5.378476620945185
Co 2.113336873941875 7.614915016194036 5.4676850421384255
Co 5.649990839462177 5.2506779633607294 6.159622378935647
Co 6.716985675819138 7.023518464558214 5.15599416008803
Co 6.623048170084201 0.9257388117043294 6.614632169471998
Co 2.9263470375909026 5.547117980413638 6.22735822336695
Co 6.026720668422892 3.0677583058499676 7.156025079154553
Co 1.9495839733308493 3.490679003694342 6.978238497761879
Co 8.041799691249238 2.7645656177220435 6.097650283353874
Co 4.243161911178767 1.4196457465778853 7.241460014841012
Co 7.5953714658301275 4.82609045185451 7.2172332949954345
Co 4.477835326626073 6.9533886512316405 7.143750516526523
Co 4.216332843038531 4.606394035266928 7.916366018453686
