43
Energy = -250.03711581 eV
Co 10.491620655966578 4.922942036100291 3.6018520577094986
Co 10.063674847872342 3.7893793319714355 5.959894643726136
Co 8.766983021255596 4.680075547044082 2.09590422042424
Co 9.18281892628659 5.875517728642 5.283609281754801
Co 8.594176946694095 3.7945858291164187 4.2420071248947515
Co 9.094621076191844 6.73843917377417 3.0997464145568987
Co 8.757714459784948 4.9456478678651745 7.415903668860456
Co 7.7319852988648226 7.039862249346397 6.9324382486910725
Co 7.788047167856819 2.9271250687490418 6.312498046055888
Co 7.392760342136138 7.368707111606425 4.571987330095725
Co 7.833932055098372 6.268900198405718 9.201970068701357
Co 6.968775193708212 5.345657072608309 3.2969890474456145
Co 6.582910565203355 4.548914164838233 8.0985956305608
Co 6.917781069146333 5.071381986371503 5.756535427637802
Co 5.782769679869955 5.22080953844349 10.09377889138736
Co 5.410768517736508 3.238541237894553 6.479072777725907
Co 6.392906108118403 3.0973410225900744 4.267919411729876
Co 7.556913726171154 8.587859318932637 8.582073282929017
Co 7.760709565045704 9.184947500733745 6.013558280970686
Co 5.968984275207297 1.2883810105350475 5.544078561106827
Co 7.72892486747023 9.293735818003789 3.4270847691271453
Co 5.75141684014249 6.938067436951941 8.44943623828072
Co 5.789817397195987 9.030904581470162 7.21246792143501
Co 4.0960851528908835 2.437192281212311 4.67127361646257
Co 4.419488666684714 3.7521665847059777 8.65715879883112
Co 5.7552591699377125 9.16046450067723 4.698347946348734
Co 5.43681729851907 7.11182221952989 5.89682360696592
Co 4.514997806710803 5.352888061527206 6.99558013315909
Co 7.063207099471904 7.400722784557416 2.134887472247355
Co 4.955319693361554 4.952137368096728 4.4509106168113615
Co 5.196131727461808 7.116376275898853 3.4832875781692696
Co 3.761868589074351 5.970932047738869 9.214221151259638
Co 3.242224639738191 2.458852163793186 6.882410132609455
Co 3.9802339868127135 8.484243560927458 8.530424012621296
Co 5.604125477330537 9.200910019424303 2.4053758553308384
Co 3.757464117997936 8.7904360390141 6.0717293165667785
Co 2.9717221743091726 4.321721124301872 5.4645308368051415
Co 3.577692200538394 8.752506084511406 3.7792846359499532
Co 2.3478626753269505 4.63191598065179 7.775268706752049
Co 3.253136119103025 6.7157590225780845 4.933027170280888
Co 2.847655901816639 6.96362122377299 7.262466037418695
Co 1.1418947418235266 3.2990975987879896 6.3723794228444515
Co 1.3008942008011974 5.768513137750828 5.98236903589
