50
Energy = -294.66813565 eV
Co 6.7784975714714015 6.2767269581043434 1.2685829806137092
Co 4.5589682990377725 5.634183282379986 2.0761450836047017
Co 6.2183770581706845 3.9957977461045737 1.5367801596188022
Co 8.76778233924909 4.9582250840924775 1.6462473959918342
Co 5.928937304716293 7.163853065880205 3.2908447872337407
Co 3.590021632459188 7.266056675562011 3.485682063282857
Co 8.322133471420868 7.174008921180638 2.8445277174834533
Co 8.038512859991208 2.921307799934167 2.538220194725912
Co 2.781846601136497 5.036097980604717 3.8645303329550718
Co 4.1393279134165795 3.4349566967080754 2.6206903312135177
Co 10.266740526852955 6.093890968748727 3.1173639960284603
Co 6.052458269643561 2.9324291376246587 3.8180891922856115
Co 7.219210823849204 5.101027703524035 3.3236899328248017
Co 5.103098294582881 5.060980118506139 4.326789865055658
Co 9.992672899292067 7.9169255414193955 4.834038163164336
Co 7.481942974676486 8.442905126716134 4.5961125729011805
Co 9.289860633013808 4.172196685359533 4.027014417474645
Co 1.9734105629366776 2.874813905070418 3.596752278519584
Co 5.048204576520735 8.590015524899334 4.934654866319635
Co 1.597904026762024 6.725439833474808 4.9266994197442235
Co 0.7834341020340789 4.450380319091785 4.918459133054064
Co 11.00439961560983 5.649022215777283 5.199813893214773
Co 3.8491748539664243 3.0832716312178365 4.969469982651702
Co 7.233829336912005 4.152339695087967 5.494516007418895
Co 8.62082288247869 6.169394249481355 5.0701183067176405
Co 9.346288875045827 4.296592606809588 6.473935146485664
Co 5.853630824208416 2.3664253225829373 6.127805465435572
Co 0.33948160212997197 4.015457854518339 7.193581864512281
Co 6.315621213492391 6.646156764995064 5.72831401440033
Co 0.14003944299753826 6.190591834818542 6.641505590942844
Co 3.911570355178552 6.577350879875987 5.723253590210379
Co 1.73571045783174 2.560297685098559 5.909773543040567
Co 2.713919408825244 8.697096067539515 5.294078878848871
Co 6.383610411784217 9.370903177329227 6.660424941178444
Co 2.580570694351809 4.688285338491311 6.500072105292358
Co 5.145440058925204 4.5399551551929065 6.810484658025627
Co 8.189819084265126 7.985377599079019 6.703609252227278
Co 10.007371940802873 6.5752763988015985 6.986898784656
Co 4.235442801120406 8.500698322894625 7.1365603513477325
Co 7.298903568998385 3.512523741051644 7.699180844632097
Co 5.446932828323617 2.696175001272633 8.737128052577221
Co 6.146894648446863 7.399932148283491 7.993346643871692
Co 3.7426083591136243 2.556763188420342 7.236689061582813
Co 1.7396398609671997 5.380916087989013 8.556580002834535
Co 2.124882916888421 7.230185925034499 7.169925285453938
Co 1.8425407701036625 2.910006936762457 8.48917832285787
Co 4.047839413139876 6.34060010849107 8.15168833200469
Co 7.771589587106507 5.754679082304059 7.427859882390052
Co 3.7592902057485804 4.216177377134357 8.902782111246445
Co 6.019433988598471 5.195971277274161 8.900152948440082
