17
Energy = -127.26796364 eV
Cr 10.690926867268583 9.550868754529786 9.138401846069794
Cr 10.2028654909652 6.774404385550965 10.149274919417563
Cr 9.422102468172117 9.097968543466074 6.179203924106013
Cr 8.775554410624974 8.483856342882879 10.75785185392854
Cr 9.384392265074913 7.898530442091891 8.131350787325312
Cr 8.196959542491077 5.717495508505959 9.042535436140557
Cr 8.658883277454914 10.393441054118314 8.708527535427178
Cr 7.462891663773796 7.590748555343192 4.560851633675703
Cr 6.011149012768568 5.450861667573073 5.316746804072046
Cr 7.426677963897507 6.3611623007804905 11.096535819770207
Cr 7.911515947991298 6.723454896083885 6.6598685345432
Cr 7.309404273233479 9.209033861126922 6.754904445724222
Cr 5.966165652635525 5.5343147862385145 8.481942796664903
Cr 7.142875168817936 8.09730303939504 8.935913787894817
Cr 5.521119612619652 8.962011064140702 5.090168218188974
Cr 5.5287919945203 7.172492184342847 6.885762135849127
Cr 4.732070890615319 6.893602301413667 4.164279491124513
