14
Energy = -104.16042161 eV
Cr 7.553108683272228 3.4238310509004894 4.391747445828757
Cr 6.398196352818598 5.632615821782131 4.384201499713012
Cr 7.3358455169266765 7.593150779527439 6.170949852957442
Cr 8.702527536059282 5.876503971889433 5.22496894291937
Cr 7.339787781166724 4.570892811314435 6.669236635730735
Cr 5.381572303086846 7.926883195784035 4.839835309588448
Cr 8.23488146438977 6.487549109044876 8.144486699092882
Cr 6.510839044385865 5.282461393083637 9.176470502263376
Cr 5.113389110113888 4.141940641075655 5.63647619216299
Cr 6.531224040733032 9.78123593330773 6.924721147600707
Cr 6.58256188638908 8.106387591933245 8.749408225756376
Cr 5.605802492441545 6.347006216923071 7.165115334580654
Cr 4.46585853796986 8.522405913706203 6.984282848814065
Cr 3.8636575807345968 6.169239064543176 5.410743676787511
