19
Energy = -144.33681471 eV
Cr 6.026740653001228 4.899983975029793 9.295371440337295
Cr 8.835535401170151 5.549597754720725 9.082129660956609
Cr 4.537470587656457 7.310598803467448 9.110627513775405
Cr 9.181846629143973 8.276633935708173 8.848381281068017
Cr 6.539529027622187 9.411479816463146 8.878034305716204
Cr 9.077070276421935 6.443390559624497 6.963454278588609
Cr 7.953524777299562 9.004490677021202 6.935188120573438
Cr 7.484847391759352 4.577095050049672 6.817319298837022
Cr 5.171079634833908 8.539265573749221 7.062843861773602
Cr 5.040080186524607 5.605148006418313 7.242025900785639
Cr 6.545395262308835 9.164729019695075 4.937607970976454
Cr 4.370033941861486 7.106818513818311 5.3365956537957455
Cr 8.67275557724549 7.986502767586308 4.2954884119106245
Cr 5.753519117410852 4.685004298844115 4.7457630361157115
Cr 8.149606101641494 4.990036927037782 4.4352287688048095
Cr 7.057584371493525 7.12707154071224 10.120117183711157
Cr 6.9089296977181505 6.9399841215466145 7.847001666515482
Cr 6.703187738075343 6.856004073254068 5.548979493686698
Cr 6.931451021682217 6.82106099219924 3.1994952754046113
