10
Energy = -71.74109148 eV
Cr 4.782529460515248 3.49268794653138 4.9064546492939325
Cr 5.040225024336556 5.26758856267894 3.363517987889206
Cr 6.944568992507407 5.388579000616933 4.72226844959764
Cr 4.968552958201849 5.608660736554192 6.059584398188657
Cr 8.858581621963395 6.681574887975271 5.547277341218316
Cr 6.320744776271357 7.711457701667565 5.065256716593337
Cr 5.895809993562913 4.381505737158069 7.653924191318761
Cr 4.615294270410647 7.9336031352567575 6.803006596070439
Cr 7.1417323493387945 6.85791617451243 7.129315683115723
Cr 5.233859584603739 6.491679640299449 8.61975105580752
