18
Energy = -137.41139163 eV
Cr 5.404145902826318 8.438123841042668 7.826033532504987
Cr 5.929278627222628 7.935939405248855 5.5918457702382405
Cr 7.8335078824852555 3.900711492737474 7.064288681513273
Cr 5.197518536543543 4.1208186584474 8.156375299691202
Cr 7.91400782697298 8.093042873739526 6.930434593306073
Cr 7.237216851940038 7.031072395522913 9.007484456468362
Cr 8.572926281447453 9.136088640849216 4.925165433710151
Cr 4.946646525829116 6.165254367924924 9.343871584351664
Cr 9.9300549300106 8.237846673360178 8.209031362000907
Cr 6.6408693128035035 10.247818518745957 6.0664582896335935
Cr 9.41282132837481 10.27095089503081 6.797992872670807
Cr 8.413923715493832 6.216125806395584 5.520925893289174
Cr 9.154491743520014 5.8456602437839855 7.719673315287803
Cr 10.340484262103406 7.692214073522181 5.9542038641760575
Cr 7.243865854880947 4.578677940435008 9.282187694877328
Cr 7.389471719394266 9.99321644787288 8.285680194420186
Cr 6.387838219937156 5.885839978650732 6.987443107405666
Cr 4.023991232931912 6.534576968435024 7.1667820211486
