13
Energy = -96.7464012 eV
Cr 8.235936406650543 7.6107114360803605 7.151158372058118
Cr 8.785635888729706 5.95874895605038 5.579727822390173
Cr 8.02092809408102 4.83557412790249 7.442749063778706
Cr 6.846979244826618 8.847053668009762 5.618608458210361
Cr 6.709021195460877 6.508826968656103 8.871718843684823
Cr 6.324393868315797 6.053923521067578 3.6841196144972925
Cr 6.496198351715119 3.7137558016383014 5.969618357563541
Cr 6.339700266708189 6.318996167379283 6.226572700441914
Cr 5.166365991537669 4.910207268988053 7.729070777195177
Cr 5.406618028419076 8.13960648040826 7.4845161013468955
Cr 4.711991045593958 4.909719216884252 4.882898766150043
Cr 3.6895375851218946 6.549886835830908 6.560225446432534
Cr 4.968882648395357 7.689486984456012 4.666677595147878
