18
Energy = -137.31144159 eV
Cr 8.85475862051874 7.413670191820488 6.538750008520311
Cr 8.803661685615163 4.797481672525199 7.5891813800250265
Cr 8.101179005852215 6.666064446891432 8.698795440459794
Cr 8.329135044300834 5.152026688776495 5.189791681232666
Cr 6.522615002780635 6.114850630960936 3.566534210954815
Cr 7.783730526584873 7.816142092538008 4.48940055574934
Cr 6.27144444480951 9.571429975539958 4.984632245276641
Cr 7.054494453572856 3.2680515660299623 6.229446174782506
Cr 6.466949779519686 6.0503532714029635 6.397660216437029
Cr 5.408444838397448 4.412182239831925 4.789472717115561
Cr 6.643168506006354 8.382062716755737 7.107490942328036
Cr 6.3246596935755175 4.537557106975196 8.327189445037847
Cr 5.6968202726432215 6.995935685004642 8.841421319492584
Cr 4.039712561943621 6.318170999139722 7.1811601233672775
Cr 3.3505460166255103 5.782299970698279 4.7747430631040455
Cr 5.114257618378508 7.391172910154671 4.983664540633372
Cr 4.236791364935668 8.759971537941222 6.9060024839114
Cr 4.484103165480195 4.059543466360913 6.8665756427473355
