19
Energy = -144.1264158 eV
Cr 6.587932367754423 6.0794227623298465 4.823679744985439
Cr 7.562235047961416 8.514025749313166 5.311210070357535
Cr 10.332370597155634 9.136727767460751 5.79482640500735
Cr 9.31232031464941 6.984571678413485 5.2411121001049645
Cr 4.952408763592373 7.507074152201986 6.023002739797594
Cr 7.7655488249414475 11.066899073641032 6.841319157554217
Cr 8.422097388761813 4.877947766002095 5.866168137099189
Cr 5.999026915256581 5.142462486701569 7.161821298873194
Cr 5.961645621032834 9.470677243875755 6.836189638148382
Cr 8.807297231383803 9.146323243989482 7.468257054996112
Cr 3.9417376072102384 9.487468650923311 8.157900898072958
Cr 9.769350999911975 6.786377801168853 7.613283825435476
Cr 8.28520619427683 4.794904917828498 8.35347468997284
Cr 7.345986415375925 7.003978935776615 7.195821730471889
Cr 4.883193317894743 7.211662241360888 8.379032155249124
Cr 6.757237112196215 8.78588907403728 8.937975777482208
Cr 8.645164399606431 7.436870192163695 9.625772888675762
Cr 6.817861836684913 6.051669134851616 9.722783284014406
Cr 8.417132269638495 5.080800353245866 11.212121628986216
