23
Energy = -172.59716037 eV
Cr 8.65288647617551 8.204665279156556 6.909543020596979
Cr 9.729264169069031 6.1049393425328 5.481552847484098
Cr 7.234311825406339 6.6888861072487815 5.7813253047388935
Cr 4.141475064850271 8.255691678209603 8.183965597199855
Cr 5.833661806060824 8.630673505565795 6.321433127138514
Cr 8.815553018294572 5.640707218801576 7.703227801469656
Cr 6.723332819067525 7.574418510984197 8.206959529776942
Cr 7.940514703883645 7.814846240247182 3.8836904763166804
Cr 8.388911515349484 3.575649290814536 8.09450378757429
Cr 5.339903715155067 7.830224331259041 4.202827460857802
Cr 3.1897363531628256 8.461328021054914 5.787430055331785
Cr 8.451158885898996 5.3843358344404555 3.7707880259472097
Cr 3.566404850691071 6.2339035055652925 4.459113506493443
Cr 3.5818093400340296 10.09878008851524 6.317553244968807
Cr 6.441283561575457 5.216854804723869 7.815376118670004
Cr 7.727097008867286 4.271076971697376 5.714375907968039
Cr 4.7085253962452915 6.348503126406781 6.469812132192413
Cr 4.355157765646593 6.436140408181054 9.023364621615883
Cr 6.14649995830661 5.694547982438571 3.9861933841840074
Cr 6.542142661728547 3.276645569062147 4.200355106578125
Cr 5.037114461017985 4.113668096663393 5.749102260116095
Cr 6.353383088247098 3.0672450734280288 7.224777886459897
Cr 4.249832996190679 4.277281750192304 7.998758829203317
