25
Energy = -192.52502819 eV
Cr 7.682116503175407 7.714347086578999 9.215213383042904
Cr 5.918308165433241 6.0386870664561 8.668311178180643
Cr 9.000729983858522 8.115589195700597 7.267998796615552
Cr 6.241671942046373 8.425676703720207 7.306567714386214
Cr 4.203145805876844 7.770285254637738 8.368296591819174
Cr 3.915225625815082 4.961770940993786 7.900266090729511
Cr 6.034373246954519 4.194464669307381 6.7145226146818064
Cr 7.748445166987407 5.995553162477031 6.970391674358629
Cr 4.4153955026087575 2.5199382568616864 6.4413697274638215
Cr 5.175532371606315 6.427892248475411 6.099620359663634
Cr 7.471089775619659 8.260541171931058 5.523212705570321
Cr 2.9995937213808874 7.151458960089302 6.462245973486456
Cr 7.982265887599449 3.7137694095505798 5.432079450547966
Cr 4.407376090093668 8.834012546237018 5.67680815509502
Cr 7.090935823593907 5.808308168168038 4.478271289766479
Cr 6.3490926023324485 2.1259757295706696 4.784545254382587
Cr 5.722092373563535 7.584764754612643 3.5658814355986577
Cr 5.2957264659370855 4.213863174969628 4.3568766503273535
Cr 3.316473241599552 4.530491084010544 5.699732558407643
Cr 7.473868018978347 3.6678323407189484 2.7127810946803264
Cr 3.5418039530321295 2.194622962828322 4.26165895919685
Cr 3.921050025702672 6.459927077026584 3.8352707173363894
Cr 5.311939039382675 5.476576100262083 1.9804181023701233
Cr 5.282040334210772 3.143376795244062 2.2144067857263874
Cr 2.920360777300018 4.145187808708751 3.142351718262185
