21
Energy = -157.28941854 eV
Cr 4.276240708101883 7.2471615421395255 3.5326317322220393
Cr 6.11561738578352 8.190644313767047 9.611636944966381
Cr 8.349642112840272 8.216241816897812 10.467205079021006
Cr 5.003571023832707 8.765348853294944 4.733943529267077
Cr 8.800794566121507 4.721736870294794 7.633001137787523
Cr 5.359772977584374 8.018321626595377 7.092647263159026
Cr 6.943940404609173 7.089673560255595 3.8689927282976493
Cr 4.610786436760002 3.982659691184984 6.683921144903219
Cr 4.92848839301959 6.002839448976552 8.253223335012509
Cr 7.304773170329198 6.293844437584739 8.8917401887729
Cr 7.136016580434523 6.730965861069768 6.587065374640985
Cr 9.596719924841429 6.718213329933783 7.424150227931853
Cr 9.150999607862516 8.082005520145467 5.457132395906381
Cr 9.807342825143163 8.974895523963976 8.461142760337937
Cr 7.766490258459316 8.79556905780217 7.868898683417549
Cr 6.4860086455060895 4.345079307679631 7.24057308285023
Cr 7.370577260635688 9.025486494010353 5.392024718150986
Cr 5.335985084653917 5.865575205036048 5.461651916451316
Cr 3.6028193844549343 6.883525069007005 6.1189456970994724
Cr 8.411084402490692 5.307551955708235 5.2866507807704615
Cr 9.410617384593735 6.5526778774270165 9.758487610287984
