26
Energy = -199.95578405 eV
Cr 9.091859824706871 3.7853696425141647 8.584992938478285
Cr 8.608346037690332 5.534241250398554 10.309880918048805
Cr 8.833527293497173 7.5908629789530435 9.4363175861016
Cr 7.341603709240091 3.96422773131646 6.892556474991644
Cr 9.376192267795187 4.355968035459467 5.735241967892881
Cr 6.913374387001818 5.606818068496151 8.656565436434825
Cr 4.520054739612654 4.423176493999439 7.662895501448603
Cr 9.34313451597273 6.035189369480635 7.729147718738377
Cr 4.734782229281798 6.9020411327434 8.426639798999423
Cr 7.1858291560377054 7.852401746825661 7.656086109197997
Cr 9.868185750477517 6.890920586591361 5.129970164004125
Cr 6.873064003176059 4.735773815858816 4.232111327891646
Cr 5.5456856228471345 5.779567658785741 6.200693641501442
Cr 7.564073114494893 10.041860820369934 8.870460777108283
Cr 7.7899075663281705 6.429014688487545 5.767526629688658
Cr 6.2631983104112825 8.050424136294204 10.044966673164826
Cr 9.408167543855088 8.360535372856148 6.992748232119499
Cr 3.2741815189437538 4.645431374213005 5.6508082150867
Cr 4.843922889518017 9.400108457569262 7.838257995771236
Cr 3.2648742071019745 7.088748771528759 6.595545459274779
Cr 6.597630019689554 7.129635607223554 3.4725481838824814
Cr 7.144110858482246 10.23310111290641 6.622427747529164
Cr 4.471807828534501 6.388921467128281 4.2071162465629595
Cr 7.783969602635713 8.546592828767867 4.830187157905043
Cr 5.459033253005865 8.300691626888666 5.835129027349287
Cr 5.172429374598757 9.20132084927974 3.8921236957638423
