36
Energy = -280.99197481 eV
Cr 5.415777769099153 6.933922364186841 1.782632033964791
Cr 7.295289842564407 6.510293885869666 2.627120543450916
Cr 6.950842366150513 4.5455273448927125 1.457786963716324
Cr 4.883524385614937 4.763951914535032 2.8168455025489405
Cr 3.313397107176517 3.1180731484912445 2.946397699350686
Cr 3.9348127432121953 7.216778395369843 3.333075618676215
Cr 5.932848296145885 8.826907569904764 2.909140071347821
Cr 6.048913754322273 2.3534237748332094 2.930523314788601
Cr 8.427947786886378 6.061122697435312 4.885355746655517
Cr 5.874313047697115 6.303383528977916 4.338241284557291
Cr 3.2878554062846286 5.192169125293519 4.621202980648126
Cr 7.673826544898593 8.41734540537674 4.429947498493675
Cr 3.6793822221078343 7.139197204856951 5.764846715637112
Cr 4.3875596196076945 1.2403019282755652 4.075049957903739
Cr 7.3689714765679355 4.111660266929135 3.6146738927858464
Cr 5.259273924088948 8.957848490476696 5.036654131865179
Cr 5.078948408269414 3.6691878888860447 5.0287507715850275
Cr 2.5929488025961187 2.8908718754214684 5.215084835961102
Cr 6.631704703879301 7.2270680031598555 6.465695258342185
Cr 6.849353470334064 2.063794066911663 5.285774680864294
Cr 4.828723606398753 1.3432796797483224 6.275409864940219
Cr 9.183208531310248 8.036056970892973 6.187369728191806
Cr 7.026411531225399 4.5917315882344845 6.025578267058848
Cr 3.7202397785620125 3.4687417663661977 7.036231654816026
Cr 4.805291908788709 5.550196361476932 6.853430352361039
Cr 2.090072780172821 5.328875117292387 6.494541344848344
Cr 8.670360362160524 5.787519886465836 7.424232409925316
Cr 5.97964557907313 3.2602325162417034 7.619892813551191
Cr 4.6720703341156185 8.663227219951494 7.260099568059696
Cr 7.056222766870665 9.471580051005477 7.005862497424747
Cr 8.120917971981978 7.5716945199139465 8.369845560888868
Cr 6.740728269926624 5.371971029070955 8.514933150341983
Cr 2.5556600535366103 4.81011709791188 8.754443285258516
Cr 4.583678765592057 4.828098270947257 9.339771094476873
Cr 5.714342055337001 7.243561820439005 8.820933309459816
Cr 3.2377624777521103 7.003115674262555 8.325454045560676
