31
Energy = -239.20510751 eV
Cr 7.423737140359109 3.48563864734066 10.463242530144072
Cr 9.898448779330877 10.116818932234443 8.857133037657388
Cr 6.001588473543059 10.329825947090733 3.897094756588759
Cr 6.764405440999712 4.242612877101609 7.985246572266994
Cr 7.822758686218862 8.332202362346008 10.028074365233143
Cr 10.174771103054512 7.845255507473489 10.006838507075448
Cr 7.380155278079154 10.327068900775608 7.956510731929618
Cr 9.046271063575718 3.682165522471912 9.281049808633806
Cr 9.294868893652875 5.746275730522609 7.4779044042358125
Cr 7.059318543301083 6.5222400194478425 7.111671091416783
Cr 8.34546143631605 9.599793281451378 3.7446287609892974
Cr 5.149166845567663 9.983028191813691 6.4169702546304
Cr 9.240490115068566 6.911328004217903 11.897285911659921
Cr 6.815163623072325 5.590518962681765 11.424499172227721
Cr 8.200605646615562 6.005654471224557 9.596921242697912
Cr 7.123881394957717 7.982165372221497 3.2683863349024547
Cr 8.64140816700901 8.216956484482361 7.8019116813198
Cr 10.781394737375688 5.73820215213039 9.77837617616298
Cr 6.83815109461831 11.169131882223388 5.70261659430169
Cr 6.164683287319486 6.228347416957056 4.970201714070888
Cr 6.149461982616448 8.765130928455214 8.264219566278944
Cr 8.968194722331928 9.868691350502713 6.271519279547825
Cr 5.163618268811823 4.497701746282306 9.662088542540644
Cr 4.580979602301315 7.541605111233308 6.801802273505163
Cr 9.430216062848055 4.798647213967919 11.639804732281991
Cr 8.895563292298517 7.266809022501197 5.307682581492779
Cr 4.922172111016038 8.658383270218375 4.383326417188132
Cr 6.9897053061134224 8.661155593802544 5.798909006888987
Cr 4.637133433999861 5.399375234015372 7.078207778510375
Cr 5.663917123855764 6.544358537351143 9.094669792520646
Cr 10.935838316282142 7.763256901557997 7.355286655509338
