30
Energy = -230.72669365 eV
Cr 4.492289992753363 6.3469100855661225 2.246626921107872
Cr 8.668189021564782 4.283810657931415 9.066307517153865
Cr 8.254683288997926 7.417360825914806 9.151819856900895
Cr 5.05678456028454 6.781067761698765 4.855071332567308
Cr 2.862444139340144 7.921171820618166 4.1001179166269255
Cr 4.7462531312042655 2.608698541155196 6.9920847925734995
Cr 3.879846568141887 8.468930014140264 6.511996317089832
Cr 4.026589665800682 2.7849131771010835 4.167853584048022
Cr 8.897155890328136 4.37205411922745 4.216968665840249
Cr 7.421382891824483 5.174957125121129 2.557890077597506
Cr 3.2628878962389636 4.661111812794013 8.00818139607375
Cr 6.63971876691794 3.6787980152138897 7.260827402591737
Cr 2.7616326636625304 6.194694253912287 6.038506520835217
Cr 4.971255104845171 4.451065240584761 9.126094086731985
Cr 8.824540496388428 6.424578617297361 4.329850455542517
Cr 3.3707459994227706 7.5388820135647245 8.371692458238634
Cr 7.207140400672625 5.768195389123339 8.319404386917519
Cr 6.830908147115059 7.174805935625581 3.376880360364971
Cr 3.8892076411956267 3.546566491418134 2.2345213235323236
Cr 4.6366575758576545 4.443665459151479 5.8338665466954875
Cr 6.48498564422967 8.363414876546186 5.991154617377291
Cr 3.095275106949791 5.3897833975118665 4.0333475202876015
Cr 8.346386782326041 7.543203036181157 6.783025638214283
Cr 5.19227583850724 6.241232754364503 7.2689265536893295
Cr 8.991525792862214 4.653665905921654 6.57560849127955
Cr 5.6886195818228344 4.796142750166412 3.5542360855307007
Cr 4.659534058450513 8.854002821646466 3.4694951351056087
Cr 6.8968121491212235 3.460250980521872 5.0065861007766665
Cr 6.097363298857737 8.227968049548968 8.301500850045517
Cr 7.134372850504612 5.715563016619361 5.537022034852489
