39
Energy = -308.50160955 eV
Cr 7.634624450683379 2.11600346010824 5.00199143648023
Cr 8.95560497511471 4.287390395524029 6.444725503572108
Cr 8.6347872078378 4.783800390763496 3.5598790415904893
Cr 6.5245758541417676 3.7022359374220613 2.909837737456317
Cr 9.556756070315062 6.4212548256636985 7.797087951072765
Cr 8.541649012297746 4.456082343648244 9.308103069098934
Cr 7.558974468407736 2.9370163900867228 7.513731424634126
Cr 8.348139637602584 7.501358578582345 3.2217221736438497
Cr 8.176984208698778 6.605076889461943 5.636020177472291
Cr 6.524522876342991 5.476169483477163 1.579301572689529
Cr 5.3543146757508815 2.277128892925978 4.599556325335804
Cr 6.987813994109947 4.3299973461655945 5.316487440858873
Cr 7.113865168513474 5.556320601113513 7.653807249518352
Cr 8.270380235859 7.227329517578832 9.321684611649827
Cr 6.420690681937745 6.148957030404341 3.7180871652708407
Cr 7.5190474402153615 8.019311662785187 6.885360692299446
Cr 4.747032869589593 4.755235033679275 4.483622585557384
Cr 5.5451425014518625 8.262836906065022 2.6060691857168137
Cr 6.553506835608641 8.499144888352115 4.9409643202159375
Cr 4.335180512506242 3.6994345167816465 2.400875182518612
Cr 4.179182337117354 6.132344492725888 2.2616496389500007
Cr 4.252743310625557 9.815595421527465 3.913980451392854
Cr 6.655721944832148 5.424052423233236 10.196747459208625
Cr 5.40545518940734 1.6603312000672668 6.834790167067538
Cr 5.67436158557726 6.392689307040524 6.200890211244432
Cr 5.224622816507018 3.8837345851240115 6.774940898989198
Cr 4.123807493794329 7.237329789222936 4.76739939210006
Cr 5.06792369570598 8.973357201847133 6.265919860183772
Cr 5.909107884175561 3.757071581573894 9.06554565895895
Cr 3.2118601575686654 3.004937105848499 5.222136435458657
Cr 5.839595892306269 7.329380508922945 8.63097860848507
Cr 2.4994527868635363 5.430042327994658 3.7003461357144967
Cr 2.7163876452943274 8.103959486991974 3.001250093699622
Cr 2.4820871191360867 9.11250440960475 5.675163160939049
Cr 4.566958057322781 5.624053473417137 8.50220704955179
Cr 3.2098926321171515 3.5764963795172617 7.93368074661348
Cr 3.1120530632949626 5.495211004123936 6.311111131623054
Cr 3.456919505104244 7.370250509475587 7.275087436081105
Cr 1.5231725188797745 7.114445088482061 5.175093567760434
