30
Energy = -232.3157229 eV
Cr 6.035305204525822 9.029650913152334 3.9145815482837594
Cr 6.5219484382331805 8.534136147666633 6.657428321680104
Cr 6.502171348632905 6.805363512369449 5.474980536020507
Cr 4.7056687510501 6.125294242855037 4.0782609096572076
Cr 6.4306475469366475 6.046747609818463 7.966655926269545
Cr 4.1064159792868775 8.045595359439737 2.82162716461223
Cr 4.628484464510818 7.756883012649011 8.090914230854272
Cr 3.076334722686531 4.376313516571664 5.445646565772235
Cr 7.167012944469104 8.26885168455217 9.059657416399094
Cr 8.087630419605308 4.603149089248669 8.692044268487916
Cr 7.104644882706555 2.3841369063826967 5.386452692026445
Cr 5.686580912466599 4.484855384827109 6.0196735674934265
Cr 4.5460094950859835 4.635745265731303 8.383130338038683
Cr 6.7421335297476235 7.33000002276414 2.9116901793251793
Cr 8.77750594814644 6.574958572612635 4.430209623827805
Cr 9.994269410257608 5.266001049352743 7.684248894917305
Cr 8.028163683145578 4.6990026987062254 6.098644759955512
Cr 7.0132116186858875 4.7301398759394 3.7706188539895136
Cr 4.882031837941755 3.218619586918528 4.347756911958397
Cr 3.9367608113022463 6.113723023003758 6.6384934594425475
Cr 8.501678018563226 6.786326281020829 9.672288560059778
Cr 2.4432764113969796 6.885939544785922 4.600289182102574
Cr 4.294327834449384 8.325126560831775 5.456685010113997
Cr 6.468288843378547 3.103025523048113 7.675660413055907
Cr 8.619230835619552 6.731095991035161 7.104582023350976
Cr 8.369374113919696 8.579772870975797 4.9091943620114
Cr 3.058017966639104 9.34522555848609 3.934699713950673
Cr 4.559462968883805 2.168550483614686 6.5683112954591465
Cr 2.4683397895554973 8.111330644301077 6.3876025241409
Cr 9.111651258970108 2.9338207285071345 7.1078094812029695
