31
Energy = -241.18432831 eV
Cr 6.0273933729060785 1.2211073728025938 4.032975287334911
Cr 5.775507336682471 2.394865411361788 6.400025900920819
Cr 3.696567706302919 2.0661442869123987 4.497949417109747
Cr 8.024439075605947 3.0758413248463174 7.792771651090212
Cr 7.934223772313437 2.448541222851483 5.553893850897497
Cr 5.493219835791987 2.6203269494457646 2.1613958371096555
Cr 3.388747700365776 4.381626461786151 2.8806247662338573
Cr 5.226921107614985 3.687852843788016 4.317675806644184
Cr 4.239670941674065 4.5140644309204045 6.654683932901459
Cr 7.480601008550454 3.7862056117191587 3.5255486980100863
Cr 7.747410681970427 5.6182098062741 8.23230243923867
Cr 2.49655242745764 4.059442403187867 5.056614727577794
Cr 6.833215399602897 4.74983772657041 6.06222810661046
Cr 5.745581725347699 4.562867119684748 8.51587453063758
Cr 9.108898809927409 4.781462584943697 5.710575837144038
Cr 5.973028921157691 7.384742890896843 9.150770156441826
Cr 5.8011045419549445 6.864785453101574 6.749333339778731
Cr 1.975217240837044 6.376663868987992 3.531732960257353
Cr 3.702386360398549 6.561199953058932 7.6595259888172045
Cr 4.412153494919003 6.082937981378937 4.735481463887038
Cr 8.631469758874648 6.817478095927083 6.305282810956772
Cr 2.2335073044218725 6.481227774160491 5.951834711645521
Cr 7.166658757052093 6.293386863725849 4.398964713729819
Cr 5.752313318041767 5.658237013707025 2.4568885161008596
Cr 7.8346023723518545 8.292932542576617 8.20628975270108
Cr 3.9120552009876817 6.9805065529440125 2.4681507100599083
Cr 5.231248668492551 9.218529085705237 7.802603895386191
Cr 4.1046158270208135 8.49075274786616 5.859771592933609
Cr 2.699683419365877 8.630530225301671 4.159434904332841
Cr 6.900223961603879 8.883975341829013 5.941071694599668
Cr 5.4485060091019495 7.9671990228925536 4.141499580355168
