43
Energy = -338.6826528 eV
Cr 8.97459412065326 6.850405052013538 5.252388645286612
Cr 9.159033765319059 9.41217883145176 7.102411795972065
Cr 9.514758017640455 4.9017504498498825 3.4300334854801116
Cr 10.028395382979983 4.623590293589312 5.811667893556184
Cr 7.719783688203856 8.960837166274358 4.8594073915622715
Cr 10.329540193132015 7.077163923639131 7.198298998157513
Cr 7.533870071312393 6.627872379243426 3.361274316324396
Cr 9.439811064978157 7.368056139932844 8.855802027037216
Cr 6.619770654430651 9.407422775545294 6.923088121567377
Cr 7.665387279145871 7.397165745388321 7.2019780084574325
Cr 7.940709287839072 4.241119068087338 2.622729326315269
Cr 8.781485068329031 2.7451240110529316 4.587900336506248
Cr 7.521829302891965 4.833665752870309 5.0498427110023325
Cr 7.303455403541203 9.027836004827085 9.240202404355674
Cr 5.21342598391178 9.487345709297363 4.691405876682763
Cr 9.344899220469848 2.7923290814312662 7.137727188611439
Cr 6.3321913034917925 7.114029325634842 5.1951084552532745
Cr 10.105200843158563 4.790023505754785 8.884752296611257
Cr 8.438644253403252 5.241276214787212 7.435258260655722
Cr 4.966144362793416 7.609491065310625 3.2159179001460725
Cr 5.668709681207762 5.132401648034619 3.419400831693532
Cr 7.476288441018012 6.10768166412313 9.53057010595113
Cr 4.203027002977769 10.411171908703766 6.226073888766807
Cr 5.993402436225732 5.4757742492962524 7.2619449878940525
Cr 6.125861448187846 3.0096204348916458 3.8593253834184864
Cr 3.3755586676013865 6.484663471909805 2.732184768995105
Cr 4.480346870036367 7.898362084282294 6.7123513824100645
Cr 5.586513431905217 7.325970846127735 8.705183531498506
Cr 7.396671553339081 3.554509101288223 8.89707565154448
Cr 4.02715258149237 6.037000379511622 5.157401065365262
Cr 2.9033195203091196 8.322697663217394 4.744003421516744
Cr 4.632413783977719 9.691393541188665 8.656702747964001
Cr 7.118115247853827 3.067204219639948 6.569099495278041
Cr 4.9570559219294275 3.9319826805726814 5.735994036801568
Cr 1.807038417462901 6.003422372007536 4.6083769612036996
Cr 5.49579708131916 4.808104055323405 9.548746263560325
Cr 3.768526282352517 5.5292941838863126 7.78167686677243
Cr 2.469424662859745 8.807177393083265 7.269299644973251
Cr 3.353074785400502 4.01216591600854 3.5903442833692356
Cr 4.70824068302883 3.173034552659061 7.998511807536356
Cr 3.385893467173966 7.37134005995705 8.905014081900372
Cr 1.9550359646713014 6.721040290930817 6.701964634448074
Cr 2.6189230681229514 4.044998613001471 6.202311734748467
