41
Energy = -316.36512702 eV
Cr 10.460212382071402 4.342736493198247 4.291758014029346
Cr 9.830077403490327 6.476168953265849 5.882200538977361
Cr 9.85161625384212 6.810229834464888 8.532839276161047
Cr 8.797257270973954 3.1475182583957486 8.05916399453302
Cr 10.378015330113964 4.6229502868455805 6.8714682839933126
Cr 9.147983934261276 5.584984849716153 3.618603311842677
Cr 7.106326190254791 6.945528566881666 2.367125701089502
Cr 8.572684857229381 8.33602930564444 4.543686274617076
Cr 7.137826883296561 9.300614414308372 6.2040820744460605
Cr 7.260164931734553 6.639370400836237 5.156322631343569
Cr 8.083791666159703 4.123621437809729 5.592477385419422
Cr 6.171553696536225 8.42647087020099 3.8529073570268855
Cr 8.02397295609698 4.699413803363172 9.582718987603764
Cr 7.912809781595744 5.719255002913225 7.23170970987137
Cr 7.210584993217178 7.309080433734559 9.556869246873633
Cr 6.762123461088265 4.342430951852033 3.749125129401373
Cr 8.794854288507016 8.143087098508287 7.554973056493598
Cr 6.877368363731414 3.377299863221929 7.482570131540767
Cr 5.488962303537816 5.188685799508722 5.954024716816671
Cr 5.076398368305984 5.940487475378462 3.4694330989292816
Cr 4.94307242169698 7.796410288669327 1.5047024675018752
Cr 3.6857378512304035 6.636271273330378 7.784126821280019
Cr 4.256203534820864 5.117171206433762 10.309281773884752
Cr 5.943729674311669 5.479002646585604 11.094118192573768
Cr 5.074711150987342 9.98533657442783 5.133234696661315
Cr 2.6241095906484193 6.161988168833065 4.292949092230835
Cr 5.410728142036784 1.4785071132851564 8.669889646138078
Cr 6.108940723987686 7.615487874441122 7.194676903872242
Cr 5.690135388267179 9.904047920576978 2.3380133245998973
Cr 4.115979019227816 3.8290220451306567 4.0607353097554535
Cr 4.320156509317346 7.3555858260266955 5.52270033663714
Cr 5.9347993397704695 2.919022309630547 9.7671720515605
Cr 5.265068647898044 2.793136174523378 5.833447922075919
Cr 3.2200505561325334 4.79841206699407 6.080638410586521
Cr 4.412790902544922 9.278539669126209 7.381283048574847
Cr 4.967918438121029 7.598521514132161 9.551009846185728
Cr 3.80540537990523 8.270329051335848 3.193878893264944
Cr 5.911370032826139 5.396208783880916 8.523738363752098
Cr 2.786506139919795 8.84971725140518 5.825430765627277
Cr 3.46659543812257 10.549142802058942 3.6115162182846987
Cr 4.221710166546563 3.8224797034881677 7.883701358305969
