4
Energy = -23.51480987 eV
Cr 5.57556432663846 5.246364714617778 5.633765483841427
Cr 7.089494778542124 6.501107359969606 7.424111140115844
Cr 4.7765214109598695 4.150110117213102 4.630701865980803
Cr 6.863183794654997 8.070247178885054 6.804484779824061
