40
Energy = -311.68670574 eV
Cr 9.496458634850576 3.9686097586156777 3.440012987523754
Cr 9.288912888545534 3.187184976239943 6.23008338192609
Cr 7.5259106184126825 5.119929763139069 2.550667949425881
Cr 6.708878065195933 7.386633709609836 2.134887174828175
Cr 9.065570687553942 6.686652843479641 3.121638843139013
Cr 9.463631195578694 5.59330988642774 5.046093302141148
Cr 7.679846628831026 3.591507057976189 4.6764660850326
Cr 5.5093835079472875 4.057044710057721 3.8376951368345384
Cr 9.040540664029672 3.979398272283741 9.085649198603395
Cr 5.1019615915714445 6.441845018445718 3.4966488288400273
Cr 6.920925349977223 8.440852591104207 4.209954958126832
Cr 7.983522101160323 2.429523386388545 8.392297241118241
Cr 7.165388319210093 6.049466937846433 4.691771977606534
Cr 6.305544625437508 2.7695827360739265 6.3824253717279085
Cr 8.97600034881927 8.016324556561194 5.480088927695226
Cr 3.7303142133388825 3.158436169611654 5.377876408238285
Cr 3.3477657305390194 5.471182645917113 4.819188964668925
Cr 4.704662129300146 8.77717660323788 3.242371590897214
Cr 9.369992694107932 6.316736695442766 7.594249004165469
Cr 7.906745554101371 4.7260180631817885 6.974249165871964
Cr 5.332408063623931 5.0324831142830435 6.2222777126405315
Cr 2.2140065236399913 4.291424297538861 6.836953904883066
Cr 4.679483764489427 9.83033500479485 5.088601807867785
Cr 0.9588227634392253 5.779190027197211 5.186365709672105
Cr 7.089417751186778 7.254706726727169 6.860391154994522
Cr 8.86746595664356 8.69030320973863 8.016700964581867
Cr 4.967846024119553 7.62082752019275 5.5765356794968675
Cr 2.75884458783037 7.891781033665308 4.536023760391924
Cr 4.382366643633839 2.8086570514229154 7.796296785346079
Cr 6.777770295791195 9.52588241537299 6.443861883897018
Cr 6.443793304195982 4.330019543907048 8.722748077430635
Cr 7.705795236336027 6.220902297702936 9.195291476360495
Cr 2.841825669829209 8.938206899193647 6.3913065219878265
Cr 9.457002197113122 7.484278105106664 10.162662346548561
Cr 3.1305308237688396 6.603059084672981 6.839300036135127
Cr 5.3493033757765485 6.596286860173082 8.144886422984326
Cr 7.080833296023456 8.552802692348793 9.051624802124413
Cr 0.6683313166351625 7.5440446983642255 6.458139468305277
Cr 4.989474245807399 8.78217009158035 7.6882530722462175
Cr 3.847461471833739 4.901396568972985 8.786438229006043
