44
Energy = -347.37535147 eV
Cr 3.026294079710125 4.775398767027456 8.620559945754456
Cr 2.245644234273178 3.218340382764209 1.191888980910939
Cr 5.382446287572428 4.192166164210415 8.200407566307131
Cr 0.46378497684984227 4.51333777204237 1.3386290292782579
Cr 4.348166985670066 2.271733537527707 0.13583352191994438
Cr 6.504961208127668 5.823174471910663 1.2274605623248398
Cr 4.785062192467465 6.498968545938684 0.880142192986371
Cr 2.572318918114687 5.742646269975713 2.0341262875348116
Cr 7.090646470968744 3.310300161060802 1.4016712785424112
Cr 6.577255540064025 7.615378005911991 3.119077204682356
Cr 4.510485083272465 0.029063778049870467 4.677720372034028
Cr 3.5518206781479433 1.6133227571682016 2.6373255288011865
Cr 1.10297477025592 4.058074431873012 3.6523621438426948
Cr 4.671219466690728 4.065005736717522 1.727093545945596
Cr 0.6883018416096505 6.601898337586267 3.2464101698331738
Cr 5.409247916635695 1.669510717992032 2.589503765360918
Cr 8.201764183515644 5.419617095947197 2.984640266380169
Cr 0.7664302282979072 1.8000535921305663 2.3866897573408092
Cr 4.892130995425733 6.135384364652322 3.3822049924487256
Cr 3.308528414303316 7.878383770299017 2.9777908341876107
Cr 2.754008921346119 5.8788067712469205 4.569213555696808
Cr 2.0052012914694437 8.607643421293337 3.526451638802898
Cr 7.113516585899839 1.7284702628862711 4.303516313316389
Cr 3.5257079405512695 3.884731414680946 3.562289219699461
Cr 2.047455647352678 7.648502825041729 5.504258836796392
Cr 7.0278432249140215 6.06152842386918 5.153328243603752
Cr 0.6301124390290931 5.366309350210139 5.881771351935159
Cr 2.147518555919357 1.7867074441809274 4.744431597848996
Cr 6.111724456116029 4.009544118909674 3.6765749669552776
Cr 8.811492396534907 0.20395023398876944 4.680082718766231
Cr 8.560224186674343 4.016538572390454 4.071549136385626
Cr 2.1278993123807095 8.133896751182482 5.9139230189842085
Cr 4.770070688070745 7.38857063219557 5.420603094894343
Cr 8.560224186674343 2.96085555613563 4.969510523304848
Cr 6.087761344453713 1.440307700040796 6.422853058951991
Cr 4.786969947578997 2.486595047513377 4.970829667940393
Cr 4.756829450939899 4.899229926632628 5.686115683317878
Cr 2.4062519230714146 3.742429731345048 6.078557415390697
Cr 3.075756337943318 5.830159754644479 7.183521610604194
Cr 6.034394729639929 5.918668738272301 7.419554802747392
Cr 6.899998989544926 3.739731936705749 6.06025583245787
Cr 0.5952139079049883 1.3753167021529655 6.393533007827514
Cr 3.3645306793158793 1.1329568713241682 6.6686182810373875
Cr 4.466303655474877 3.2932844231425165 7.4936137470917386
