42
Energy = -330.64628549 eV
Cr 2.9600318102276706 9.751176332017025 5.223034310545458
Cr 3.2874025008491423 7.72517281592197 8.40284706957622
Cr 1.550536657370974 7.954074165872186 6.4730141995866814
Cr 4.656146587531488 5.764932059975873 8.050654386498442
Cr 5.362394875995921 4.61778092169747 9.967940879705086
Cr 2.5224222413800637 5.669860358584746 6.714165525635257
Cr 0.7717291171398828 5.477709893219581 5.356111919879931
Cr 4.036695271248428 3.5608278687691706 7.175720211649572
Cr 3.8824625862702113 9.412032691159602 7.506685677428658
Cr 3.9993031128798777 9.078315642109537 3.5199750151302425
Cr 6.6173123985330875 9.807462611429676 7.71843772844308
Cr 7.001495312783193 6.2347626946928445 9.17331312135967
Cr 2.23734716299963 3.0395969530878273 6.079709819724283
Cr 5.788585713049529 7.648749551551196 7.4662735577227695
Cr 4.040058387246969 7.429316361084328 5.807385058025531
Cr 2.252659432893618 7.126375441529581 4.313434583591894
Cr 6.190436827598368 3.7047396646499546 8.184888329274786
Cr 5.263391626657173 5.282967992064039 5.773589663292509
Cr 3.295750722386499 4.956021683233622 4.611362671862364
Cr 4.182118705780006 2.7464051565353618 4.613593714195943
Cr 8.313846379905716 7.969222159080991 7.264686833285986
Cr 7.2655709540811495 5.501937868774761 7.061361511876476
Cr 5.690027951577872 9.604432262941023 5.6099700704278
Cr 4.673653085976785 6.685563636587825 3.5583679696124526
Cr 4.955531840371702 1.5244186304280336 6.7080615080740085
Cr 8.118117749338879 2.0202564853380336 7.194866734804107
Cr 8.183771657486837 9.14366081338482 5.612577492139595
Cr 6.69708575011686 7.250946468651104 5.234849917288962
Cr 8.172695788932897 3.913090382320626 9.044628168156175
Cr 5.770485884912835 4.116072401636297 3.570707069033784
Cr 9.556351782433955 5.544540715141195 8.043370726060466
Cr 6.6062188090601195 9.121190299254666 3.4071004706608083
Cr 6.545596454722888 3.1020736232109045 5.86712782002905
Cr 9.123220570786593 3.873633286836738 6.381506836581817
Cr 8.80698293674107 7.38274787404582 3.661928482421946
Cr 6.574114757371487 6.657920214838574 2.595878529359961
Cr 9.141326992868125 6.6449109145895076 5.745344796871313
Cr 7.666468436342686 5.075076566300581 4.540989684115212
Cr 11.309744731408736 5.362921438547823 5.922536362503029
Cr 8.388604968188462 2.842965997787591 4.346494987259417
Cr 8.446962465919038 5.123940954172442 2.4060331405526028
Cr 10.325103359673612 4.8002173869582645 4.2285661384027975
