54
Energy = -422.73352098 eV
Cr 4.742743807244242 9.994147284147713 5.910286318473246
Cr 8.883023005446805 5.459118173889765 2.777375475619278
Cr 3.024046638988887 8.844449108477086 4.092099157378775
Cr 5.307912779322637 8.63252176120561 3.7602890866920546
Cr 7.527062417264316 6.8407148289348925 7.644145832350534
Cr 3.440738577166167 7.873972751355962 2.0559620655701014
Cr 8.68846851119285 6.266187566950248 5.1538165971782535
Cr 3.3416857392654573 9.688430242109144 6.764798177310514
Cr 5.605972263067023 8.471795000828807 7.798707148430702
Cr 7.183507264826404 8.944725456340011 5.56986264188643
Cr 8.949288023974667 4.472204901279536 6.998461481219584
Cr 7.3352628142831025 7.34641933151814 3.132169441817256
Cr 6.758415027199381 5.029535300304633 1.417744585656795
Cr 1.8019016340644158 6.607279718253445 4.0292203591839275
Cr 6.547890115284591 5.172767391013044 3.8755091301939615
Cr 4.241112759964974 6.230716953573243 4.012197610826614
Cr 5.07647260951083 6.8118874667605755 1.9907926666884053
Cr 7.125884098061381 4.667293401588553 6.31451923220857
Cr 6.942171333038249 4.263258610942788 8.801621454174214
Cr 1.448619781800496 7.846125861291772 6.178389299191941
Cr 8.507653531837855 3.609594356938116 4.3877155366634195
Cr 2.887229856134171 5.314165740399989 1.8669476963343081
Cr 3.294952923060722 7.435354385815428 8.383451779340566
Cr 4.00813740804531 7.414951079795346 5.905333573633414
Cr 5.636075716299465 6.7982189490707166 9.731861326594887
Cr 5.22645249543196 5.8482685425903576 7.735427778620461
Cr 6.367629728256854 7.006569582935881 5.592614205929226
Cr 2.283923603179533 0.5671728858597651 6.07238194969464
Cr 5.2770886134002755 1.1993340535724215 2.846763887126867
Cr 1.8676393350497646 1.3263343050070122 3.7291202722187773
Cr 3.2106755462938357 0.6457181099129157 1.5253665566847079
Cr 4.980762816884548 0.8431616682224063 6.656564758293288
Cr 0.9536286805674871 1.9518436182525707 1.0842689936445382
Cr 5.88947876564904 0.20904293912117727 5.400845035062688
Cr 0.9283762819175901 2.8035515861727567 5.430253869117075
Cr 3.009574876749026 2.7914227343720053 6.670767630626297
Cr 3.931067090801619 2.1245217732385355 4.625250661984337
Cr 7.482548620600446 2.096206373729503 6.754986494482775
Cr 3.7907265036879245 9.994147284147711 3.9584883570571114
Cr 5.297644226427523 2.5665626683375904 0.8300769572488523
Cr 1.0109339124075234 3.8285641096670404 2.798416035305532
Cr 7.260634353277941 3.0950563910442526 2.399845257863666
Cr 3.2435084360260245 2.778146691318312 2.074219436924346
Cr 4.116624194287179 4.846898901188 0.6870423163492579
Cr 6.233894935202094 2.7654393937865414 4.863198419277479
Cr 5.501181725631421 3.1594284871811524 7.515347801436608
Cr 0.6019710840914038 5.483800725514691 5.114836412462413
Cr 7.517702436024169 1.114713701658505 3.6275832771123526
Cr 1.851967829042215 3.094912556465649 0.17341239953716095
Cr 2.666612039942101 5.657768088724551 6.510902790087237
Cr 2.6199854232764257 4.096149728617851 4.288026654222619
Cr 3.6403584142163243 4.4707501101569544 8.414815339469332
Cr 4.590806727750364 4.6125176801900185 5.670933493999347
Cr 4.946164027028213 3.9890710716680626 3.0007566429890846
