51
Energy = -404.93884181 eV
Cr 9.749398685756498 7.4926860083760545 2.8389281063366374
Cr 7.6396302566678385 8.67449306231553 1.9605038545404736
Cr 8.03075277547134 6.330792469539733 1.026407851521783
Cr 8.106771368039045 9.42844819434501 4.447433159033592
Cr 9.356726470718925 7.835719226891069 4.97135049550078
Cr 8.71321756075503 5.378911522116552 3.4827493945485104
Cr 10.57780287362649 5.6704606161639735 5.160600379964305
Cr 5.377451385532536 7.394728220725731 1.5218903975145472
Cr 7.178098806260796 2.953357848644167 3.2500160896158734
Cr 7.25087124501941 7.073359211127857 3.5030642444392255
Cr 8.493784339954704 3.5890297918353067 5.126050523186471
Cr 5.61721957403261 9.080896128283879 3.6922512875874474
Cr 6.2551876390152215 5.36831529843994 2.1200639824116587
Cr 9.749015372981678 6.834456086117111 7.576157043662148
Cr 8.223810404135035 8.641443908768453 7.121296674710284
Cr 8.156686742932244 6.035790601107678 5.894888567546797
Cr 9.315825761782119 4.585175384404861 7.592545147894406
Cr 6.311805981712603 10.045006369310233 6.129588978943014
Cr 6.2957936577319895 4.854532412667292 4.721399114945866
Cr 4.769987875239515 6.584092115975542 3.9082949695785927
Cr 6.02840776088349 2.4430250806762883 5.276098930781644
Cr 4.866719869518206 3.757055164566308 3.2742555588839295
Cr 3.4974643538303716 5.501068585464276 2.0191332820648253
Cr 3.598396430642844 8.256887306913427 2.9937519268492183
Cr 6.55234082009544 7.588797940381528 5.6397120522874555
Cr 2.109706136427111 6.271983506195785 3.282975153204917
Cr 2.1347535248534872 3.4184339120803418 3.300673828859698
Cr 9.156607136783192 6.138148602307896 9.88382499640474
Cr 7.220430960371217 6.4454445615198255 8.18761401265561
Cr 3.4200818251454637 4.790747607825028 4.784525732510661
Cr 4.854127211300367 6.0700678074804655 6.508242289639991
Cr 4.304842179534722 8.620947724676471 5.6586434552483365
Cr 3.7742636379127985 2.1282829564820713 4.506736320213346
Cr 6.826572034701832 4.279712544863372 7.0358123043515075
Cr 7.584663687440214 4.353517907615857 9.440137233631512
Cr 7.511440279085057 2.35835237558505 7.262052636835529
Cr 5.520501940979965 8.299453897341634 7.810893324886325
Cr 2.6105633679208893 7.21293958348058 5.5961003235936895
Cr 7.403267964314135 8.08438260766075 9.580725108279891
Cr 1.0521431975693118 5.32365225782681 5.584005408914624
Cr 4.546725283055452 3.4101421586141085 6.780364978843845
Cr 2.4603392790709435 2.9951743198489504 6.127192895116734
Cr 5.050892140676475 5.424027816969871 8.745242469175368
Cr 6.635092921588632 5.6872644669001655 10.709317220461013
Cr 3.4933705286831556 7.633723594490267 8.152877831167448
Cr 5.616888198039946 3.117464200357351 9.148676172124597
Cr 2.6802159447420726 5.255236782232767 7.341500155695783
Cr 4.726585719290491 7.405062228553086 10.162853341148452
Cr 3.039874111958775 3.4815894058084864 8.753956676081458
Cr 4.145153584215173 4.6020741689472935 10.810849808405855
Cr 2.5066942203927205 5.9481076888613975 9.58086123765219
