54
Energy = -430.28305493 eV
Cr 8.726684691438244 4.109701696679699 7.7877888822898065
Cr 9.312196331726216 6.285096652398117 6.213341449942451
Cr 7.096471019105687 3.76866597553534 10.122010345666059
Cr 10.487399592583788 6.139423129621877 3.6681591862764664
Cr 8.319782017498364 5.793783201203279 8.72271786048032
Cr 9.209391687016629 4.424412887863978 5.358967458681338
Cr 9.82030853675281 8.367164843126384 4.740723810529206
Cr 8.781737516900364 8.506091646435717 7.446179850676774
Cr 6.898548055629816 2.4682557405435914 8.730896452105721
Cr 8.61320878094389 2.1379930461894734 4.079076469777874
Cr 7.329085662399321 2.878605802485268 6.175172223324541
Cr 9.012084820743413 4.144129645646975 2.804103945140349
Cr 5.754196483019837 5.850586175711881 9.832955229021168
Cr 8.092031897409433 6.313581389246419 3.851028644674896
Cr 6.015015128157423 8.589583758615916 9.556636023609494
Cr 4.364154778972412 3.5487780629663845 9.821488845823476
Cr 8.866126012972654 8.508056839071136 3.0217847114303193
Cr 6.997919766799266 5.587017320994894 6.1045053111952905
Cr 6.104166598924038 9.461913536836779 7.04384811165384
Cr 5.964605589959598 4.63483893880166 7.937140435500758
Cr 8.980404051215238 6.333163988032532 1.3901230931412503
Cr 7.842916756199883 10.311141186075561 4.975987757445605
Cr 6.852753886768065 7.29563188010869 7.872395843302226
Cr 7.458535666434519 8.010617623362256 5.3733342350200894
Cr 6.939440033194372 4.0030320442436915 4.367220705086091
Cr 5.841332723010668 1.6791483632485942 4.240398894138097
Cr 6.968722726246842 2.3110106529614387 2.4281234218449024
Cr 4.785493277587743 3.8072534534631886 3.151661250923767
Cr 6.934646365872287 4.6173375430681105 1.950536229494816
Cr 4.169044605724765 7.606539891189579 10.442657075374797
Cr 4.360103866303305 2.465591742292195 8.186292179588962
Cr 4.42796571693213 7.201842685842828 7.992185541157742
Cr 5.050401224962211 3.289506905269589 6.042974760843281
Cr 5.1732980695643125 7.506952943903159 5.824132563806724
Cr 4.227313321315848 9.646482806773712 8.517471605848675
Cr 3.380638233939241 4.993146944839452 7.70703656820123
Cr 1.7770934061915566 3.4896112190603557 9.069459354993546
Cr 7.165051008921831 7.093564491178003 1.431690504269136
Cr 5.751240955466665 6.219584937557846 3.589690634384603
Cr 4.584338923351023 5.236471752968097 5.481680164439605
Cr 5.379716545255781 9.984656614474307 5.007989977962183
Cr 2.8490734960191966 5.699305727214306 9.785475245802173
Cr 6.178597922966863 8.425056240085425 3.5120652834875052
Cr 2.4631975071649013 3.1145339018772598 6.668195607793642
Cr 3.2140624101703303 3.1336954616572252 4.166998364509517
Cr 2.2143475306069322 7.480185279053585 8.257616974682389
Cr 4.763371882865931 5.642833904789881 1.2546878047477485
Cr 3.5254298528243475 9.198470145196941 6.374793043315075
Cr 2.6166712765729585 6.815421016423157 5.959699660996008
Cr 3.64949823055232 8.0412223613575 3.9558576805069845
Cr 1.0263289159011941 5.342884275683471 7.75492728190394
Cr 4.55522200212677 7.572071815672813 1.6578738146283232
Cr 3.1976264342289054 5.8784755314223 3.340759402240815
Cr 1.9203257271880303 5.01678813267137 5.370877393622583
