55
Energy = -436.06248417 eV
Cr 8.442054154327762 8.688268713028076 8.316352299601649
Cr 4.123323436863662 4.340641423681342 6.639400880103096
Cr 8.161718091273224 4.622593342675748 10.592758066468036
Cr 4.4106894315874605 8.599943575915274 8.762615746647203
Cr 8.213069119820315 7.225991127120247 6.241816871039633
Cr 8.758924275765523 7.311777279116965 10.398989930449899
Cr 8.323741298817463 11.481787509094685 8.35124531457534
Cr 8.294064063797382 10.124003262174673 6.421094040311175
Cr 10.731622600206402 11.232970237199355 9.48951999478776
Cr 8.440980847852666 5.83414337305781 8.34912073990162
Cr 8.346971652264532 4.3513121934364385 6.380492887279566
Cr 6.49652312176115 8.50771472615815 10.520204122719628
Cr 4.473634800348461 5.8054140584477505 8.745137609902947
Cr 10.162280723040562 8.692711510763036 6.043270930282956
Cr 4.705801709093897 7.2698950630911305 10.699008496648965
Cr 8.314624028762541 3.0491107591050515 8.344402296655439
Cr 10.279667358187957 5.883857431889241 6.040203963103404
Cr 10.620427702350247 6.166654214979279 9.911110309735866
Cr 6.450244506920067 7.215415666912636 8.53424797413518
Cr 3.9699531993952757 8.343633107048381 4.799869940083122
Cr 10.430847695329183 3.775056622806423 9.645893010043435
Cr 6.2911298819988515 10.10629747990173 8.476965844122025
Cr 3.932020826413867 6.0649580670646275 4.9594121266116415
Cr 8.427704282697512 9.95429036882349 10.19075544753202
Cr 6.355228730709976 4.317797942031872 8.39640710930078
Cr 6.128070602743653 7.194905173804091 4.313712128645599
Cr 10.731159821561572 8.6318634436858 9.930841685870101
Cr 10.409861030352253 7.260606450843939 7.886091229677129
Cr 9.98993295356036 7.219304481280878 4.107861796744437
Cr 3.941918462148323 7.059203202228031 2.5573075163719303
Cr 10.623908827722955 10.202373838474935 7.984709717224175
Cr 6.095337619344973 10.021834251136278 4.622823845792335
Cr 4.363671832280185 9.57837041978674 2.5283637014414952
Cr 10.716175693304573 4.413512770380341 7.952805095628541
Cr 3.97742062166631 10.898531774694403 5.048838572565638
Cr 4.158169897630338 5.256213188956386 2.8218099177306417
Cr 6.200636238129289 8.637639749849887 6.527730265632978
Cr 6.093025446262315 4.47708845315211 4.48191842652023
Cr 5.975576005987446 8.838951489505012 2.183004439121928
Cr 6.2886305580609445 11.445349002758398 6.563402679725882
Cr 3.919617572916221 3.5024353102233996 4.973735076632506
Cr 6.536830873958809 6.0678108711153165 2.1244200907916
Cr 6.223191401201097 5.81784948228327 6.468724303555699
Cr 8.031698614014834 8.736890897985022 4.282943915144478
Cr 8.049989073723674 7.093802623045233 2.2581167752872897
Cr 6.2887081318218865 2.9966911893419264 6.426128762516619
Cr 8.150418919523034 5.767226016091859 4.322158512602597
Cr 10.583786140478054 7.248171594454163 12.29153780490862
Cr 4.17066716794201 7.274804472615505 6.891893956264353
Cr 6.58506210699171 5.639009924797441 10.4611442758524
Cr 10.092637695783516 9.515280516483566 11.550404969370785
Cr 4.058193363057742 10.078104486530695 6.719499043557477
Cr 8.114605916133018 8.524147822628564 12.669444814718116
Cr 9.880499892524378 5.570570777776523 12.160566585335145
Cr 7.303294393809516 6.905161682787632 12.477708556949045
