11
Energy = -6.45747897 eV
Cs 10.250237977278262 3.6487628934469267 7.497539520725409
Cs 11.480718705165591 8.643208551557509 8.771576890601365
Cs 6.31695156240042 2.2307426112325284 6.073336143155173
Cs 7.519167421173917 6.466101245554532 9.035443469781463
Cs 8.521951369274047 7.114715651997186 4.791246958873433
Cs 3.782990169723231 4.990228721444934 2.5211157440060434
Cs 8.66549723738215 10.458130443090115 11.199750152128276
Cs 4.56112560168191 9.663451397697209 9.025468775521313
Cs 8.66549723738215 11.090584797023126 6.984605453323276
Cs 4.430960262308484 9.158571373939068 4.543576571131175
Cs 2.8940955546844758 6.06840704164836 7.594875382936925
