19
Energy = -12.27105602 eV
Cs 12.081273426064826 5.029056445059149 6.421463857825784
Cs 7.699350790684401 6.154031507682645 7.325167316039465
Cs 10.778966384016522 10.15410113464834 6.923230766089022
Cs 9.620324348571124 7.961652509626978 2.683888981988
Cs 10.390769404553028 2.042296145872316 10.126870740581579
Cs 5.153005796624438 1.7974848800405956 9.83626873998241
Cs 9.777289517549935 12.969443563863475 2.8204824472888887
Cs 4.245811498419157 6.843353503795644 2.9550937852968366
Cs 6.561634324595266 10.256415843330027 19.62391234053079
Cs 2.2960636264542273 3.1933630796178454 5.889864878632206
Cs 11.407143225812492 7.581497809930694 10.556702155408885
Cs 5.785931460821841 10.662045520339728 5.386782949111411
Cs 10.66189053535605 4.358019112442845 14.37422446179558
Cs 2.976003843371447 7.424507619976974 8.704860396889456
Cs 6.693952875976729 5.892263965360285 12.179233675487689
Cs 8.34644139874753 14.910781683444347 7.9452545845718445
Cs 6.807889192972379 10.270109025050617 10.126870740581573
Cs 10.66635442669921 12.719768359002162 11.292640475715022
Cs 9.353152289273762 9.871250937752658 15.02920606511965
