13
Energy = -8.0120957 eV
Cs 3.0730018083969695 1.2107184486837586 10.843378309677727
Cs 1.6711690907652688 0.7372141453702111 5.267965305963161
Cs 5.986257228951261 5.5144784440721875 11.568340150074338
Cs 5.270351128104243 3.888022520245195 5.773575987418069
Cs 5.715228256988445 0.6363017099284402 1.4124936186223633
Cs 9.396165730521606 6.777112071318785 5.797844396651082
Cs 9.396165730521606 4.284116406677938 1.0140608087189478
Cs 0.7923180186139622 5.2032466457633335 8.633647243285678
Cs 4.823651041517754 8.914370999234972 7.822111812056088
Cs 5.702123304005229 7.618809792016923 1.6227107879737686
Cs 5.470724770478916 4.0920046921554 16.80598410301232
Cs 1.9295328387643353 3.908661279410207 0.8980288557277581
Cs 1.1575269292534658 7.807638404288794 4.26055979122718
