19
Energy = -12.74856128 eV
Cs 4.393549768454463 4.6784556013857665 1.1089320092543944
Cs 8.313220381073538 8.16467478406063 1.5685794748836366
Cs 8.908509846601397 3.2361082642575694 3.7934354205779655
Cs 3.171062043597238 9.396890359204452 2.7697482817757595
Cs 12.8450862015798 6.735228788778667 4.412817592815171
Cs 6.808070674208062 12.179993019840882 5.1933686473335205
Cs 3.849534547254092 1.2612224503576122 4.797493031091874
Cs 11.617668786839417 11.622743218205173 3.289291479869954
Cs 0.37625676794562396 5.463287862477158 4.887996651858257
Cs 6.6664046734824005 6.831033388141138 6.831017207302615
Cs 2.260467804816494 9.396890359204452 7.956950326941199
Cs 10.827589908740165 9.969578627013153 8.167928193508672
Cs 7.7220104121661555 0.4009111769210104 8.162834495436211
Cs 10.99965518528125 4.58081877958723 8.902682127315
Cs 3.032686248399105 3.8512917079470137 9.254526880614792
Cs 6.407698501535538 11.75648160485312 10.260470802620265
Cs 9.338221554592455 8.115523168825064 12.644740061551843
Cs 7.229427614271167 3.4264004585835606 12.301750247049721
Cs 4.114208493338491 7.730389231167659 12.576766482375703
