15
Energy = -9.49442799 eV
Cs 9.155471276626134 4.825666594134519 12.31213701360204
Cs 4.134774727779745 3.436273501455368 12.285752702371058
Cs 7.122696769605907 3.200837974547836 8.633621521031918
Cs 1.6852116695640977 4.524559108693669 8.386360048484711
Cs 12.005444099485276 4.3226314726864805 9.41837983707836
Cs 9.597789326882074 4.961809720984855 4.665171218592117
Cs 4.855758610499662 8.077823149167946 9.840567838155097
Cs 9.597789326882074 8.338468515875649 8.749415742495371
Cs 5.500653085513455 6.724132977454091 5.111812890125743
Cs 13.707041752991655 8.339204691587526 5.994020300008009
Cs 1.0692440909332201 9.452635955799604 6.557084341538531
Cs 9.559230862347519 9.848567425567422 3.0992314275161528
Cs 6.169093502322669 10.947758776029096 6.9862388153215855
Cs 10.686576625306861 12.026092725201774 6.810282310543615
Cs 4.2499990560116565 10.123986982743071 2.2200786022551378
