17
Energy = -11.13873297 eV
Cs 5.612606068041794 8.478748078364584 1.1782740335017294
Cs 14.360183714567487 6.654053064236532 4.647900351807535
Cs 9.76056930482277 3.6687410637998212 5.9837723487837104
Cs 5.694785518634845 9.065714231072725 13.82054047213474
Cs 10.293825217058188 9.065714231072729 13.297111317691211
Cs 8.286857163441391 5.27385831024113 11.173238800208864
Cs 1.615899891943102 6.918739026835597 5.562337337581575
Cs 5.279534889753921 2.5748215996377652 8.107334082638586
Cs 3.0511999360455104 10.433046940674863 9.480541263947789
Cs 6.759788030939701 7.318375529451168 7.198644525115396
Cs 11.746113770223715 7.677257213995967 9.12707754146593
Cs 2.844808607259872 5.972523066917145 10.456578545859141
Cs 5.005675734495916 10.976054855150554 5.178533985124923
Cs 9.63667603402381 5.907173550247025 1.2881759680002316
Cs 9.689554778644622 9.33618708378953 4.516130825982148
Cs 8.268210124005492 11.02619066634874 9.253467401234985
Cs 5.589228031426636 3.6987655769413963 3.2258580142500115
