14
Energy = -8.93750252 eV
Cs 12.838347215025976 3.5419956034047537 6.815564105985075
Cs 12.01566211053385 6.423144273229164 10.505705315412545
Cs 9.568217061070051 3.5494079659843782 3.240794774697326
Cs 9.94549671607595 8.051540865732806 5.583116072733825
Cs 8.452331313172063 6.388410684325997 13.864418484516364
Cs 8.212649882481005 4.353169919031135 8.740518162597077
Cs 7.360307511640396 7.874622985952394 19.30568035494711
Cs 5.050719651988998 5.863383939822254 4.661815641769813
Cs 5.186839010303312 9.911384276502417 13.81539703552524
Cs 8.483545681112698 9.562568673017568 9.887900062673422
Cs 4.186340492836841 7.219400396484832 9.732564327134899
Cs 6.14662656883386 10.37253731220564 5.050176360545998
Cs 1.1883234474241149 9.56256867301757 5.7478369039143145
Cs 3.5163754501288316 11.863059232239564 9.713295199127606
