13
Energy = -7.89365441 eV
Cs 4.6275450027786125 4.629437188191407 4.62880884623876
Cs 4.616750448296362 7.131194199267815 9.274251887030651
Cs 4.897465560922542 2.009165511636827 9.289201823929853
Cs 4.359512704958986 7.259520696450367 9.32518725642698
Cs 4.640807375186676 2.1256769616621956 9.338454626528852
Cs 7.1462049525939015 9.28177318344191 4.75127566157655
Cs 7.21505341000168 9.313267556118484 4.858386484430241
Cs 2.0431046609806094 9.302950954574804 4.393508919721002
Cs 2.111359793327718 9.330552759541499 4.504872711144257
Cs 9.306122923928816 4.444698388055855 7.177296602211029
Cs 9.259747005274047 4.723216110752431 2.113814835162231
Cs 9.349462850230172 4.511042318586712 7.143914626529286
Cs 9.306122923928816 4.8167637841283675 2.080284240412532
