24
Energy = -16.20114899 eV
Cs 9.939852828064659 10.662145076458886 20.420667458068223
Cs 9.94527993305298 7.962908770515954 4.017812047776321
Cs 11.059958784311512 12.49890786992492 5.0471469815204735
Cs 14.05980082858174 9.423182288164671 8.11830862090998
Cs 7.294343703493177 3.7573899763751544 5.479630671306648
Cs 6.6225416846195095 11.98845163336977 4.784654721929662
Cs 11.4414517980586 4.760803975085964 7.9857542551882155
Cs 17.254777216314743 5.062588330599249 7.576780916624576
Cs 9.263470013719298 9.695376285449004 8.760817166687012
Cs 2.4105178199828607 12.893617357174193 7.8135509827017415
Cs 8.4982703635092 14.623677894766367 9.000669987718819
Cs 4.495874618934048 8.471512461013816 7.184666354308096
Cs 15.430202219654626 6.374690886076608 11.860919898977025
Cs 13.97162024447345 13.834936848497833 9.156444553269383
Cs 20.042245072619657 9.287440258166978 9.933893952747011
Cs 6.922982222776612 4.147084421939655 10.46379334009726
Cs 10.650323940919279 11.832421400778228 12.206373444223557
Cs 5.575399233708691 11.345596430685214 11.193931561846668
Cs 1.8610878577422072 4.265149738805961 8.483779761859854
Cs 9.94527993305298 6.80493468041998 12.257614472686054
Cs 16.31543346931166 10.80695625301366 12.499779233331427
Cs 3.6208777957791547 7.3218307718864155 12.36447730848536
Cs 7.721257250115614 9.947409308532292 15.650573909634776
Cs 12.644841002876463 9.296618801122511 15.935842444240778
