24
Energy = -16.05574626 eV
Cs 14.49548087631683 18.31892275916942 6.6818636175709685
Cs 18.859377921080792 10.395846106910813 11.172034974220676
Cs 11.433085221844408 10.79989657149684 5.237954055461321
Cs 8.54444945360647 10.519602337958442 9.852375487260296
Cs 9.60956073975815 6.170266782486892 16.6118834490371
Cs 10.519480823586681 5.776718801139276 6.302396866737014
Cs 14.72331184052415 13.17604821129334 12.430323945574397
Cs 14.223991409378938 6.714942184846517 13.829063217145965
Cs 9.995034316360641 5.525380317491994 11.1701227972391
Cs 5.762889353455515 8.04137712976352 13.031625837328754
Cs 4.69514528550274 12.904404467718066 13.025290968557806
Cs 16.065252212748547 13.324545167054671 7.356390138845779
Cs 9.494329799281362 14.781237734955237 13.423158864903687
Cs 8.941327403263534 8.418418308665048 1.1635247540182365
Cs 13.681744320470155 9.223070113399844 9.610220610250538
Cs 10.365946319434915 16.59651447606828 4.571856977482677
Cs 11.326723315337512 14.63408450553526 9.119591398777098
Cs 7.3550078862806965 10.898432581874374 17.146553710804934
Cs 10.770290419332062 10.395846106910813 13.805865402948786
Cs 6.689349045367295 15.953836184772298 9.319400705452873
Cs 10.144970597125841 20.719898962712335 8.00056617685519
Cs 6.194010688530136 7.892150273948219 6.1746747767226235
Cs 6.970966430531151 12.64021090149624 4.973567583611013
Cs 3.2473165296473954 11.066892172590077 8.821699887675932
