20
Energy = -13.67852293 eV
Cs 12.302863097929553 7.764981961787941 5.917652132554846
Cs 14.129577405717823 12.709276180021265 15.205557636560897
Cs 10.55243035353721 13.092786440062763 11.7564737321172
Cs 11.979601670626828 18.00275065382436 13.512962543306557
Cs 7.24242271775867 15.849906155622245 14.031006075665982
Cs 6.45559987208216 13.595424517112003 8.575906188284046
Cs 7.514641886107568 10.412734767681208 4.564985981784494
Cs 10.826949676455376 8.155468019277928 14.92934127601664
Cs 3.638945053776676 9.086857112311007 8.81012558023796
Cs 7.105215005385636 5.496773113095118 12.28633490106357
Cs 7.381978224969816 5.515633695232752 6.9589015857128675
Cs 12.155033609751843 4.372379340884974 11.053728045864808
Cs 15.082378819965438 14.818140990374115 10.141633853908722
Cs 14.286598015677272 9.34687000742266 11.072727877105027
Cs 11.624482685218988 13.16505405737561 6.303266578948598
Cs 16.66080221413583 11.20846630577411 6.7080459683711195
Cs 6.30715995784007 10.662981423334353 13.611921870719781
Cs 9.590909556689601 12.39290415022735 17.91847844887202
Cs 16.957567210224212 6.292604223886246 8.304976585822375
Cs 9.233693193769385 9.086857112311007 9.487872608935541
