27
Energy = -18.60599608 eV
Cs 15.420255510987372 9.143229091798617 2.4108446283994094
Cs 14.535235663682148 10.914446372806806 7.402489215552959
Cs 15.52387096444481 5.4710732598009395 6.236376285455962
Cs 12.107533661304673 13.082711065669658 2.825601425233744
Cs 10.496218623864427 9.40221176784187 20.27129209476194
Cs 12.348245777852412 4.8067328726279515 1.51227934779296
Cs 9.574768510272564 13.81296693735167 7.4599141615879745
Cs 10.89489296356745 8.350997611984827 4.823787312764808
Cs 12.231256018420973 6.655407862765655 10.327848436921496
Cs 11.540950573013903 11.566304221985572 11.658304303722739
Cs 10.496218623864426 3.2366410357796584 6.510601786680466
Cs 7.156510443182946 11.486336712651676 3.097190111969489
Cs 7.947825222193132 8.996631201417612 8.257944981280644
Cs 7.042961587955709 5.87226579121611 2.1679441190334905
Cs 9.000273880259522 8.198428006391232 14.573634173788731
Cs 6.367683230553146 12.309838943073077 11.908700350088996
Cs 8.573700791759318 3.2265047052231073 11.46652208752539
Cs 4.2807644007319094 13.239327116431754 7.187246263266061
Cs 5.542560562036483 3.7494363684531513 6.793588470966798
Cs 4.89548349463151 6.932033010821834 11.037111559704627
Cs 5.307372024847636 4.526171178118436 15.906640141131563
Cs 3.643025257565429 9.548281974373259 15.516843699035892
Cs 3.3482184480310107 8.474851921554322 5.349982781133119
Cs 1.2305548681044043 10.448957306195751 10.48722909749146
Cs 3.29440979883512 2.0337759473733534 11.490000933093146
Cs 0.28604371518017585 5.193762953620783 8.24915307725016
Cs 0.3163557794909921 5.98210504406147 13.399997191237814
