20
Energy = -13.32658352 eV
Cs 10.80040949394281 11.523180895255921 7.184874333552931
Cs 9.350208555241926 16.021643425955663 9.231038197471824
Cs 5.7357949016048435 12.761382911116408 7.7752760009780575
Cs 13.727296123922232 12.220928310570523 11.149398683231766
Cs 9.18875652508826 10.577793288774004 10.965229609702437
Cs 12.758261205376789 9.376544500279191 2.996425559214366
Cs 16.046680648625934 9.906877890999656 7.763936814362588
Cs 5.998612268552641 14.428075477525272 12.343130275627903
Cs 7.773284866313814 9.380303758220355 3.8207418306771275
Cs 10.242263760999933 14.044706269030733 14.530105306615452
Cs 9.110812253810275 2.868944050390336 9.356191863164552
Cs 11.791667239560406 9.37654450027919 15.369228823769587
Cs 6.534641919053162 7.92182769335576 8.709031641133027
Cs 12.124632843663697 7.4831208773673925 10.464796305076405
Cs 8.034648333792438 6.419377604350952 13.168330913607468
Cs 10.33506700370719 6.657048950450656 6.3187240520329055
Cs 15.085414541335542 5.354349480267329 7.370970446167321
Cs 3.8109249367922162 9.642456765383765 11.7988207359592
Cs 6.175857060944366 4.5196882197678265 5.071733651156923
Cs 7.3551048672146795 10.331838154631358 16.01050114325609
