20
Energy = -13.60420184 eV
Cs 3.53601571153138 9.960827323200917 7.0657279740693895
Cs 7.950875730926617 10.620157256579699 9.855377388063015
Cs 3.5465217511899256 8.69166034399564 10.995579785888149
Cs 11.367271478352063 12.377320703016363 7.80103707487428
Cs 9.983615970606982 6.81015784817879 1.0210058650622236
Cs 17.83195882040462 7.428582922309942 9.327928563843209
Cs 7.427440801750727 3.3985272017138684 3.1487904689824844
Cs 8.607622049949118 6.427296070155465 11.73669694142136
Cs 3.9230436214397963 3.6641728723273754 10.740715564721542
Cs 8.346317658681443 2.663399634535337 8.56680073486424
Cs 9.335903910129993 17.800488848111907 5.658190150613187
Cs 13.382946568216363 8.333581628159761 5.8102475684183945
Cs 12.502419761206317 4.665883485620532 9.855377388063014
Cs 9.098308875435368 7.82412050180282 6.938376909362879
Cs 12.495877346647815 9.464067139016201 10.615253681436071
Cs 4.1473521261007535 5.568465568002018 6.689004915464555
Cs 11.611108012656851 3.3973148954038757 4.7938234483903575
Cs 10.228829399766514 10.882211422574754 2.8621911050032702
Cs 6.1841677106425665 8.959044169506166 2.639495007441229
Cs 7.256748355644909 13.106123443518625 5.505450087993658
