21
Energy = -13.93848033 eV
Cs 17.07647972952469 13.541468099634875 16.138327846712254
Cs 7.6979879567977685 9.159648130299093 13.573176718518901
Cs 15.726019428578946 17.495328722908884 8.250611193867233
Cs 10.520335168316219 17.571496983695337 8.18813262215798
Cs 8.629835134356176 17.941558264895445 13.25353264396129
Cs 17.54206893804443 17.80634725500827 13.308161167564949
Cs 13.035772462367099 17.611130859243882 16.64442411568794
Cs 12.995911298893132 13.15819886679398 19.33933322021995
Cs 8.953947373766939 13.650763338170574 16.0980906708125
Cs 17.75787947005548 13.142929292284766 10.561280666058723
Cs 15.559606213469605 8.416266838256739 9.315522849758745
Cs 13.029099748109646 12.73820118300002 7.601542048985478
Cs 13.144404301948347 20.458326813569077 11.902675652225332
Cs 10.35245863235106 8.76676722391134 18.005694764086957
Cs 18.21371903447231 8.994970876260629 13.628291035044047
Cs 12.885379378495402 6.213216390292326 13.828891957836149
Cs 13.038777367102353 15.220502665983703 12.209714774001904
Cs 8.283327819009962 13.280389086137342 10.449976209054444
Cs 15.465185765857203 8.676154704265704 18.033591220032903
Cs 13.006761771212021 10.97833998257702 13.692273503382484
Cs 10.407718507270813 8.500669922810781 9.299430620030035
