29
Energy = -19.73235416 eV
Cs 17.04786502901904 14.357785264637007 9.749272327844098
Cs 21.071558233903165 13.36696250485944 19.57103804895716
Cs 23.041633702265038 10.69370776239168 15.425059936607601
Cs 19.187495532988617 9.31651430643725 12.0183313073076
Cs 12.0866176859032 10.007947808663308 17.97387065171227
Cs 10.091699761693084 9.741019120531918 12.776774584035545
Cs 6.4904087257039045 13.62193350828586 11.749774152540127
Cs 15.361152666870144 21.78627169787227 15.274115150486423
Cs 10.121835052073184 19.983102338039608 16.589774995565286
Cs 6.910704596448043 11.568505181232055 16.78396994181734
Cs 14.176586250539145 19.17161587699035 10.009528906514227
Cs 9.979912642053117 14.995849428315013 19.840223688747404
Cs 11.168112796013022 22.91218877433021 12.3492940916239
Cs 19.428860087212417 18.48773975009649 12.36006906768284
Cs 8.707045067429858 18.424285854181512 11.542507987350207
Cs 23.381975034407613 16.22788612068946 15.578053730655743
Cs 14.650137862561879 11.891910565959748 13.950520077821936
Cs 18.904919843468768 18.147551399280935 17.845248100615212
Cs 5.994768501406389 16.726818362184865 16.205156708302997
Cs 10.588166895555817 14.74584738269856 14.92504027811313
Cs 14.683075947529318 17.01669239171232 14.54181729218221
Cs 13.954877220719501 18.652735184265484 19.709037214045697
Cs 22.254290417948475 13.762293735722114 11.02687171832797
Cs 15.553635128911411 13.771390306045964 19.216730290329807
Cs 18.844661817622764 13.824796865758833 14.905436104598474
Cs 11.678258620885343 14.272456426881911 9.771201450932052
Cs 18.159626135873722 9.121384672601481 17.54389009942078
Cs 14.575679523709217 9.576422513028252 9.44934858796139
Cs 14.84270121928417 6.764646896306107 14.256305507900786
