33
Energy = -23.30801195 eV
Cs 9.388951061599379 5.270610667341476 0.1806488170905876
Cs 9.64116824457237 3.1887093283422354 5.375004174433906
Cs 4.9967242245029295 5.678935017758055 3.4669531558290294
Cs 8.840375998295382 0.05002529506118556 10.218914757878272
Cs 4.447593227620979 2.780175584214742 7.871434514732569
Cs 13.549746799422588 6.2474139126026715 3.778562101491428
Cs 6.388045373486392 9.513495750133552 21.33784121035836
Cs 11.867112712120825 10.198195261030897 21.758384026335737
Cs 13.10686744288322 3.2070285768548747 9.245658477951498
Cs 9.01830151437937 8.76091506949478 4.36390818056067
Cs 10.882642290527043 3.6200293944189386 13.909173030836037
Cs 5.528016936792637 2.660407616942477 13.240422136745497
Cs 1.879580679441565 7.717660855011353 6.956597799989796
Cs 8.21403337710167 5.740613138096551 9.83373192852341
Cs 12.319377221837833 8.466662566414492 8.440727528209896
Cs 4.02108837775452 11.199768965673298 3.9269067289314665
Cs 6.768901071110813 10.673715908996229 8.651077042542962
Cs 14.754087804067474 7.261530619486444 12.890995645022311
Cs 13.662240590996563 11.587792836237988 4.721849776316924
Cs 10.063628364441973 9.893474213751563 12.85385381973728
Cs 5.54192639294982 15.717726026738122 6.105026890415731
Cs 11.71364613228406 7.221084559251702 17.549315283432783
Cs 3.496124272223174 7.599330834529764 11.758189971519794
Cs 6.778544529700299 7.049595562261442 16.16158752231371
Cs 2.2563779291012795 12.544742397121299 9.258833727891378
Cs 8.88827724773241 13.574669684321917 2.616366144540337
Cs 14.74696065952503 12.273478031898028 10.77743341611821
Cs 10.503477184944776 14.085869907031412 8.013982591993669
Cs 5.134775466527867 11.883175264560501 14.040737139253352
Cs 6.089559473906083 16.138494729575783 11.179137525854253
Cs 14.034302597577085 11.674218780364065 15.995557698151988
Cs 9.002128702821215 12.013532473528132 17.6388678539804
Cs 10.882642290527043 15.147579223635246 13.249534403656913
