30
Energy = -21.27105013 eV
Cs 1.070100002250317 3.7707385174755084 6.810478828741651
Cs 2.3870364988403647 4.446597618460659 11.274758790770475
Cs 1.076078304146536 8.647172513600973 9.402129560234648
Cs 5.510580926790674 9.018975095276916 12.279078541436252
Cs 4.759439964421886 0.10786585547125707 9.84103869296204
Cs 8.6473116239321 11.217660302543901 15.447143875880945
Cs 5.123066246025076 14.140900090683528 11.091072822896086
Cs 10.467719941543857 7.604788975208479 10.084009440204849
Cs 3.979508057786175 7.086424723107019 3.511529906973135
Cs 10.863636877643385 7.178364816268678 15.175111658701171
Cs 5.520190845057994 1.9449325918696996 4.33254865354845
Cs 7.59895590273644 3.52751885142714 12.582499863977562
Cs 5.922471627404047 5.619744545725951 8.385423475507533
Cs 9.54155590028311 17.288057944908882 11.491885723208322
Cs 5.1259405416948685 10.583020760316554 7.041625619226591
Cs 7.172545588247326 16.35318399691576 7.050110361462837
Cs 6.829273407349918 5.88819036664671 19.071538969681956
Cs 12.02821933921171 2.997383494459065 11.245960992114993
Cs 9.256313398416106 11.791700411632414 10.084009440204849
Cs 12.565441940947494 11.484868391918795 12.545503383190725
Cs 9.70997232365323 1.4117188991093548 7.8458652811726814
Cs 15.183848958214842 7.949989361338487 10.85312372929819
Cs 11.77032952000073 15.571761676092587 8.381632413910324
Cs 6.434226577362058 10.318137501122214 0.7909077942347909
Cs 10.595449188805457 8.777486776126933 0.3624669638988731
Cs 9.184244411847894 8.138465325394833 5.220443921654152
Cs 10.321581294405203 3.8110761774340727 2.598571188704264
Cs 12.825959683351268 5.370106083347434 7.086508431955985
Cs 12.948447727970501 10.066622237504692 7.843288427196613
Cs 9.95702863694206 12.562164951470667 4.441167738729033
