32
Energy = -23.79669968 eV
Cs 19.598865298852925 17.968669132607378 8.545710284124302
Cs 14.666639695980436 19.773030059602025 10.454409426928427
Cs 11.564919851477754 18.55272160199144 0.03216831025857712
Cs 12.182593477337079 13.811086948932104 12.940513740380888
Cs 16.040459314995466 18.677959191648394 4.196350576785743
Cs 13.572655091552669 14.298211229441979 2.6657634785977917
Cs 10.93180885007777 18.05547226463312 5.561739777841764
Cs 10.052391114185664 12.829172957562541 6.917356389906507
Cs 16.434777220428593 10.690111477796568 5.014356792391893
Cs 7.399590198821941 16.17214138174509 16.52259887595175
Cs 11.452033622262002 8.414136026595111 11.197938499115585
Cs 9.157092934579957 17.54169235929388 11.076841968734886
Cs 13.323861994297776 18.697395748378437 15.328611639923718
Cs 9.15709293457996 9.301550231585596 16.70198697017825
Cs 16.8122054599752 10.30548809916443 10.828569640073711
Cs 17.448652408461964 14.820610796499277 14.056206521574284
Cs 1.4216562450732824 16.451919849259973 18.07148560030386
Cs 2.8193560491700067 16.43643301062589 12.934083912389289
Cs 15.1772484889164 14.906714540969869 8.670899273774538
Cs 8.547178738274965 11.221832833051822 1.2658401193166227
Cs 18.465421540544128 12.20099659753356 19.41564483825453
Cs 0.8015566108005856 11.432778101817814 14.441749036567746
Cs 19.022422566342353 19.65436958370753 14.444704572981607
Cs 6.403901280255672 15.918984440621244 1.5652241483407248
Cs 15.176614736735521 9.162506869683364 15.651800424558985
Cs 20.159239226979114 15.05535548432238 3.1952090354015583
Cs 12.942282947867623 14.050095360522239 18.17308028028217
Cs 17.04532429281164 17.67690172876854 19.42278570040921
Cs 0.44031328198079006 12.933014080441003 8.402437933032674
Cs 4.397745011853293 12.167036351872113 18.30324970137981
Cs 14.060498978474875 8.780571908991385 0.1891601748644164
Cs 6.144531740615839 12.076539497282493 12.425832621484311
