34
Energy = -24.24880391 eV
Cs 1.3290943030246298 10.588309510073987 8.95680215013197
Cs 2.135999168125795 12.197249637203065 13.542879808083777
Cs 5.264246728484486 15.010706847907684 10.47040209606028
Cs 0.4748752108729946 7.528716055920332 12.746037780068347
Cs 5.279476684227324 8.866544636531422 5.9371602868948905
Cs 4.356783102026096 13.568371113550201 5.530121328418256
Cs 3.1345661689343975 5.2560448222951 9.13298265760134
Cs 7.52196835944653 12.50898837991894 15.14983616254165
Cs 8.244328862172072 11.93494877797625 2.58234067988741
Cs 4.325713786337086 8.724678873128966 16.75062874073778
Cs 5.8213815546813805 9.379968439333869 11.301442517881169
Cs 9.662038205740508 17.03522851847819 11.97330482269162
Cs 6.330411369006651 7.661925328345725 0.708516610551562
Cs 6.351762039095789 3.6559894653271305 4.98942380582424
Cs 9.249726986620146 11.705814714697302 8.43371598733248
Cs 8.722090334263257 16.924058397138737 6.6225510384504025
Cs 4.878886002851219 4.332911254092482 13.679846685966366
Cs 9.666957185966528 3.8018918540480877 0.42510966270150247
Cs 11.656196320064568 11.562703029114628 12.876150202685464
Cs 6.843346095396691 0.5492101965637465 9.78147181889329
Cs 9.13105768681482 5.525012260106571 9.783846157947181
Cs 10.605245002053326 1.366252909201345 5.397446013458001
Cs 10.605245002053326 7.66582380616052 4.9708891251529845
Cs 12.935134061344058 15.523092554569805 8.948977730054185
Cs 9.388806102559503 7.633290691677522 15.601005483377257
Cs 9.541470009339443 2.1431112580222225 14.063204699646858
Cs 11.546511101276879 9.001882686475156 0.043971382121163624
Cs 13.941961630617106 4.342568899502914 2.5721901626912325
Cs 14.184920542866502 10.25043231786238 8.879597428414593
Cs 12.633815056372576 12.598740245153168 4.34122969639549
Cs 14.340997056376542 4.870473823945764 7.79138734506292
Cs 12.074566001523966 0.309580953019123 10.326557608922673
Cs 13.111905906117139 6.443554050765061 12.3221375652349
Cs 15.950487610300668 8.865363118984245 4.189126914609774
