30
Energy = -20.72920172 eV
Cs 3.4395150500612206 1.089048447440647 6.644437944653293
Cs 8.619964783615135 1.0742132873190096 5.15509567352405
Cs 4.474505838975167 4.244913506893413 2.2296063236781487
Cs 0.24433936566045608 5.665316320917397 5.583647668572322
Cs 7.796365558184614 1.9495046923017683 10.383295118806643
Cs 2.660806895474147 5.508673013718756 10.158311361352172
Cs 10.973352954451693 5.533319003297331 2.912448139476389
Cs 6.779376450148071 5.953307559892 6.491990513422252
Cs 2.9129084184617025 9.580876142808014 3.331222171656128
Cs 11.97883803243789 3.9546950740986038 7.970281217359991
Cs 11.809052042658571 4.205296166687363 13.387393107815328
Cs 7.409929291477996 8.610853410624012 0.6022623326480576
Cs 7.605731634844178 6.921135515594436 11.817053709913877
Cs 0.5933879172787698 10.380532288958296 8.304149641742967
Cs 16.855299665155652 5.371318591350745 10.294570638663117
Cs 5.706068991964846 10.664960958940826 7.837469461350188
Cs 11.968973527891572 8.680343998094779 10.298329380774636
Cs 3.474813562471153 14.57394040981498 10.547258067704108
Cs 10.48106911608676 9.229194074757274 15.87823468607157
Cs 15.305792451436462 7.899023273347808 14.495110325665859
Cs 3.735198506022449 10.16295422591217 13.087715615152115
Cs 2.4943737344620334 14.689135782032665 5.538974777920138
Cs 10.306387673581337 10.12710008406501 5.263977706824461
Cs 6.62844866158089 13.25636714825329 2.795398208253187
Cs 15.176246632248311 7.970683917674576 5.965153019717732
Cs 17.01181778571789 10.66496095894082 10.391518884394905
Cs 8.51944582829835 12.288186530406575 11.90019162116725
Cs 8.243503493827108 15.382583589092643 7.692685366665681
Cs 13.337486010035535 12.693283377777213 13.444463805409086
Cs 13.003050408998822 13.344449550988466 8.118766889366508
