37
Energy = -25.74520461 eV
Cs 17.06198394847464 15.371610371816837 16.28228198858221
Cs 13.42571646758822 7.956273983979639 11.574778725815525
Cs 9.135270446660671 14.546653132272606 20.81997339315972
Cs 20.48733642692546 19.109385763280034 16.595225198822188
Cs 14.832952437973402 17.20294614371975 12.112598322449777
Cs 16.65408643536775 9.634871395567682 20.75670637273243
Cs 22.36034075501681 14.305287787610489 15.509201384452238
Cs 20.084447185334803 16.702798564674797 11.507031592505804
Cs 17.488565086107837 9.182901116755511 7.895940527285587
Cs 13.846630972869518 11.28350401290441 16.317217431263746
Cs 15.373612836571514 6.449827219120849 16.65252448653993
Cs 5.848764067261614 14.125990962584119 12.57790136612399
Cs 17.317381761630024 14.447073947197012 7.501939688307682
Cs 17.149535888643527 18.603604851281325 20.742402542031147
Cs 15.204713938047231 20.63146541727168 16.385859505113217
Cs 13.058131787881855 21.7820824463724 11.138123040721965
Cs 8.287656344986233 11.874830056256467 16.45770070396085
Cs 12.462158851961215 16.856227708852987 7.5425536086150355
Cs 19.33225455404288 10.264508125548224 16.359776942611603
Cs 11.914704987608063 16.11284541830735 16.33129636749113
Cs 9.180086598102056 18.098788615118394 11.60265300490812
Cs 11.802862731931077 19.151647802286675 20.348332826309797
Cs 10.265028130794128 7.221557647662449 15.624448945464282
Cs 21.332455693791868 11.498297509146902 11.071745647499595
Cs 11.326299270551015 9.6441571680678 20.361545422658402
Cs 8.28955547925454 9.47488383788343 11.191121591385023
Cs 16.490725278403826 12.259933014076042 12.101678416473748
Cs 11.382358037970526 13.298593098016502 12.14642769947004
Cs 19.798144188972337 13.986418345345095 20.283278759045416
Cs 14.316059455931187 14.262852798328765 20.969895326242913
Cs 12.804707434916189 11.446188052388596 7.54451463302851
Cs 8.164999642215871 13.932959147451063 7.974848867566791
Cs 10.176568554122294 21.238101851084824 15.611541079561691
Cs 18.544128739897598 7.050904460976878 12.471189137972676
Cs 16.94014401603179 19.634747433527647 7.89374966302433
Cs 6.970026922031405 17.210472383883566 16.71760889878737
Cs 18.325955144129594 21.581158909381795 12.460737392015684
