38
Energy = -27.35750883 eV
Cs 3.890881126049303 17.11575899772485 4.187986845472858
Cs 7.338668500833114 12.642030404148665 19.17838075962795
Cs 7.309176156409948 15.910788609743564 13.319709272859317
Cs 2.8511990357581913 13.607910052369036 22.1516688836222
Cs 3.2344408947541208 14.55646803156991 16.159018205693318
Cs 7.722961074935605 18.093006275215203 7.5858155277028185
Cs 2.687368533522449 15.90770608569592 9.497762673409763
Cs 8.110482287109262 14.789924226035135 2.019586584170523
Cs 2.0462942059517744 12.234887880925209 5.254086056438325
Cs 12.39188779696008 13.704012113746888 16.039231673897305
Cs 12.90061801995882 16.87647533541826 11.296565078615139
Cs 12.507800448455098 8.954595495566368 19.993830205681963
Cs 3.2126634369343336 8.67716206993823 17.538869203779782
Cs 13.321736819970166 14.284779744311292 5.838714947633624
Cs 7.678492485671386 9.65588938399278 13.90783115414739
Cs 5.84464923908283 8.52016640420961 0.7900520171457736
Cs 7.3104932845886434 12.51626491049309 7.454815494326331
Cs 2.6707668573462575 9.8891657508229 11.421988653818131
Cs 17.14699497979545 14.901429816285692 13.610858965650772
Cs 13.70988401144962 10.314213955048706 10.288728687378052
Cs 4.348997370640131 6.535557460019833 6.369317928774456
Cs 11.419769395126657 9.19648618377993 3.133431328876878
Cs 21.366759839411277 12.098085841827348 14.821419425026233
Cs 7.582113809602431 5.991701127111439 18.090833769154877
Cs 16.57777131009445 10.314213955048706 16.336254902606175
Cs 19.87688308001457 13.44440204477186 8.545809193671579
Cs 9.480503310822446 6.365453922969417 7.866672520328216
Cs 5.032685374855373 5.252600285853466 12.671916685941923
Cs 7.857392436273554 3.798218205805325 2.8405118213834695
Cs 12.763048355129392 6.3659393695463935 14.685279192737934
Cs 16.29695702308631 8.707386440496537 5.854335674052651
Cs 5.84158701986737 1.2301961469003018 7.457472189264822
Cs 9.371787249739457 2.306681904581908 12.378622892011716
Cs 18.746209431206502 7.749424237145964 11.555554736419777
Cs 13.86614348913523 4.477432375194223 3.6702361487704915
Cs 14.96046724057285 4.335036111005582 9.089775493448949
Cs 7.860578498953371 20.80203388719848 2.960580500254896
Cs 11.96435079548133 0.40080315653072085 6.6607629052523425
