46
Energy = -33.46685488 eV
Cs 10.542458261017364 8.924920999094319 0.9421577990089551
Cs 5.531123161555865 9.148686708304442 2.6790294890485242
Cs 12.904219372223714 3.2018245917117483 2.6885215513570366
Cs 8.181597570292 13.863435351388866 1.7163100265310303
Cs 8.711518756803597 22.26330025787985 4.321587659284002
Cs 14.138395134049386 21.990421864153884 6.117685457000291
Cs 8.072527707198596 4.503997488804137 2.6796604628523673
Cs 15.661393370815944 7.886426275168128 2.8087588497697777
Cs 15.781700005120623 4.316402599776524 6.934331210743972
Cs 13.054167453245492 12.612122372574188 3.761732678724092
Cs 8.194585500502562 12.340873260162207 6.52123282583604
Cs 3.102967340208639 13.447633043614031 4.473493648387476
Cs 4.189860728170818 3.3803154960935515 5.984179483752409
Cs 10.252427552610373 21.0995942452339 9.577736740906763
Cs 10.279560003387038 2.811151908537969 7.48391599360132
Cs 11.730249214899564 8.004262477076624 6.021323322979416
Cs 1.430456008126242 8.835970613020857 6.252704901298886
Cs 11.485313774409315 17.287011289242166 5.826210193313702
Cs 5.273877179676315 21.640588539163176 8.558061019978444
Cs 14.670710853425204 1.1725793909855629 11.215574809261211
Cs 6.931128670209615 7.476898231204969 7.529517867627266
Cs 16.623789987796293 15.516289214757345 6.670082900110021
Cs 17.01350854758459 10.09090410111364 7.723763686345417
Cs 6.2326455983487286 17.504893109084286 5.407763428690791
Cs 12.773845397011987 12.797184252725948 9.2766926353593
Cs 6.3315240492739795 3.078679611935931 10.871460338398718
Cs 16.750794566458826 6.374899684684998 11.625503694505888
Cs 3.064960237707891 7.048146465230307 11.19175266313667
Cs 21.715933377150144 13.719257426271087 8.025832977337807
Cs 3.7146734901586362 12.038588937688031 9.798530855952912
Cs 10.233987298385895 1.4188134920596693 13.586924904078307
Cs 17.821744046299546 13.596130087400649 11.794537499757862
Cs 12.905330399768655 5.2951231348393435 15.515899007387379
Cs 14.284852972783687 18.133367315145076 10.770418362086652
Cs 3.0689502071964014 17.128949691565946 10.18088513571552
Cs 8.336128467380881 10.80752252534561 11.631813547135824
Cs 11.521441025477557 6.309214853032309 10.793849841118831
Cs 8.435172908934177 16.202696887405853 10.208773487666328
Cs 13.724559359807788 10.247303099393216 13.578879794569872
Cs 21.320699188284983 9.549409380861304 10.958047876608974
Cs 7.648122424248923 6.373389293917472 14.537202689516116
Cs 11.521441025477557 14.97413725719797 14.120269304536306
Cs 0.2994915112786821 13.858504386321933 13.45467001341513
Cs 3.894457471920958 10.263741595014828 15.090521288044563
Cs 5.823851171986003 14.944454402047066 14.523088907776083
Cs 9.36822272038514 10.993673272257423 16.732962875819624
