4
Energy = -1.76378093 eV
Cs 10.603769017421113 9.042019017560802 7.289832372439835
Cs 6.011236564407207 7.018581103845974 5.460659541076035
Cs 6.917505869516256 8.686947512502611 10.303330960068703
Cs 11.661602269051007 10.446566086486193 12.140290846811016
