48
Energy = -34.02585559 eV
Cs 13.038405271088152 18.112822937081784 23.42805846891877
Cs 11.905608643031437 19.844077455416482 11.321180091496078
Cs 18.126494171089234 15.9694378129925 24.622594325267066
Cs 12.122399874631013 25.283936979761936 11.851494244227679
Cs 21.729293346619727 9.31241347321707 18.867422987539108
Cs 14.104951914645808 13.570053227757981 16.50738558127466
Cs 12.186467440034825 9.084054105033983 19.165940988685357
Cs 20.3606561952578 22.75985810779424 13.555167522703703
Cs 19.682737678753593 5.093426457220797 16.065430723102317
Cs 17.99463854448302 22.118595230526047 18.909009295484204
Cs 17.19529185990622 6.66022725199795 20.756287507329738
Cs 24.493405396749576 18.772388395477407 13.359653463338006
Cs 16.647705207358854 6.790768047444174 11.982508353254032
Cs 15.840434043298952 16.886030605415215 8.51043182402689
Cs 17.05255073341416 21.446847727321526 24.21616524088182
Cs 21.033733949185912 24.887068022136333 22.240883496116027
Cs 21.574562986581586 19.452841874548536 22.094871486162308
Cs 11.747906384373193 14.707978320300986 11.971740198316446
Cs 8.674650272863264 18.366839331933658 19.822528403262762
Cs 11.31251096180196 13.975185002203423 21.149180192341273
Cs 25.445513557728223 17.74686271917871 18.66206378496442
Cs 20.237675243321174 10.255221582008605 23.823747774309584
Cs 15.31748297136037 22.094182674379258 14.784058519873343
Cs 14.233688595424567 5.043795441786207 16.378446058433404
Cs 12.119359459190477 9.382092948411351 13.610323017430678
Cs 12.661803336420606 18.102088076425353 16.765808657270345
Cs 19.28571472577013 13.69396475590089 16.603767818481852
Cs 23.362075525493278 22.630322556868396 17.931408714787473
Cs 21.260819554114047 9.5831761499576 13.407370382384467
Cs 7.980433581606456 17.83509447645259 14.374854213343514
Cs 12.931882521607761 22.222104802732787 20.253246926335095
Cs 16.257922425323095 22.24103249711261 9.603572570722326
Cs 21.26435447339233 14.71450382185085 11.613888636702331
Cs 8.962198820970357 13.175470253384667 16.583765043997758
Cs 16.77050917114436 17.438246811772597 13.444622556971465
Cs 24.380460898248188 13.495385746655547 15.7908032004491
Cs 16.53175726030399 12.250430030345074 11.733311459272386
Cs 20.647391733061564 18.360133563536344 16.52743821496895
Cs 16.810361381700837 9.453491601688803 16.490527165086903
Cs 9.98345895149312 22.500521653003375 15.953083585874102
Cs 17.035234444056695 26.871034320041606 12.661585026513936
Cs 13.857692884181981 26.49817287546205 17.02863940920146
Cs 21.834535852909244 14.394091540690441 20.887220928489477
Cs 16.66608039043991 17.299541853160274 19.816536660196657
Cs 16.284755637035246 12.241605288611959 21.181562049770882
Cs 20.515519140915348 19.301783754421976 9.55619321668307
Cs 16.11546510214119 26.345041026817228 21.834249786472412
Cs 19.438039485477443 26.752348811760314 17.316562227283644
