4
Energy = -1.69305021 eV
Cs 8.163562064663278 8.55389498648096 11.027671563758812
Cs 7.893984428811431 6.6837729382637 6.513985131570466
Cs 3.4317348369827188 3.590734287159473 5.462108058215588
Cs 5.117081629834336 5.777927952804632 1.60261202804358
