4
Energy = -1.48629712 eV
Cs 7.749981180000001 7.749981180000001 5.200668686707603
Cs 2.651356193415205 2.651356193415205 5.200668686707603
Cs 7.749981180000001 2.651356193415205 5.200668686707603
Cs 2.651356193415205 7.749981180000001 5.200668686707603
