54
Energy = -38.59285359 eV
Cs 10.776110347410736 8.637980988380475 12.426646297762959
Cs 5.024269122511788 16.504184335022348 13.935479590534538
Cs 11.814038058447487 14.532751069825196 18.491101567290684
Cs 10.615055579277497 17.060163207163715 23.04152305948715
Cs 23.787625176441107 22.29979531015279 22.010532818350196
Cs 20.544415054005416 9.260126773584718 18.483790090935358
Cs 15.86087135880075 8.057238446823026 21.123290094396037
Cs 21.218134330497552 22.428157511592598 13.32113231451013
Cs 21.346434158731427 17.00759688669519 23.117176341078117
Cs 24.00717862999064 11.56466142127695 14.95381540592351
Cs 20.80001677856646 7.753899316828182 13.190652657102374
Cs 12.502581111765346 11.961827615848502 8.169054864626899
Cs 17.217316426506542 14.814118458428688 9.27923535069828
Cs 8.412095484577863 21.616070984247415 20.80565712498806
Cs 18.961809615054023 12.287827627786578 22.886310676533505
Cs 8.285680848834867 12.369533593351234 21.350815640257988
Cs 20.651889308359344 14.661637817795329 18.220977903507567
Cs 13.460492504501442 21.445602473777676 22.455648364941446
Cs 24.44604891230393 12.685429087666918 20.627046328593707
Cs 13.311045028740322 12.642330502276936 13.466438749790969
Cs 12.46296829628613 21.482752331188266 12.788177611287557
Cs 15.916399492572703 25.287210039121778 19.699084791503086
Cs 18.63834425985358 21.471072924512807 22.28453491302389
Cs 11.553306909618055 24.470345011291748 17.131468462244374
Cs 11.425549016531585 9.25515526232108 18.08536548749098
Cs 6.911745826451761 16.86840562684301 18.89530790883933
Cs 18.73374896145034 12.38899719409354 13.920126981519465
Cs 16.044775499693642 16.86398822663044 25.010743484367406
Cs 21.490681053467128 19.441166645245513 18.10338756065348
Cs 8.278399195154753 13.586549883276255 10.598034360715458
Cs 17.28694560416096 20.267093677734454 10.737927643816798
Cs 7.471969519092793 21.205288187012155 15.491760182962798
Cs 12.635797249951969 17.127919152975956 9.514175351407165
Cs 7.938486856877855 19.289588751585008 10.401311152623327
Cs 25.934855885544586 16.269086234437882 16.114897509175723
Cs 21.55616358092212 11.934827871472963 9.582858254569961
Cs 25.753650791494014 21.93246512302187 16.964783113845407
Cs 21.757305398268933 17.941796144184202 8.588607968649415
Cs 15.771304699029853 7.8749179084409375 15.477133155544461
Cs 20.948398331996607 24.710901440161646 18.00345175178696
Cs 25.54336239199365 19.84135770713462 12.1129940483308
Cs 10.216513776838108 16.72458142810766 14.165788363184951
Cs 16.870752011407703 21.08256334194115 16.733730899455995
Cs 12.102123316269552 19.466256271665156 17.9427851878789
Cs 16.059538421433317 12.242851128407873 18.221871135672863
Cs 16.31964250968834 17.00862604753971 20.118226542437288
Cs 21.07910286947532 16.982301558087695 13.446598852000072
Cs 16.455516224680537 25.15123418655837 14.022485627827733
Cs 26.05589332241801 17.814958217403788 20.940133313789524
Cs 16.376257730935347 9.293031050781176 10.36554943914793
Cs 13.454093042359899 12.382498731397892 23.103351939137404
Cs 15.749883409425495 16.86169193988805 14.417526530711523
Cs 25.552857024956566 14.807207426740042 10.891479521867181
Cs 7.6194796843744435 12.089299900270296 15.776935711220291
