6
Energy = -3.00287547 eV
Cs 4.1561563966955255 10.821769556964526 8.101357806971471
Cs 3.9025720517567684 7.191501042257483 6.135113347741329
Cs 8.75505353837699 8.959086116913562 8.362975781242929
Cs 7.943640117682766 4.559981794753152 4.5620326578894845
Cs 7.410367069889287 4.882760845147394 8.362975781242929
Cs 11.081982970270206 6.339199630037682 8.100575145488648
