8
Energy = -4.71199475 eV
Cs 5.991946749999933 9.595799374999991 12.527317749999977
Cs 13.77047975000007 12.547117374999875 10.216734749999969
Cs 6.029855750000075 10.197084374999978 7.19768374999994
Cs 13.764770749999949 7.216999374999923 9.61532574999995
Cs 10.944993749999975 9.496346375000138 13.361122749999982
Cs 10.994267750000015 10.278226374999898 6.432332749999888
Cs 8.805184749999857 6.426143374999979 9.49098174999998
Cs 8.812632749999985 13.35641537499993 10.272632749999893
