19
Energy = -51.54193749 eV
Cu 7.320819553412217 4.222358505824933 6.371727804292142
Cu 8.429183975529321 5.191389825938525 4.390112932031287
Cu 5.0162990447356615 3.366270638942598 6.047088867886868
Cu 6.003988228226855 4.947492410052299 4.429957889577332
Cu 9.018729698686718 5.993810548317553 6.5235306770900365
Cu 7.311681576036845 5.911069215773691 8.178329530334501
Cu 4.7551060559129725 6.909510324168635 3.6318374992817137
Cu 7.123577009834449 6.817232332818201 3.1787916194935497
Cu 5.912022026325942 3.872189435473506 8.349086673443045
Cu 8.766536454582145 7.640078364343649 4.809939017652394
Cu 5.2449769855775585 6.121732815944025 9.325921382103738
Cu 3.6364490406832566 5.149169042309297 4.998363493076151
Cu 5.099715635406456 5.587340535245252 6.908818456156457
Cu 6.461860376521541 7.263402301043923 5.444391710801036
Cu 7.989016911527045 8.096458676115489 7.178433480766432
Cu 2.404063823632285 7.040182369492297 4.142058386236056
Cu 5.564180289307715 7.879900678869495 7.642273058593466
Cu 7.0365112717190055 7.9165727651850775 9.48642399792506
Cu 3.987198137019212 7.479811353530065 5.86728087081144
