16
Energy = -41.72216413 eV
Cu 6.865203482693146 4.6294422409154805 5.4467599595282215
Cu 8.69085766444425 9.769082226879025 6.800174244156171
Cu 4.98678323823086 6.814818720098097 7.05605457211662
Cu 6.381745279961565 7.002280242809126 5.016263796674408
Cu 8.297504149005992 5.9777614672572525 3.871023654928007
Cu 4.4406313992552775 5.47668699602444 5.104864031456245
Cu 6.035389578257299 5.356549252666926 3.2622523076586107
Cu 6.898231373877471 5.4381223614660685 7.786272090181374
Cu 6.263857878499317 7.30229278176793 9.199586780320072
Cu 8.653486440900934 6.086176764151316 6.230834691964661
Cu 4.715641933532765 5.4192581784732266 9.009445887802054
Cu 8.48383223059536 8.210378105474224 4.9945414359379985
Cu 3.0092114548199835 5.454178185772868 7.0952240194816465
Cu 5.043516857444526 4.1163824659128325 7.014816570795645
Cu 7.20888585300056 7.948690043978703 7.073189565419036
Cu 8.014035780826068 8.986714561697317 9.027510986925005
