10
Energy = -24.14175465 eV
Cu 6.773572092972994 4.902858181447317 5.037261098241414
Cu 5.237258936606815 5.563801255773971 2.983099418376411
Cu 7.9095328569506655 4.646750747701468 7.406206599947752
Cu 6.417132943011848 6.0464029507345565 8.648469842436686
Cu 5.543496353298088 4.442481572556659 7.095497227606994
Cu 7.2459117557698685 6.768596635794082 6.519513407875121
Cu 3.6916614321814145 6.947320570256862 4.182248632869404
Cu 4.358164862875442 4.8418777341846795 5.101420616159698
Cu 6.045277826873975 7.184140439169205 4.555122176413552
Cu 4.822242741955404 6.706502817358939 6.606693901527824
