19
Energy = -51.40666507 eV
Cu 8.532513671983494 8.25966330140448 6.352231774800475
Cu 7.54777444924448 7.073111180801105 8.257076898934853
Cu 8.564193092286484 5.81968935067098 6.436480717635993
Cu 6.421338355197063 7.120321102049155 6.049247746888652
Cu 6.099069556758068 8.279684789929306 3.9650741559505276
Cu 4.353829068717064 8.555698923052626 5.667688243219227
Cu 8.183330648469946 6.9327939172967135 4.308600182596994
Cu 5.459389721439915 8.41362751631987 7.846278273227217
Cu 5.381017470647162 6.360270225848396 9.089949796317566
Cu 4.141110815521865 6.502371063728185 6.969527162030728
Cu 4.179908162752065 4.433953582332992 8.262258820896902
Cu 4.538180311134644 6.422321287506161 4.496172050313454
Cu 6.476340381190583 4.956888791331436 7.405998626353618
Cu 6.8692718533892485 4.888136346261778 4.9180528541239905
Cu 6.367536218908183 6.150069964071574 2.8794890453165953
Cu 4.54768333288002 4.362130433440308 5.8495445065181455
Cu 5.636244974948694 2.7191851741006485 7.3027387617401605
Cu 4.947992581595425 4.267331911517939 3.4318512767422984
Cu 6.003687455709774 2.6520826021624972 4.930129453057065
