19
Energy = -51.72732848 eV
Cu 5.436915927361151 7.288171171297832 3.6706176425011456
Cu 6.219506373960765 4.9828900523424675 2.8483884047380177
Cu 3.926956169119186 5.380788248865164 3.380715763637022
Cu 5.026913447448479 3.263663899597074 4.167993614773799
Cu 7.6556774533231025 6.391661442139046 4.089751350276264
Cu 4.548405620185334 8.983377684456249 5.212106291342045
Cu 3.532558604431522 6.795145356393881 5.352546855032248
Cu 7.413803875262528 3.9084127698914126 4.765325909219211
Cu 5.55353027687777 5.312297228770655 5.345893064782265
Cu 3.065479746694738 4.399598165458419 5.382435554189629
Cu 6.477896111565647 7.673741571821518 5.897042687277473
Cu 4.58158659331975 2.957689371254516 6.535868275711549
Cu 8.044975233539747 5.691390644863414 6.300948959158932
Cu 4.4367538786321274 7.765716089017148 7.3279248808587045
Cu 6.584841608862615 4.018183882576525 7.262083913505943
Cu 4.133651431088814 5.257008248934589 7.386949622136165
Cu 6.199463396839068 6.3091430239148405 7.981356126018028
Cu 8.23628525266816 5.247145340281304 8.637447515970445
Cu 8.170442317733297 7.619619127038305 7.70024688778506
