17
Energy = -44.41530095 eV
Cu 5.108309774798033 3.126582553088295 5.9182297823323635
Cu 9.161480554689325 4.894379222285851 4.105331595084798
Cu 7.1156797616991945 3.958801085961042 4.901120508457199
Cu 4.897077819591507 5.186097368835515 4.73872435004828
Cu 6.149639586287894 5.239471537466128 6.849300718235215
Cu 8.543556273111479 5.544690784174423 6.348265273521481
Cu 7.205255436745367 6.263478321037306 4.383254155475904
Cu 3.985717698319566 4.23323305078741 7.6903050470751335
Cu 7.166445426691629 8.604286793698066 4.035109755158398
Cu 7.566267891112125 7.824608821044577 6.255077682095466
Cu 5.309306818766429 7.581117153258064 5.202362117985145
Cu 5.122552644723563 6.00445151880123 8.92199452367662
Cu 7.520113100043105 6.604725513789348 8.33484152201025
Cu 3.0834571079199193 6.685889652358581 4.569683594390133
Cu 3.8889872164690082 6.433094263363052 6.790725821206937
Cu 5.561785886697739 7.98681726325128 7.65623399437092
Cu 7.609100731277128 9.012930452039695 8.337498204026478
