11
Energy = -26.61170041 eV
Cu 7.704135888557939 8.127537350359985 7.570020727382125
Cu 8.167022033085765 5.70769798965286 7.9600237907035725
Cu 4.531505026109687 4.869508728664545 6.8321956246462765
Cu 5.201838794995608 6.966560227701242 5.679739306639243
Cu 6.7845089710362165 5.138881523378137 6.046774813554013
Cu 7.029929688470064 8.783523011834129 5.261457460823867
Cu 8.519099913303474 6.872073160018473 5.80277870654653
Cu 6.363675502586684 4.082059842007894 8.260730759825625
Cu 5.467431207364463 8.833076426719712 7.121622937208835
Cu 5.88348484994447 6.5009778762374495 7.9701228644005715
Cu 6.908160844738069 6.678896583617902 4.055325664568465
