11
Energy = -26.71002532 eV
Cu 8.180889679317577 5.514459516622887 4.944273753465749
Cu 7.1161554275327505 6.038373493957135 7.048803796716724
Cu 6.449319166058575 7.255019411405729 5.0690056955037015
Cu 4.310232969615024 8.453712090446622 5.283376369400554
Cu 7.5494165564641875 3.669933595960491 6.565343543168159
Cu 6.548838229782046 5.6801477941214085 3.144441282698742
Cu 5.8762887766244365 4.745419212868923 5.235404943716862
Cu 5.414286642757306 4.3872585430925675 7.569339137241181
Cu 4.397676758035871 6.332558494598036 4.188859378125313
Cu 3.961060219232933 5.764597672595177 8.791706278529459
Cu 4.702382961792379 6.555943555248737 6.684044181683613
