18
Energy = -46.48300018 eV
Cu 7.295682712098307 5.955235400503161 8.318983716557913
Cu 9.317371632048912 7.295682712098307 8.385646910174064
Cu 8.543034479765874 6.110446961505935 10.432729879405727
Cu 8.543034479765874 8.48091846269068 10.432729879405727
Cu 7.295682712098307 5.935128287986248 4.291467615237934
Cu 7.295682712098307 8.636130023693456 8.318983716557913
Cu 5.273993792147697 7.295682712098307 8.385646910174064
Cu 6.048330944430748 8.48091846269068 10.432729879405727
Cu 7.295682712098307 8.656237136210367 4.291467615237934
Cu 9.227863293427628 7.295682712098307 4.016564280655469
Cu 5.363502130768994 7.295682712098307 4.016564280655469
Cu 6.048330944430748 6.110446961505935 10.432729879405727
Cu 7.295682712098307 7.295682712098307 12.118119429573406
Cu 7.295682712098307 7.295682712098307 2.36621885377002
Cu 5.969160243377395 6.119816384282456 6.270426492888277
Cu 8.62220518081922 6.119816384282456 6.270426492888277
Cu 8.62220518081922 8.471549039914148 6.270426492888277
Cu 5.969160243377395 8.471549039914148 6.270426492888277
