12
Energy = -29.92471155 eV
Cu 7.041591432154884 10.294654 5.418652986479514
Cu 8.262769511799588 5.845875101208959 5.802598071404586
Cu 8.262769511799588 8.237307763100814 5.802598071404586
Cu 8.23807414095916 7.041591432154884 7.923255453847365
Cu 7.041591432154884 9.31094140257458 7.602647564452557
Cu 5.820413352510178 8.237307763100814 5.802598071404586
Cu 5.820413352510178 5.845875101208959 5.802598071404586
Cu 5.84510872335061 7.041591432154884 7.923255453847365
Cu 7.041591432154884 3.7885288643097725 5.418652986479514
Cu 7.041591432154884 5.805058293500607 9.699796317490282
Cu 7.041591432154884 4.772241461735189 7.602647564452557
Cu 7.041591432154884 8.278124570809162 9.699796317490282
