17
Energy = -44.85479433 eV
Cu 9.272411983136436 7.679461976909342 5.717667870521667
Cu 7.198755103942887 7.698619622798403 4.583510685790599
Cu 6.2074874797240716 5.589552101717284 3.878291590572615
Cu 9.309792777749946 6.175731244004495 7.591170568026988
Cu 8.081689732871984 5.55401254613793 5.535639144835046
Cu 5.156494127797469 7.791699313716449 3.3583269792006645
Cu 7.257753818614506 7.449960972588698 7.074158178977555
Cu 6.668081623023312 3.610824942426676 5.93971217165325
Cu 7.249802033736871 5.05263996614195 7.870367865463537
Cu 3.812310125880405 6.2126520977271715 4.5697153258831795
Cu 5.467095361747626 5.620080078915324 6.214555446114192
Cu 5.146150814009008 8.0229823548126 5.84149652624119
Cu 4.655989185100039 3.8510765295307303 4.543641837068749
Cu 5.37188252891111 6.609476798211501 8.352136155756583
Cu 5.054497418831416 4.019146905103526 7.999672691071084
Cu 3.3499318232761204 6.849235065733688 6.955876269788737
Cu 3.290005373831244 4.519223878261293 6.397275662095996
