28
Energy = -79.45620514 eV
Cu 7.057601385154636 5.42827142052193 3.155741663609708
Cu 8.476059497053988 4.409880176353461 5.130666084443504
Cu 6.586546271869524 3.184870584622944 4.33868345680361
Cu 4.727979089327345 6.641178028836988 2.8297064487233867
Cu 4.736055278677215 4.231855645347314 3.279584934447248
Cu 6.5371767377421985 7.879604736185523 3.792095192679918
Cu 8.313970009363025 6.849764613867069 4.992129842026613
Cu 6.791614293262135 3.2753039396132477 6.755472926302222
Cu 9.909509441642838 5.891860354332015 6.564325812740249
Cu 9.045157606289292 3.8093490030085118 7.5262830317887035
Cu 5.9405756773342295 5.678504151371279 5.192159781532056
Cu 7.493150424901324 5.641027939140728 7.01253072078834
Cu 2.628805609516178 5.268206276285481 2.6189915174140688
Cu 6.432108254799219 7.931803840016838 6.294189060189683
Cu 4.403227579269001 8.135788043496959 4.927514001457741
Cu 3.5771831919138615 5.781144676777299 4.825549680725485
Cu 7.106360864237874 4.30716428565813 9.0331551002486
Cu 8.869060559426947 5.983893310019988 8.91015288978298
Cu 4.584028465890591 3.576797265855853 5.732594508984225
Cu 8.579654118315682 7.836365083115854 7.3525653998711915
Cu 5.060714527467015 4.723516060319852 7.825476556447115
Cu 4.393010908932201 6.870853180106901 7.070100056711434
Cu 2.460330637189729 7.540251170318379 3.557304422173351
Cu 2.5458340484250597 3.579789890588755 4.449899624366078
Cu 6.3240048548928645 6.821093771263116 8.659052636808154
Cu 1.2234831701786215 5.627215947023458 4.744418308672978
Cu 2.2573225386288995 7.414372992135677 6.066607107426934
Cu 2.736748041946496 4.93932139805361 6.862907735851636
