24
Energy = -66.1649651 eV
Cu 5.533678486531448 4.469147173929514 8.62731201414044
Cu 4.839589950612627 7.05057602038087 4.644297366118146
Cu 9.079673891943557 6.633713488626462 6.26962380267111
Cu 5.854559423170298 8.777318857411561 7.836664842654579
Cu 4.831334047108564 9.246969175796467 5.638281994061438
Cu 7.205493635605888 8.052825328449243 9.824974290297853
Cu 7.819597792652889 4.10667404347038 9.155223971511285
Cu 8.74196354510345 8.806562993714525 4.929210429035576
Cu 3.911200670452389 7.466814800613527 6.95335090962096
Cu 9.34391283554075 10.705264683376523 6.3830696184660445
Cu 7.406393928312512 6.386435093958754 8.1530945963988
Cu 10.11361225575043 9.851165710745708 8.56690998043035
Cu 6.460718881760295 8.89454761911082 3.8564148460630787
Cu 6.554069542000027 5.7102291315666545 10.490371754227178
Cu 7.683060873552317 4.560377268801362 6.65200443870212
Cu 9.705751987018676 5.084969027836868 8.030892597508554
Cu 10.548744673804508 8.564472205691903 6.550123790264357
Cu 7.010047117870321 10.17269767841557 5.891815769242001
Cu 6.813558049225907 7.552489611348414 5.870093493037787
Cu 9.982777257439105 7.423896440996493 8.637502662116434
Cu 5.028076766587736 6.842991917790272 9.012343918784866
Cu 8.914308171604954 6.0266207642665774 10.20769932658431
Cu 5.413264621397611 5.675349591121488 6.620443090041329
Cu 8.271774189209674 8.764978447531218 7.507641396697999
