22
Energy = -60.61062337 eV
Cu 4.3292245952397534 5.6791892486041045 8.324975925465921
Cu 7.901248041077414 6.872937781995079 6.795715708756339
Cu 4.692947117973735 5.43320284353227 4.30641157516046
Cu 6.125088523736432 3.4871603509712354 4.885663559063026
Cu 4.754648469725704 7.424042528398676 9.910439380250947
Cu 6.3520875131262375 3.2399233916566517 7.370016525822754
Cu 5.583792000382635 7.8338331671178985 7.615924273722351
Cu 8.264189104147716 4.051611546963629 5.887046867405569
Cu 8.264855401530689 3.675108686796176 3.4984415206286332
Cu 8.254639336437876 4.785594270326266 8.107113420794226
Cu 3.717154356897609 6.614887219219258 6.165575980552998
Cu 6.097859307964071 4.419026439088009 2.6394161676330423
Cu 4.103564164694926 8.998962817659198 6.0828449781081115
Cu 6.130551906101826 5.441360926606352 6.584241136573324
Cu 4.197009856203666 4.122298476781108 6.377384717451179
Cu 3.2111589724113823 7.990242007395521 8.138618332006203
Cu 7.457988639661887 5.783903372044127 4.414175533549256
Cu 8.014167798340118 5.690171156229157 2.0637477702254903
Cu 3.987388819509335 7.762881275981592 3.962246160474541
Cu 6.655895329073786 6.22117089133246 9.023144621210932
Cu 5.992905193451133 6.8977819791282355 2.8055940566411444
Cu 6.014255622962813 7.614218196047444 5.209291864792584
