28
Energy = -77.72555253 eV
Cu 7.612016536058975 10.047175077235126 5.064842523671782
Cu 3.1454735202057154 5.295585961916443 8.000533430020933
Cu 4.1744513670122885 3.0349741413556286 7.538215604409504
Cu 4.856164277161877 4.3905021279090155 9.414974863822962
Cu 7.240576018657298 4.596766315594396 5.459762293374192
Cu 7.962770909950477 12.24094015609011 6.20417901571286
Cu 8.940859266962939 6.365175572343418 5.433284622081534
Cu 6.746493584691065 5.824912679156004 9.054658655241884
Cu 8.403835165865374 2.8341647625487574 6.558255084273807
Cu 6.36800711948568 8.174286183267874 8.45379293355786
Cu 5.716664787080801 8.97318594425292 6.18252186536361
Cu 4.9655836524259 4.94195400665047 6.363369424624332
Cu 6.9957778459540565 10.501077527192853 7.516080321949919
Cu 10.465608377470828 8.325955956225494 5.610704323096939
Cu 4.563052985553224 6.77564237924969 9.530583857000487
Cu 10.4147253021414 6.727029704404773 7.351421789649657
Cu 9.689886025347736 10.520305551961076 6.13990092293374
Cu 5.701858903223665 11.379025032780842 5.639376567544256
Cu 8.354140463524836 8.414263016482506 6.807079095213969
Cu 4.405490613326654 7.21876234705863 7.196393459712831
Cu 8.714856678059713 7.19705961449327 8.980325908631878
Cu 6.657379666631849 6.717326221479352 6.38107705628252
Cu 6.605192943145627 3.6703746109030586 7.9140964141894035
Cu 5.933290493144962 2.6228688507868307 5.882682896146861
Cu 8.568464998387654 5.123348807941269 7.524038492370783
Cu 9.115186881576017 11.4637434142123 8.248215515149127
Cu 10.316172936381975 9.10367056234962 8.103918904394893
Cu 8.255464394493325 9.49594864801398 9.335892189726993
