25
Energy = -69.55743025 eV
Cu 8.193745132005889 4.542881319935801 5.27111342485315
Cu 9.53531827068282 6.54848512521163 5.590261519107622
Cu 9.367237693227256 7.905623995338193 7.567259506469701
Cu 6.8702229552095515 2.5238435566329747 5.089483300826933
Cu 7.927759833454323 5.895738022414256 7.315590516247936
Cu 6.332058432495323 4.505133197426636 3.644594977790183
Cu 6.51321831426801 3.883786182815552 7.066415199603392
Cu 7.699743132015084 6.604475981150798 3.946373243863201
Cu 7.543175398414683 7.986191227797249 5.988827710138564
Cu 5.974916036553601 5.86223858741361 5.692314272304541
Cu 5.76175213540428 6.56336804595791 2.475228006698096
Cu 7.039636199491104 7.81526746716719 8.449904573642186
Cu 5.676612344164109 8.017223683834459 4.394052709196829
Cu 4.0556055561018445 5.65127686375874 4.105308815638335
Cu 5.467432965930374 5.887597632817257 8.10836002667683
Cu 4.652661582939361 3.557522477508157 5.202572804602022
Cu 3.6319699895988244 7.722758036245553 2.9980198527654975
Cu 3.990149671237018 3.9537997389768047 7.496053870091992
Cu 5.220185599579401 1.848774463879815 6.833257653089582
Cu 5.232602395829549 7.9869178364439914 6.8521382992755475
Cu 3.414883393037093 8.232743822136523 5.31975940626184
Cu 3.510180033296309 6.184148983920782 6.570258801935912
Cu 1.8605282821165232 6.508304786238358 4.6374515771335
Cu 2.339858219440385 4.339725803178273 5.5617528925594355
Cu 2.901470461342662 2.1122163390734134 6.228938388907328
