27
Energy = -76.12478028 eV
Cu 8.878426498819328 5.7501612708184995 6.011477505579249
Cu 7.371193145214272 4.8894362369121325 9.605697797313537
Cu 6.8435230627780435 2.9042319494433624 8.118506572846885
Cu 7.769600627662231 7.248897959093316 4.170992713287904
Cu 8.288573408410574 3.3017100905741064 5.9919032080398615
Cu 5.099689415824819 4.4860307104027655 9.291879264120057
Cu 7.036305283920803 7.286454971371162 6.454942891028781
Cu 5.945398064961866 6.747034280159629 8.623706336606386
Cu 4.462330967297443 3.2302054327567964 7.3835581484068395
Cu 4.234086661922729 4.603725342315055 5.433470755865458
Cu 3.969856771377118 5.745068823340628 7.5189519758724614
Cu 6.42511972969122 4.94770302066714 7.004292979792746
Cu 8.995358863128065 4.237794046741589 8.013816734255437
Cu 6.291529199552207 9.017217757834862 4.95967809243492
Cu 5.967809527338481 2.949454954906856 5.467051069681337
Cu 3.0068843049481004 6.752754221679339 5.403372395906892
Cu 7.145370665694783 4.907527388681821 4.5701041283386
Cu 3.93839506934729 8.95083177492266 4.65590866172703
Cu 5.294236032834171 6.649605778368711 4.488274717037571
Cu 8.445092470935807 6.575509367000215 8.274662626426103
Cu 4.748450074871174 7.924660691817973 6.720759837092177
Cu 5.260852163233835 4.165115978551371 3.259654773560321
Cu 3.0054418356099326 5.149868295008524 3.4390610780587028
Cu 6.7829837095804075 5.946069532740087 2.401985770756395
Cu 3.149263441379273 7.513465878145487 3.002200035199615
Cu 5.5710987168050545 8.179120136400975 2.6995186814594896
Cu 4.527687877488065 6.037625399839801 1.7760434712771396
