26
Energy = -71.57627783 eV
Cu 4.394978065547711 4.394983156618508 9.608465910305634
Cu 7.430042133920109 7.9027520721104985 6.131587009743433
Cu 5.826533459146969 6.331284471822436 9.746664702505662
Cu 8.783153229314312 10.349324033521373 3.6047067313561607
Cu 6.949188404110944 8.782107549791284 3.879093553937871
Cu 9.121973817552835 6.03342725117196 5.992128573518564
Cu 4.928396413894085 5.527582840534378 7.472649772298661
Cu 6.902357619666221 4.878235576651231 6.049065801677568
Cu 7.391107755857896 6.31280364104887 7.9828922792554335
Cu 9.745971134946824 6.46005007217313 8.438609294203221
Cu 8.789886679062612 4.270181236181088 7.643750731124889
Cu 6.494383724750108 4.012640523924766 8.467587405104878
Cu 5.378805166867493 6.765053486085232 5.411545438402821
Cu 8.162856439344104 4.937206467673344 9.916769324046948
Cu 7.478935281025994 6.367284352967688 4.186875691248735
Cu 5.23786178347395 9.216216380570062 5.579645005723147
Cu 6.438722574446436 8.852872955587404 9.48648391842088
Cu 6.820842130691941 10.968751977383928 4.971579156255763
Cu 9.269538646572261 8.085760491509507 4.395551797047139
Cu 10.19687473169062 8.076921308079513 6.655419827303958
Cu 2.815715285762829 3.668533280985734 11.068341264354254
Cu 6.691671680221815 10.047244104011664 7.336693173002801
Cu 8.126017284309597 7.301118028289244 10.191805879902885
Cu 5.340926323528305 7.886410576093695 7.628087169748921
Cu 8.793803905183033 9.97254291042689 5.9932907133795
Cu 8.53347788765215 8.710803109569332 8.249922964566183
