24
Energy = -66.2890829 eV
Cu 8.335681783208052 3.8164646617225606 5.096331932703626
Cu 7.2335005286903495 7.554685082409005 2.3476262207586327
Cu 7.2919833990525635 5.718311578291615 3.9541844506054598
Cu 6.090352915621598 3.6054938147901168 3.90768588430538
Cu 8.402413738683297 5.9831286452474775 6.234794193681796
Cu 6.571946338912265 2.3652022674530384 6.062343896369607
Cu 7.90907201699741 3.86407324818292 7.582779266222699
Cu 5.473040288578131 5.7558765144949176 2.3587801704615283
Cu 7.949834582798638 7.89617275873188 4.672056930300265
Cu 6.2552078269500075 4.757316794656173 6.105276156217464
Cu 8.439859006134565 8.244777076762972 6.986930039383154
Cu 5.515310902678805 7.592948212125693 4.04184436572839
Cu 6.2842735304853745 5.6462119381449725 8.415314624994958
Cu 3.178954985613375 6.973184443817025 3.4501329341986087
Cu 6.786814689181886 7.95361610507774 8.720936290750783
Cu 5.474540627808435 3.3747818744678173 8.045490358871232
Cu 6.227849192057059 7.287444953870644 6.4242360793054285
Cu 4.531428343878268 5.360466086022576 4.503832828783554
Cu 4.237967931291778 3.336489635098787 5.803376319571826
Cu 3.8069072457780515 7.341866597524607 5.829471109270729
Cu 4.502909721843552 7.383036503222216 8.270853106179588
Cu 4.04541556376363 5.23149194324982 7.3211375034378126
Cu 2.399052715485533 5.3139481397420205 5.538435187811412
Cu 2.217650750929827 6.806708847445918 7.56829927605425
