22
Energy = -59.42962211 eV
Cu 7.238533983451142 3.186449108944303 6.133868532748333
Cu 6.8920563977871785 3.828835766541806 3.8843250669110487
Cu 7.747226636021506 4.7803212003512074 7.814741880917432
Cu 4.980056076891653 2.889131995492699 5.150162284942876
Cu 6.222969059943644 4.4450687920888825 1.6359454842180874
Cu 5.600221731748258 4.968528612997768 6.2939513817646775
Cu 7.8875773795534565 5.562851484884812 5.448697801609664
Cu 3.2636022932036126 4.727953312437242 5.3550041093786955
Cu 7.6265657194719045 6.068403940433881 9.857528897154353
Cu 6.5986733647671985 6.172140939150544 3.297656901910825
Cu 4.669811690671838 4.5678753247478925 3.4126567257681915
Cu 9.013487749139667 7.592665497105575 6.167662580322442
Cu 3.4635394925123353 5.443729135169012 7.657573755381185
Cu 7.2499517852435975 7.113627389759369 7.677373242600976
Cu 1.2999318685383734 5.316358310579494 6.6264333810274785
Cu 5.612905676261031 5.607946766619043 8.704073051508349
Cu 6.678845212761879 7.746421744905541 5.316846979948537
Cu 4.598558898031527 6.69148497407155 4.543536867293156
Cu 8.583348899736848 7.3576809521183275 3.8303813428992357
Cu 4.920200904818691 7.2944925679098915 7.025954982337297
Cu 2.720076999823775 7.134668089399531 5.963725277789991
Cu 4.429723364246674 8.918865874584052 5.354711310732663
