24
Energy = -66.43756328 eV
Cu 6.48373656656053 8.232471794779137 3.570918521109187
Cu 8.850577414577913 8.204244232749685 4.271521401705589
Cu 6.421407361164027 3.977968105548122 3.7530927602150856
Cu 7.633749199797976 6.112945131475726 4.033963304977277
Cu 5.194368782584443 6.158318160867504 3.326734801982677
Cu 5.857908238559037 5.523473406838775 5.628038904218581
Cu 4.673639557088661 7.811450518688057 5.125780819019466
Cu 7.158820368024535 7.79962231920096 5.906410989539413
Cu 9.176536161309182 6.383420791932272 5.917741230907356
Cu 5.246971345284767 1.9294148256778274 3.4757213442267645
Cu 7.976194272595417 4.259857831645375 5.764877866340285
Cu 4.034851667145234 4.031951919770714 3.1175942105682983
Cu 6.712285423183823 2.2026991476652085 5.439228850540903
Cu 3.0857297798167482 7.264215398999348 6.881088610654508
Cu 7.533823754044158 5.872536686127292 7.63701766002148
Cu 3.42033634465241 5.646963858211223 4.968835869444756
Cu 4.588205099349623 3.3956298720652742 5.406767741996903
Cu 6.191267792270576 3.753217419997903 7.391014253639122
Cu 5.4504916478566745 7.136425562853886 7.359865092522115
Cu 4.487149743155866 9.287173141644598 7.201816807558556
Cu 6.755384024868074 7.71665924215718 9.24136293027776
Cu 4.276122854932051 7.824311753930054 9.194087376631508
Cu 5.64563397726383 5.506018977241346 9.130050188964928
Cu 4.085908912397229 5.022666260789958 7.259363275254587
