20
Energy = -53.86536341 eV
Cu 8.380926471307511 8.06509517865883 6.215679252891361
Cu 6.337467287231272 9.060166138521515 6.658763441897992
Cu 4.727890643673653 8.330209052147545 4.9928872414460095
Cu 8.224494881899412 6.631884929490344 4.259041293357435
Cu 8.60622734712061 4.431107357242093 5.024835943168515
Cu 3.0507094815229228 7.121275278299263 6.14837920866736
Cu 6.902048282439603 6.983765874807731 8.018201090135397
Cu 6.321498127390095 6.686115691545241 5.701661826883141
Cu 6.009241886851446 7.103977627471642 3.2888978190758014
Cu 8.864760328614286 5.859798237205518 6.910189529019542
Cu 4.568559218158477 7.971663583040494 7.787909257992285
Cu 6.426009177093419 4.781808597187155 3.940914084051477
Cu 4.793511376662271 5.608274282102811 7.495684712177878
Cu 4.220984399940297 5.867570354507357 4.405187801963066
Cu 8.850216459618496 3.3355896275824555 7.176571337278931
Cu 6.859621121284247 4.568095439555015 7.102646737616498
Cu 2.750658413433641 6.315206665524599 8.40622625120259
Cu 7.034964616511361 2.748317379758564 5.506416579624048
Cu 4.961957341132715 3.9556239324595857 5.700355666469842
Cu 2.8047888028469146 4.7842512412885805 6.375274930275518
