22
Energy = -59.79793788 eV
Cu 7.158776398483473 7.158776398483473 4.994629210937274
Cu 8.472745310319281 7.158776398483473 7.162572017683627
Cu 7.158776398483473 9.26532520766162 6.508704392486678
Cu 5.10508584650533 8.526987210675955 5.367444668451189
Cu 9.212466950461614 8.526987210675955 5.367444668451189
Cu 5.11091971377386 9.34796715085009 7.8346690841684135
Cu 9.206633083193088 9.34796715085009 7.8346690841684135
Cu 9.209963533612264 7.158776398483473 9.408757755452323
Cu 9.206633083193088 4.969585646116857 7.8346690841684135
Cu 9.212466950461614 5.79056558629099 5.367444668451189
Cu 7.158776398483473 5.809746917044664 8.897445181950213
Cu 7.158776398483473 5.052227589305322 6.508704392486678
Cu 5.844807486647671 7.158776398483473 7.162572017683627
Cu 5.10508584650533 5.79056558629099 5.367444668451189
Cu 7.158776398483473 8.507805879922289 8.897445181950213
Cu 5.11091971377386 4.969585646116857 7.8346690841684135
Cu 5.107589263354682 7.158776398483473 9.408757755452323
Cu 7.158776398483473 9.419962139105332 4.135863557653264
Cu 7.158776398483473 4.8975906578616115 4.135863557653264
Cu 7.158776398483473 3.42911779696695 8.305620913226228
Cu 7.158776398483473 7.158776398483473 10.852068652614784
Cu 7.158776398483473 10.888435000000001 8.305620913226228
