29
Energy = -80.77038979 eV
Cu 9.130844230246213 2.569016587535961 4.659729961691294
Cu 2.787385046219068 6.71413553930542 7.093118601749961
Cu 4.797219618143947 4.540261454658865 3.038349144704442
Cu 7.239138729398448 6.77108611288402 8.491969406403014
Cu 9.882365825471984 10.002468280545727 8.632271482153122
Cu 5.060988875123029 6.687224165004394 5.95988444666445
Cu 8.72967993089432 8.38270916016923 7.424399373012686
Cu 5.409316424408698 4.191304732524324 5.308626182800048
Cu 9.17931877026397 3.4888699491490542 6.999532661518744
Cu 7.481581898534965 6.9859067023488155 5.906332468788063
Cu 5.555414392656726 8.717817981904748 4.835945595361674
Cu 7.0464825820560275 3.4872287934240895 3.6198399307656404
Cu 5.628006741611416 10.720351617958823 6.280738151414992
Cu 4.443840575223996 6.918555999026589 3.488953440780033
Cu 7.146713042604979 2.6514562293785655 5.961118214885158
Cu 3.9932378290831534 8.906243483346849 6.832673706439666
Cu 3.1874149417907005 5.5579006867006715 9.275267027105679
Cu 4.311908001430025 4.749003175917019 7.334904476801117
Cu 10.641087276241455 7.618155927145283 8.481481368420912
Cu 3.258074209303078 5.377144467031834 5.0106336011537
Cu 6.576347973298379 5.94445885689792 3.9520492904346907
Cu 6.919755110244419 4.729050055691984 7.2449954942596655
Cu 2.86919259156389 7.896470212229467 4.970166704943804
Cu 4.799053192568252 7.148232210066171 8.42740382514531
Cu 8.364131114243499 4.804992653972399 5.184017244224244
Cu 5.646286830340286 5.088023100585253 9.342788838096935
Cu 9.243699283955197 5.936112710121622 7.287605150421023
Cu 6.3310630447779515 8.683552277472655 7.244849166443821
Cu 7.789523941027716 10.590294419982138 7.517925528486233
