28
Energy = -79.10202934 eV
Cu 3.837957839927406 4.257375853386284 10.020536609714826
Cu 5.053145157715251 3.720164862100981 8.022531226599682
Cu 4.094961057182619 6.104913952630823 8.509725334522017
Cu 2.6865687581107096 4.208124007390168 7.820365099014977
Cu 6.112975559155755 5.160957126436923 9.678808332333052
Cu 4.114800596212326 3.8367617797568947 5.772161901581581
Cu 4.604227504162336 7.964443230636155 6.874503054839588
Cu 3.105318878748904 6.011418021935156 6.222000622971648
Cu 3.329823034444182 5.176721077587626 3.847469720212174
Cu 7.396624910194326 3.334611339557622 8.526857857850484
Cu 6.1545655264531485 7.39777685925446 8.714342405810244
Cu 5.610305924957186 5.786265594928266 6.481353659710774
Cu 4.49630529794288 7.140373140849623 4.581881405397276
Cu 6.198222682951105 9.628821599843281 7.430613479770996
Cu 8.96582741527257 3.822115423044253 6.708007515821324
Cu 5.037475595137318 6.398556037022927 2.398178400363203
Cu 6.635113355562954 3.5841398472474744 6.140341005681907
Cu 7.750061086640508 5.614872240363583 7.894387314534409
Cu 7.035409309222351 6.572266238448793 4.642699372445149
Cu 6.080744979655766 8.929813097972273 4.995862620472063
Cu 7.40447577991254 7.730137046419755 6.6992517340654505
Cu 4.719107173627754 8.841455074617052 2.9017392409630802
Cu 9.10343098996403 6.125917696285479 5.88892634038633
Cu 5.689728576508896 4.588648990848993 4.053931837205006
Cu 7.296306381271794 5.525745858530044 2.407561066257431
Cu 8.224530464284202 4.415769842734862 4.386484995353715
Cu 6.956071457061555 7.995890453644116 2.7627423783134155
Cu 9.114937696953275 6.685516755179977 3.4990063105433125
