20
Energy = -53.9082021 eV
Cu 5.466957623843892 4.888997562122607 4.840011620291743
Cu 8.70960433103595 4.709006907510197 3.8839736877513347
Cu 5.213536266556852 2.3943261172121297 4.902123606203165
Cu 6.678702831164997 5.741390740133081 2.847391822804088
Cu 6.7255598989958525 3.379637337369459 3.3002728858675225
Cu 3.2866414113435627 3.9933446734897506 4.330672305701412
Cu 4.249393476839448 6.239209558212011 3.276713928437491
Cu 6.067979580683128 7.503017159804535 4.3684893822157855
Cu 8.432577020417815 7.088936759836585 3.8345355435962993
Cu 2.1350179216980782 6.128852732320073 4.414606356648029
Cu 3.7188714685466713 7.77363530855567 5.249677879148125
Cu 7.555155849090828 5.927395043447465 5.725782625708492
Cu 5.6194190015871435 7.06141736179588 6.653337633611602
Cu 1.6202844920365411 4.483802642760809 6.139253100144014
Cu 7.378133448748806 3.467486752939195 5.661755953384592
Cu 1.537612340824669 6.844822326557964 6.6208604755518214
Cu 3.644446548232012 5.71616210603288 6.4983553165918915
Cu 5.931052354008008 2.2969920108315103 7.242049721475775
Cu 3.835638395417488 3.3386331591376623 6.646946238529818
Cu 5.867474351486593 4.6969923524888415 7.237248528895341
