36
Energy = -103.85735363 eV
Cu 5.924449368031164 7.557111499852512 3.6844269253901896
Cu 3.5213964750386375 4.831562666010398 1.679824922423335
Cu 2.0148965635145335 6.086121785311305 5.303662837800965
Cu 6.291034316228725 8.17419385694372 6.016022985470163
Cu 5.845453428306689 3.754307203882902 7.363543019074133
Cu 4.336831594298476 6.5490913238200275 5.355634546608769
Cu 7.243330884047678 9.46617446005844 7.960730622175201
Cu 5.352116767087611 5.275891983008283 3.1320132382534487
Cu 3.6990186144760786 4.472028371751677 6.447032026381708
Cu 9.005425754060239 8.356050137539182 9.26476783912435
Cu 7.570130615212133 6.034614463073022 2.713699135572154
Cu 3.2700689828600105 4.42744398065657 4.057915227494818
Cu 9.534822735626069 3.6994289352471585 7.823693866429984
Cu 6.764617455153233 7.318963931863899 9.284672134938944
Cu 5.259469606490823 10.252030218219787 6.739557073692206
Cu 2.7742947351208915 6.332006024800952 7.626801302622255
Cu 3.4438482548368774 6.869415649676456 3.17500496198545
Cu 4.799701920140691 2.9758100273663106 2.692073268050872
Cu 4.035309288514601 8.282395707130902 7.2157080299184555
Cu 8.29990184801428 7.45669304253408 7.129192212394352
Cu 6.678855683990062 5.596948474864626 5.385735801449434
Cu 5.368854361069596 3.396573159760169 5.039061687769811
Cu 10.255086874163691 3.3363068223097008 5.517238357171199
Cu 9.766295670115069 6.134458814712549 8.607979659457751
Cu 9.456241869111743 5.536386595384502 6.2623046517492815
Cu 5.738536415739338 5.064200029393773 9.559695564517588
Cu 7.8666691362178245 3.503301490487281 5.93666384209764
Cu 7.154805412421281 3.6302588619461167 3.482460185938229
Cu 5.388679234747862 6.176435159414007 7.495301120349858
Cu 5.152670895461641 9.294494375459976 9.112532301820899
Cu 9.141489968417762 4.87645800096773 4.038495994199333
Cu 4.254161414148805 7.071006399675288 9.45287818566548
Cu 7.1884974212978765 9.424195367424723 10.458969888197625
Cu 8.323560516123779 7.2379024043240765 4.710734354998738
Cu 4.202522029935393 8.911276523033154 4.81814569639546
Cu 7.63456089900181 5.1960692611178825 8.013433541442756
