30
Energy = -85.10849682 eV
Cu 7.127344481322513 8.450243335283746 10.61274623915498
Cu 8.093154953411965 6.2817230250761025 9.81314263473163
Cu 7.72737072643101 8.157412792784973 8.324314404675084
Cu 10.026689957735323 4.168334120415637 6.358737685347721
Cu 8.982941510463968 4.187865978730073 8.65795305498383
Cu 8.682707264755305 6.0898386602691 7.3088295135169545
Cu 7.974759308568548 7.917212066391571 5.8982636899964564
Cu 5.790006002660007 7.875086115519419 6.939276645020446
Cu 5.5549541039603705 9.380461126043938 8.886898864158905
Cu 6.641521932338172 5.029936989064378 8.361101934067948
Cu 8.460258055485307 3.303415641524941 4.359537121846807
Cu 5.666083619479869 7.005033228822047 9.348217993975643
Cu 8.783839543422356 5.630341260526821 4.892961963739132
Cu 9.873159944204561 7.656906179759285 4.432305158805384
Cu 7.7020712818834625 3.714844811572964 6.596751861423653
Cu 3.5743779903125295 8.0636608517364 7.960760314620835
Cu 7.5723359929014045 7.488612717119217 3.6213388586845685
Cu 4.527175540061574 9.911909424159063 6.624222780686137
Cu 4.3979323482143755 5.819979320753413 7.634334515613531
Cu 5.938667482075935 8.938795938037995 4.779793953092506
Cu 6.383551650960807 5.732050751605778 5.884461656215468
Cu 6.971265306030929 5.124616224576853 3.334511884283225
Cu 5.253371364359741 3.655071355756641 6.966368989099742
Cu 5.995554289278064 3.499048980924155 4.7053892880284405
Cu 4.024792285369211 5.0484288047934855 5.348385387466911
Cu 5.2229486627713815 6.797393510190784 3.8369616302263707
Cu 3.755044358021897 7.927823685000319 5.45061121498604
Cu 2.286589308003355 6.3898658957132435 6.464497938726211
Cu 4.517741744767188 4.644438861186359 3.0378754889137096
Cu 2.7686514126873565 6.386510768599468 3.8363097558508725
