38
Energy = -111.22354585 eV
Cu 2.745107144646363 7.842840519555658 6.935414049882074
Cu 5.656229379937076 5.830371553200459 10.290513446472174
Cu 4.118996352901345 6.847370930376953 8.715401347058748
Cu 5.1140000729361486 8.187615407581552 6.912665824817319
Cu 6.849923676154591 9.693598946785865 7.661364710699785
Cu 6.743209992390191 7.303788807639696 8.678312505752102
Cu 8.99222691240954 8.515619935289974 8.093557599091438
Cu 3.8108914980827553 8.864757300775885 4.894582189296519
Cu 6.216199128184084 9.528309235442125 5.174466351546518
Cu 5.97369550099419 3.441339311325134 10.410577794356918
Cu 8.570172677051053 9.848215885077957 5.844845247294715
Cu 7.363692913470017 4.868826369294318 8.902067917562258
Cu 8.914161937887132 6.095563850080592 7.494565479196236
Cu 2.8952353298025924 5.422949045678393 7.080698374226931
Cu 4.255799735269377 4.364085133070564 8.904608330369909
Cu 1.8374744633442577 6.554550486579347 5.08638304009453
Cu 4.25290568125861 6.478489893640804 5.217459895269868
Cu 5.623547988331566 5.592038811337651 7.13142178671326
Cu 7.497667567277409 7.72985394738845 6.407757133788538
Cu 6.60902001247906 6.136733235275424 4.8980916477987195
Cu 9.913714673738287 7.84160446578732 5.893527855942447
Cu 4.196346586514082 3.4277484265866294 6.635005931035721
Cu 7.6439650074663605 4.249985269541074 6.452105441387771
Cu 3.191701034500735 7.159949931264883 3.160279690349568
Cu 5.6451360379301745 7.930097812116928 3.44048888406997
Cu 8.089623665807501 8.101144588068124 4.0888695530458445
Cu 8.991303819787623 5.817831250313903 4.961691908047651
Cu 3.086472802909857 4.47241946739615 4.497297259988739
Cu 5.489098424109795 4.059783033705708 4.649070153804813
Cu 6.1208496230297955 2.9851970242893313 8.04424288870857
Cu 4.1422757398630985 2.075857638638749 4.633390106511908
Cu 5.050224013841632 5.667752039921896 2.8172942195644093
Cu 7.548739066951393 6.086365633697786 2.7360783304251233
Cu 7.86403691343488 3.847756767740858 4.030662436427086
Cu 6.447967751905952 2.184747518308663 5.7766326094668505
Cu 6.604352993998697 3.9778075219791504 1.9382574738669156
Cu 4.29681168233259 3.3765501729920526 2.561638117930858
Cu 6.264270991408362 2.0338458830784125 3.339318499837177
