39
Energy = -106.23857292 eV
Cu 7.911659845110773 11.486027355788222 15.648472854078529
Cu 7.459557508104027 13.022399161774942 13.86179592646379
Cu 9.238830059192539 9.676210776363478 8.630402323134872
Cu 17.09194250440519 6.311260077940732 7.24681677131376
Cu 11.489653271406015 10.525680547754943 8.974169576051253
Cu 17.373176805908066 8.675346805176824 7.339067723006262
Cu 15.298062535309773 7.6930448718354025 7.89734141023937
Cu 7.574946693369108 10.68785509943017 13.149741552359657
Cu 11.226885939903232 15.741269910025245 12.41529565637261
Cu 10.017737470491836 9.978382158219402 12.752630311189689
Cu 12.808901746998247 14.411618670460854 11.186779634174922
Cu 13.16120180229288 6.738558897746618 8.328518421126322
Cu 10.31992638186942 14.074472988919819 10.829504458740658
Cu 9.315753022330094 14.42410300453684 13.194851642938621
Cu 13.751656743666238 11.493569986352421 8.793071551613556
Cu 13.027306439710514 15.054909363402444 16.093319434540604
Cu 10.374659149376525 8.92191743302552 10.635777374151107
Cu 9.830246612136099 11.853973181896329 14.228009317996852
Cu 11.696474212433863 13.172369450209551 15.244933875296637
Cu 9.185602302420685 13.737998665403305 15.577265508495675
Cu 8.797817920441473 9.41038425281153 14.736097960296755
Cu 10.933673240771954 15.4096070587051 14.808959439084257
Cu 13.057138900850086 14.735335183042682 13.704024177523744
Cu 13.385797188678499 9.116233701331577 8.455926020537923
Cu 8.272257782589541 8.404499429104755 12.407924713402382
Cu 15.04092619672052 5.29243082443616 7.898693474180877
Cu 10.899278706731629 14.554391213823148 17.10149508376258
Cu 9.563230007125737 12.020911799219364 9.495809272581988
Cu 15.590416946988121 10.10292002218716 8.110452983589852
Cu 16.19990991278351 14.792082637580247 8.472700883580755
Cu 8.950444098507736 12.371981332685067 11.91151037261613
Cu 11.180088785375784 11.365793603277947 11.226167025389438
Cu 5.7725601862646165 11.37906486514927 14.574226380164378
Cu 11.406717144604153 13.182722705058538 12.849937788003448
Cu 11.928549567131093 12.906661991275756 9.45762076543357
Cu 14.172407328948537 13.895824125333611 9.282940852169917
Cu 8.357346412204471 10.2708031784838 10.824017846161164
Cu 15.863789915757705 12.471760549421017 8.328328354755921
Cu 11.17080021792905 8.13668898480301 8.491076346668407
