3
Energy = -4.4195243 eV
Cu 6.881974499999953 7.131861500000049 6.38102450000004
Cu 7.644023500000006 7.766833500000047 6.38102450000004
Cu 7.644023500000004 7.271326499999968 6.38102450000004
