35
Energy = -99.69326678 eV
Cu 7.000962662576424 9.441150078249986 7.962486028030677
Cu 4.130271741892709 6.700387606533332 7.591507210171765
Cu 8.594870117974896 8.902683390974088 9.75611063182626
Cu 2.7162537194823395 8.565938305954592 6.9105792526807654
Cu 6.542616208842212 7.0809913201086685 7.86355334236816
Cu 5.83740060434741 6.730679623379875 12.0131086088032
Cu 7.446575427939688 6.982967518641587 3.7988669505170902
Cu 10.3912901750363 5.836383243933419 7.489164077619099
Cu 4.357230974549254 3.4216466277486974 2.293872198156
Cu 7.425434069379381 8.347992098659843 5.8136069951165785
Cu 6.460378165155627 7.649267202264239 1.7636071796523156
Cu 5.700549144903691 4.860484646061519 8.133518808995664
Cu 7.073450972655973 5.764471742837143 10.10798002668085
Cu 3.248186524895414 2.991347718384362 4.470914411987258
Cu 3.7444452482811466 5.21013920497426 3.769253038902689
Cu 9.393339907242053 4.0424070013773 6.074945741995064
Cu 8.119668568233964 7.414309303241343 11.610937914143314
Cu 4.744522152476452 6.303741682208615 9.86786630873827
Cu 6.36306216741168 9.201439232047793 3.776145468481144
Cu 8.205461678617276 5.064818653112792 8.08214852386923
Cu 5.877128722067054 6.112985885619845 5.607803365954424
Cu 5.585462352433071 3.6392434434006984 4.346541217992095
Cu 6.948183445042051 3.9567741673363357 6.270995459293604
Cu 5.020175825321884 8.523296527805241 6.125366305358935
Cu 8.157967363251725 5.797692573127774 1.866184256874767
Cu 5.9205607079149205 5.320079612222012 2.55082413894958
Cu 6.43270379432882 10.513819739196467 5.838420277032611
Cu 4.872954431120435 7.348380460563349 3.6171328554297406
Cu 7.870836496884034 4.591544869087609 4.06262941978654
Cu 3.2509992102503356 6.854461905617452 5.370080585169662
Cu 6.32291520498758 8.164943462367228 10.083918156442166
Cu 8.5107532633965 6.201446179133539 5.859581174142042
Cu 4.170754597984556 4.504186158581473 6.194261319365776
Cu 8.983089783493334 7.843297623802053 7.636856648115041
Cu 9.391917421943804 6.575195762192896 9.661393235191657
