38
Energy = -111.66992921 eV
Cu 4.0006506174078105 4.141416685370503 0.14858276857131414
Cu 3.1525850374744517 6.62150314041577 0.3575839486326371
Cu 1.5451561304311199 4.571891112351094 0.6196027063819772
Cu 5.462247231866506 5.971866564708498 1.4377012040688895
Cu 4.990615649600346 1.2088252833758921 1.5376886633366122
Cu 2.825432760301013 2.6171817260794037 1.8671445053179359
Cu 3.2284022584627685 5.149314323340776 2.1217929622880387
Cu 1.2948995682113291 6.543264161957162 2.2713210939522672
Cu 5.283191372981857 3.5806007678856653 2.2094044933627606
Cu 3.8598563846228613 7.486731563277596 2.699195541650649
Cu 3.0388244851707267 0.14084587451337935 2.752821817452166
Cu 1.0873848848582002 4.158334899258474 3.109276894122838
Cu 7.200239777995039 4.770417139064973 3.399007563121199
Cu 6.8096352078091025 1.9054699817245242 3.389436615531563
Cu 6.6157943653061695 7.219296610650825 3.971819559507314
Cu 4.377142545121051 1.7294389691402097 3.7528794315743514
Cu 5.4560008931037185 7.928856655846064 3.670216589031296
Cu 4.9292616410171295 5.603608929441967 3.767040237528144
Cu 3.280358626113428 3.7843008215401666 4.023688579812444
Cu 6.4161447243067995 5.452390047271462 5.9332775451789805
Cu 0.26352754396838446 5.865478724058192 4.638946529685899
Cu 1.8443088014486055 1.8776551966165025 4.189792741871537
Cu 3.4102823549969568 0.16528606739847765 5.314579669324498
Cu 2.5462926808202515 6.20956727585775 4.368709365280359
Cu 6.745892354783288 7.66520060111715 6.446038530263919
Cu 7.85433317870635 3.488545235937138 5.501348270722008
Cu 3.7098828674412947 2.43800031898838 6.1538395341600545
Cu 4.49989732832713 7.322815900267895 5.4604272718692295
Cu 8.506062805353077 6.044246187468661 5.116657456330934
Cu 4.018777337103148 4.925444404161536 5.975849459785934
Cu 5.614858828405174 3.470502453795133 4.793614790319333
Cu 1.5538958099589775 4.017693241859261 5.7672880863703595
Cu 5.880214482547736 1.2450154370581965 5.686684334363678
Cu 4.848163489309336 6.220841737290402 7.739578165745833
Cu 1.5858520758502772 1.5870989144477743 6.576027237458994
Cu 2.306608915381367 6.289665890475067 6.8135136220305155
Cu 3.086888097405511 4.077749271580407 7.929781052515972
Cu 5.6316387737181755 3.5073750334772327 7.249043049162056
