30
Energy = -84.58483918 eV
Cu 8.250421230760606 8.62684758126894 7.460226324289075
Cu 9.551757822591627 8.839276489995116 5.3604235959627
Cu 5.849166638654274 9.128031346885113 7.175517790778289
Cu 7.168382379777929 8.497247598133136 5.256123756113717
Cu 6.502314929541207 8.25793330398023 9.313868451346904
Cu 6.680684775034378 6.745749084929983 7.439432881147047
Cu 8.63822457624429 6.665432653584778 5.849372811768073
Cu 8.580257989677941 7.451175012598138 3.5168486559766805
Cu 5.053024486424542 7.358285019864585 5.608039520297128
Cu 4.354771881964904 7.38542309961158 7.9817649525815355
Cu 6.11431470036273 7.178648944575286 3.4487983526532
Cu 5.503143315881686 6.106764791677679 9.732298184447473
Cu 7.373398351627184 6.11677304590703 1.733214171114721
Cu 7.137873670775553 4.687113717701974 8.688929024585901
Cu 7.444705485060362 4.661478799661975 6.352763967541338
Cu 3.879100009909454 6.29670766588219 3.7488151117250372
Cu 7.640637579557402 5.250330413801558 4.0455828634222275
Cu 3.062680614881664 6.1611965198540855 6.126483399983879
Cu 4.897638194271721 6.447699284032092 1.456070463732364
Cu 5.225098936199655 3.642845348054244 9.66545593465008
Cu 5.641758898480167 4.666512177353802 2.8238292730011123
Cu 4.696618437180442 4.970110780615202 7.643742212129314
Cu 2.0309917532562753 4.895206771036787 4.223549936005587
Cu 6.09578036493752 2.9087478957002486 7.363651647780308
Cu 6.164849406787822 3.3640919151196353 4.821076113788508
Cu 3.234702307708134 4.726092036143166 2.030611650499307
Cu 3.046438108420376 3.7793849539816557 6.126575329009894
Cu 3.892686161952252 3.3419504801838276 3.9013586185854443
Cu 3.7779504365125938 2.598959466090857 8.07511950563672
Cu 4.511533253637453 1.9207655857884847 5.824519256265487
