38
Energy = -111.23653867 eV
Cu 5.148081797169894 8.514625781705897 9.885649003474938
Cu 7.410118438447032 7.725719561044556 8.650385404980042
Cu 6.21293580307883 6.313378855214266 10.208438420795163
Cu 8.494871616155635 5.5458255015905555 9.468341206181728
Cu 5.982579354164305 9.497868131532318 7.834941949267267
Cu 2.717148860407426 6.301770383297009 7.994937193011601
Cu 3.5157359306285767 8.873176787353248 7.673453326381616
Cu 8.748089698687572 6.329496001961382 7.1231540735669805
Cu 6.633192586693129 5.30971189908278 7.9619324630659625
Cu 4.470121021298584 4.910464507584331 9.215875254741622
Cu 5.0496960188635756 7.146620705846717 7.967521878943599
Cu 7.615214985643261 8.438499499694943 6.262327675253754
Cu 6.698355505322211 3.8709304027085016 9.898012027787527
Cu 8.224298857556894 3.620107782038817 7.744137235091785
Cu 5.186610382713498 8.795487275493954 5.672066686202077
Cu 2.3183149995425976 4.865267200512928 5.816943077010684
Cu 4.465390698333047 5.018468351172241 6.815583550411475
Cu 3.4036950997618476 7.178165009471507 5.879730943135374
Cu 5.509412106406709 3.040890372912794 7.867686454827484
Cu 2.053115936224809 6.450857956665607 4.037705530849957
Cu 6.245584060965613 6.465831853567362 5.833970826945253
Cu 6.50308337066448 3.757531071778089 5.816724888884046
Cu 4.5389167140267315 5.398416522174885 4.260736574514128
Cu 8.886601908458097 4.49965886396551 5.574031811841573
Cu 4.191089136148864 7.819820639830569 3.6467293827442475
Cu 4.072056575576895 3.0779354201930453 5.499148522044554
Cu 2.7777512088633913 4.042251846805249 3.463050627461728
Cu 7.029261555313084 5.243375462220885 3.8971003734685645
Cu 8.764515855396334 6.821573241066278 4.714684588989054
Cu 7.965655833551896 2.9360421322088692 3.9449337882576274
Cu 5.587678157843434 3.103932671344448 3.6292169511841976
Cu 6.6866200675420115 7.944831650560543 3.896733954990158
Cu 3.2723150537127346 6.133979338401264 2.0567773531244664
Cu 4.715156303872334 4.25715701644249 1.7909738123516121
Cu 9.353020029009524 4.833716857841739 3.207233448813398
Cu 5.699173091425679 6.453925841546485 2.1637542228351268
Cu 7.165825186580915 4.198851720301456 1.7987487403289057
Cu 8.114496834878517 6.703516406327057 2.272658881492088
