32
Energy = -91.09664358 eV
Cu 8.17814046384983 6.534370449311849 2.6882410752324595
Cu 6.529793374239989 4.960285410774412 2.0540415679171704
Cu 8.928480745937186 7.0283892786222655 4.849134454660783
Cu 6.075409890135961 7.441827323107455 1.8625110989183693
Cu 6.864877704539351 8.059993481879697 4.117536593805285
Cu 7.33749427761347 5.075389944659006 4.502198159524284
Cu 9.273046693699964 7.240739953503722 7.231978979215645
Cu 7.959830798432581 8.96216528261137 6.164216748513555
Cu 9.158174348867224 4.986632433841246 6.129728259740507
Cu 10.23691414280557 7.126499733243342 9.393688515804445
Cu 9.132422342435989 9.367616598568768 8.46460311921924
Cu 5.162912828990336 6.129106553609574 3.6104235850685162
Cu 11.021887461931785 5.6216946255968745 7.590898402651097
Cu 4.5380067710475105 8.496603047559148 3.5802911648266496
Cu 6.8578618725368745 6.74632842194751 6.4261515571184535
Cu 5.584931976544826 9.402062869103522 5.67309856916287
Cu 8.833015643330866 5.222213596841579 8.565466218100532
Cu 9.112921315616765 8.643520655436767 10.843128537984704
Cu 6.735582861286608 10.116104724825446 7.849541296538927
Cu 7.531823634903415 10.252577021553423 10.13951571746241
Cu 6.971812212438401 4.371210183514992 7.032592529529963
Cu 7.327828455882518 7.755649682409786 8.815587990369018
Cu 5.138049576641041 4.757974069484625 5.554152160933757
Cu 8.291497781946845 6.324256129414815 10.68548453263291
Cu 4.444356393924206 7.155961232844029 5.6442054555172465
Cu 5.090361126365325 8.244848113494028 7.728992518109103
Cu 6.571988515149286 5.193255370516906 9.368088069922676
Cu 4.932820575357182 5.813455794252656 7.7107647158527435
Cu 6.749177983495789 8.217259057173807 11.31701870956316
Cu 5.302504793446147 9.487537572617448 9.778713121131046
Cu 5.032967015314571 7.074498215013723 9.880116895574114
Cu 6.1212773355035575 5.855108539722369 11.649447738023598
