41
Energy = -121.12757852 eV
Cu 2.9956848183862457 3.8293797036241672 8.792755962898095
Cu 3.6643360574141086 6.056516768542538 0.5373932688297622
Cu 6.189056954503271 5.014356052999617 0.9090826621651447
Cu 1.6289292821681869 5.030903295759611 1.5139090549620011
Cu 4.476603989986423 1.9756285400089753 0.86117214787448
Cu 2.0192389652957576 2.471488141956099 1.5072236490143558
Cu 4.036297075827961 4.0967449242765985 1.7914234060106038
Cu 6.0632557893499825 2.9574055940940043 2.6811414551704567
Cu 5.768378985280659 5.686539999492497 3.095261845816805
Cu 3.276176628355021 6.2167667671397355 3.1411348931039025
Cu 7.921906948778973 4.521147854704549 2.9911351606605754
Cu 4.376176650793358 4.068997919909916 4.139837742837991
Cu 5.342398206331722 7.4186348820395285 1.5257713212150552
Cu 9.046964148575954 3.6454586955580837 2.8822685203192817
Cu 3.751744771860947 1.7648653702178216 3.2036356338076293
Cu 5.977899743188349 0.5775055806339928 3.5248937143768386
Cu 0.902807230755079 5.829679317414277 3.9831708568263187
Cu 1.277991318216077 1.6242208197167425 3.826951540488948
Cu 4.821117173319452 6.112358774055452 5.302104734496488
Cu 7.612619007294617 6.904296124106904 2.3142775127502886
Cu 2.155777793703582 3.7939345857117632 3.490702249094955
Cu 4.954799500502824 8.011324404399002 3.89719831565601
Cu 5.404870037509632 2.2168999739107766 5.1132456610228045
Cu 7.060329943908848 6.874394164978407 4.8639925179746255
Cu 7.706484452631318 2.241264606491097 4.489505188782204
Cu 6.719968335500926 4.400821616612965 5.102730493524953
Cu 0.6478983819537688 3.68369258509953 5.434069599479114
Cu 4.0775514937289765 0.266402230229592 5.241410454524668
Cu 2.808726131613116 7.462138150490364 5.393042263377813
Cu 6.246962857437143 5.702313774300521 7.226760768196998
Cu 2.8651980053084865 2.432922018584648 5.55012772774877
Cu 2.6257994081589264 5.057010978919212 5.498587471217217
Cu 1.0914307200821625 5.990653869782757 6.916594519636736
Cu 4.607958168684892 4.014766451989623 6.547933406392678
Cu 5.276577975381736 8.044613890286461 6.462138288507917
Cu 6.713950941756616 2.899099840776481 7.103756583355483
Cu 6.521741849675427 0.4655369225279558 6.093339571436757
Cu 2.4468843269069382 3.869338423030184 7.623597029978567
Cu 4.471482854429402 1.7470119361365217 7.367470387509086
Cu 3.64676317009506 6.141889335151754 7.49884955121824
Cu 5.031613000506568 3.99933675197893 8.792755962898093
