47
Energy = -140.26131513 eV
Cu 4.96606147200018 2.9916204314003236 10.032826176968026
Cu 2.550467753481001 2.837163454450776 10.563307216086148
Cu 3.574606387550857 5.057340850238373 10.6589216417356
Cu 6.004436388073783 4.851633976784719 0.48548580842911543
Cu 6.443202120229051 2.3411547537608937 1.1070452695704296
Cu 4.2502936671539855 1.1083023518486588 0.688576997175616
Cu 4.249335965088951 5.741629397893864 2.051460171247371
Cu 2.0646216350509645 4.615449849897623 1.83930627511388
Cu 2.268439201317185 2.049181415876153 1.960301665571131
Cu 6.74656601259812 6.320195692690648 2.50511508203675
Cu 4.1781534809289 3.357459916678022 1.3770660854371568
Cu 8.05624996452463 4.169415897187021 1.6810159676817678
Cu 0.32631417972767857 5.611744220806351 3.331727310525854
Cu 5.952070354064206 4.0268516403565355 2.8310316564144102
Cu 4.759790026986883 7.9061655787855045 2.9204889788055173
Cu 8.310187646250025 6.9977308681875 4.247949535179522
Cu 5.088035139248635 1.537380291262349 3.189781476303182
Cu 7.532995301696457 2.2752199283544257 3.4382760800671184
Cu 1.1551663132671237 3.3183946377356386 3.7925801982302816
Cu 2.3335884885324996 7.108364971643099 2.753539962301821
Cu 2.623544930717762 1.1698596002783246 4.121607643076348
Cu 3.6650077999325044 3.4001282393129935 3.8290621616033147
Cu 7.062289382017731 8.702779492761598 2.972437291882566
Cu 4.980438735060905 5.621172149771596 4.442412527320222
Cu 6.090769018362591 7.737617372779033 4.9660349109762585
Cu 8.036785467584352 4.574578959446771 4.090218892347661
Cu 1.047865151104032 7.250077399840075 5.016273695855768
Cu 6.583175893673767 1.0491752413588622 5.30585465586394
Cu 3.5215679527541783 7.578928629661537 5.025994288054831
Cu 4.26108153336706 1.6534798781019584 5.795284372576784
Cu 2.4800993443627783 5.401494061955994 4.411753815133115
Cu 2.0019931901838985 2.6739989705660427 5.977247832423721
Cu 5.873997236979948 3.3861520633073092 5.166526112181564
Cu 0.5674165216569094 4.835152491324719 5.776716349872856
Cu 7.91211358488019 3.1092295467660542 6.190042281305092
Cu 7.084153596136474 5.662021072448692 5.956311696554133
Cu 4.904753890975154 6.505131486330454 6.787115884217069
Cu 3.7921827828376413 4.312850463025798 6.220567764978881
Cu 5.984517393287897 1.9494858994757627 7.538679551198099
Cu 2.353482892416782 6.325635252570738 6.918652566726345
Cu 1.6653675240597097 4.135081197475027 7.866365499291884
Cu 3.5688396801655653 2.5809501290698353 7.997764257410163
Cu 5.971931045389708 4.31650756892325 7.595311664462616
Cu 3.8936296941993644 5.1815201017854955 8.592464880405805
Cu 5.1701596964070395 3.2465855425746466 9.628874732287914
Cu 1.7209218446304078 6.023392865094477 9.309999582282922
Cu 2.716715353429303 3.739996832500885 10.032826176968026
