42
Energy = -123.34850392 eV
Cu 5.878027442364003 8.917426282731139 2.455462133642042
Cu 8.39908897057697 2.9316001231334177 7.344811485913778
Cu 5.99632296285272 4.642538464943051 6.8933736730503234
Cu 10.281666747948716 4.1102664579310675 6.103454581299731
Cu 6.826385877263461 5.679802178431464 4.858396214183445
Cu 2.598764175742968 7.190045382733198 4.293628513832588
Cu 2.4877908456752915 6.387489730719858 2.00498208047862
Cu 8.171047816123561 7.61968608590831 5.832607652694653
Cu 6.156232964632878 9.008658469423661 7.182996065992482
Cu 2.0947881559322377 3.6919966189245477 6.056068000028288
Cu 8.889374643890775 6.617038882298797 9.438805886639136
Cu 4.2011596236912245 8.97644498615919 4.906360636564158
Cu 7.6788953343004644 7.3930130894651995 3.3228209309070333
Cu 5.262376295542191 7.041295909331022 6.148576764101441
Cu 5.154330886760393 4.8282096361598335 9.174662063534123
Cu 4.164536364634956 4.766175635846456 2.6886510194134896
Cu 3.479435125233173 8.54428660499557 2.4865318920311834
Cu 6.918310058505859 6.7406822172237 8.008914661733808
Cu 5.0983752908967865 7.0003639025631585 3.6846811490117095
Cu 7.594784903901336 4.489453256289247 9.13560217565129
Cu 3.089492111363831 7.768175919474563 6.754051850920759
Cu 6.069648448839009 2.6935159430039204 8.328916649908438
Cu 8.150827910219615 3.5755079193583614 4.876689868544048
Cu 8.55455351401362 8.645232600576795 7.953228412563699
Cu 6.539206095594172 2.0907698237214434 5.999271293885467
Cu 9.966109117551106 4.586792075039256 8.526459056385397
Cu 3.4492549696563097 2.907665932179635 4.208426315605181
Cu 4.317647985672635 2.9670711055508785 6.568653062831716
Cu 4.018958347465599 5.127350638393251 5.133822141323753
Cu 9.240564264772507 5.820925239904815 4.536631128698443
Cu 3.4832452166305172 5.344951105888745 7.511406510154611
Cu 6.564658790224772 8.982555841546446 4.780530603049416
Cu 4.685856958879741 7.31118743312996 8.654126296230869
Cu 1.5871506108660725 5.999007617312437 6.085324163849437
Cu 8.357858750337977 5.278166142920727 6.790006389113001
Cu 6.717750234292463 8.613079458755669 9.550651687398148
Cu 5.775062665409642 3.5382568903895946 4.203278268767975
Cu 6.564849677754471 6.346179059492398 10.426696820019876
Cu 6.585299838830102 5.241371096640996 2.5343846315072147
Cu 10.091830800997514 6.788571907877438 7.273574255009043
Cu 1.871367942893743 4.846076432125168 3.806368368540624
Cu 4.865170535816414 6.771648175962518 1.3395339804291657
