43
Energy = -127.40663172 eV
Cu 8.98994675954831 5.393499176506916 3.1502007772181564
Cu 9.166889433768816 7.667944332912876 2.405124332391275
Cu 9.126679033586038 3.9192378370858276 1.2953506982077805
Cu 7.686796659218974 5.976268106783176 1.2299659755126837
Cu 8.208803485540283 9.349985303509945 3.9469162360436894
Cu 8.483811152512022 7.1031892313572085 4.78793827230729
Cu 8.673790482205776 4.721597464892189 5.462046493665322
Cu 9.0313271209113 3.0167830861182443 3.61806096291013
Cu 7.828519657231014 8.842908008493808 6.36660844870096
Cu 6.503528426463074 5.55455715018144 4.205480517949197
Cu 6.994976547663253 3.9010793588215975 2.4244948458925144
Cu 6.789484819341337 7.651142649304542 2.857544197095419
Cu 5.358301618257202 5.742004179736614 2.022205117495995
Cu 5.844539614753653 9.264701578911192 4.512955350024907
Cu 8.170116669696267 6.468138561968368 7.189219403851581
Cu 6.036090933041099 7.272996526835158 5.933828300037281
Cu 8.878152038352525 2.367405281953484 6.009742495320518
Cu 6.347391718572038 4.816026528589252 6.558037321030301
Cu 8.403054890420888 4.056778280091035 7.7929453572371745
Cu 6.833637214453452 3.0139867313152466 4.786870913454943
Cu 6.516338858875101 7.87283843581182 8.349851972893926
Cu 5.596864522563021 9.677909405344952 6.868828553300702
Cu 7.092142484665353 2.9880218801050606 9.505266631047649
Cu 6.716705122649326 2.3388476253091453 7.156697243456319
Cu 4.4915018714177375 7.395385598216876 3.67268146620509
Cu 4.79926819207217 3.821691445290715 3.633895821007461
Cu 4.179192880954676 5.663776117439605 5.4881771852858545
Cu 3.795955923968993 8.360338899075208 5.8095422870570586
Cu 4.615484545138561 3.060796312144079 5.969009682818506
Cu 4.06285509284657 8.500372659348127 8.29644501219717
Cu 4.987568071356245 6.943295472147628 10.102940760628982
Cu 4.663640788447613 6.1386984337005 7.86799131186378
Cu 6.747891895603713 5.432758753503533 9.052131170782197
Cu 3.1475003676484534 5.497431652882729 2.990445836966689
Cu 5.057789811846653 3.6142733797917908 8.374522594987965
Cu 2.1497236707731227 6.798527521774936 4.747192060373075
Cu 2.5579018814217123 4.012665804323584 4.859530381686536
Cu 2.352735723778751 6.9524298322425535 7.2047371807953375
Cu 2.9410777932278798 4.279722062918325 7.324420883700436
Cu 2.587512601507004 7.149543788994398 9.624550886502288
Cu 3.49956928663063 4.937357965490869 9.687423647471677
Cu 0.9556064106594756 5.229002255442949 6.246240332122351
Cu 1.229899871092145 5.334651268016813 8.712507025184529
