44
Energy = -130.28979364 eV
Cu 6.575698040955819 6.542845682340364 1.1645079322093894
Cu 4.792943772225231 5.063311152825211 0.4798901274134125
Cu 7.812393808023885 6.13847446555647 3.185018316603764
Cu 6.888953208157844 4.176461200829231 1.762363278590984
Cu 4.219022743529138 7.167511515448865 1.5397874536145304
Cu 7.74558443020148 7.965598579318244 4.900442730952211
Cu 5.998114960519082 7.809778724617506 3.1541860295018247
Cu 9.436091312951074 7.667022669933111 6.564160441625574
Cu 8.7200448941579 5.659086913934207 5.490497066962615
Cu 9.194465233485857 5.1947391764831545 7.931259124186356
Cu 7.6063715705774815 3.9349943565034744 4.116804549277089
Cu 4.633922558643632 3.1363936768374905 1.8546744429393278
Cu 5.057672258418348 5.363653404267593 3.056192808859322
Cu 7.305375773185572 8.928954956292207 7.128931566980416
Cu 3.694090747623549 7.444419811749287 3.8783157869427476
Cu 7.365289461527421 3.9384983539704286 6.545535183228884
Cu 9.081560942902874 7.715253145334249 8.860571853161222
Cu 6.380891057377608 2.1268938559639743 3.13206804031998
Cu 6.244238222086656 6.01440016994702 5.2108249531257345
Cu 2.7805357494589136 5.146519944472039 1.9434859246955156
Cu 5.374724344883884 8.445749502609448 5.433122218917878
Cu 6.797401414279928 8.169467571009545 9.418120510082757
Cu 1.4372975811566968 3.7141976907612473 5.558120838196816
Cu 1.6340951704118556 1.756153727717096 4.093507867022187
Cu 3.0737747360210603 3.9502135648823784 7.392563673764487
Cu 3.418498935580604 2.1137815372606275 5.828751884173203
Cu 0.8209052243302994 3.947819632174489 3.130487757827101
Cu 3.322772203176704 6.269623985531439 8.250889290919128
Cu 1.5492384669133497 5.857491635709869 6.678882570815527
Cu 5.51847042416758 6.077839679219863 9.513496863064669
Cu 5.280100290395779 5.10250462036559 7.337585012981687
Cu 6.93081804723441 4.1036483504991645 8.874951214421353
Cu 5.324290161210065 3.661415598770913 5.004667049544434
Cu 4.042080110951642 1.429797820407807 3.5055712820794733
Cu 3.142008361912455 3.720735897155845 3.8299416102170265
Cu 5.111356782821263 7.776159884499151 7.705241566643554
Cu 1.7514771091578405 5.955998082502525 4.196599174912642
Cu 5.299570122197562 2.7013099185736005 7.388374186529898
Cu 7.925488251475112 5.987097961715553 10.005816912374065
Cu 5.75457221612932 1.3523037204534727 5.362207800234492
Cu 3.7450621074832866 5.524020578443146 5.471462655689987
Cu 2.3444606213068675 2.5066622987701543 1.8728348250474172
Cu 3.077961096524483 7.728416641389198 6.225306464932626
Cu 7.303329046748465 6.5257919154328805 7.534992730896549
