42
Energy = -124.44442032 eV
Cu 5.553873517226347 5.079844174325806 0.4795619589810871
Cu 3.317427608695943 5.924233801278636 1.0296562156326252
Cu 2.1126276825342236 1.650641699734272 0.32558383067655855
Cu 3.8443877467998018 3.4536034270092584 0.8357549703943972
Cu 1.393760001500894 4.003904646863701 1.172281324531753
Cu 5.6634584961376655 7.031770633777938 1.971605495929255
Cu 6.2139552526843405 2.9221447110528294 1.5382944738775968
Cu 7.3467644584275735 5.008613707029518 2.0698810825840033
Cu 4.339111379329458 1.100250545774753 1.603133243401871
Cu 5.366325849882651 5.247399125655959 3.453887340363007
Cu 1.1586950046748445 6.058530781781709 2.6708969751463756
Cu 0.23694192846410422 1.789282942950504 1.9852448152409288
Cu 2.984266940511406 4.678029742380949 3.0342418209837096
Cu 2.044752217197649 0.02398686616665947 2.2607897513644897
Cu 3.4110757844513593 7.098630944032014 3.19429743433728
Cu 2.4493062683793134 2.31599635591469 2.558376180906356
Cu 4.681825643504264 2.8938962233843095 3.3726148546640466
Cu 0.5520716258132076 3.7170019639158887 3.5628040160184846
Cu 6.220414040419674 1.1269238923269467 3.2690447018927444
Cu 6.991098762316051 3.515712625786112 4.220724526472816
Cu 7.547769549147146 6.540672210853713 3.886391976816288
Cu 1.2236526606959648 1.229012449539122 4.361668498185682
Cu 5.398442680192262 7.636546161852181 4.518335632690421
Cu 3.743444987336289 0.7158231010796916 4.08128009660963
Cu 3.812967070234997 5.711315051121521 5.333809039103318
Cu 5.6299705701184095 1.4232093627784133 5.630681299509277
Cu 4.883246414261726 3.6218317747957824 5.6884661230577676
Cu 3.0730154619593897 7.9344485703462135 5.51472171832513
Cu 6.282411947368355 5.595795833577494 5.721637577544403
Cu 1.430746670209254 5.374450229401791 5.2260137765851296
Cu 8.585109042481722 5.3730193385818295 5.945068448357211
Cu 7.429792358324023 7.671364374527746 6.090506580049052
Cu 2.6555763590047277 3.1895871119629606 4.822515867335912
Cu 0.6874613213548142 3.0399663020335312 6.063699069820295
Cu 6.975623259744041 3.5518969578320436 6.89015517025997
Cu 3.0275746491660898 1.470447063931572 6.374472063405281
Cu 5.099259032531211 7.339096970184831 7.00700144122061
Cu 4.839544407782526 2.4908626038651307 7.787267632776589
Cu 2.780542544179328 6.336962653485621 7.400229959191826
Cu 4.886880632419105 4.998464053984432 7.7772626586526235
Cu 7.138155944190133 6.001473569103331 7.907353292816383
Cu 2.7708086312929567 3.8974918469641646 7.146923467233194
