47
Energy = -140.61205648 eV
Cu 1.6527096413239937 7.055746782186172 2.3702837509011148
Cu 3.244953527018078 5.890155135784949 0.693523301792116
Cu 3.2956460066706064 3.48574464988246 1.0787934646123702
Cu 5.513536877282152 6.980570669239069 0.7935932875114161
Cu 5.366418835588912 4.518315291648232 10.1638722461481
Cu 0.9773748481228305 4.660353144923554 1.7036710045233479
Cu 5.565836754759642 2.5186870508762733 1.5391231351144006
Cu 3.3738437205487553 8.41628916666713 0.9189711505585498
Cu 3.4562554826505902 1.2830511002573035 2.0697771323877547
Cu 5.360927824352877 9.021495500279176 2.4100357814448086
Cu 2.9126704596674933 4.972906370031739 3.009844876788241
Cu 6.516169699264734 6.937710247322271 3.159810151811575
Cu 2.0828597971764493 2.70289681660928 3.847641137355526
Cu 1.4855070334599554 0.29769692758926386 3.2400580959588283
Cu 5.245589115675735 4.922282144219285 2.22113435717725
Cu 3.593073218986765 9.151081666688421 3.022681116873553
Cu 1.2043230458559628 2.207163354483017 1.627265700231607
Cu 5.516241291873825 0.5480009361279266 3.1612294309188838
Cu 7.46465566375219 4.159492747154566 1.8590447635527587
Cu 4.067600262802064 7.10025104496368 2.7238501728850744
Cu 2.4279625445893047 9.08581003170996 5.245854102534753
Cu 2.995549014329263 9.08581003170996 3.365271526991176
Cu 10.034226638267697 3.1790180090336357 3.4848709558845132
Cu 4.806715584270059 5.664695749212669 4.47914571783781
Cu 1.2202687916952235 1.0421703461364564 5.567717279524347
Cu 4.51776607728821 3.0651784661063446 3.845697068926336
Cu 3.5104153741197455 0.8205276007838426 4.535106428188713
Cu 7.01449736828389 4.783840771419834 4.195625255730146
Cu 6.970838435588584 2.3850042352678487 3.595602121878592
Cu 5.0056395338316735 9.2403675145261 5.080984845743155
Cu 4.888394259094488 8.07265676715231 4.860546066647851
Cu 9.026869150355354 3.56555155817011 3.7624432356163537
Cu 0.7548070538957408 5.369515181999882 4.168451089710798
Cu 2.861630224655933 4.574924922589966 5.370744409451738
Cu 2.566039858775003 7.010173899507154 4.751631750098445
Cu 5.637489946819108 1.4935190336314252 5.60208258710442
Cu 6.404965434561774 6.194331154683237 6.17829384135588
Cu 5.267037638977969 3.941665824759458 6.110464755081813
Cu 3.101050657852978 2.408562453626943 6.30571141025051
Cu 0.7525953325328874 3.4951193964001654 5.843808533838495
Cu 3.9006264622725944 0.2231537662411819 6.934933304438699
Cu 4.006556141065182 6.381367086080753 6.737452257883114
Cu 7.54721480492982 3.133912155440413 5.859251630224168
Cu 1.418601309781122 5.844943153148014 6.710014681336496
Cu 3.1899509863540163 4.33116289481984 7.794619231445428
Cu 4.902981767467741 2.391246653757956 7.913161908319627
Cu 5.520882150130902 4.969173101373208 8.234075594029214
