42
Energy = -120.23345351 eV
Cu 10.191338067385916 11.025457774125329 10.308132683377258
Cu 8.214585111858494 7.6628596794242405 15.32131740177653
Cu 13.050375907967528 12.183380613640267 5.6621680191964225
Cu 12.245047152845792 10.525972464056194 8.830460588044318
Cu 9.821485226941427 9.416969635811407 5.856191714792585
Cu 11.37403245773682 10.765219600728535 4.481142892799842
Cu 9.091201422795443 11.624577502470094 5.013451997250446
Cu 9.361390395008794 13.37752884254403 6.8058549619733215
Cu 9.208103975295677 11.994701631541403 13.32791456853906
Cu 10.908478986790918 13.14585843465653 4.823680465786382
Cu 9.977660490891227 13.240161922830168 11.276399806530867
Cu 8.538662190605244 9.941859745035693 14.473759994761494
Cu 8.046947872097313 10.151121140440091 9.49245737540672
Cu 6.583425250984407 8.771733122105593 13.757485598435789
Cu 9.876174565267837 6.118897740530619 14.502897119123782
Cu 12.350007433604803 9.419463344783797 15.98886998468494
Cu 6.834968397709421 11.360948400163045 13.351543840771264
Cu 12.407586968663544 12.31982386082889 10.512704835965664
Cu 12.075098121616538 9.263405228780508 6.716716355327492
Cu 12.471362344343458 9.632187967661576 13.598978068591851
Cu 10.12167630237412 9.4474052628169 8.296701501991866
Cu 13.58261533498738 9.88537255285736 4.880601370761929
Cu 9.66389265145896 8.588412366230347 10.597495546857335
Cu 10.539807089074886 8.42489817355924 14.768668948795995
Cu 7.795720285779318 9.636586683646804 11.871764686352114
Cu 7.008517691377764 6.385432377822087 13.678364426088141
Cu 10.881446169817831 13.103368083517989 8.859340126896491
Cu 8.518471068527912 11.011182505429645 7.266196752601742
Cu 10.250138466571036 9.76217561158232 12.63790455343453
Cu 8.558589885943851 12.61266267729267 9.072301571197194
Cu 11.559830911899846 11.815749681060117 12.658508820890383
Cu 10.787373149953723 10.884078398762773 14.863388952517424
Cu 13.21344331128154 12.636471093506982 8.152937660041022
Cu 12.19239155893882 9.845523858118764 11.177128759742661
Cu 7.804464640045661 11.935751352547165 11.197186479355096
Cu 10.946288419775707 11.547812248125172 6.881679771621329
Cu 11.77942103766754 14.04996890336919 6.817113092405874
Cu 14.057697821423055 10.55193395887184 7.192970018634247
Cu 7.940112092681373 5.201298286424683 15.492333840072217
Cu 8.903641508828867 7.746922335838414 12.927210365021255
Cu 7.8551849313350814 13.796889220226898 12.646184567316812
Cu 11.640685365762288 8.376675500866309 4.524391065547424
