40
Energy = -117.30847863 eV
Cu 3.114642675597774 4.775751450659439 9.536161766128108
Cu 5.10281806975805 6.000358978685984 9.03196467231634
Cu 3.0907959387309707 7.245484726028473 0.24277376312154073
Cu 1.164536337017621 3.3622194045478433 1.1240630551243995
Cu 3.499725092457381 1.9968846897558887 0.9092728032187836
Cu 1.5864572843013645 5.940110321201635 1.7721988432568718
Cu 5.398477561688658 3.8403911277728695 1.1120596537671674
Cu 4.574411630840912 6.2440765339836695 1.7914366578629795
Cu 5.980543220748618 1.2608571775028816 1.523831337703471
Cu 5.181489469663315 7.010591798920622 4.132042878326823
Cu 3.0918064290146656 4.021452667244238 2.1812586340727282
Cu 2.897062294193322 7.913390334861414 2.7058149155968527
Cu 2.056213012986585 1.8643663702069342 3.05041358140972
Cu 7.034611085397512 5.4851758798278984 2.462824677290854
Cu 4.070590702978044 0.07560306848748731 2.8435878637464924
Cu 0.9700045315069528 4.235273850271764 3.5777383725711376
Cu 4.593579250281394 2.2968657852727934 3.0431224953113416
Cu 6.112577311211356 0.8929509681963667 4.266407951062872
Cu 6.988100586151428 3.004004972808019 3.10304299708315
Cu 5.0995844151596135 4.632991199811496 3.4456940163918004
Cu 2.9791043716405867 5.8485783557106075 3.7867571547832717
Cu 6.861973825985259 5.196522475138477 5.1430040039037666
Cu 0.9212508317681022 6.8060729105586875 4.17427182610036
Cu 3.086927128626687 3.4971766427167057 4.512418739056338
Cu 5.458307255898959 3.00900959215008 5.232962920695657
Cu 7.747584502345585 2.845242244949225 5.544441800600621
Cu 3.649215483134515 1.1591730009221253 5.174952462802341
Cu 8.779827098159744 4.377879027172743 3.889862762411752
Cu 4.40509428038611 5.244120283219993 5.67734590384977
Cu 5.578975645773439 6.814978283248255 6.821994767735951
Cu 3.1328523223037013 7.294949762056802 5.723919717121891
Cu 1.4103248931972687 2.4937823225621614 5.862093315509075
Cu 1.8284484872169928 5.075116647250795 5.968785141509009
Cu 5.317955568864984 1.6666037439772634 7.190158205572089
Cu 5.8907308140199115 4.234449078384632 7.351785189917786
Cu 3.5707414058939664 3.2908827733868256 6.7938831752273305
Cu 2.8060836554781945 1.3249113996296458 7.720722101219961
Cu 3.5984664676816656 5.471512747256305 7.927007656250597
Cu 1.7270707170279793 3.663389304074661 8.15995424268366
Cu 4.103581927927031 3.049391682602124 9.03196467231634
