41
Energy = -120.01674387 eV
Cu 10.09868290137505 5.25864270838635 4.7546370536481195
Cu 7.670970137349154 5.044284814091998 4.308825488910914
Cu 6.493010962905809 6.970788093299249 5.2229279805295725
Cu 8.76605527173474 7.4406807030168 4.415571730669501
Cu 6.878786574238693 9.316552510935773 4.9226671082703355
Cu 10.694200832118446 7.190326410797315 6.108121283040579
Cu 5.4107751536800555 4.831393437548491 5.347452959037614
Cu 9.010807382333043 3.036864045672693 4.737666689992729
Cu 4.3901159901522515 6.901889852453357 6.524618716824638
Cu 9.76241009469681 3.9817274274808647 6.851219805731825
Cu 7.375951626307631 3.7646509361894194 6.4048716199185645
Cu 6.2702949947668705 5.667255795622868 7.447613770185682
Cu 8.54536033900838 6.105976840862032 6.46076109758588
Cu 7.360812494569803 10.93031537423481 6.721728877205729
Cu 8.70233061063703 8.804513464105591 6.444937899210363
Cu 11.223728581449919 9.4522884655738 6.622979971144608
Cu 4.99439789934641 10.425373010420437 6.345049952228498
Cu 5.800490656324006 12.624258282753559 7.42323297842445
Cu 10.412751248025263 5.913202127090901 8.18986535343968
Cu 9.67534394827775 10.894571414635209 7.779576565691448
Cu 6.207642861785193 8.439581985368617 7.186934005310073
Cu 11.760034279553732 9.946464374459314 8.973423135448039
Cu 8.20391565058369 4.7381850651181505 8.67686946011097
Cu 7.698291176231297 12.046201399369759 8.983541222533328
Cu 7.852597860892605 9.575618891079683 8.716168059706579
Cu 12.205363027575874 7.638108793545323 8.120013057489658
Cu 4.754618048109114 6.667328307496067 8.957530721899737
Cu 5.642593775719408 10.636505456677243 8.698661788402545
Cu 4.032787524918227 8.855413719805078 8.131591159753373
Cu 7.899304192462481 7.155167260244032 8.526084272760809
Cu 9.984146037999942 8.393613240714213 8.495362145828405
Cu 11.025054756043858 8.065418609627091 10.566977052866061
Cu 4.66494124383717 7.042890071523715 11.327160445769461
Cu 6.820303048053441 6.221774339771389 10.45865209323096
Cu 9.697281669112222 10.386363967982486 10.226593349155841
Cu 8.703587689627554 12.357409913680657 11.146337224727748
Cu 5.922264835493918 8.562706750527756 9.908875035440168
Cu 7.235424099845338 10.43746919537414 10.924456854795661
Cu 8.51833822155569 8.282683757977736 10.75134096602503
Cu 9.394175041183397 6.119053349137562 10.36832964477277
Cu 6.602594956917255 8.2390235321475 12.18330909908099
