4
Energy = -7.33449452
Cu 8.009335999999985 8.6913429999999 8.17364299999991
Cu 8.009335999999987 7.325181999999956 7.849367000000112
Cu 9.716068999999843 8.182287999999785 8.007519999999896
Cu 6.3028150000001855 7.838743000000015 8.00702700000011
