47
Energy = -139.83712367 eV
Cu 5.482875862070669 8.818743389121543 7.171173542583455
Cu 6.551140004222857 4.653189030603259 6.772771555704191
Cu 5.4786609707280745 5.463576520671123 9.912956411645037
Cu 5.265155260480041 7.79327211191537 3.1370397237422294
Cu 4.548775917346387 3.938574943169701 2.759346550372167
Cu 6.55930067049728 9.63465403013526 9.147357267311225
Cu 8.565951854611974 4.5467485980248785 3.200352848813291
Cu 9.694085142474735 6.326303588217347 7.328902092444663
Cu 6.352635792923847 9.056736625502234 4.908887696681073
Cu 7.649959498014487 2.840008077838392 5.350494311862951
Cu 7.704164882164148 7.4512840666119855 6.368157702043956
Cu 5.597278870101397 6.690833260679016 5.4003022281877655
Cu 2.1426732199900607 4.434597469725796 7.316367720285476
Cu 4.315252832137208 6.098484226871602 1.57771611490755
Cu 0.9778324103984409 2.8972341679932825 5.842287670806442
Cu 6.362647164068715 4.693101518069913 4.295344883804809
Cu 3.155238303401154 6.146364480523501 8.836674050315315
Cu 5.152849038080651 2.417052799976316 4.646694760824628
Cu 4.411555194165999 4.050919367050422 8.209696769464415
Cu 7.700331183113636 5.825887575392898 8.679292374829407
Cu 7.3155342778531 9.112450306264762 2.657400704299227
Cu 6.501134674126802 7.373565235483751 1.171417204148457
Cu 3.3251366690088324 2.3845699858911846 6.468811068819703
Cu 2.7771863918959663 3.0119416304635 4.1723883319722255
Cu 3.927164130489947 8.448438332315517 5.230322843186391
Cu 4.287859911317744 4.475708491653416 5.725242470881191
Cu 7.62121056386561 6.892889842984767 3.6728659644083623
Cu 4.683328761071134 8.033559907939608 9.495841206025526
Cu 1.713296240309621 5.0271639471354685 4.94760105105958
Cu 5.699262153359918 2.3097709800320785 7.011857321355712
Cu 9.9026316034312 8.701273746310157 6.709454221322954
Cu 9.884831857366011 7.060584637517717 4.886114132424154
Cu 3.661744585359354 6.159106241287963 3.9576616957821997
Cu 8.847392268564 3.934647544490314 7.48646907129887
Cu 6.865263702250778 7.452400760325635 10.242303883693213
Cu 7.9552460212566105 1.722964027947114 7.549195865606884
Cu 3.0747912580096783 6.510413475056054 6.407642320974795
Cu 6.813088891274913 2.8106159958856938 2.8824080610313287
Cu 8.494244050781658 8.195603639270505 8.617609101669713
Cu 5.3346919111047 6.448747843937089 7.772771077224808
Cu 7.724824358977344 9.874626188906232 6.908320929149149
Cu 6.779806682061381 3.4890437177582005 8.915499690492231
Cu 6.550009665262326 5.137860429711644 1.9299228785054923
Cu 3.1020414679489217 8.467555828333486 7.725352931952533
Cu 8.52091048817459 5.225871459726731 5.462926845861588
Cu 8.71427982190557 9.193379322676538 4.668860371024367
Cu 2.302178582182245 4.815135692804198 2.5093775394024855
