43
Energy = -126.88736166 eV
Cu 3.812817566087879 6.2779248332102995 2.1570239403716163
Cu 6.29058415604452 2.291890513971272 1.652307669098177
Cu 8.610062015917803 1.8099134775247436 2.47659350645746
Cu 7.986854240721603 4.013921030881542 1.8000023314500102
Cu 4.4600843692103185 8.712558901540554 2.6756404652938577
Cu 3.3790381494487916 3.9725278428476978 3.2454364500337727
Cu 5.66650464503995 4.703224015137586 2.6822337151956805
Cu 6.000883915280774 7.059403782695904 3.401776483680491
Cu 1.65272682469497 5.579186368696149 3.5964993596014536
Cu 6.673328661781465 0.5595041772901587 3.3707462627134537
Cu 6.088672572301518 9.319920728053223 4.454662930201713
Cu 4.710181835998977 1.963052167879463 3.4895664178348986
Cu 3.848877607173399 8.563653087636435 5.100907549643175
Cu 2.3597814031979145 7.80823001090549 3.3835926292933545
Cu 6.931599075121104 3.013869350173625 3.8919012319453654
Cu 4.042542691550357 5.9788864598640785 4.563700861180915
Cu 8.033292823168525 5.685991273632561 3.4588274667171754
Cu 9.24540121974759 3.689593013964747 4.140549331485837
Cu 8.466173618020377 1.350131093960827 4.892665903464833
Cu 2.341872907252873 4.458446759107045 5.663469447178463
Cu 7.993252733229788 7.673261303863522 4.854146435203598
Cu 6.061702382789908 1.50528491777748 5.6429257211747075
Cu 2.0387347527613136 6.892314585964129 5.700383899033644
Cu 8.747841511669034 5.52772719375656 5.838163604662274
Cu 6.371731082403591 5.142963253967523 5.157431884879172
Cu 7.797948242555187 3.3012545161383025 6.200664810778629
Cu 4.530840041774059 3.428258429609853 5.383865984455638
Cu 7.605617448648067 9.560926127432777 6.3346356881434795
Cu 5.864461250123103 7.394462424189422 6.062224254261656
Cu 4.5713501313277805 5.442772023186389 6.936364962120176
Cu 5.198625811936147 9.575244863140894 6.946107651396829
Cu 3.3443271496783953 3.4480401720599736 7.725231566646988
Cu 3.5930162267347803 7.751924852343613 7.406462920336794
Cu 5.7437462566368245 3.1203206228960605 7.468311961911622
Cu 2.2520818207185536 5.660952162003384 7.848261336809163
Cu 8.039804359323043 7.39681841368298 7.363708618589939
Cu 7.011067731647895 5.203577803279429 7.642134472045527
Cu 5.811377955734646 7.04830782219653 8.628174068198888
Cu 5.0218739530884715 4.714603915787926 9.206690741975144
Cu 6.894029194013557 9.206828659519031 8.64159340514711
Cu 4.518581732969938 8.990883237433307 9.293842518750512
Cu 3.5934129044616214 6.695795545091793 9.632170304584742
Cu 2.6994578236786633 4.411811061371144 9.894562031717697
