52
Energy = -156.19616559 eV
Cu 10.516352128826465 8.13157029280823 6.25734520713861
Cu 7.4562483272532445 1.9767883438107041 8.687446445310588
Cu 9.401703968795504 8.31198548144639 8.577043819867116
Cu 8.589396171911533 3.9679452403540942 7.928524454476033
Cu 8.059254176973091 6.271327789393083 9.221302173329828
Cu 9.554819106144388 6.113431983878494 7.21904306571304
Cu 7.815759387365258 2.1751923270687996 6.235563782324153
Cu 5.082346438730334 2.149618869170242 9.213543156058805
Cu 6.562306754876103 4.261669253431956 9.344787957866917
Cu 5.481850516264853 6.412672395061489 8.935379348176163
Cu 9.596701538937337 10.223146732480284 6.91164170922627
Cu 8.698391790395686 4.361471987515994 5.483125509039481
Cu 6.898540232936488 8.425882327301046 8.963134888568371
Cu 7.497776405248792 2.649832158943028 3.747732514744213
Cu 9.15061262325185 6.722360272838865 4.822439358294074
Cu 8.000782121216645 8.00413163091409 6.625945728378848
Cu 8.826679986652339 9.279471623910238 4.7463635641643815
Cu 5.888574526611469 3.265486333441683 7.22615706448624
Cu 5.878281354295495 0.6958411921952208 7.351745215035668
Cu 8.163157109669095 10.469965440100717 8.80379994625448
Cu 7.097004659913396 5.66898459126302 7.081022218789495
Cu 4.112095838513002 4.309953007307884 8.620300914320545
Cu 6.4754477855320935 6.63921661861108 4.897728839888384
Cu 7.777718684446123 7.721561364045967 3.0518610606071266
Cu 5.101699370895269 2.0363128166997697 2.893101861181403
Cu 5.665570264286804 1.62580303926134 5.185353390511028
Cu 7.211733587254582 10.382112317449025 6.5269975711045465
Cu 6.238103543962537 4.1708498566218735 5.005428297334124
Cu 3.7655823864128055 2.084943359527234 7.06419757407159
Cu 7.980848005942261 5.208515277125968 3.2962022295441513
Cu 6.752513649933863 6.210510637623245 1.387484681765005
Cu 4.747583988981223 5.47860764841439 6.5282210868867985
Cu 4.336765543132742 5.526016426796974 4.106332093392151
Cu 5.934227357468175 4.214689332449572 2.5400227012111687
Cu 5.29512766450365 7.48876992730103 2.8608530937342214
Cu 3.160826972176348 6.544275058368862 8.054188749617568
Cu 5.549227853956121 7.893584443545861 6.874921956820823
Cu 6.349294817681019 9.073722872287476 4.66370379626939
Cu 4.346130709662467 8.620553570336684 8.912369499324054
Cu 3.8517087056870483 3.187911970417199 4.881236431714937
Cu 3.342375335142213 3.728354089584819 2.5473868896407805
Cu 5.751179903809778 10.580849494533117 8.490021905471949
Cu 4.78617809112765 3.3042475589569875 0.6826301988751249
Cu 4.749394892898593 10.16901076433757 6.28591040328529
Cu 1.9788861398407112 4.669876409063194 4.298681189609681
Cu 2.584848081828907 4.305601806614379 6.6863006555656765
Cu 4.305490674000611 5.689012202772801 1.5107212049660395
Cu 2.718416026046842 6.897951471593607 3.1773962731768566
Cu 2.4320823010959614 6.601829326162781 5.718727179233895
Cu 4.087195966351329 8.139846286264174 4.856450748329554
Cu 2.8820498044859524 8.701078499100415 6.925424893351986
Cu 3.344960728641985 10.729289406881463 8.244661972950418
