5
Energy = -8.85232766 eV
Cu 6.900933755342036 6.900933755342036 6.900933755342036
Cu 6.900933755342036 8.05891604043498 8.942396
Cu 5.7429514702490945 6.900933755342036 4.859471510684072
Cu 8.05891604043498 6.900933755342036 4.859471510684072
Cu 6.900933755342036 5.7429514702490945 8.942396
