53
Energy = -159.64242081 eV
Cu 10.595769235764232 5.391469736815245 3.6658312698455227
Cu 10.972875054837107 7.577023943476266 4.500144802602431
Cu 10.648982526936596 5.6654877922278395 6.087088554265995
Cu 9.835491388227581 3.265063522576897 4.478990115353774
Cu 9.114192375723785 5.997154887273406 8.031834456802402
Cu 9.788009315936076 7.972759235017281 6.674499759178995
Cu 9.086235060618119 7.1663286423990264 2.66470658866892
Cu 8.527173213403104 4.410768064925529 6.078309930602479
Cu 8.662437064619661 6.669810596179661 4.956522040634051
Cu 8.327627727440856 4.7901766062287034 3.185264862524161
Cu 9.184319021639975 9.123520522321304 4.387819565088956
Cu 7.535339386397135 2.2166689837595666 6.773669097539112
Cu 5.6979976222523865 1.5296544939720114 3.077631280683603
Cu 7.2544665514757165 4.271184865939794 8.29556439205907
Cu 7.41247595127424 2.8010784111159395 4.298158284661567
Cu 7.04886359377278 6.296567313250345 6.819617671352445
Cu 7.956296561403879 8.188523749414124 8.351526989570932
Cu 7.172975525611257 6.27465918558799 9.694756598370471
Cu 6.399475968329505 3.7808039926176527 2.0694018828586365
Cu 5.4565974165006885 1.7024726223003828 5.566226477001405
Cu 7.486424049553442 8.855559180300393 6.048139236783357
Cu 7.049670760182549 8.162183719371622 3.7368605843136784
Cu 5.313761313420007 2.747943084676576 7.97316225618908
Cu 6.728277153983153 6.304573754146726 2.0785619697049764
Cu 6.123797806876366 4.029967458820034 6.074712799805349
Cu 6.312979924671384 5.795769655674817 4.405316425411669
Cu 6.294108905185688 8.83308270357319 10.046144731738197
Cu 5.179233861811236 4.722566445648295 9.586181379531407
Cu 3.367813542033227 1.8327811666949483 4.141178862923999
Cu 4.061648310424778 2.902633280580215 1.8727259033367234
Cu 5.444862846485523 7.323321761156443 8.324939652922122
Cu 4.954797267026525 3.657949655955658 4.013619311771614
Cu 6.008574997028207 9.691798237924733 7.7666188964078495
Cu 4.911148964251597 6.956761956747461 10.657897638696094
Cu 4.5238907372921116 5.384003044257752 7.238419141689915
Cu 3.650214954749583 3.306023519086875 6.153019234527258
Cu 4.769327758744173 7.54098305487869 3.2893190415612734
Cu 5.24442569219191 7.642715424031947 5.856467182486456
Cu 5.460496098337657 9.75871003199927 4.8332228695204735
Cu 3.1201729140048604 3.7922088714120044 8.520590447674385
Cu 4.4161952934111826 5.364549390406063 2.326970689594079
Cu 1.4576975527750973 2.9550483791150546 5.3626799717763705
Cu 2.5503749186045273 4.074729278057528 3.407397048350364
Cu 3.16052516520038 6.171205806760965 9.147189349969718
Cu 3.7694379146728973 5.7665819070667785 4.927699811613822
Cu 3.9089704401988077 8.8697187562426 9.135637501841291
Cu 3.0725236815895274 7.45815137762215 7.103233131997256
Cu 3.8578721342814255 9.705451181166218 6.764698295040524
Cu 2.006389313204199 5.174091243088511 6.788730960370734
Cu 3.182933519101006 8.569830791872919 4.729883145609834
Cu 2.353959247880905 6.653942807217958 3.221795002789824
Cu 0.8334477186937678 5.158803300055378 4.6069631036774705
Cu 1.3372551030700268 7.26578576782065 5.485017931804246
