52
Energy = -156.4263093 eV
Cu 9.266737955533365 7.813048367305117 6.856539775804474
Cu 8.144682932045717 9.281965294072938 8.506310399846782
Cu 9.654885707055229 5.39478893967676 6.596579131214296
Cu 8.504241224317473 6.888360312745797 9.02314525388613
Cu 8.310845439518847 10.085684973725455 6.136025310062171
Cu 9.324220856061151 8.401802353967103 4.546880213023053
Cu 8.680434397361093 4.50293117510407 9.214520858620858
Cu 6.0965795856720915 9.902126973666004 7.319048491022902
Cu 6.8559287973534175 7.548603689771782 7.363565109108755
Cu 7.704517983601259 6.405489246617081 5.217939433685435
Cu 6.200849784492032 8.07090442039593 9.619672635296673
Cu 7.780086472095114 9.98252475742153 3.4187727434870623
Cu 9.647585887908143 5.947617266525108 4.064226185920424
Cu 6.088955264315186 10.844804507278033 5.019528101230949
Cu 8.708637966439218 3.0710423894072343 7.243758218502847
Cu 7.884879724407624 7.543971732311962 2.8358892749270628
Cu 6.408170003172306 5.59476175073233 9.6014683239684
Cu 6.789558976199134 8.587210247595232 5.051529161019917
Cu 4.469599876015976 8.142515644407359 7.911746115888777
Cu 6.5871367875260445 3.25943931722947 8.556096910142886
Cu 5.719486144348956 6.639546059638838 3.490690248298808
Cu 8.324379964710173 3.9327098153036015 5.001243106876237
Cu 7.3819454034309535 5.158353601191787 7.306382482959296
Cu 5.230492272100638 9.026100479145533 3.304079868984651
Cu 7.502900492309492 5.059954245120051 2.954285568838153
Cu 5.151538706711005 6.928318975352334 5.752285051752477
Cu 5.926012416013344 4.582396092185557 5.293092963620959
Cu 6.393135875609434 6.445993135938969 1.198812660867114
Cu 4.928399017316311 5.531831486844489 7.630004889475755
Cu 4.980337571132084 1.4677517750984503 8.583692228120773
Cu 6.6092104256410895 2.323043358592856 6.096338372557929
Cu 4.037118447821237 6.428093632486782 9.620072843415091
Cu 4.309390401473507 9.187131737277268 5.6676997973312915
Cu 6.502320557296161 2.866082256556714 3.539080215325639
Cu 5.781798219069601 4.075730803170828 1.3252312880759924
Cu 4.521958563683208 3.211542315850337 7.025017880060762
Cu 4.319711836746545 3.9023083013654136 9.409723040997871
Cu 3.9355773513465055 6.45783835999448 1.8517419297788138
Cu 2.7960699248267855 6.96712186928228 6.61395264766767
Cu 4.514316640031234 4.482991453964187 3.2632935783873354
Cu 3.3882450760970086 7.399354638190961 4.1306989763804065
Cu 3.521420932948893 4.958327931344449 5.404176639485359
Cu 2.680802916045784 2.3512198008346528 8.362395012610241
Cu 2.539238654668192 4.785074648342622 7.783660598287375
Cu 4.427914837711182 2.394210852186809 4.7209334275700385
Cu 3.709719874020441 0.9696444850000765 6.538875343332172
Cu 3.114314338535753 4.155489998316908 1.3513859702646485
Cu 4.41314259432745 2.2426666512809574 2.276553321861948
Cu 2.162574809073303 5.491378339194621 3.2783795828431788
Cu 2.2046969623239767 2.9225711960294323 6.004836364909091
Cu 1.2216476145392252 5.2040650044825325 5.618588231973324
Cu 2.3825815327202453 3.129264443200516 3.5698494625079853
