7
Energy = -15.98445801
Cu 6.937428500000067 6.523558499999987 8.149965499999999
Cu 8.012487499999942 6.837790500000014 8.725851499999932
Cu 7.655750499999905 9.160347499999945 7.313469499999984
Cu 8.064738500000002 7.6293765000000215 7.295395500000095
Cu 8.97336349999989 8.148961499999887 8.221848500000025
Cu 7.426054500000012 7.8616684999999915 8.195101499999998
Cu 6.721255500000132 7.629376500000021 6.743553499999998
