8
Energy = -17.31949396 eV
Cu 6.1515334372887445 7.676379605401948 6.285936755503596
Cu 8.459474196884193 8.458378398672252 6.230558982331857
Cu 9.837086783621134 7.044034264975552 4.92903266254033
Cu 8.07104011482378 6.096473218486865 6.195216690592193
Cu 7.590236668041444 7.356571837771193 8.226873023661264
Cu 6.085859453071696 5.552763700119077 7.41162015689817
Cu 5.18939892702566 7.530487789912432 8.498149250162786
Cu 6.669666344700169 8.235751355702 10.18973706682184
