8
Energy = -17.84375119 eV
Cu 8.468334547013097 5.6201386646798275 5.68445090804728
Cu 4.666080932013672 4.530029922160674 6.947449259011928
Cu 6.122640358966235 5.581049631444372 5.3042919656921566
Cu 5.149253857105402 6.899102869401944 3.63117179679905
Cu 7.510807718600053 7.161461620441034 4.184959595832331
Cu 3.74318209409122 6.038211746634247 5.376000217444724
Cu 2.472736021387348 5.368624784635723 7.271654353441716
Cu 6.99952939538946 3.9982053647181095 6.7944891138814105
