15
Energy = -93.15085261 eV
Fe 9.322490251002307 4.1080580554055315 4.324804659831625
Fe 6.732212961618405 5.39080980778657 7.591403439550785
Fe 7.551932534023527 8.777232656229177 9.460916258621081
Fe 8.486023305173243 6.083658317300607 5.398712204823653
Fe 5.7334271745770815 7.122095957647518 9.16370102882027
Fe 8.261675267090594 7.164700276163657 7.514474178603304
Fe 9.774236385693527 10.01767709629816 8.942812880919485
Fe 6.276439694235784 6.734731367932993 5.542492466408292
Fe 9.84927988433325 7.755431264647808 9.233924953174187
Fe 7.85006821438306 6.388434904871173 9.690143931580678
Fe 10.035239709889481 8.735359172750549 7.004401474254531
Fe 7.899421291233972 8.469209611516773 5.507994830563341
Fe 4.672706895783901 6.356700540297918 7.223163789450027
Fe 8.007342071740384 9.99278145049759 7.371771910957251
Fe 6.082938202406815 8.551743914644746 7.271727698977334
