19
Energy = -124.66667281 eV
Fe 5.609320483523459 4.83734676361262 7.544713082615701
Fe 4.518018089741105 5.5588868029631096 5.201249597929728
Fe 7.641550050666493 4.928313408604071 8.913324357494062
Fe 4.4152081876432705 8.284239225903885 8.131298459193715
Fe 8.433444080023405 4.331622632127441 4.894451014438328
Fe 6.866658189275076 8.865221955647698 7.4552746915334325
Fe 5.668029521454844 7.046275161543989 6.561116973171777
Fe 6.273610443738498 6.994547950680529 8.801783226206597
Fe 6.629976921306732 5.954270160477112 4.426973919790493
Fe 6.174485561927938 3.755428250595569 5.585903280843444
Fe 3.4908761390540635 7.664742455155631 5.870123266019993
Fe 9.548497413292685 4.812576975474056 7.303156643551065
Fe 7.706093263168489 3.2604005181323634 7.284304800298092
Fe 4.76772039895427 9.555019651266429 6.2335070107659645
Fe 5.313989588489147 7.960010426435402 4.327695942264156
Fe 7.621335420537238 5.60879616511187 6.509513119510403
Fe 7.78733196671435 7.734155247779533 5.534263682650384
Fe 8.584162570846257 6.944386153503845 8.05202585089143
Fe 6.710148086915203 9.664216472257644 5.129777458104033
