17
Energy = -112.55873657 eV
Fe 5.875594502685702 7.602918159885162 10.071261672049534
Fe 7.928427730164279 6.380671261238769 9.550608827327917
Fe 8.248152333180593 10.144025651736785 7.8560952056926645
Fe 5.837952741288113 9.374966236504344 8.097112872915607
Fe 9.511695673716597 6.49589349602535 7.331350294771508
Fe 7.485069408994708 9.182792976571147 9.865673707786723
Fe 5.820577593386221 5.8038911554033055 8.551864303897828
Fe 4.285488169203951 7.747945307447518 8.446219301776164
Fe 9.95040473560057 8.875302538563835 6.97545642054671
Fe 7.5663413378824425 9.109838208091803 5.845278284190733
Fe 7.528734507901618 5.218532148576938 7.058363456699607
Fe 9.459000766339626 8.185085302710602 9.137192421977108
Fe 9.340293673594156 5.362143325290085 5.362004478467794
Fe 9.478128864866644 7.762153090408011 5.0479396138632655
Fe 7.462807337893781 7.738534756267021 7.713750974753501
Fe 7.458168368857507 6.695798024698759 5.252442055537935
Fe 5.535645418762455 7.091991524899916 6.609869272064698
