16
Energy = -102.50359633 eV
Fe 9.144556409290754 6.721309869905914 6.566242121051479
Fe 6.130472769830674 8.349676928400733 5.804517127783047
Fe 8.424685811560588 8.79289860035159 5.280337738341526
Fe 7.590024170844035 6.51371273904471 5.064633767317428
Fe 5.316870431193053 3.7353863389513533 7.031194892993518
Fe 7.448816109665069 5.050414029882205 6.936806038876502
Fe 6.307679727037656 4.3134644466407 4.678944567264579
Fe 7.102782676176682 10.42176733073659 6.24968266768457
Fe 5.360568186942278 6.327300425374433 3.9359093234345237
Fe 4.0074596816493315 4.574125365066997 5.043831139419245
Fe 5.420645086084525 6.003950862508233 6.120716746147532
Fe 5.965999289031259 7.196694822122516 8.034803270046162
Fe 5.954758952471785 4.799352040028409 8.791086444321719
Fe 7.846390359154849 8.56917018971183 7.511972896882133
Fe 3.816644754399645 5.548818675670173 7.573378872984637
Fe 7.993295129896027 6.379194952003293 8.712202418222466
