18
Energy = -119.53954304 eV
Fe 9.921486981983346 7.13930404374671 5.394442483594263
Fe 9.58667452410806 9.161571463669995 6.772002499536669
Fe 9.268100945986742 8.643090215321427 8.997193343759523
Fe 9.009107405305112 6.908510750701857 7.432710621039467
Fe 7.768988176822445 5.75621579441421 5.449654738095024
Fe 7.974625962602555 8.207050265879655 5.524438865625694
Fe 6.560702535320974 6.710366660348912 7.1059154903039286
Fe 7.245120158255004 8.936522351133057 7.776810640854059
Fe 7.604771287587466 6.9983477281148865 9.39191958679595
Fe 5.392715206893831 7.7034172460516075 8.94087108039988
Fe 8.071130743008938 4.857234214075525 7.999364004845004
Fe 5.990739909797393 5.254112521503377 9.153272834911789
Fe 6.168697142909595 9.4870807605461 5.6593355996324055
Fe 6.005409637979408 7.457638687344204 4.528963421589079
Fe 4.6961264445954125 7.897446581775 6.588709297238646
Fe 4.291579683975666 5.782764336642109 7.700249300971684
Fe 5.042083502473001 5.586369128262363 5.411621299077437
Fe 6.138398280648458 4.255352121577175 6.930684841630098
