13
Energy = -83.07001777 eV
Fe 5.891071780700299 4.024041825624163 5.217679951880818
Fe 3.9528727545506754 6.838584548195239 7.523478137455889
Fe 6.765630498260721 5.8708430436341335 3.727833396522637
Fe 7.36904565059901 8.272390819426496 8.918193404482261
Fe 7.574905111529015 6.039598594011246 8.462084831810524
Fe 5.524373225261835 6.788004035182052 9.327128518961208
Fe 8.784186800620311 6.790663057647166 4.53428013716784
Fe 6.784541561903742 7.9576161510631325 4.757375743746468
Fe 8.451046455541565 7.800943751580127 6.7360356051499135
Fe 7.422796011050513 5.722296062225804 6.023559783927402
Fe 6.08264709818649 7.652220752224442 7.0791721856912755
Fe 5.507571282974067 5.138176944207226 7.464482148869724
Fe 5.049080472970759 6.264389044434854 5.3884648584830535
