13
Energy = -82.38070378 eV
Fe 6.769660070876896 11.321751203129358 5.129625811897886
Fe 7.348357439237549 9.59246120368419 6.508955664543881
Fe 8.770891499286687 7.681999905133913 5.838276296038039
Fe 7.087263916269312 9.049862822669525 9.099245203034943
Fe 6.476599998575362 7.341368196228406 5.374307421743133
Fe 9.11202953434001 8.673240461105847 7.9729617091659195
Fe 7.041541445163439 7.463519991896417 7.534578693741327
Fe 5.511866573544217 5.695170799220967 7.137090441609117
Fe 7.6172397716504205 5.432906163663234 6.095871287732373
Fe 9.219180960868252 6.21426294086431 7.74129551658659
Fe 5.873632587393462 6.762465090350571 9.447973759780224
Fe 8.20164678396223 7.110740792567937 9.756743013475063
Fe 7.258067824697673 5.128793108457722 8.554939681722823
