17
Energy = -109.7177081 eV
Fe 9.186233272008721 6.088546454742591 3.390925156469504
Fe 8.226501805579007 6.531129034638714 7.017900068355344
Fe 8.016451109504487 6.075306004389658 9.381972933523356
Fe 6.8322554960729285 7.95039825207269 8.657477719456404
Fe 7.470160471604566 6.955655889373572 4.650052757672356
Fe 5.435676763141589 3.767635562290055 7.360081715106398
Fe 4.952884372043358 6.579627801238141 4.488067915073823
Fe 7.69603292416406 8.81861661038129 6.191441989552333
Fe 5.750998145634431 8.757590619229735 4.652881607483156
Fe 3.809288634869358 8.12355511764184 6.011935806603362
Fe 4.131496836198236 5.804708840785905 6.675385697580804
Fe 8.658640822448367 4.8710379044459655 5.252216913834557
Fe 6.381373774089397 5.180759509338058 5.85209033645745
Fe 7.772546244633551 4.313259362828571 7.670890781598568
Fe 5.980032761354857 7.493124098180832 6.617648682802974
Fe 5.9693118247131665 5.757798642204284 8.390669577447616
Fe 4.305559970661897 7.506695524939665 8.313805569704105
