12
Energy = -76.78036181 eV
Fe 6.761931930862755 6.5269263170317755 10.710028934454279
Fe 9.611085687121811 9.720572238759283 7.103264020273
Fe 8.522832982022376 7.6589089540965425 7.589961271431373
Fe 7.443350103058306 10.052012130749159 7.700329542652611
Fe 8.773433635782858 6.881774166192583 9.795337329889279
Fe 6.753127080455465 8.414641039782063 9.360455608168502
Fe 7.363484757686763 6.532132746801308 6.073834110995377
Fe 8.947745747058503 9.293241636321307 9.53827915384571
Fe 7.778364654435727 8.931539531689374 5.724581475993903
Fe 6.9112196884621895 6.123677774774234 8.40967484083149
Fe 6.001443221470989 8.020557377559136 7.138581278643355
Fe 10.524146564316789 8.011520132723684 8.492547205857385
