16
Energy = -102.21562233 eV
Fe 6.798817368209996 6.157554380213257 6.197604321754155
Fe 6.481086387459263 8.679309487088464 5.199733431009824
Fe 6.072697657276359 6.48747311662286 8.524121233864093
Fe 5.263016004804823 8.291504832033592 7.0581869188789765
Fe 8.820273483862557 8.554937478777235 4.828248228865247
Fe 5.096779626117757 6.908648340054416 4.802360292681575
Fe 6.865309418801292 4.371687127420854 8.074957118687312
Fe 8.285637539242288 4.464264564968903 6.252053268477588
Fe 5.395074591452763 4.24472999773994 6.155327327768385
Fe 7.7268770485112945 8.2021989359285 7.186811116819208
Fe 4.437456848348801 6.178129320693074 6.897408087013477
Fe 9.183835793727724 6.635549967495445 6.171846774022135
Fe 4.4637214319221385 4.428132899550989 8.242427516402746
Fe 8.44597705784827 6.116446991519804 8.276043310341374
Fe 7.7314772272089325 6.813598202826521 4.16137693068415
Fe 3.030213684993792 7.56408552685433 6.069745292518489
