15
Energy = -95.88752013 eV
Fe 9.665042504564708 10.800649018848656 9.512632726950025
Fe 9.424830243369192 8.580884026500192 8.626091681618535
Fe 7.938450792951401 6.659233930988763 5.098852962220065
Fe 8.33677905710926 8.725181516545199 6.47092975569026
Fe 7.820891587488563 4.430897419443481 6.208590542309735
Fe 7.471443522031609 7.334938447568206 9.178980373096069
Fe 8.798655061392099 6.517013749761693 7.314464736307716
Fe 8.05739118758701 10.753728257875684 7.8002441872242345
Fe 7.663737400134934 9.744497105609994 9.909958835089444
Fe 7.421597667394653 4.947348251581369 8.53623756536158
Fe 5.771633127331434 4.098654306521257 7.084332080441422
Fe 5.768637999056891 6.650519311957296 7.613626309327386
Fe 6.133779354503505 8.104729832719581 5.702327698881657
Fe 6.385330511831679 9.059647369343585 7.893011426486207
Fe 5.774497633622507 5.711641551207146 5.356002637600681
