15
Energy = -98.68504235 eV
Fe 7.298098044692175 7.591110361770465 5.5071624890302155
Fe 6.018436573644837 6.911892503606566 7.366109818864503
Fe 9.291118006839694 8.703719941719719 6.0895824575769275
Fe 8.608692414012028 6.08300527462864 6.750316603812754
Fe 6.698849553480699 9.530759743975459 6.69870541369877
Fe 8.695547537059058 10.566003789926969 7.399704885335158
Fe 10.06229186024611 9.170388469219372 8.715714207705672
Fe 8.0410280948641 8.040515084245612 8.039593392888294
Fe 10.537931716726192 7.240905188646211 7.450340772026718
Fe 5.543869945211508 8.84333399352475 8.631087615994687
Fe 7.38630105127216 5.514473127072134 8.68218412155617
Fe 7.472882587386148 9.99827832699006 9.332160154015073
Fe 9.383692137017489 6.550555200619231 9.382717590792936
Fe 8.784907015759657 8.489413010458955 10.575442101261286
Fe 6.790419051547772 7.37971157335544 9.993243965199994
