15
Energy = -95.18338592 eV
Fe 7.217654606987483 8.654023257282581 5.01138190466964
Fe 9.500755607299531 8.425971846151596 5.848786716826051
Fe 7.9685793022560185 6.473908066324633 5.775497220299459
Fe 5.6591160554911015 7.361093213560453 6.387411849476651
Fe 6.461977380636594 9.659706196124759 7.080096205353388
Fe 8.43838487777856 10.458805928304843 5.814599626023784
Fe 6.220215777041772 4.98965107282947 6.57243449109416
Fe 8.496530896680602 4.713195522773488 7.436924416374609
Fe 8.744859496275048 9.457609627236797 7.8949484200108015
Fe 4.806687326100168 8.419552291955455 8.314683838000263
Fe 9.140671510327108 7.069880661904514 7.903453676442305
Fe 7.0485390581337946 8.090143977391506 8.973176185465258
Fe 5.50634852520548 6.124001833493371 8.580727924180913
Fe 6.672205570559633 3.9287389150273575 8.59376153513542
Fe 7.758862474581524 5.815106054993325 9.453504456001454
