17
Energy = -112.95063168 eV
Fe 8.495600571836832 5.761391135882713 5.8756142364349015
Fe 7.682605523897062 8.178359284003564 5.953291317395662
Fe 6.96007850774774 6.631793701124422 4.061822580293765
Fe 9.29451829775185 5.004687674032451 7.986148639471938
Fe 5.007491720520731 7.427879372998745 2.9480029575070144
Fe 7.859533284969613 6.848287033953423 8.064466982002862
Fe 6.64071400309185 4.268708929283883 4.954864603642836
Fe 5.333511838060655 8.264507520956927 5.100416493777332
Fe 4.648285020353739 5.662385544652542 4.435163639707727
Fe 6.252294331450846 6.257784801606984 6.247531622481052
Fe 5.867570999668546 8.246921487323952 7.542852647881409
Fe 7.163917878627249 4.252293208325942 7.394454101780359
Fe 3.204327846020623 7.495132912508428 4.513681365758824
Fe 7.490518357577362 5.081243791258554 9.549609614602064
Fe 4.009603946447612 6.749896308037562 6.62440936836003
Fe 5.543400447283132 5.884328250495494 8.434799008309442
Fe 4.818169983593927 4.339362609404593 6.544792832024436
