22
Energy = -144.74849333 eV
Fe 5.479084463782587 3.471956543343734 8.874694846134162
Fe 7.758154220437831 6.773573074060072 3.484993046196915
Fe 6.22811092845895 4.177210766669398 6.641104746317469
Fe 7.7121953519322375 3.938367947114485 8.565135825105504
Fe 3.3221305113867876 7.594018882650199 7.851338011684498
Fe 3.563432648814651 7.977362952116073 5.58617975780826
Fe 4.007830270250419 3.811570127478391 7.229074199794708
Fe 5.624546997031077 9.596370316901744 5.384132998637207
Fe 8.020763547633031 4.339197388043487 4.953824799206032
Fe 5.631063682749595 7.8771318408285484 6.820471839569922
Fe 4.313277348793762 5.720049718471929 8.603662753787333
Fe 9.445344923060121 6.255731490058278 4.873716244718433
Fe 8.625201625545452 5.573511355688244 7.089237092513891
Fe 9.63951678643109 7.811416314634764 6.573379920583522
Fe 4.407102856649672 5.9766670658411005 6.215930354860551
Fe 6.565619753481558 5.907075644802466 8.171127621071857
Fe 5.328429031263127 7.809826409462037 9.080225640865955
Fe 5.560676968746149 7.624638708095791 4.281581816131236
Fe 9.478027866703675 8.330472826232219 3.9672715575438473
Fe 6.876122600680979 6.166457965949302 5.606367952199849
Fe 7.699711453822815 8.40541714831299 5.368904288136047
Fe 7.749307445539174 7.897626796439489 7.813295970327544
