21
Energy = -141.20762122 eV
Fe 5.60857090733162 5.271724525943253 7.9675423115756505
Fe 6.744388792132281 8.224769258073373 4.6896329439198725
Fe 6.736556052949081 7.457653684818856 7.135351289026533
Fe 7.933046473188419 9.357770421540662 6.79463062893651
Fe 6.146785365350459 5.93630743153722 5.628199135098381
Fe 7.147705100077435 6.250929321583929 3.3581149666337318
Fe 8.073309859253941 5.183663389186636 7.045166167619865
Fe 4.8540100949546146 6.619721452822072 3.6661278056942006
Fe 6.195878618647774 3.5906975300709556 6.378244648877429
Fe 4.087872068580876 6.97162077001704 7.3953634860346344
Fe 9.082214859114389 7.299005894419244 7.616916686726216
Fe 3.998575290358117 5.316559715481402 5.587901811192717
Fe 5.680503804083228 4.2846266232425 4.000325791208063
Fe 4.562139887199794 8.093280606547696 5.512495815931294
Fe 7.205990687457627 3.7982466195997766 8.644266111561645
Fe 5.351488417040503 9.14652526260653 7.655205916015877
Fe 7.905520360270035 4.348182482641992 4.8091675954291935
Fe 7.636950812285823 8.914507674981037 8.91871953962041
Fe 8.497395395512738 6.829570026225131 5.323907505962218
Fe 7.594143051580229 6.26391503779615 9.164304052610813
Fe 5.508157487145265 7.391925655379194 9.25961917483927
