22
Energy = -147.27354332 eV
Fe 4.4700041440988505 2.583887262039618 7.041785259232908
Fe 4.165624030415173 8.896395035587542 4.7368852332981835
Fe 4.794413505982896 7.06933384821461 5.9814733388155235
Fe 4.050765486224224 8.949874088218575 7.2575201104738545
Fe 4.099472322950891 6.666266144711238 8.308730859629758
Fe 6.477733860033392 3.5743918554429004 6.540481801774079
Fe 8.19949017449522 8.92616231239749 4.8053191278418845
Fe 6.051624658153703 8.329243425601605 8.263662678043271
Fe 8.418654451738602 6.5359399650969445 4.263133272203771
Fe 6.354411618118162 5.472629962583791 5.055389046854157
Fe 8.201036206407574 4.1280413143071035 4.586272121247901
Fe 8.142026739542933 6.967113772734451 8.447564491602959
Fe 10.206476610027892 5.444312276938269 5.215838279756382
Fe 4.889825851633055 4.213065390485574 8.653492030413101
Fe 9.513301941067938 7.398148604904455 6.409786731321357
Fe 5.955764645790676 6.419831179546847 9.694687854291193
Fe 8.409572859773572 5.2527353881369665 6.664456366281604
Fe 5.942326806295964 9.52576122527487 5.994791476681579
Fe 7.200219601372248 7.513192318513787 6.252026175286605
Fe 6.229562994914507 5.756998673555438 7.5469945076879315
Fe 6.204673671963429 7.821539643734243 4.0743420141736335
Fe 4.257264767874744 4.789383260849461 6.439614171963859
