22
Energy = -147.95188408 eV
Fe 6.3123914380903665 6.196841619418579 9.071082799946515
Fe 4.0558812977760335 8.82209987613844 7.6914744127462304
Fe 8.137719922272124 7.058905567244821 7.086709016295215
Fe 3.9484815434276452 6.544566678455106 8.489313281204197
Fe 7.324900798079122 8.709911223153766 5.721674963235032
Fe 4.941568504057766 4.233508818282769 8.588408474831201
Fe 4.8920200108845195 8.628340728827098 5.3151676083987365
Fe 6.77613426563559 2.862118859106501 7.953075408804934
Fe 3.1156715588484416 7.260630138639994 6.233159856723012
Fe 5.70558636326469 7.403838778453564 7.180191061413878
Fe 6.73486817246079 4.9506809030728585 7.146140021236024
Fe 6.460600304103745 8.248531283967393 3.5274704885751897
Fe 8.802595011244401 5.1986069400691255 5.8611591572515405
Fe 6.523287396905888 6.339615854471631 5.261252395235629
Fe 4.469988293971303 5.392636100782686 6.376181252793135
Fe 4.905379459995232 3.0838104624316722 6.473262563367723
Fe 7.181212201747299 3.21963030415255 5.551912430821447
Fe 8.50235263161916 7.156597504349133 4.358526464302416
Fe 4.41709789724703 6.643383369689405 4.11488898735653
Fe 7.957906226395729 4.764352138517424 3.8078670904410226
Fe 5.4756363062202835 4.344074801433555 4.367941199041901
Fe 6.342259432179666 6.06306177780426 2.8017135248590206
