27
Energy = -184.99052425 eV
Fe 7.8097663398490855 3.200528409306917 6.53147413835819
Fe 5.489663399417091 3.292308253445673 7.31097436645774
Fe 7.5136722006436445 4.435162371082075 8.570954638457264
Fe 7.1736000208051065 6.2754815982740935 10.142507299915811
Fe 5.275407312650881 5.401544346480936 8.557983287586
Fe 5.999296519940838 3.3973523167036306 4.884021026656468
Fe 8.250872322893404 4.693436476124823 4.709175999175208
Fe 9.288925451529778 6.533399297916259 9.030027953761161
Fe 6.462785251392529 5.220685845083774 6.350232197652222
Fe 4.013437635828408 4.956663835740745 6.24978331706057
Fe 8.982136823333844 5.442994711090885 6.807292782139811
Fe 7.309990626124613 6.740793195230576 7.825084419462004
Fe 5.779347882741077 7.9499730026388455 9.1908318914967
Fe 8.171648451533297 8.559526969430536 9.182230197673109
Fe 5.07291454002691 6.361489631745057 4.743725521469799
Fe 3.211790979953794 7.558393136532363 5.814496659223137
Fe 9.185269186506163 7.9314852207800834 6.829591544583783
Fe 2.6534082729559096 6.055784672991757 4.166027840801944
Fe 5.223211243282934 7.273021307769464 6.963493814825424
Fe 4.043380120387302 4.235139185773431 3.8446955286741886
Fe 6.433113977801014 5.221846406631335 3.3231044665355407
Fe 7.426327064861587 7.123259235708287 5.281110695104518
Fe 7.057070068983759 9.003419933356058 7.119417033237793
Fe 3.808785918811902 8.158214846047818 3.5174099028679993
Fe 5.436022144482657 8.825590681300117 5.094812937092043
Fe 4.3780486356752535 6.1684639052370756 2.3945667767765095
Fe 6.286928142471858 7.722821937136339 3.1818567615972926
