23
Energy = -151.9062313 eV
Fe 7.75189400561406 8.177905379425074 9.442842831722606
Fe 8.412278379878131 6.82693308675222 7.7265305404714795
Fe 6.317286184204358 8.372682198129597 7.439814026631501
Fe 7.089059416099395 6.2377283948518345 3.8451040757621833
Fe 10.183159018834397 7.861198900530466 8.651874122600628
Fe 5.5931735438053485 4.424507040926479 7.648887632138023
Fe 3.1346370842217426 4.7956052889373 5.711923360025555
Fe 6.96146596853422 10.000341633481197 5.572036340299484
Fe 9.130086421733266 5.877181921343909 5.533089338846805
Fe 1.6766387347309015 3.7540918725473333 7.026194061985415
Fe 4.154751835192968 2.9319882004317193 6.757929311882106
Fe 4.752246224691928 6.120650475719125 4.352294689100097
Fe 3.2950208176048568 4.915520418888184 8.117567245809504
Fe 8.49574373429833 9.185682434439633 7.4140029986785
Fe 7.984199132212116 4.522718048905818 7.230545091245232
Fe 6.759211189708553 6.10420706898976 6.086070449653013
Fe 6.379017000878674 6.377281222446108 8.66168365419185
Fe 5.68318384890407 8.088391376658024 5.131054534189458
Fe 8.212091190241354 8.039991050529709 5.3173660745789135
Fe 10.351821623850254 7.733268468308431 6.415067874537547
Fe 5.5955513212792285 4.178294347510364 5.3373420107944
Fe 7.016928722305772 8.602354477693602 3.401995244172873
Fe 4.588822887008402 6.389744978387036 6.697052776515614
