27
Energy = -185.15646699 eV
Fe 3.2047155737461743 6.551971517745316 8.032914738320343
Fe 5.365367361112762 5.9022148935635785 9.027638100539527
Fe 5.029920126729874 8.299995023450908 8.54764508747685
Fe 4.1991382904642 4.533534059598996 7.1143092982480765
Fe 5.92324521570495 3.5326237253833193 8.55125749067031
Fe 7.178219543571336 7.410429073250136 7.8977469768853705
Fe 3.4855762134180437 8.61200005952172 6.531381188770662
Fe 3.173070132902165 6.1384579874132195 5.322938229286581
Fe 5.016805664320612 6.842596101429536 6.7361040532125465
Fe 6.5934894095632846 5.164002860107112 7.052299246270134
Fe 6.116573895010739 9.005991636428487 6.370075240367127
Fe 7.88876976472782 5.343291447917455 8.961870397909808
Fe 3.6754365611927273 3.711264266309902 4.931823041267988
Fe 8.735695688355014 8.211170948626602 6.2457124571114715
Fe 5.865121561278195 2.993300408064236 6.0785880213305585
Fe 4.751109856785825 7.883034685233008 4.5354788590622235
Fe 8.11932189024329 3.3941977382912083 7.370230329437507
Fe 7.250641735522433 8.755129308750139 4.223076146371079
Fe 5.438111103427749 5.270215053909858 4.958991954240993
Fe 4.286953668524872 5.655660117812094 3.1080662249833573
Fe 8.977183111154256 5.887840797835743 6.811751209187766
Fe 5.811133742284483 3.425049905022144 3.7116070653213007
Fe 7.03429672779837 6.85872852688684 5.371945902900355
Fe 7.873456974278937 4.412667934662923 5.2185492940044265
Fe 6.003232059729828 7.29805494288073 2.816913991278103
Fe 8.963992498481366 6.632608394777832 4.297226586605357
Fe 7.141228852543331 5.386640321740764 3.1764889061255692
