26
Energy = -177.01384014 eV
Fe 7.5616626997817535 6.150513663961806 3.3267760815080507
Fe 10.117746115710302 6.415305558095047 7.411920518932281
Fe 9.241009288839475 6.296759667527029 5.130325898425808
Fe 8.240937412323836 7.685111132646019 7.0487137333259335
Fe 8.272227238782536 8.44183287952225 4.8697207357929795
Fe 7.439070112516448 9.845087858789901 7.221116705352928
Fe 6.4024237440379395 8.303429270752693 3.5751745420058407
Fe 8.30860676864011 6.38585447781909 9.144310134477823
Fe 5.96157111839413 8.580084852837322 6.059157047976599
Fe 7.430930189519463 8.544211311350585 9.237185806624602
Fe 6.682883332593737 6.4105751073769035 5.38065005854432
Fe 8.151953484523755 5.244526913066151 7.100346850881155
Fe 5.296687984476362 8.949213872022622 8.410460656447457
Fe 6.058040425916399 6.654698871207673 7.699057040270625
Fe 5.1484970685720395 6.234848934272841 3.2652499954240057
Fe 7.917314398830737 4.220354384233609 4.939479298993399
Fe 3.8481999245932483 7.225881700370366 9.231916899685821
Fe 6.011989039187043 6.714765003065243 9.975819518965602
Fe 7.808182159928603 3.0008416271669422 7.16037230797503
Fe 4.303005385585944 7.957344645933305 4.555737500894498
Fe 5.681568686329379 4.2605556302429415 4.270929218873506
Fe 4.147039777309468 5.2580282305286605 8.09304174367863
Fe 3.7432542296986155 7.728052718795048 7.002048693072868
Fe 4.387189528726904 5.866023832717995 5.722605266314799
Fe 6.514099638459356 4.542578138985145 8.860715648262412
Fe 5.954421554260506 4.275433421265052 6.623306339536659
