20
Energy = -131.56753606 eV
Fe 4.759880662668917 7.642320231252083 6.424460747642402
Fe 6.800179275975515 6.655965623268314 5.59513260532452
Fe 4.962055624895222 6.775790752759898 4.063421772421992
Fe 5.0658496813074665 8.132359045097514 8.848799736337247
Fe 7.0910188221597945 4.3250172987148705 6.569480999240843
Fe 7.456209276212733 7.3497371417503174 9.349156494897459
Fe 6.2451190741651645 6.188318321741296 7.830686214821218
Fe 3.8265791708787944 6.003724301950456 8.159124019097804
Fe 8.905412314377605 6.330361795530755 4.645593490817712
Fe 6.09301689372515 8.968820903568895 4.971049101545476
Fe 5.13693284917787 4.151175222999532 8.352166051699161
Fe 6.910548022299754 8.513410340748045 7.3225861163244295
Fe 5.330276913166812 5.929153427228934 9.951182436461597
Fe 4.8280162419762185 5.143504085373048 6.081407098989618
Fe 8.577623912199572 6.517244106750608 7.199407430494479
Fe 9.181108875206647 4.470200714627925 5.931648413403285
Fe 4.757050739581046 4.40701642152856 3.8864609600019433
Fe 8.397630000760993 8.513841659660573 5.569726369095052
Fe 6.916512847656894 4.888312771470209 4.1926917877111585
Fe 7.143492679650929 7.4782397120205815 3.440332031715705
