39
Energy = -272.22277143 eV
Fe 7.933428093523849 5.090401050596084 6.915001547230245
Fe 5.469174386626641 5.565098077157454 6.9130970708476935
Fe 5.040425489333434 3.3815780731703087 5.969911170985462
Fe 5.422208744201791 5.52301535747606 9.446557199771805
Fe 6.359374356957692 3.5405022915228175 8.117633601865117
Fe 3.8799979700874045 4.077097117570475 8.072962331046776
Fe 3.502712407274576 6.583319882211248 8.120698214214789
Fe 4.202148587602579 10.070282297032746 5.967543745055971
Fe 3.265182097425327 5.279308277836304 5.969962626471309
Fe 6.084490225272026 9.028037528870986 4.6898010011154785
Fe 3.247631050818925 9.109536504476932 8.07525414086461
Fe 5.517724831142889 10.24204187311147 8.12107591428132
Fe 5.100003530012409 8.08775085396814 9.451259234289596
Fe 2.944127296988838 7.789894686938014 5.970916085614731
Fe 7.019731723177626 7.023220107387145 3.373837032576253
Fe 5.155808752603363 8.054787599858237 6.912097924748341
Fe 6.609688563816328 4.851682384295012 4.689289187099032
Fe 4.839279801606861 6.750635033186786 4.697993591372088
Fe 7.0238984371631945 7.030261315103035 5.722975716353726
Fe 7.52328288321475 2.906572578655451 5.974017490099226
Fe 10.13392910332737 5.313110296508887 8.117925329202869
Fe 9.146061489753665 7.294341623417116 6.914145369727979
Fe 7.429810089600426 9.113735685316355 6.914762219970926
Fe 11.095744242707253 6.225039689059221 5.971182691226795
Fe 9.876582675499279 4.011504035449108 5.971300000702372
Fe 9.615432698005284 9.452683343237561 8.119733612861454
Fe 8.963032611165271 5.956628595589654 4.69486082795189
Fe 8.640158726941673 8.540339738686198 4.696492948716578
Fe 9.047749084871116 10.654760434638986 5.971948466167879
Fe 10.772057572764583 8.806250345853986 5.97176787373014
Fe 11.30496327303644 7.565107207106535 8.072672357771731
Fe 9.206965309809252 7.30046887314092 9.446746929843492
Fe 7.026237028604417 7.02296419182643 8.26020920591571
Fe 7.84162025302772 11.261786032789724 8.070512931165942
Fe 7.025308520353938 7.024986371910691 10.712464154112093
Fe 7.959924104363597 5.035672608429757 9.446465752185214
Fe 8.85905073421206 3.1200133571583533 8.072857977784693
Fe 6.4895556662416825 11.14429258547667 5.97045161120956
Fe 7.440278160072455 9.186072773323561 9.446395380920192
