33
Energy = -228.18971357 eV
Fe 4.919584753043104 6.879583073459526 4.284259897423805
Fe 5.101968574429088 6.377421549336794 8.977767243862578
Fe 5.843676259232027 10.3770750315994 5.559988105877006
Fe 5.357623582743794 6.986950420252252 2.0262424292537236
Fe 8.24764737424888 6.20556441889045 11.110200786718332
Fe 3.640443757411775 4.8566924795957025 7.512236630285201
Fe 5.91311829073636 5.7996153519862235 11.11622678083022
Fe 4.9313533785507815 6.672539462085554 6.64339230388877
Fe 2.995241993570547 6.118108842886408 5.383547243645233
Fe 10.285127901160358 6.470547234511093 7.3343548455969145
Fe 5.358185710612893 3.979855348937819 9.467889253691824
Fe 8.900652181068933 9.071226067381744 4.8176020342917125
Fe 5.9990009797151265 4.580519307698337 7.3413967976417345
Fe 7.298921302486197 6.75660111955628 7.545220347044312
Fe 7.131109696325207 3.3787243054247926 5.5990664949178095
Fe 7.145219532752869 9.865624800779347 3.5820122483677745
Fe 6.246335471485345 5.027406881592967 3.123263055367953
Fe 6.867541841306314 5.730085441496063 5.271688469816118
Fe 5.033132223298893 9.056369605044416 3.5148337431106635
Fe 4.750090628249277 4.459985859323494 5.216201141538408
Fe 3.862027437057486 5.172453433127167 3.0918039925661556
Fe 4.132715857445705 8.773934825024574 5.778030536314353
Fe 7.2885930119122655 7.4371184539475665 3.385550624945611
Fe 8.522578646312944 8.659112292245242 7.139388874911288
Fe 9.73993292892755 4.928404936208394 9.056989346715746
Fe 5.667966669966751 8.67048686179279 7.770102872414971
Fe 7.636535793577512 3.0410846998306784 8.205763091393441
Fe 8.544451628650597 4.72416617593948 6.906435226780656
Fe 7.440494451827283 5.078426082489853 9.330029513791162
Fe 9.182904126041636 7.115362403949372 9.072340945606639
Fe 6.9181533950076926 7.653509445849047 9.820289889789578
Fe 6.668233911308875 8.250960061439901 5.5834776868180525
Fe 8.882837351473812 6.863195196164764 5.465429022781281
