30
Energy = -206.15980967 eV
Fe 6.28059001262865 9.15642069419634 4.155731407013961
Fe 6.693575025101897 8.999716154191008 6.673599263766147
Fe 6.37668384975308 6.772079696633984 5.593177182729915
Fe 4.702672596976372 5.863869135771338 3.9941120054529105
Fe 5.992977642872045 5.769717118647572 7.882550107368926
Fe 4.369467088674462 7.964395194909189 3.028659759329649
Fe 4.9140248341614425 7.911904067822686 7.716358382563643
Fe 3.1245153093833404 4.2080348444566615 5.314893511232455
Fe 7.056673967801732 7.6091116444601425 8.972929163651465
Fe 8.140383799490854 5.028777872727817 8.82049408423273
Fe 6.941624540476008 2.6695406196091334 5.4899912614511965
Fe 5.473980666938631 4.531725366362613 5.881965071678678
Fe 4.13954470694384 4.161401599155944 7.872775944811929
Fe 6.907843575774189 7.087525154766588 3.274909937035303
Fe 8.731379619952788 6.144766481858507 4.664469449152954
Fe 9.89213910671142 5.3541577739531 7.161545987105426
Fe 7.826994799064083 4.7434740267025735 6.311561347434428
Fe 6.939363682155962 4.662777912548777 3.935143613678014
Fe 4.82871860860286 3.3201174983244854 3.9454430010960673
Fe 3.850495819609587 6.170944773377896 6.496175314725932
Fe 9.516162341462175 6.901307423493902 8.953188503595026
Fe 2.5154555047235716 6.728081280888575 4.448913239652825
Fe 4.497408262044346 8.286158658765515 5.375712900756694
Fe 6.418560622842919 3.2778350452620777 7.813213894604382
Fe 8.208434756118734 7.046860818735169 7.094057341711251
Fe 8.359604266864517 8.396233553822025 5.061556111282963
Fe 2.604906618109582 9.06456542082165 4.357595477095719
Fe 4.599511430297513 2.3706767879247646 6.273916026469564
Fe 2.3535630395848357 8.015747690901538 6.482031605616994
Fe 8.825328959334065 3.002418338686819 7.437649931689911
