37
Energy = -253.03475305 eV
Fe 7.625362804252376 7.384600436738499 1.751453176572859
Fe 8.73308148881898 7.683704785844449 3.8645155077906086
Fe 9.824429180298026 5.607114590702673 5.0152826937071096
Fe 8.298157282082364 5.440897272732283 3.1748628615631507
Fe 7.474539853987955 3.273458086075201 2.8388419325727967
Fe 8.626422714628715 5.168736245801042 7.150694826030283
Fe 9.38458598345821 7.497445262524512 6.2992229086067635
Fe 8.107211608569672 3.788222138338853 5.157822752600496
Fe 9.195268074564773 6.660835183146612 8.774035366278733
Fe 7.627986115900656 3.1612633448168377 7.785652866564933
Fe 7.0009981018303575 9.275344559546467 3.1692922119355282
Fe 6.5016480882267516 5.290365026685883 1.6650021124129997
Fe 7.208922510954505 8.6412798149443 5.431201317548081
Fe 6.090212361321524 7.082713340209004 3.5186932240659043
Fe 8.237743107962595 4.562505474628651 9.620611598096106
Fe 6.071314801718833 4.609471594009507 3.9806648626281285
Fe 7.43841653095519 6.188982111196701 5.425647352265427
Fe 7.362458151352764 7.714298565309469 7.650542137925745
Fe 7.464447369315304 6.9935606879471734 10.285112471444215
Fe 6.253543270185117 5.035973604330151 10.814097012182165
Fe 6.105205222228789 4.290867981973216 6.429924269921288
Fe 5.652356108301425 3.5931841299291527 8.984496721037475
Fe 6.45069548027947 5.714976633854249 8.377906735636207
Fe 6.301764838637551 8.869671269353612 9.358086720954457
Fe 5.616498759375681 9.364095055066963 7.072017435305393
Fe 5.026082869001239 9.17421188634085 4.655278112677862
Fe 4.393246071987962 5.496161709020441 2.6957024835437284
Fe 5.351393058149314 6.925548003600983 6.033250297459195
Fe 4.148900313918446 4.978710669221945 5.1303031249750655
Fe 4.140128708128142 5.103533580719075 7.477679119619398
Fe 4.019394430311108 5.283074454198855 9.725930037075976
Fe 5.019335987148637 7.2079505184318124 10.483097778163998
Fe 4.604003601251347 7.459201949984348 8.20938265010673
Fe 3.781860433352494 7.246610116054609 4.265408021770094
Fe 3.408570834749349 8.62781208415855 6.453452643097613
Fe 2.635796717919178 6.473560943388046 6.320682985938316
Fe 2.514254602251652 6.82629432655295 8.65038910730292
