3
Energy = -14.53145785 eV
Fe 6.119993185599687 6.190551377115581 6.872266050197145
Fe 4.350044680994534 5.493399965467268 5.9399508334223405
Fe 7.6419355366993384 6.445406516026219 5.238250300976695
