33
Energy = -224.39358604 eV
Fe 7.615365950235721 7.0284478971370055 10.145528335039437
Fe 5.192452037771702 6.6184347312504315 10.345013130457549
Fe 6.700719169132956 4.808269709211776 9.708334218002308
Fe 4.20547050078209 8.314586151104477 8.791563690804383
Fe 5.876494105861225 8.853394049041611 10.475176591033529
Fe 9.057575205033515 7.642039829726765 8.078400090458354
Fe 9.849073773616517 9.208936735233495 5.664184532980229
Fe 4.861392362529478 5.770032937900068 8.161244264309103
Fe 9.33799756474935 6.728242871974965 5.690159695941607
Fe 4.509557138279518 7.348728493132109 6.359801696764732
Fe 7.602189713068595 9.325528234290768 6.779231974095184
Fe 5.7600601193537235 3.5616687146734645 7.882757926818984
Fe 6.814256368770359 7.149307560240669 5.70435869286472
Fe 9.497875356205775 4.172174745859319 6.1301902501937215
Fe 9.145420346558499 5.20110414562257 9.451202725771047
Fe 8.08130834685563 3.2403438500868194 8.301786463580592
Fe 10.576770413946607 5.800752773741981 7.552283432935443
Fe 7.300794113384053 3.237565581870256 6.056230267731851
Fe 6.417708387979731 7.742497418791349 8.13134419734558
Fe 5.581996197061557 5.038932900717915 5.968179452287474
Fe 8.267060319665026 8.179309245484305 4.137155561200101
Fe 7.991935246394342 10.479560282403865 4.442735644566089
Fe 6.538146197110738 11.401795431685022 6.275992303526829
Fe 7.689627587521295 5.614697392221127 7.479927660714549
Fe 5.818404239780417 10.402653784525118 8.670636794598881
Fe 9.729141966928276 10.070955629862562 7.94022200632248
Fe 10.432676282087078 3.587939487373026 8.186919927366972
Fe 9.025021824627029 11.525058856565506 6.251442945503395
Fe 7.845646297413545 11.569167092924966 8.33434717680809
Fe 4.912602715239634 9.579284878477305 6.7516134333416815
Fe 6.012920166556644 9.180523022439514 4.755585138016148
Fe 7.753088932825024 5.194819487104834 4.7727348979034705
Fe 7.925909596811069 9.385841252288136 9.421561774321368
