36
Energy = -248.38369114 eV
Fe 7.942435448054778 8.746444143738902 4.876830430127035
Fe 5.242475836310823 5.547279374398213 5.950983094217818
Fe 3.0821419828313177 5.496659484604885 7.252625436232434
Fe 9.40436145635397 10.535014448363489 6.546573106171716
Fe 6.724810185586607 5.144968786651723 8.34277621550731
Fe 6.367883115594061 8.589623609642207 8.089419560398804
Fe 8.631946171100005 9.535620946262634 8.837096131717367
Fe 6.710770429242509 6.657587292192627 4.2690236342433
Fe 4.9377410780541595 6.7055516180925485 7.854247378735069
Fe 8.464881217815467 11.021602655885168 10.669143098928451
Fe 11.042714071012382 6.822431709394268 6.524891720110975
Fe 3.3886279902028207 7.108465427172123 5.9138251431954805
Fe 10.378074707170077 7.214056492611838 9.019192597631568
Fe 8.923944979123194 8.221219661439191 11.130551865756846
Fe 8.10972114495845 11.87944812989341 8.156358624108575
Fe 4.539066041459625 8.535999490377774 9.376411808375174
Fe 5.6035984634064535 8.251769325637515 5.760149405882862
Fe 7.656764973183635 4.795157409647166 5.545882158034838
Fe 6.215543534661556 10.776000791099378 8.973126547150242
Fe 10.276305043761429 11.379174785358266 8.800848599082572
Fe 8.955865833801285 8.107146125253209 7.033128196296401
Fe 7.105539890536856 6.728387744306802 6.68419695227687
Fe 11.088595499192557 4.954896718257351 7.989804283258604
Fe 10.67242307990316 9.444358060714073 10.117549771742775
Fe 11.05876468581154 9.223447876166437 7.673826450176939
Fe 9.042194377533866 5.216522619646959 9.708345887309552
Fe 9.04755670829026 5.6139951663431855 7.395746465528801
Fe 9.08943369614369 6.625312761490026 4.995749244137548
Fe 5.908534288695097 6.832431183708581 10.102894367306037
Fe 7.597256251414845 9.924936577971344 12.535418720648199
Fe 10.206815727803614 4.618627663929072 5.622346436758698
Fe 6.7518331511378475 9.075632329143048 10.51786852187562
Fe 9.881485955064393 10.138633889546396 12.269898879050935
Fe 10.412485251296632 8.782705353519253 5.226833006355841
Fe 7.1062024595325575 10.177984725274218 6.6447948396773775
Fe 7.978653422508745 7.118353770816087 9.139089570538905
