33
Energy = -226.45955156 eV
Fe 10.516034108772253 6.941244795959712 6.223199850563506
Fe 9.836317288830674 6.798183883211112 8.51753316165065
Fe 9.732904353694623 8.923492569747935 7.147136323139193
Fe 9.147213439864347 5.632071122896901 4.885868774707016
Fe 8.32267565128412 8.470239000490631 8.966873712592506
Fe 9.034491309963489 4.9725722503145136 7.232541679441683
Fe 8.387069932886178 3.384640254211793 5.626535801572357
Fe 9.019997276233775 8.256971934136837 4.86756840126419
Fe 7.510359336388196 4.105589077190793 3.544951830148746
Fe 7.970819897851704 7.06214283415288 6.781630488635258
Fe 7.476220428837282 6.090375163636649 8.935193326269484
Fe 7.547896618837884 9.507501968525228 6.604725573519603
Fe 6.824498342712119 5.44489121937249 5.238618068513931
Fe 6.180270143925363 8.24178596755548 8.144368932076864
Fe 6.1638429052026575 2.8485845908854843 5.485479584720814
Fe 7.839433072678701 6.763564535236013 3.3524230187754345
Fe 5.189317657600717 6.268527217034362 9.331144432988303
Fe 6.577876025457766 4.4502162084008505 7.370543275132431
Fe 4.628266963428562 2.926805245490292 7.375663619547597
Fe 5.4472568349275345 6.1919171525257735 3.5325754779762306
Fe 5.6084293220520545 3.9696772179352524 9.395877497888971
Fe 6.593825237800931 7.925359943327581 5.033341485483791
Fe 5.132774529312273 3.8560236415392124 3.580149117149659
Fe 4.9142980216430505 9.16849843443574 6.32938696917706
Fe 5.354301308556701 6.606231727969808 6.760416677697816
Fe 4.4918374182588945 4.6166411225990505 5.632682176288992
Fe 3.6978286504229247 7.818256434925346 7.958358576515134
Fe 3.846329613198785 4.996272113858547 7.996019126198478
Fe 4.227510206583034 7.520448136587945 4.734237198917804
Fe 3.1049932041331925 5.508745145003278 3.750210503323852
Fe 2.5960688114156896 8.708495741610033 6.071493279258057
Fe 2.9070506402929825 6.2891880165074365 6.168871175259134
Fe 1.8781687130927776 7.366669194358349 4.253309723458797
