38
Energy = -264.53509424 eV
Fe 3.545466351725642 8.545753152959657 6.503275744173831
Fe 6.742544857912943 6.45173432537274 2.6423488255151786
Fe 3.2660478840644958 6.1320224777602235 8.02641189202924
Fe 3.51815152825884 3.05696165971821 8.231440160140588
Fe 5.7730769449529875 2.251479937090821 7.469816634877914
Fe 5.003008073176324 8.113061082428048 2.092859883609783
Fe 1.8901354025619166 1.9706968568461694 6.828992040910201
Fe 6.118962158919854 7.008364054768908 6.834793992022941
Fe 2.0160713572590505 2.967657236226057 4.4749111717172605
Fe 2.6964798960346354 6.612199678612208 1.8557483289082417
Fe 4.011594186093706 2.56394208942917 5.964358253731386
Fe 7.765785047172537 7.073312006164303 4.960652239229872
Fe 1.9570440696948759 5.781176510905218 4.288139049087562
Fe 5.584709909146048 4.293068595062694 3.0148430654142158
Fe 1.6861065340807238 6.993072253910133 6.395549464431942
Fe 3.0260591828664225 4.2600494833620015 2.46436142152698
Fe 5.349961487335097 8.139110644355373 4.731696750521425
Fe 2.8414492288690303 8.072990021677082 4.293139197517943
Fe 3.9251252911652097 6.456553858619508 5.887471923486507
Fe 4.448592990129599 2.2244067550367714 3.54465063096519
Fe 2.4060679610773272 4.474412951445113 6.625769056974725
Fe 5.071010159167793 4.641481115589421 7.009818546376139
Fe 4.740595648743213 3.147394430216349 1.2289313898784726
Fe 7.817275004666866 2.145482388255242 5.727301583139751
Fe 5.8084372053091 1.0147448360803932 5.220754482943967
Fe 3.0310072687425254 0.7447266370953628 4.806163814946289
Fe 7.037130112168436 8.646487905329764 3.1870428476982022
Fe 7.103955431678798 4.342433013590635 1.4044373306500368
Fe 5.9736267804523475 5.678484467717013 4.9002300048139835
Fe 3.913441659912421 0.6513482067204424 7.151256668394469
Fe 4.84609675198511 5.678424776952287 1.0995846662024178
Fe 4.270369649282426 6.415758977180303 3.4084159223552843
Fe 7.952016414358982 4.570342502440854 3.901508957637848
Fe 3.9218370816804797 4.436535078480746 4.697985953194862
Fe 6.948661767178757 2.423843483260478 3.2424659017529684
Fe 2.4740519502623566 1.9343574380985142 2.442437027055528
Fe 7.573197421048348 4.90443364013891 6.350508108206679
Fe 6.1159909381891175 3.35283705842612 5.261068655282155
