32
Energy = -217.55439569 eV
Fe 8.605650447274494 4.81837221386873 11.76742872506597
Fe 10.349064936328466 7.799970574570135 5.29491721332058
Fe 9.069335970337267 5.795687702618289 5.361827758849665
Fe 6.018915339140243 10.721580823013284 8.212033042115872
Fe 5.509712766485354 6.408768568547625 10.101689076955878
Fe 5.673114322178256 7.220206652841908 5.048365611517682
Fe 9.724633207821181 5.620215000296313 9.676230291610398
Fe 8.637566244409557 9.415745426485955 4.589917504611852
Fe 9.82160008898537 6.797049057912666 7.425543634724302
Fe 8.593186007039098 4.686484491439917 7.614009557811116
Fe 9.710263700006058 9.2460094200268 7.091208792215647
Fe 6.399648808085902 4.375765052294055 11.074519505240534
Fe 7.450412924830378 8.14777671948843 6.636941376237491
Fe 6.89321485640506 6.523133660204891 12.112231922748602
Fe 5.678102030276946 8.51971411319958 8.889699117586362
Fe 7.053729548188022 8.130106340651711 2.977258677526687
Fe 9.109930636668397 7.196792006322565 11.47752102569949
Fe 5.500088905876424 6.618999651678638 7.502827434375989
Fe 6.28141644347993 9.558942917617014 4.660672457432588
Fe 6.968765431907186 8.541561439372199 10.852428831324328
Fe 9.18054768001192 7.281284044164796 3.319163520192847
Fe 7.259726581341493 5.92631051424558 3.7237088563088925
Fe 5.586890851995181 11.381855318995406 5.942408297473602
Fe 5.060967601200887 9.018538110770773 6.654171865319145
Fe 6.823941567525482 5.2148285087771225 6.065282911664602
Fe 6.34054955199707 4.636021305213931 8.556191434734526
Fe 8.252765511469649 3.663356784834059 9.725453020133488
Fe 7.724141851452003 6.911172288862319 8.987272484949486
Fe 9.116386070415462 9.475413680780706 10.975031870747001
Fe 8.012729484348386 9.497146195079958 8.801497550196661
Fe 7.707682076908321 10.664392047948777 6.5339047433609805
Fe 10.037642337265488 8.102726112694011 9.384472415673157
