30
Energy = -205.283497 eV
Fe 6.297476413188087 2.8146178405941074 1.9835526557133507
Fe 4.2475345633319534 6.418366674289137 1.9375749779356866
Fe 6.115329700515208 4.9594912120147505 1.259933784793282
Fe 6.653986708867046 6.30337633960484 3.034341663244422
Fe 8.334230780982674 4.5635155840713555 2.4129850880930914
Fe 2.8736905410273335 3.50388574661817 4.749716464693226
Fe 4.742556452122435 2.213998082385115 3.7330899445579186
Fe 4.635041918825408 7.259600441625048 4.0744116082679716
Fe 6.99465241841712 7.816989686004266 5.052838973356333
Fe 8.433702489951102 2.3032524495513114 2.8797437331870133
Fe 2.590708851746936 5.910415342801095 3.6946996198512396
Fe 8.425419757465654 5.719882849760201 4.711354919901389
Fe 4.744028693794428 4.553514396859574 3.3064681147854706
Fe 9.261214807884429 3.5843638615217834 4.617891920743622
Fe 6.911721204604655 3.5929878299792035 4.137596630589237
Fe 6.120189691063543 5.575389297694427 5.215743128834695
Fe 5.130704134806112 3.2864902743885085 5.755004267034141
Fe 1.6116907499482616 5.4257700017948665 6.009484794467546
Fe 3.885632157530174 5.443039114472979 5.5837995631833985
Fe 2.6937603544131834 7.5943316899433375 5.746407741897372
Fe 7.55545261616292 4.030916132465767 6.465919833161851
Fe 3.226699372123123 3.789161142368923 7.251327016876214
Fe 5.080901744395346 7.402290559981934 6.489131556849859
Fe 7.408463429115884 6.451469898128373 7.056488520844306
Fe 5.425906204309093 4.958670192474451 7.510575659951058
Fe 3.1416483299869977 6.159835613362253 7.78821739771077
Fe 5.388216499316044 6.940598440360619 8.75172495309515
Fe 3.533424425193109 8.411414721344325 7.9172107553712685
Fe 4.048428908052165 4.940205512544461 9.600923685546151
Fe 3.2917708583537886 6.8763438484881725 10.076025802956838
