40
Energy = -277.43413389 eV
Fe 5.77851831931399 10.98413604539311 4.821016015931461
Fe 3.4168898015527827 9.91222439748546 5.129355471596343
Fe 5.046999295811899 10.463798477577477 7.050387922426693
Fe 5.015135631876543 9.345464072965523 3.290901512825257
Fe 1.7426813137559056 8.29599333700171 5.616859357286053
Fe 3.616717346420235 7.314608736978944 4.549472176905945
Fe 7.4126083304352965 9.280779351510063 4.180666855940203
Fe 3.553448638312954 8.323383936079106 7.126259383302731
Fe 7.3229345589987656 9.915641961394142 6.567764182955066
Fe 5.383691172497746 8.702044622371764 5.537408417230535
Fe 5.855106027000311 8.229119065672041 7.843314251110953
Fe 2.637959226582013 6.264722196465435 6.583589395715402
Fe 6.108194391254404 7.238921475964189 3.80689508970267
Fe 5.081076624189131 6.400878496476483 6.266176894016633
Fe 6.942150202471358 5.983416628710432 7.74739747407015
Fe 8.427642406988118 6.891345226856 3.638364220904192
Fe 8.032865920104829 8.356436302643035 8.420701651773564
Fe 4.864346212567686 5.413295338076206 3.2653092721527703
Fe 4.422597212258587 6.420703945050371 8.691121427882457
Fe 7.643106760640763 7.532718269865336 5.957914052660274
Fe 6.9060314108035055 5.314186484906119 5.1625964825833766
Fe 7.216926864632638 5.122252980828247 2.647624107465257
Fe 9.247798568250591 6.567863454703077 7.530454588713154
Fe 6.650009534409415 6.90416534751752 9.824055056715173
Fe 4.085992976131472 4.569925374159199 5.275236030565525
Fe 9.885811061810537 5.3754329689735 2.6572975188682695
Fe 9.685198960676372 6.028666314220366 5.3322886692128915
Fe 9.208005785562756 6.888495880551102 9.918787283473026
Fe 5.9656981844225525 3.9133027831074956 6.867536153506954
Fe 3.741022431391478 4.349106857414053 7.691381182055479
Fe 6.027026163992207 3.387416661372745 4.158802695074499
Fe 8.538211104138759 4.412382811791209 6.861015401316245
Fe 8.628751765194018 4.144658008610414 4.209556523875431
Fe 8.334178972179878 4.998859458626959 9.344361753539825
Fe 5.821797663125882 4.5047863428986865 9.381758295562026
Fe 4.641265426047484 2.263610704023155 6.021705568469996
Fe 7.520407976283015 2.5103175938346234 5.778544639457354
Fe 7.421614866157407 2.8975746437633596 8.470395810017685
Fe 4.872269949333704 2.4888248476742154 8.588251176671658
Fe 6.316565513059559 1.2165303943900638 7.276205855214884
