44
Energy = -308.26959881 eV
Fe 8.2591057558109 4.5331363030080265 9.755607664160742
Fe 8.200368865318673 7.11286297356183 9.873525269146242
Fe 6.375740452865083 8.4480017605484 9.290931224321843
Fe 6.339448708166543 5.78648846428601 9.362450899960761
Fe 6.362586934526001 3.1286864257917593 9.189054004870053
Fe 4.38788507632284 9.379042810031594 7.958812204728321
Fe 4.4791334134941625 6.896971842410385 8.289981174816912
Fe 8.911946916600982 8.439284617559387 8.140804160368598
Fe 4.394697031545749 4.412007706803462 8.740149402390678
Fe 8.736931535268404 3.177655713771804 7.869257204978298
Fe 6.9098902623070595 9.55221964343164 7.220812481064372
Fe 8.780579955109518 5.908953076405117 7.893499319596664
Fe 2.5408504926063022 7.945908101985712 7.219943740537649
Fe 4.478952139021561 1.8750597114085845 8.501086677327365
Fe 2.793876296626856 5.415724205243727 7.281337588413063
Fe 6.765315876169611 7.189480699231497 7.337199195340303
Fe 5.110712477919248 10.626028191059438 6.044871247442842
Fe 6.874947703170372 4.508192333829674 7.3490829113166205
Fe 2.7378130903624864 3.076896263325046 7.529897946838476
Fe 3.0314346632356766 9.46156114687532 5.4763936088318
Fe 6.774314978936335 1.728549607897715 7.37849910807464
Fe 4.82105168048652 8.135116031789538 6.098124848764723
Fe 5.001266054014576 5.697585113499752 6.391952647648125
Fe 5.06644652589477 3.1295547635501286 6.596897246614286
Fe 5.030546293155887 9.652118906993138 3.9080854052872773
Fe 3.265657993995076 4.0637982679685445 5.3301025931264405
Fe 9.413465811944816 4.655825238276697 6.02012443220977
Fe 2.9574356572375056 6.67309758314662 5.292441482567657
Fe 7.3847593153370745 5.851336277301303 5.357140260438351
Fe 10.709582431724701 6.6447852105029535 6.7627773207667765
Fe 7.55923734252187 3.0658572742624974 5.547545734780644
Fe 6.898345678728504 8.782973849794528 4.9538146679630195
Fe 8.87746133741266 7.688308928100888 5.9213264707528115
Fe 5.4567694637866895 6.8811948218566386 4.214128471033501
Fe 5.756756836622256 4.238066522307584 4.488824350152604
Fe 3.514214061457933 7.994013447136492 3.391976774295652
Fe 3.8916713233471536 5.306548432539879 3.355477567225018
Fe 9.992197846239677 6.200104476237168 4.323208168262352
Fe 8.372513232865142 4.4419813365074186 3.6896803012286443
Fe 6.3035000729652895 8.22067689588793 2.3673154294564305
Fe 8.02073551858163 7.180394938449194 3.5573693423655524
Fe 4.646119344221588 6.738899517659466 1.6875034452200428
Fe 6.502506287239517 5.572759100748232 2.5595898368274552
Fe 8.902801144982027 6.028802831698217 1.8920129323411503
