47
Energy = -328.48106472 eV
Fe 4.933240629752219 4.6588610983049 0.6397990078116942
Fe 2.5016794253191983 5.2327625780030305 0.89131246095712
Fe 5.308328002732856 2.230271663016421 0.5859370269272691
Fe 3.1919692652638667 2.9425469737476986 1.62661402511891
Fe 7.16292864798557 4.2475234247730675 1.1704159293627465
Fe 4.2878821768387 6.976508761122279 1.5690620588011912
Fe 1.4366485158440139 4.249702668602524 3.057883187818863
Fe 6.107668058285534 5.785420331980228 2.62987060098752
Fe 9.116186444250351 4.298076378483148 2.681656093034486
Fe 5.426774851837208 3.1781336396805333 2.6731341543367835
Fe 3.6927489516178205 4.973222940666582 2.8124043915275894
Fe 1.180098531039445 3.334410552061792 5.283429173594506
Fe 4.470618737993467 1.1055070095194985 2.7878231258892288
Fe 7.307166151627083 3.785069169002884 3.9335954833776205
Fe 7.506759209396723 2.0905905673139205 1.7482012613976234
Fe 3.411294178074583 8.74630126191093 2.922824251161485
Fe 4.33637797796602 6.9214434137205565 4.228575676642179
Fe 2.03966520509528 6.6688813936032805 2.898214845114477
Fe 5.906306612483261 8.339443276420127 3.45806689933142
Fe 8.992329375526367 2.16082334678192 3.8556268884019764
Fe 7.034188277267974 6.200609193736027 4.849263075046301
Fe 0.43566579372998004 5.665263747627016 4.729112411533636
Fe 3.2852702577518733 2.907369527870103 4.218566418330655
Fe 5.080613901783316 4.604810451385903 4.541380719336689
Fe 5.413916976638055 2.1888800928001615 5.115810762131177
Fe 4.116318990316112 9.287154398599759 5.064175019540283
Fe 9.11618644425035 4.492592475975794 6.798363150242515
Fe 6.829227046100495 1.0886150049705772 3.6637596358942783
Fe 5.971273768063042 8.057982297157567 5.970507398010228
Fe 1.9969654435087398 7.796085151092041 4.945368474108066
Fe 7.77557781565582 2.121574976969599 5.881992698376114
Fe 2.751075361113579 5.304283551877323 5.252793971092644
Fe 8.783280669874692 4.372164637877033 5.639131949548625
Fe 3.129466936128393 1.7283732811225898 6.312819481803738
Fe 6.551079608278897 4.104785239731089 6.2529944009551395
Fe 4.096984848924498 3.7370825735768887 6.631797578565897
Fe 1.3132934073042015 6.240628529861195 6.911893824802416
Fe 1.8091685349033726 3.8265450457130767 7.4316772491625995
Fe 5.04665569574104 5.9492023371734275 6.46172226805639
Fe 5.6977292593432765 2.2622996580143124 7.611469478538647
Fe 3.4777798451029636 7.6336927601604545 6.703949253130069
Fe 7.444570846073956 6.0678744568606815 7.3471664276714455
Fe 7.741626897304352 3.675975408302713 8.16182997388946
Fe 3.2577240009091053 5.603243942587427 8.097857500777991
Fe 3.5761522099626895 3.0728993974983747 8.740697644134904
Fe 5.579963357549953 4.632975213194894 8.524968393864516
Fe 5.444079080514572 7.115687950015215 8.348636050326641
