41
Energy = -286.0513382 eV
Fe 6.426499955011043 10.057346603040347 4.616426497025362
Fe 8.604613859050533 9.369461003728436 3.808133418929522
Fe 6.803007290245395 6.6987441163942885 10.364250542257693
Fe 8.56044588500553 5.19131261080722 10.406738635343244
Fe 3.126703280491224 6.330546266253451 7.512518734167028
Fe 3.653178524321704 5.006008673249538 5.579007541483743
Fe 5.453771856365037 7.43085755287896 7.731576026278946
Fe 2.7768008634508776 7.158898544068005 5.209611998824606
Fe 5.012267006480687 8.19250740279987 5.533095718910512
Fe 8.976126825491672 7.07252001491939 4.20566133849816
Fe 6.671768479108251 7.8279719960344245 3.737221611273804
Fe 5.310000478742355 8.487719016547526 10.279189595746402
Fe 9.033688362564858 7.492373035989908 9.55644650865225
Fe 7.056026619122063 5.49706568458448 3.328590448807064
Fe 3.0592160216749247 8.71258732321794 6.962444275125428
Fe 6.1206524077359425 5.820778952208952 5.63367666139665
Fe 7.182653656806648 3.9203049147718763 7.137254303461428
Fe 5.230662255754813 3.2343894014257923 6.033599621168768
Fe 7.167605792140223 3.5197054175372564 4.672390268636862
Fe 5.041353288820239 4.248527917244971 3.77281392449665
Fe 4.644505597207469 9.774622942037343 8.414065918668724
Fe 10.149140726135116 8.799699655637557 5.560310627917866
Fe 9.556908195438128 7.029825281915401 7.095939126638626
Fe 8.895684554906296 2.7281544699649496 6.2098274029313565
Fe 9.055121798150795 9.330883555600744 7.734589536206406
Fe 8.505756037776681 5.298566339961536 5.58188853864653
Fe 4.430116246917858 10.413096957292526 5.966226093422176
Fe 8.913962355122642 3.6139733489477037 8.731976043241444
Fe 10.348847841159465 5.745045694513563 8.912014107306831
Fe 7.087419221652555 8.520133724302172 8.772675617909776
Fe 6.548953034240231 4.310711380765357 9.494481028431258
Fe 3.278683533652302 7.9120403933643795 9.268155011641511
Fe 4.613998902169973 6.559091120594619 3.7459493827832695
Fe 7.469176562249166 6.214507334835233 7.971526910511597
Fe 6.532071055450498 10.009426841623055 7.058896872011597
Fe 5.093658577733813 4.996690499740338 7.6663851901060855
Fe 10.21233679118087 4.501844407934756 6.922406129495408
Fe 7.574554757364103 8.0859683261743 6.048707966661934
Fe 4.610138341748643 6.048943242427928 9.745979485446977
Fe 8.482810657731616 10.60872158058555 5.81353871912936
Fe 10.907632274685845 6.406255982379523 5.38588581028447
