47
Energy = -330.33055273 eV
Fe 4.045348200377631 4.283369441322984 3.3949858522399325
Fe 9.159795012156536 7.205535543843563 4.58586427173852
Fe 5.900686481165573 5.5494692151390215 4.876315536111708
Fe 4.106914684091207 1.9336506580177502 4.613748913763415
Fe 7.964096390557728 3.7914966779406445 1.993342502402328
Fe 2.7586811704696275 7.264030009614796 6.772144262848393
Fe 7.00857984548006 7.469101530094079 3.783821506485707
Fe 1.2800522633701152 2.8402388319728233 7.424908142624103
Fe 6.059922842094398 1.8367051553271034 6.254342169596857
Fe 4.298705914547999 0.10450407512727597 6.238483731062355
Fe 6.312202924233991 5.310200266980858 2.6246899307497524
Fe 3.834347036797278 8.339258218878175 1.755793420729714
Fe 7.485280097197431 6.699541468018641 6.236409699533969
Fe 8.38546247868786 6.265752041327482 2.155833063491233
Fe 7.195505939344686 8.936907728144424 5.543818369201106
Fe 5.062819391336748 1.0605555537415905 8.385424572108384
Fe 2.115913953010843 2.379437466193971 3.3412532465083884
Fe 3.2483445559566713 2.7110060057500736 9.1616909319416
Fe 5.499577122074024 3.679340570599383 1.2383694288466882
Fe 2.528722038757701 3.569651985330083 5.3482672837518495
Fe 5.205448406348361 5.9446213009032425 7.213927236371691
Fe 4.334752997965153 1.9060138562253994 2.3263153985709395
Fe 1.1011894771137163 5.173870815213327 6.244739121642383
Fe 3.3483578492467325 5.865314871580184 5.153360370316541
Fe 3.149170603156866 4.676214274487788 7.494301980292385
Fe 5.902436013799791 0.6874683628623218 4.031719825551976
Fe 5.100818447173037 7.758122200724001 5.692852262134356
Fe 2.7895219933072815 4.013787023755953 1.5047437937729515
Fe 7.108685023805125 4.175913604358795 6.441151440898599
Fe 4.678219857750032 6.870853963224267 3.354650845639121
Fe 4.820259356871819 3.8772372452267962 5.8933164679761605
Fe 6.676240865221384 5.530004383630166 0.4531966169161065
Fe 2.4209363345140655 0.5769887156067796 7.8707008865456975
Fe 2.456304901831196 6.459165930158741 2.6168964850624556
Fe 6.1367098105187114 7.57927154725302 1.4530572128968549
Fe 8.183746762951788 5.06910868041168 4.243025338864994
Fe 3.6063154291148845 2.3044278295164555 7.026830096830713
Fe 6.3079282926913 3.2307002719767604 3.9410862604385866
Fe 4.308974727282702 5.850248544839462 1.0985148344823075
Fe 5.279727633374241 9.181181719729116 3.6109795292150904
Fe 0.33972503345328925 2.942835645811007 5.2164506897299
Fe 1.10564939181833 6.910641400139946 4.698170926898367
Fe 1.4076110744408366 4.709440137375831 3.6142882189363346
Fe 6.685148813109959 1.6939152441836716 2.0864187873398143
Fe 1.9733629169604765 1.0941472259561085 5.541207172213015
Fe 5.411397912795743 3.516254691555091 8.205412851642018
Fe 3.022718102070813 8.28481444032586 4.355494883481911
