43
Energy = -302.34952479 eV
Fe 6.745456470258035 3.6541010891940187 10.159244113786455
Fe 9.062886111820307 5.045530979999927 9.11273762117958
Fe 8.8483377138837 2.726013850437325 8.453662332554122
Fe 6.969356805873673 6.141295354796644 9.470372997921645
Fe 5.016190020337492 4.95342609934247 10.149677569458223
Fe 9.380704010823266 4.497307191279108 6.728610508078127
Fe 6.587664739062324 1.8949273489768412 8.17139192545278
Fe 7.099159891837708 4.201983506754227 7.945163517891827
Fe 8.091080690632808 6.444496237526021 7.349739115643743
Fe 4.738793396793224 7.356854892251536 9.369423784117503
Fe 8.14303230386765 2.5695037697321057 6.15667964273563
Fe 3.317671374685813 5.629394815307374 8.367575946379182
Fe 6.91734515430361 4.819524321704106 5.7007288772511355
Fe 4.756326849072929 3.5054619470992248 8.214418914293836
Fe 8.994584078354041 6.450885436480059 5.100699987642556
Fe 5.538754351321133 5.889125147759287 7.439491210249396
Fe 8.910643751741166 4.272576704201087 4.183272566207147
Fe 5.760592592135331 2.6373715423217052 6.02806785900512
Fe 6.654678657727883 8.192200810183197 8.131566459989651
Fe 4.03170137371089 4.269085040700865 6.119455177074219
Fe 6.63574954283592 7.542387028131207 5.585027705058309
Fe 8.459819879440616 8.662127172092323 6.3478272314497906
Fe 4.780303538052136 9.661084511673476 8.790113329941981
Fe 2.656444452213448 8.12431543919681 8.2483770294436
Fe 4.459262732083589 7.86829417338788 6.909164237627929
Fe 7.141250682422527 2.841332650254602 3.8941219579594724
Fe 9.067972129919822 5.974790020854364 2.477056476734066
Fe 6.9071428035648195 5.814290104822816 3.6577024583870075
Fe 2.94144455283246 5.053766473625225 3.9801405924900264
Fe 8.137751196084588 7.914922556037669 3.4839216424425685
Fe 4.815599906108659 6.269718492789983 4.9042534381884515
Fe 5.132666975470186 3.985232468401645 3.9025178493268875
Fe 2.3805483488936523 8.430170366196277 5.548031989764747
Fe 2.7994309526101744 6.275317359522874 6.197630083653683
Fe 5.985235480148153 9.851626906925437 6.609670151290674
Fe 7.155591835722427 4.381176978860078 1.93460791118816
Fe 3.5311400307579675 10.06546556768067 6.895413324465817
Fe 6.913566220536244 9.682779517539142 4.44892897446637
Fe 6.943124777038977 6.722007699373826 1.4251897817833468
Fe 3.2968392576007783 7.3819600613460725 3.4529170313345183
Fe 4.78488567226476 5.767435288752912 2.3114957737123643
Fe 4.548549329296554 9.019538705866598 4.8263488844544495
Fe 5.731878317126 7.94892248508809 3.1084830994035335
