49
Energy = -345.64875108 eV
Fe 9.909767461226108 3.217452103641188 4.316349402471787
Fe 6.667883455960841 2.009257996474659 1.6308869108351283
Fe 2.934621457205476 6.703054684748842 1.981799901098616
Fe 7.2576283121089 5.538007187870428 6.348798539149778
Fe 7.2741280051200565 6.463970326242367 1.9887422053583699
Fe 2.0047504547247152 2.311731668134943 5.976042349245432
Fe 4.1480833441375795 8.017704012032555 8.180766362760068
Fe 2.5915683138862584 5.878082807210871 4.349119313441988
Fe 9.25555873119002 4.344165651575914 6.674674390469128
Fe 4.601032051065263 3.90422165006447 8.518740519694356
Fe 3.5937525722123516 3.541158136145793 4.407179612087507
Fe 2.9327175631073925 5.841732757938156 8.592333369221317
Fe 8.935779034190224 5.561821033187805 4.5057277708562395
Fe 7.097451347911509 3.285508819565236 7.535241418482856
Fe 2.089640576822781 1.9230668307889933 3.5032443568611566
Fe 3.2114229036110986 4.537256272602449 6.483897097158193
Fe 5.942990354632987 0.523259123532317 3.3291776891314315
Fe 1.0868173856915453 4.0679369330119375 4.638930318834465
Fe 6.682877113338919 7.569170368424177 7.364986052113794
Fe 1.0934007245593673 5.507909926630685 6.705712918023008
Fe 6.185861381617033 4.368730778443091 1.3845751037986505
Fe 3.066526149298336 8.179995046344693 4.208846941558305
Fe 4.205766376495748 1.363737730200277 4.664032140979611
Fe 2.1860230194383816 4.1018868933430745 2.467144695894127
Fe 7.158545531065241 7.4038058137937615 4.847558932425721
Fe 4.202166780710523 2.4796639243044325 2.1238026762750053
Fe 7.741963232028469 3.50819079347513 5.05447231786292
Fe 4.15987057943006 2.136898856290359 7.025567524303945
Fe 5.521612637610281 3.715650601230471 5.931462365836927
Fe 6.7384432479062975 5.308545081848012 3.791346794507745
Fe 6.406782272239879 1.4393488037632542 5.699660900721565
Fe 1.0286575029169698 7.515387083616296 5.403610055394079
Fe 5.172735565455439 6.524777901807644 0.8834694617171759
Fe 8.048073616915072 1.5219624258694824 3.8075381096124965
Fe 4.461210516909879 5.054143522267477 2.822992475910119
Fe 4.8806977574423325 5.8376418508601695 5.12134282348346
Fe 5.188135419501606 5.842945035155163 7.4265701802289525
Fe 8.722695107284913 1.8801125402139638 6.345309628789804
Fe 3.2348093577763803 6.9129115889767405 6.419711285582952
Fe 1.4656330320062452 5.429582669697673 0.7213309601697989
Fe 3.741955878928385 4.5447023909852335 0.6052947543984343
Fe 5.183987693408286 7.281354078829816 3.3080684953246853
Fe 5.952796026105764 2.9890293195939264 3.597910802590747
Fe 5.07474386447851 8.175404716343946 5.742057868446034
Fe 8.261961301950597 3.7911174171511686 2.707602165044056
Fe 2.8106585990997157 9.196041438128937 6.431511002131627
Fe 2.1942997200745378 3.4645617527233243 8.190567316082454
Fe 0.784788219728415 6.1707580973208875 2.983119419338052
Fe 1.4899480710684254 7.69786317919354 7.83439192589069
