40
Energy = -277.48115995 eV
Fe 8.23396286100639 2.4248879020849423 3.695079046792703
Fe 2.3486495006192687 6.31179831220764 7.770437137499319
Fe 1.8904559694639214 5.083087097083764 1.411267777294214
Fe 4.422545254088057 3.129293355212097 3.517472756668829
Fe 4.460423704662479 7.136978660402513 4.289154213689758
Fe 4.571688602449678 6.625813857154813 6.785864922754026
Fe 6.125084323834949 8.174749747809805 5.639356051601402
Fe 7.078268519601176 6.307193405475625 7.463502933748907
Fe 6.870844383755589 5.233563552550259 1.4636519860380552
Fe 6.4081843816051105 5.917548510084666 5.298602411500698
Fe 6.5495720244189455 3.5358230244382054 4.713096321220692
Fe 8.286452004490211 4.555899001992243 6.069347557949981
Fe 4.716383463597432 2.714953858743746 8.308911499692956
Fe 6.815991405724899 7.280390064177907 3.314626285594025
Fe 0.6660769983190631 7.0683722233993 5.958535763773578
Fe 5.9113872020756055 1.2869893652085582 4.006904067444335
Fe 4.549582126311785 2.3318940424781034 5.946891540397172
Fe 6.398730407419884 2.9329007077067764 2.077547107435794
Fe 4.1758834524260875 1.6640855713921412 1.8397592103024065
Fe 2.882646949227625 8.163266677375033 5.951685962665856
Fe 3.363878557242325 1.1733679261784131 4.162433901108611
Fe 3.2577551577849104 4.178751160269459 7.251384262732736
Fe 2.5648759802873995 5.960592290145321 5.510519147511772
Fe 4.4526500323770515 4.7046507914129725 5.246642640385407
Fe 2.3628591459839052 3.4049783796983926 4.8572820638875625
Fe 5.613689950827721 5.180096188914813 3.140895558312348
Fe 8.422496217261454 6.888173963114588 5.192370056498466
Fe 0.9706377578310273 4.532142327300145 6.4273828272812805
Fe 8.057862925452438 5.074856637022512 3.452732020502175
Fe 1.9568879066191327 7.182182581904671 3.6585722762970256
Fe 4.280827752035106 4.183046093127587 1.195501583091755
Fe 0.8073539909557172 4.9906602980385815 3.8750883615278586
Fe 4.667385376523059 5.413439697367908 8.698161562834898
Fe 2.384386624417772 2.086291913486832 6.837442354527335
Fe 4.406112944046697 6.5531672027853975 1.7517573176505348
Fe 5.935643309377062 4.254532081925114 7.09900066697262
Fe 3.133397870229079 5.270738939303961 3.227325475199829
Fe 2.341254262761947 3.0841880879511216 2.4850999041001893
Fe 8.577178267938354 3.6175735193437757 1.6950378816833334
Fe 6.8801836010777 2.1872121498590062 6.513806749958632
