42
Energy = -291.26549678 eV
Fe 3.392693745846194 8.02348771491938 9.408680808327754
Fe 4.959556637566526 6.245183446564215 10.43532800005817
Fe 4.2454957789952585 9.582850791777297 7.587142313719058
Fe 2.5436578698100805 7.855260922722907 7.119834350980735
Fe 5.722952672526888 7.920482529384635 8.968955601428338
Fe 7.296353579500383 6.364658346648934 10.13748406155954
Fe 3.8787351032958153 5.891241966559329 8.436582029648461
Fe 5.434296117305691 4.135463511759471 9.47963808372872
Fe 3.1981026620967286 9.437511347253553 5.430807120800203
Fe 1.5978560824691206 7.379106463863309 5.0343553325891985
Fe 8.142025122020858 7.794872592207495 8.311421600214636
Fe 6.590256326780085 9.51165182753928 7.384667442347494
Fe 4.852112923200515 7.37971818034088 6.834429641579142
Fe 7.7856927057172465 4.083791954101784 9.663074065582427
Fe 3.1210023907415487 5.61379994375149 6.199458657165384
Fe 6.31983532715723 5.756237854816004 7.942532321664134
Fe 4.636981326819317 3.9002049519690094 7.129998110415203
Fe 5.525243400510462 9.14359898460573 5.277272807907943
Fe 7.196187361771556 10.829940479844698 5.484191179452537
Fe 3.8646263182109934 7.324061807550213 4.616489326956724
Fe 8.757862233809117 5.477748624402894 8.079498257644929
Fe 9.351350482320505 3.179825471696657 7.913056168748487
Fe 5.498097819269561 5.574311514458157 5.501652807402483
Fe 6.9735050383071275 3.4336327953790855 7.504469601862916
Fe 9.633966878400201 6.843185882064032 6.309890926397152
Fe 7.810749833887681 5.118993543685913 5.872674269052391
Fe 8.815136481347974 9.111074709767854 6.327246973744455
Fe 4.067990550510192 3.638195990848953 4.752473949617665
Fe 2.370180110440933 5.33980317583572 4.071857420861472
Fe 7.150240199183858 7.4109243829134535 6.142572437212939
Fe 4.641885283870819 5.480822892133005 3.2268877970871435
Fe 6.3818288442666935 3.2941953172492244 5.139037182135863
Fe 7.736048366709554 9.133390428363882 4.213061354985942
Fe 6.096484757437337 7.370441639243008 3.7910134294313957
Fe 10.189191656622782 4.472680886595095 6.11363520110766
Fe 10.562365702351384 5.902026936366714 4.171686849986831
Fe 8.600961656553284 2.569685319138389 5.787115989891014
Fe 6.872749598781825 5.15485068755699 3.6550284408608715
Fe 5.652663888127436 3.287044792763276 2.956919889575754
Fe 8.913978401710537 4.085663092333297 4.007290178229786
Fe 10.255636528056478 8.289427855102936 4.587160579556292
Fe 8.467053817665944 6.787347355907464 4.096245316109019
