45
Energy = -313.78002203 eV
Fe 3.573531691805897 4.1122165981214716 8.962353580294348
Fe 5.814197239367549 4.71138655453789 9.423335026396035
Fe 2.4542448283089136 5.76162334677576 7.4121364109086905
Fe 4.053161241880573 6.525168941912597 9.118910692181268
Fe 6.338692021463087 7.168236375173792 9.713565320494856
Fe 3.0426067018010516 3.5552014768927984 6.70254017508158
Fe 4.653079973126267 9.22086957573085 8.666857070214759
Fe 3.0514086784684586 7.956388974744517 7.563555168734232
Fe 2.059562636250939 7.812970431553385 5.379445731177603
Fe 7.534508265082033 3.5049180232563835 8.238185348101439
Fe 5.262614434515355 2.8626063282282836 7.7525616692888
Fe 2.1461010735397137 5.448780167149586 5.055140970895402
Fe 4.8564099841788 5.250002369387224 7.166824688614185
Fe 7.092125715006592 5.882783387876726 7.6633063034958875
Fe 4.216612607464341 9.294287591056568 6.020349967780362
Fe 5.562583742012242 7.619590726495117 7.388183382980885
Fe 7.087356071577788 9.190713190661139 8.69612423853636
Fe 4.734755889007866 2.1607006624794463 5.577210084758467
Fe 6.357532401679416 10.067756801891337 6.643059182646094
Fe 4.052409854211971 6.758152682766646 5.615924699737902
Fe 8.030990342197217 5.361109935520487 9.946360298638242
Fe 8.987010195472223 3.304452304181697 6.301726298317534
Fe 8.711204309426243 7.302620542818235 8.897759570513994
Fe 6.983593271105374 2.0834252288832102 5.928811762204265
Fe 6.63414131606007 4.2099798031943205 6.065294611359056
Fe 4.2388341319567475 4.345612667289032 4.863762984748099
Fe 8.003807184422257 8.133117717970809 6.754931974064691
Fe 6.015587177010835 5.74791803570713 4.429616527724926
Fe 8.107760310445748 9.666647310033406 5.0262458928459655
Fe 8.008812004950219 6.070993944437895 5.527818793441424
Fe 3.6095637934935305 6.299553231654928 3.303231419301536
Fe 3.9520833867669247 8.588857398938774 3.7909280228321265
Fe 9.376548847107731 4.997441080838346 7.900274316988681
Fe 6.105603063971907 7.94569831762415 5.153683772197849
Fe 6.146185834558542 3.149662691599349 3.8756018604042293
Fe 10.20116638118902 6.943547187596213 7.003525133231344
Fe 8.386136249686105 3.9409552364313676 4.1465339007952355
Fe 5.960478303777613 9.867029946326964 4.036264230057258
Fe 7.240606921322768 5.320197749850077 2.5896741242521157
Fe 4.957634777350428 4.637706235545137 2.4751177216460674
Fe 9.757841609815074 7.729088211608519 4.881474658940758
Fe 5.57440884052925 7.313562882687807 2.5769252301571792
Fe 10.25586073287616 5.141925294229052 5.423284305621498
Fe 9.475706988151266 5.966510257047854 3.3357018871711754
Fe 7.774446293175713 7.705323829935006 3.565012349542657
