48
Energy = -337.76058896 eV
Fe 5.872731370845049 2.0582998831746644 5.639198815319979
Fe 7.43595101244493 3.3542839892706855 4.480159513071952
Fe 8.999274829007376 4.397542522252808 3.1000228679765005
Fe 5.045956625131743 3.791709384395989 4.050110905612844
Fe 4.62319999151042 4.490813900757653 1.7866211424949958
Fe 6.7711810418658365 4.915808632013451 2.560186445468798
Fe 3.588748895305783 3.0723759558184502 5.795180592032138
Fe 2.8931136971290097 4.886198306695069 3.2494504774950155
Fe 8.900431646658307 6.670835744225002 3.401585352138909
Fe 9.341262290572576 4.737666912931736 5.452146912131413
Fe 5.162307026985623 2.5334094213524097 7.688376117829728
Fe 7.433196756822848 3.6220396297345063 6.941635890944253
Fe 6.652838509983105 7.235214279764076 2.6304072615772975
Fe 5.445599198847392 4.735531650316972 6.250737182076637
Fe 4.323972549231237 6.788581657165743 1.848405006395077
Fe 7.241570178364778 5.652309496321139 4.784185500801256
Fe 4.939977050497007 6.151148612203632 3.970454706809905
Fe 5.762361181725668 4.582252984013186 8.603857414240174
Fe 9.606544559405378 4.029694253557823 7.828752784642723
Fe 10.703414180431635 6.033399154979684 6.964032584207918
Fe 3.3700258809874835 4.132447138062047 7.898517725550136
Fe 9.089570894445476 7.243946634512195 5.670181568607919
Fe 3.2295870396268214 5.496483137117079 5.5454205590371295
Fe 4.814045266279859 3.2112766231362544 10.063612037077867
Fe 9.981959258328933 5.953216167767247 9.250716191205653
Fe 7.879467791282693 4.792606777413374 9.473366149330568
Fe 8.017791550504946 6.002851551065835 7.3496904249808175
Fe 5.750366406770452 7.250676278229396 6.002550293160459
Fe 4.017647360696187 5.493703632257841 9.941722056504156
Fe 7.284939657812947 8.386519617628716 4.570172544761795
Fe 2.669688664427714 7.246290608827082 3.5486480921581425
Fe 4.857724730947013 8.528974922829734 3.7006810111071315
Fe 6.053861356265233 6.838839724980458 8.452203097265036
Fe 3.8631203014262283 6.433182150301608 7.655801875044645
Fe 3.493719919321096 7.954300297810794 5.618862397316507
Fe 9.774648206353863 7.999119123525823 7.925521270751955
Fe 6.165232312817014 6.280134320144703 10.702933663707327
Fe 7.366727872360167 8.66605118933139 7.201911492818738
Fe 8.123264219111249 7.359706392060101 9.559532916684269
Fe 5.318915545711914 9.700792868022466 5.683467505050013
Fe 4.239153232305209 7.741096347189357 9.847101148174815
Fe 9.332504544476281 9.545196625685167 6.040307800972755
Fe 4.682122207842663 8.739031707870847 7.726780127446612
Fe 7.320920968162835 10.665304955016701 5.279045693339447
Fe 6.333050599274437 8.941126003005909 9.641417776583626
Fe 8.49756631087503 9.774689089023568 8.989354297753383
Fe 6.250009851785034 10.697352650722227 7.758217459612426
Fe 8.357152386935345 11.33993170313581 7.2538003979631975
