55
Energy = -387.87960978 eV
Fe 13.036768800336608 7.96731126967354 5.796755611607388
Fe 11.71485827173025 9.781538736307953 4.765024967635176
Fe 9.323652610933278 9.728282551263456 4.133181036981584
Fe 10.667985610727117 7.653819898190505 4.448311969815044
Fe 11.82470336936994 5.944535404519918 5.449787775765111
Fe 7.312334854507631 5.896270518898885 5.612878779414102
Fe 9.973128992344222 10.414556302310755 6.387387799141715
Fe 8.765781510038925 8.096242375072197 5.762585946768422
Fe 7.625033625476799 10.376932955899354 5.718350377181369
Fe 12.532691933816515 10.307987821442259 6.877172621606485
Fe 6.380040191297556 8.337233424454372 5.681292755404562
Fe 6.010975924108333 5.076673820812113 7.650209203646744
Fe 8.555514149681912 12.390723738301057 6.779576707764507
Fe 12.047396301516265 6.161030313863097 7.76379170444164
Fe 5.1410909748018465 10.175066151056432 6.46999236365098
Fe 11.02439347988419 8.174649674454592 6.906576827290145
Fe 9.717576743666381 6.087937174935524 6.481197254809807
Fe 11.072602499704972 9.822304945389861 8.603723300201993
Fe 6.790972165835395 11.21119115937835 7.749961115153118
Fe 9.44291693146662 7.336098028459088 8.504845232360658
Fe 10.853870573336572 12.15545061608227 7.906192015465416
Fe 7.255302801940609 7.069089552152241 7.541014233661384
Fe 5.831028711453349 8.947301989258614 8.24654588832971
Fe 4.865554938611431 7.144431191305913 7.062346969932117
Fe 10.852688464502494 4.081459327083499 6.830588275477609
Fe 8.356363443849784 4.380321559051481 7.217074872976565
Fe 8.326398619398491 9.302463327398575 7.954936048949471
Fe 13.130543607559206 8.344378194460857 8.254453591968689
Fe 5.400270877733391 6.7254672419326536 9.482089020688894
Fe 9.011982713487763 11.340191439227207 8.932008739128626
Fe 9.042161956714086 4.499134810427613 10.98982551535868
Fe 4.844135306991947 11.022895796388982 9.072607663574004
Fe 10.078108117006273 5.136560018185092 8.865697965686588
Fe 7.016487019859622 12.544510335824585 9.583315719136685
Fe 7.444359798962028 7.816953173887577 9.946711652300129
Fe 7.664398041388126 5.4360668572648105 9.256645414230976
Fe 12.20683590750538 9.398780341936469 10.689759232429978
Fe 11.36089018567125 7.384363725832065 9.777615553582551
Fe 9.541368059583293 9.174943919653986 10.300020261252845
Fe 9.245847231029215 13.354431417928156 10.227660418853063
Fe 7.068346111243277 10.111497884151468 9.952725375968289
Fe 4.443693825367513 6.634889822059482 11.59648383014463
Fe 7.62473493989146 13.21752314888303 11.99996564339018
Fe 5.071403506740207 9.05576554940721 10.701108384949007
Fe 10.839005982362924 7.913018288624528 12.080586809386888
Fe 6.385032675513387 7.749094038475323 12.090833789291134
Fe 9.224409586634831 6.574112094282278 10.934266176404526
Fe 6.687405468711824 5.577137193926761 11.330678223491425
Fe 8.55163930671784 8.780596787378057 12.327080508718803
Fe 8.474069745079063 11.171803145707322 11.502931881109749
Fe 10.906933232524478 11.457920487322603 10.444358486086792
Fe 6.555919312055437 10.136740483258706 12.608123909437168
Fe 10.07978898023804 12.775728273520718 12.315682065709984
Fe 5.523400547508338 11.637643788873108 11.241532075259226
Fe 10.545762161744866 10.27750861432595 12.464491137192104
