55
Energy = -389.58204986 eV
Fe 10.903896557578868 4.317173113092905 4.6614501477283365
Fe 11.177372258849164 6.715341047802261 4.965812492225328
Fe 10.937395016137044 9.062204073560528 5.187254933953902
Fe 2.8450233845007578 3.744467907792572 5.379012427456523
Fe 2.71363515550162 6.183072988950599 5.104392241863188
Fe 2.8655654199679406 8.480828053965013 4.812389286403961
Fe 5.081367949480803 2.9892470886023266 5.68848279259961
Fe 4.615805529210972 4.989549951397169 4.076095503186702
Fe 5.206583716538466 7.164718689635694 5.087088866860048
Fe 4.79241392316605 9.818136280757589 4.800733297968483
Fe 6.288621985778305 3.51798935245588 3.4977886919017114
Fe 7.213020587632645 2.1115984628539213 5.360126461052907
Fe 6.814145681848406 8.731396260277092 4.056473076073782
Fe 6.813639040602022 11.109822545748242 4.871677908934727
Fe 8.52270427998873 3.73829508529772 3.916802787536329
Fe 9.581684102500672 5.692241165492704 3.0214103729065123
Fe 9.081763545071766 7.742580265672977 4.175414437618361
Fe 8.593932964553968 9.514686249333929 5.624014634983036
Fe 9.23654481571269 3.4051064291543502 6.167063601403269
Fe 10.802966852588137 5.281298454867763 7.010343847246037
Fe 11.844859645638179 7.6508513220521674 7.1651897753822125
Fe 2.0698267035308957 5.045546346934066 7.5128460199245675
Fe 1.8176205340708622 7.6103440905099236 6.814456448871509
Fe 3.138211635231289 10.132787090738619 6.574358966880961
Fe 3.52778666796178 3.006590767065815 7.5674555933101795
Fe 4.243334476741421 5.278368537706576 6.501754147629378
Fe 4.141123860262113 8.095777694829227 6.997442515447728
Fe 5.4936204658899905 11.631810725198077 6.796360497897645
Fe 6.70745018282669 4.75420563486972 5.730336943255574
Fe 5.424280612788281 1.576267780134269 7.491075508313113
Fe 6.228992484230063 9.390244653248395 6.625065768697391
Fe 8.052743117437272 11.314777178493973 6.960026966883132
Fe 7.323133917852252 2.9628542020528394 7.599296634379025
Fe 9.032033161607202 5.658674746871632 5.339724881206
Fe 9.601330416404252 7.458556407942956 6.917150525535878
Fe 10.463955825050709 9.796971489593753 7.309488901851565
Fe 9.975466298298118 5.79883181098982 9.184266386218157
Fe 10.199862787969154 8.16914414569652 9.153651629977714
Fe 3.382648134899871 4.524670686892179 9.486999607981668
Fe 3.4348435667717236 6.532830793337765 8.607094998502923
Fe 2.3455482094169526 8.982541466813695 8.620039890474843
Fe 5.482286094278007 4.160514245573184 8.22089502262278
Fe 5.534683036127372 6.162881687802426 9.762661540506114
Fe 4.107035870569428 8.291911695543842 9.954216156078006
Fe 4.48587052154018 10.2152344852699 8.55716026476206
Fe 7.603837796188341 4.570214383721265 9.636680717705222
Fe 6.062086309096144 8.421399919726912 8.80698234962643
Fe 6.791379849884608 10.800698187204521 8.842394440561113
Fe 9.587269977485617 3.5827716030435153 8.636381020056392
Fe 8.242042787148145 5.274994420690035 7.53887103490357
Fe 7.93830706758653 6.999823318197116 9.213757402048667
Fe 8.287598229566441 9.127678641445062 8.139620294150946
Fe 5.930042913513774 6.436403691702654 7.573617418553265
Fe 7.421488644025597 7.343227489063173 6.08299340917835
Fe 7.096029441648188 6.036559203077749 3.7225725214697487
