55
Energy = -387.51560932 eV
Fe 6.427143093856221 5.485217292432647 4.217390481171939
Fe 10.991670950384936 11.508176378241945 5.688115513328175
Fe 8.740099882094855 6.359058056387345 4.796449201074144
Fe 10.18434313910948 8.943161631351009 5.918688610097037
Fe 8.956264903430723 13.235614574393257 6.264448278152124
Fe 8.340788099371897 8.952296656832265 4.5605802490345555
Fe 7.249906295661347 5.3097221335423885 6.3592802240688435
Fe 6.582431781246872 7.576596050737998 5.209750908092218
Fe 4.847910647937763 6.0600195634456435 6.131772435315613
Fe 8.806697223120247 9.574007301260178 7.773408384307658
Fe 10.951375832966216 10.42765571042327 7.635170565085115
Fe 6.434781179073724 10.197207550214083 4.681740625684363
Fe 10.842536233951426 12.846990193986095 7.727942039052591
Fe 8.562482692013052 7.354025302897983 6.836840663791808
Fe 8.710740725085023 10.993936331344495 5.796563248377245
Fe 11.0286880972177 6.654059941450546 6.058197355643555
Fe 4.619238165515018 8.54418757223832 6.28516507251846
Fe 6.3403838708258276 7.3478067179259705 7.798539187304652
Fe 10.236018594463369 13.355300757949333 10.109587413579456
Fe 5.595620653037332 4.701922455232859 7.963759940774999
Fe 6.756471920033101 9.488686408162666 6.746158271962748
Fe 10.566995580095476 7.904045470356315 8.120452317495603
Fe 12.458697519050041 8.736227575566817 6.923491946742254
Fe 11.67073212999458 11.408180660524682 9.882479902867702
Fe 8.437715900646637 13.644007232375468 8.540908737442228
Fe 9.715453867738841 5.212202103299744 7.305300766903454
Fe 7.628339048840615 5.559150449769174 8.741789130644776
Fe 8.87288388260845 4.11873210212672 10.082006750784954
Fe 4.190651865348915 7.048059230732734 8.40523882813577
Fe 12.155874694639017 6.374690283568247 8.215778443408333
Fe 12.980222027293047 11.26459598042053 7.874124307480606
Fe 3.197721651973903 5.068132760803312 7.786269145359717
Fe 4.7638799991384335 9.395870940161394 8.538613828208385
Fe 6.065729271839867 7.900690095192052 10.189947969556188
Fe 5.380841391591789 5.703438543532291 10.044705349372437
Fe 7.203035412089939 11.812467218674293 7.540029018628215
Fe 9.172797843033257 11.503451851663357 9.079987205966978
Fe 8.246882442975101 7.948381260228917 9.338300750216554
Fe 5.615430086329474 10.121427385920416 10.934346355056626
Fe 6.868795372857785 10.03591375205695 9.04906352387463
Fe 12.543130489575894 9.150886405657753 9.250679955890524
Fe 9.89973927995898 6.088824867552946 9.515053662154667
Fe 10.15796953268729 9.407081318004604 9.86267138429325
Fe 7.7025480113155895 6.01931317883294 11.06282991695109
Fe 9.74446573277834 11.34920206441616 11.420062286235257
Fe 8.020157493868458 9.76121469107464 11.0624331973879
Fe 10.187175640035797 5.435797814681134 11.808826380104627
Fe 7.38547590415494 11.93100345843466 10.434266905273395
Fe 11.084086256916562 7.418089339267953 12.954778356218306
Fe 11.753947360229803 7.214946360263856 10.575281728370744
Fe 7.068171456682269 8.104326881197718 12.367598816565277
Fe 9.466035421732135 7.7751592753004 11.401069159791625
Fe 11.533889930461005 9.52563270820984 11.684757862007125
Fe 8.65544708563402 6.591896135153823 13.269853957685186
Fe 9.248963558810575 9.400789147850421 13.026930607829868
