51
Energy = -359.43431675 eV
Fe 4.4960774960940535 5.1467567080170324 4.033405052660852
Fe 2.6367047942903636 5.727568402029733 5.654866084820488
Fe 3.0877443418808723 3.41473393874561 5.10451859267866
Fe 5.049292646357031 6.597145483927592 2.1849647703408768
Fe 4.670744317980603 3.6184343830963526 2.3308135010799367
Fe 2.4914793868235434 7.980023748417998 6.159108323981125
Fe 4.193854176594719 2.083867300175307 6.667970223981444
Fe 3.4724568567466143 7.402204485756991 3.7883074725805423
Fe 5.205696283594477 2.6802900836837926 4.4094813524708085
Fe 3.1692502356531005 3.93346604490263 7.727596767709286
Fe 3.523262223234336 6.314993493600993 7.7723477016661375
Fe 4.968127670275412 4.56595405106829 6.3555253312026
Fe 7.236258839796586 7.514362957939261 2.298077095331052
Fe 4.325834244237621 9.539202788703898 5.420992576268015
Fe 6.7534070282238154 4.990069381872788 2.5948071792815646
Fe 5.136274703828023 5.144100678075972 9.109945876562877
Fe 7.62395498323526 1.7129659424872274 4.443619109864344
Fe 2.3650809263207453 8.338956716040263 8.633986660507706
Fe 6.511429503752489 2.4096917998642935 6.406871700887496
Fe 6.797475214907468 2.6550823890128767 2.5059640475184284
Fe 3.0123614316669896 10.307701624346926 7.303063353291503
Fe 5.538545798748657 2.916420970228353 8.523321047595248
Fe 8.293542115161896 6.143153049076762 6.0560460819955075
Fe 6.460188578025913 10.590262319439997 4.864624233176239
Fe 4.619867698535052 8.525384629336948 7.655869492051124
Fe 10.577085247483385 6.405222926806469 7.097460230950418
Fe 9.08659718855837 8.241738648892776 6.80248967231824
Fe 8.384565119910867 6.527153726338478 8.473160235804086
Fe 10.307714330575228 7.337222685940797 4.8302369318227445
Fe 10.196846454254137 4.8948086358668945 5.265946832437382
Fe 8.0204314491181 10.322232220336373 6.550503351069496
Fe 7.521481640147876 4.412103907574961 9.687088054795693
Fe 6.5835466122275506 8.468235140110249 6.065375618859694
Fe 9.537820619050656 4.41886654284858 7.899505107631937
Fe 6.6446174762870704 6.774608340819599 9.996115123483259
Fe 7.229736374611263 8.631326550138867 8.347291689956457
Fe 6.085590071341435 6.653891187345157 7.587233285364025
Fe 8.200335454221184 8.462469997289418 4.420841185959178
Fe 5.663912680174108 10.590161682092008 7.338798950899667
Fe 8.680013015181945 6.063258724406905 3.646788193314943
Fe 4.397808805637952 7.472313302146149 9.799647406689495
Fe 8.799677905717736 3.1921649973671045 6.0743827442801
Fe 6.171671052356794 9.21047364892514 10.108729694435546
Fe 7.973215009023452 2.4682326192042 8.308258123147857
Fe 8.852616415470177 3.6024691989110504 3.539526050966541
Fe 4.052976111853382 10.008538711383599 9.343569267614765
Fe 7.106316985939141 4.566352335248923 7.459969880040239
Fe 6.997873096193344 4.213865092296338 4.851166083728956
Fe 5.653675409140956 8.618027620990427 3.648399786624158
Fe 4.594904486982087 7.063550744004817 5.7514888687042545
Fe 6.430226219062607 6.518084169355086 4.49010072608407
