50
Energy = -353.54617053 eV
Fe 7.654288411283774 2.586211475723174 7.364392665231024
Fe 5.698849632516642 1.8151736213214569 6.287352562393321
Fe 7.1691665641780125 3.6763629337306236 9.413831979074907
Fe 7.43790696715583 3.305822305614383 5.1938669725223745
Fe 3.597582860800796 3.013671135699487 6.233377545444277
Fe 5.06937442021002 2.70291172540395 8.421791357889344
Fe 9.127103664590004 5.316523122705855 10.410200652798883
Fe 9.372938099991513 3.836674802268522 8.439258596955806
Fe 5.165415872450217 3.5131363205352137 4.5395442351003235
Fe 9.798268131501693 3.8558616481047676 6.036031490421624
Fe 5.284077604429388 5.113552612779185 9.085496616787953
Fe 6.768073798424426 5.399275668933268 11.06202168853026
Fe 5.876439779646313 4.290084866416058 6.8951380799996755
Fe 8.64765388781283 4.952765489725617 3.970968014556817
Fe 7.021678671161428 3.456499558875727 2.935440699549988
Fe 4.98073931476136 4.828336678066687 2.4508268134500035
Fe 2.972336137878561 4.303772095349534 4.0194288802051785
Fe 4.045241828920679 5.5908187242046345 5.891689623676521
Fe 1.6633371907763346 4.430757349598509 5.994023661820983
Fe 6.336036678268323 5.5529257851281075 4.585224519351794
Fe 7.672201728373408 6.017795969727664 8.727981766804128
Fe 3.18198859626258 4.558216990902063 7.966403527623267
Fe 10.154486221960836 5.892808273693878 7.791625240346863
Fe 7.694894077492945 7.480254736455418 10.836648777163777
Fe 9.575647721949952 7.498783459531525 9.49187752322933
Fe 1.7825105395125411 6.4948655910441975 6.978770709197103
Fe 8.09102894161035 5.281812116446192 6.4644468071349115
Fe 8.75721319036669 7.667593234460635 7.1284566763467625
Fe 10.119466045319314 6.224542643802104 5.34513120566848
Fe 4.126455020007603 6.748980513172085 3.6529016583797818
Fe 5.680593194078328 7.328145425185682 9.583151265981089
Fe 8.783708503263416 7.0077535420776815 2.8624194802781577
Fe 7.220081034550005 5.455413556029477 1.841707283475065
Fe 2.627904054922952 5.6930207982841665 2.158049096336911
Fe 3.7470356453439426 6.895892408711175 8.31493758337118
Fe 6.195796222595312 6.882597177605066 7.049709139259917
Fe 7.3769108907657746 8.709875613537744 8.692141435674536
Fe 1.9874386411801772 6.606426304863279 4.540470252248905
Fe 5.54544079138166 7.941132806526257 5.066292256497456
Fe 5.078327363523888 8.957908821393406 7.652826010225248
Fe 7.9664069514488665 7.3227088409152294 4.996253954347486
Fe 2.7899075542751763 8.063021744037808 2.2047384603690228
Fe 6.363554318303348 7.384228051580965 2.8483038876602857
Fe 3.516995611783962 7.902754910807587 6.164006791440852
Fe 7.098691528689067 9.30385612645038 6.32141121811618
Fe 4.799288689087835 6.972578978652682 1.2511393551950905
Fe 2.8584011475670374 9.073596299378925 4.298534669645919
Fe 4.973730826363303 10.112481220498776 5.303975340408601
Fe 4.847047522152078 9.19594511549967 2.9132107747014313
Fe 7.249866659775791 9.333399559208118 3.8720999477768214
