6
Energy = -33.2401337 eV
Fe 8.143570477946191 5.785661865789381 5.48303122853982
Fe 7.788646649130295 7.633890801163873 6.851800134652289
Fe 7.561090252079087 5.556240126986058 7.688084039863459
Fe 6.040441249818182 6.331637742048366 6.153615227754548
Fe 4.30332305736261 5.640447594760254 4.974020392476614
Fe 3.94055853117104 6.833280277025431 6.632643663474669
