7
Energy = -41.26116439 eV
Fe 8.508319020219119 9.49504997564816 10.319792295899227
Fe 9.252841329910742 9.791025336377253 8.098490564939256
Fe 7.895743757725904 6.77617269413728 6.510851934512949
Fe 7.945985398382884 7.84196516885371 8.67077225668069
Fe 7.588893104013459 9.02135280161411 6.68555992922673
Fe 9.818381368195098 7.696490369324725 7.293844268169291
Fe 7.329745578979686 7.73725089085317 10.857698433733242
