12
Energy = -27.44077181 eV
Ga 9.155090129488002 6.5434628797313295 6.238386851256776
Ga 4.904636869267225 5.99065735117593 5.030735494483845
Ga 9.058039452903405 8.463990903939317 8.195177319629254
Ga 6.9254494986416075 5.257998244537858 6.585634154357644
Ga 6.265460938499551 7.347144839105688 8.068853701733488
Ga 4.9360754722156095 8.489470394260495 5.768324593456544
Ga 3.49266185686839 7.711242031726504 7.808446844455296
Ga 7.3882802182068295 7.112831752801586 4.304021832787947
Ga 7.5928763059642375 8.996350792625336 6.22770690291831
Ga 4.238080153339063 5.198072571829108 7.46265615187854
Ga 8.335315217747786 5.861888168777515 8.938327688438603
Ga 10.957702398939292 6.343107584650076 8.700100106613242
