18
Energy = -43.83855631 eV
Ga 5.069961472879333 8.192746565621189 3.9508458460944875
Ga 5.502557070912916 5.291825352731118 4.546796492810437
Ga 5.350910902847058 6.922105625258489 6.6450373581926705
Ga 4.295783084933335 9.380163804207765 6.682360034409073
Ga 7.580359028133979 7.024853651343326 4.484558439711781
Ga 5.166541934535646 10.648550466829953 9.850814629226633
Ga 7.641162864093678 4.191136755195428 3.4594416376943666
Ga 7.051511853501322 9.16139423956473 5.879542216745337
Ga 4.7271999987858875 8.12400105444319 9.011455128036955
Ga 6.07654712000871 11.198125273167236 7.3888457960293366
Ga 7.263707248236423 9.103748456742712 8.61438907113093
Ga 8.247856220038841 7.132990916609934 7.173677141306179
Ga 6.118623557764837 4.367000940492402 6.939784474744867
Ga 6.643417015227382 6.165624773310861 9.146119059452783
Ga 8.662559304056458 4.963218431086309 5.787313148735333
Ga 7.909475775700961 2.5672651551774117 7.262944284996633
Ga 8.847825741755555 4.923043890219185 8.663820332473536
Ga 10.472573568723744 3.259033986506691 7.133554193437445
