18
Energy = -44.26284451 eV
Ga 2.296983265897651 7.988932086592455 7.434668218254497
Ga 4.742370921450738 9.256819687547587 6.637794492067684
Ga 5.180122268053178 9.209464360096465 3.9680666351603224
Ga 4.542003940522007 6.405175609228638 6.628349154288535
Ga 4.259822919120486 7.592845325384828 9.195734573259255
Ga 2.9295653837605524 7.683037746528875 4.8663562538087755
Ga 6.9915217049657405 8.129395426161764 6.133130631647427
Ga 5.560187512373159 6.584141849609334 4.142819419880723
Ga 6.314181333550469 9.207637421500323 8.76464761000523
Ga 9.23808117561178 6.893524006343708 6.048603418695026
Ga 10.477634122948386 6.366231496955592 8.663338811254713
Ga 8.657246892357964 8.194812647373812 8.509969319366407
Ga 6.994826516983617 5.171503970774504 5.760260506292964
Ga 11.383341859880451 5.499079523729122 6.213891477891893
Ga 6.447499966549508 6.335473912670696 8.369617578166606
Ga 8.442455174326167 4.691653805153463 8.311786676365012
Ga 9.299565332898233 3.9202549820890904 5.802359241103116
Ga 10.974826952061694 3.6793335918379824 8.46802083939063
