15
Energy = -35.6531479 eV
Ga 7.402801754269021 8.645148960963043 5.747936624020632
Ga 7.607198999863977 6.403085390568344 3.498690743673624
Ga 6.853265154403544 10.133999641832784 8.293921051034399
Ga 5.529759885672572 6.658388269570634 5.166148929202018
Ga 9.016874666024407 6.3376270250776106 5.6274369421301955
Ga 5.070037047998276 8.301800849621841 7.1210795853241375
Ga 8.378597553599223 7.688239207932666 8.038020362851292
Ga 8.032556076615021 3.75292287506201 2.8413086364612714
Ga 4.641615202152571 9.217016623218932 9.569810720727958
Ga 7.985930977985435 8.936358740576308 10.371055706458652
Ga 6.91509572355728 5.252793034087864 7.033505052229993
Ga 6.018751225171587 4.189163287045296 4.6496807742446356
Ga 8.66087865824294 3.7773477054380833 5.5032699748191884
Ga 5.844147545087631 7.95368462919272 11.53386843905623
Ga 6.1360638391915625 6.8334956655662085 9.081703717261576
