17
Energy = -41.32499369 eV
Ga 7.263822118489321 6.81807927522102 3.706201639883831
Ga 4.651712967723612 4.0438560123252945 3.751450449628268
Ga 4.601889705358158 6.572976811417091 4.525291658890117
Ga 5.895718265801456 8.233956462174794 5.906775347891246
Ga 6.879343185084636 4.368065445954938 5.167514019441314
Ga 8.115776794165999 6.346975231582379 6.220144064660059
Ga 8.630201980955716 8.793361466677961 5.221039463139409
Ga 5.474714625530903 4.7882174932889585 9.686283351432971
Ga 5.358818038898693 5.72655360086183 6.980726151948588
Ga 5.125257480217134 7.530721851984733 8.974676440766551
Ga 9.211080392080476 10.742629459934323 6.884541161207631
Ga 9.477770235599321 7.922834726762747 7.79579184430644
Ga 6.973194796854322 9.19889055501349 7.893396891389324
Ga 9.162167151286631 9.981419601184768 9.437412975801028
Ga 7.289623665572205 3.7512299160756934 7.824143045001503
Ga 7.4005810292476095 8.273256417000468 10.474737401839773
Ga 7.794160828696283 6.21318383310154 8.855357502113574
