17
Energy = -41.22405623 eV
Ga 10.450693743978539 7.507128223936981 9.945416121891519
Ga 9.695897064034494 5.626166465562415 8.114617050637586
Ga 8.881841412463764 6.260184669968926 5.754412402965807
Ga 10.540033493227181 4.711536566220752 10.573296412281941
Ga 7.843129866414198 8.283408603228823 10.333280029989815
Ga 9.232658367369835 8.3965610755908 7.897918870385465
Ga 7.731497176702731 8.907358946620967 5.941155259828115
Ga 9.03017077480425 6.615531336625471 12.17652991770919
Ga 4.56836268215063 6.884907257237595 3.0619097068790504
Ga 7.759241984516475 5.602914794741372 9.955146965584111
Ga 6.568424298212764 9.599311992150554 8.589365117009542
Ga 6.006513601778168 9.34540137006831 4.019977268582016
Ga 5.154952671653717 9.656832964897788 6.540251941962237
Ga 6.849122463518766 6.753758747341935 7.864827178845267
Ga 7.035841798430153 6.886042247567502 4.136800316380423
Ga 3.3633762100215794 8.654737358500205 4.82502169374699
Ga 5.111751665505763 6.908196397714739 6.055837156944976
