14
Energy = -33.42641281 eV
Ga 7.179637516454789 5.780424013847973 10.037924551147551
Ga 7.445237257457503 5.294381193573467 7.3395877864210775
Ga 3.848261774797046 6.494342830347382 8.533389608159313
Ga 5.351998071301849 4.356488448109708 8.808957072499007
Ga 8.676496209751853 7.534385336007856 8.604347411522046
Ga 5.973584210056711 7.984770917851175 9.363536501061926
Ga 7.58478286395293 10.039367644717151 9.90757316950085
Ga 10.865442191281193 7.906235792485927 7.214162541289693
Ga 5.7541997986114515 7.136104679072816 6.787203765129521
Ga 9.57785524170746 10.110654039339186 8.173311056958529
Ga 8.731837452552996 7.08016648522606 5.8461189998166665
Ga 7.445578429157851 9.322089643435385 6.806912412378841
Ga 11.556915500500217 10.770860240468092 6.414979772647299
Ga 9.483816813678843 9.5701940841536 5.17269164510641
