22
Energy = -54.21908132 eV
Ga 6.584992518821584 2.690360505549371 5.647589144379965
Ga 5.569670684870138 2.0864908467425893 7.9992456154828595
Ga 8.888854134434322 3.431801922471848 6.700226848758108
Ga 8.149525537512112 1.8534481372932545 8.653789932173094
Ga 4.675191472853985 4.455042517473045 7.013030452142043
Ga 8.615709818497011 7.616922709442349 5.062420011675356
Ga 7.304974954291347 6.801981795761021 9.796444354094167
Ga 6.968631733948654 4.469349960877478 8.523216427080794
Ga 6.244515696432242 6.833677479827537 7.298766424801957
Ga 8.977578791707849 6.056207162372571 7.196183222240942
Ga 6.988417215839174 5.24564147213713 5.2572289537836205
Ga 9.181375207702292 10.150508036097234 5.570197598681335
Ga 4.177046585436381 8.50838060122738 7.1431374720922065
Ga 3.914408208913625 6.403089379046832 5.614430443548507
Ga 10.09213100527534 10.715558416171891 8.00666229733236
Ga 8.583997030789272 8.521964184890757 7.99204735923189
Ga 5.769482807176424 8.924593380116669 9.214115300875884
Ga 5.992299706206437 7.664768341893601 4.502932200443689
Ga 8.923012139526275 13.156793532119634 8.235240731782154
Ga 7.496824075182445 12.130584303434842 6.193436935301431
Ga 7.402158733947296 10.90001004001723 8.747785486211354
Ga 6.5664150904491585 9.637410585947217 6.315399426289755
