24
Energy = -60.20702653 eV
Ga 7.105497367115322 8.783195694210642 4.478087907124025
Ga 4.2496419981237645 8.61936042136862 4.862687543571199
Ga 8.36102976123031 10.171288690077269 11.188946403617937
Ga 9.922249791845907 6.749380835093369 11.488786753082241
Ga 5.904073879237334 6.411099158532845 5.852881569371899
Ga 3.284999044028147 7.3199011112419115 7.006005263712756
Ga 10.261609011738022 7.638051736034575 7.712311247482192
Ga 8.975574041321243 6.823713329852473 5.2225503351349545
Ga 8.10674667319351 7.705034782758571 9.679530226537477
Ga 10.635807576003714 5.070561705056575 6.815928461843171
Ga 5.669370436135886 7.2475555531960865 8.594083034197725
Ga 6.627916706209934 5.2589275739851615 10.187000125345488
Ga 9.816339236894583 9.58886591886297 5.407140831838479
Ga 10.665325210741175 8.981125037837787 10.015515739029818
Ga 5.290073601334202 6.815136353457628 3.2657340295830326
Ga 7.694776310143158 8.389426479460013 7.085695781668168
Ga 6.492018390388694 10.000439947134376 9.274465296878244
Ga 9.234065199576829 5.077997488504151 9.454018238612408
Ga 5.2696586252586926 9.626593907047091 7.044841947238222
Ga 11.904817023124242 6.141705058356517 9.300400482548351
Ga 7.819875347551755 5.61565605411649 7.325444717440781
Ga 10.422558218329623 9.14679776233608 12.747694894174034
Ga 7.448668186409045 11.044040539876269 6.110545532494301
Ga 9.181224660363545 10.19338793612565 8.29408345697956
