24
Energy = -60.43746933 eV
Ga 10.29992551529705 4.089572790490809 6.717722948361521
Ga 8.478974256388101 9.04594038011407 3.798503109682396
Ga 9.803268227158444 6.387507374966158 5.066535520208425
Ga 8.239652201690612 13.328255448722931 5.921831092770794
Ga 10.464663435256858 6.983505274854101 7.554121498634781
Ga 10.089861967273793 9.986123198499007 8.088564729019478
Ga 10.29400820348121 11.549744289274702 5.760492587535339
Ga 7.8730484947464285 7.975993810313634 6.371386777928258
Ga 10.496206500605183 8.953093855184534 5.701528345932315
Ga 8.539360452352696 8.55861057820189 11.965347423629321
Ga 9.699121169578792 5.1418328397796635 9.248457274438895
Ga 7.797888458724467 5.3704188372220525 6.7846375785864
Ga 9.439707735212579 10.584648591807134 10.541734591605522
Ga 7.703862111781692 10.553020409699542 6.066056779116233
Ga 7.221715259566893 9.600786983556013 8.46703960667322
Ga 8.095798382649939 12.313425177639397 8.421687011730347
Ga 9.32136905370373 7.9165614755982 9.63783281023433
Ga 6.166341617754368 7.118023937037757 12.840678980790658
Ga 7.9379934315693115 5.942376379789791 11.114044813455505
Ga 6.894445558163009 6.740394174372291 8.768938341293962
Ga 7.294726806684581 3.7601545730324806 9.043695827936313
Ga 6.310386812427426 9.853179388796075 12.898508696569404
Ga 6.047835177341939 8.486981105001012 10.475065277985149
Ga 6.786510500495033 11.15226926461874 10.576665628287342
