23
Energy = -58.73981424 eV
Ga 4.6981674719928455 3.494786362777474 3.9465153843060254
Ga 3.3721395629111375 5.950269503343631 4.54378195954668
Ga 5.6121025100446325 7.534107232567855 5.9327319784827734
Ga 5.783576108841814 4.953996023147642 5.9327319784827734
Ga 2.8444031822640534 3.5401176192525736 5.9327319784827734
Ga 8.276636749737184 6.253918490955617 4.666050058380352
Ga 7.361745566471843 3.942864683694682 3.3239410940599505
Ga 8.169593358428635 3.6916062694634806 5.9327319784827734
Ga 5.975755301665611 1.918966893924182 5.9327319784827734
Ga 7.010645785818905 8.425312452908884 3.3728504424226387
Ga 4.281083791330401 8.468283201075176 3.722063861906585
Ga 8.084399697642928 6.273103880628358 1.9855036569655478
Ga 5.5776245006702565 6.046182933216716 3.1624332708186156
Ga 8.020206194232431 8.73547858978056 5.9327319784827734
Ga 2.722312596475756 8.369119859766291 5.9327319784827734
Ga 4.6981674719928455 3.494786362777474 7.918948572659525
Ga 3.3721395629111375 5.950269503343631 7.321681997418864
Ga 8.276636749737184 6.253918490955617 7.199413898585195
Ga 7.361745566471843 3.942864683694682 8.5415228629056
Ga 7.010645785818905 8.425312452908884 8.492613514542908
Ga 4.281083791330401 8.468283201075176 8.143400095058963
Ga 8.084399697642928 6.273103880628358 9.879960300000002
Ga 5.5776245006702565 6.046182933216716 8.70303068614694
