21
Energy = -53.15006924 eV
Ga 4.132298837033122 5.600615056649506 5.899077351424654
Ga 3.4703841929571824 2.876773998948812 6.951464588054647
Ga 3.0342415602161816 5.095867632293679 8.274496581333727
Ga 3.443801068979186 7.638273854816934 7.752145057712569
Ga 9.279624597655234 7.114289990428923 6.89495318717469
Ga 7.060402409458175 5.762990490325224 5.84405611056894
Ga 6.041558061365994 7.422757572870486 7.621463430558066
Ga 5.684930225711488 4.6458315284922875 8.08233167257227
Ga 8.346862846056792 3.7007286344955226 7.1237658624273115
Ga 9.77677379999925 5.281810895137041 5.230592586617132
Ga 8.043671062408617 5.7885206809480385 8.826089155994804
Ga 5.96295158004761 3.1930426516946033 5.702892887592234
Ga 8.0211568578903 3.7491147529535698 3.9172249505524053
Ga 3.2507524717514262 6.1281451999675305 3.2280732472675755
Ga 3.428130613829148 3.5788986261569775 4.3179130854702255
Ga 8.150231577710192 6.966431955482287 3.6073515222507746
Ga 5.559291502490119 7.700080817639913 4.374117516959759
Ga 5.764507585836961 5.218314998116005 3.432061333590108
Ga 7.630162188159027 8.801369915185852 5.680775313618951
Ga 3.0292965677101917 7.924350183571719 5.119018282126188
Ga 4.946632855238715 9.869453026329335 6.177798738637105
