23
Energy = -57.76317441 eV
Ga 9.492368114191944 3.084768191092786 5.9993258423736835
Ga 11.265135706949177 5.0982709552171555 5.624170592309794
Ga 8.32324466085965 5.129729192384186 4.698749913760986
Ga 7.096073574494438 3.703124334299932 7.019236073921739
Ga 9.205234948988751 5.236096561914344 7.682410062928836
Ga 6.787660645423118 6.52407798798 6.561434601021479
Ga 9.780580222234729 7.366880305252887 5.62293057465034
Ga 6.8963848070492055 5.2194045413732955 9.3678554662494
Ga 8.433017207959468 7.668779222587247 8.371789412377783
Ga 5.5181508408783895 9.322008178399653 3.5157088868537096
Ga 7.894529606102178 9.220062329376795 6.064745144237566
Ga 5.773009244764901 4.443771370404345 4.440437840340624
Ga 7.279517061794509 7.431253574986785 3.941910093363489
Ga 5.3225358149996405 7.296072180325259 8.633473582750172
Ga 4.371231585396027 5.183485024229332 7.150160488259806
Ga 5.263282098996359 9.143734102150116 6.15257657111346
Ga 4.992316820609809 3.127655366110981 8.783361082005776
Ga 4.570657076691686 6.8554614224693085 4.943055229435831
Ga 4.687769889740763 2.6062934375910345 6.1735026512173
Ga 5.687461848894864 11.711893398709858 7.3116646466584285
Ga 6.7937434718484315 9.608351317664082 8.65027267335211
Ga 3.0014496313621217 7.54847108473123 7.166623160116086
Ga 3.8543612035890034 9.77683951276079 8.42428589521421
