21
Energy = -51.69204316 eV
Ga 7.82556412103409 10.198028643074792 12.202080131588607
Ga 6.039508165334195 8.260743118721127 11.600012273621603
Ga 5.898642274342518 10.671373352267 5.24955444085535
Ga 6.305262279567221 8.981990944916538 7.332130067129549
Ga 7.5657319753495385 5.926506628914245 11.641726447599972
Ga 8.02353693856626 9.647544016840484 9.546078842798774
Ga 7.622310849325512 12.805243881887924 5.165968376591634
Ga 7.747086931391735 7.686767209798492 13.755743707595007
Ga 6.478132578843265 7.202953557031523 9.351493736240712
Ga 7.222328734139138 8.412410719809325 4.79442852740487
Ga 9.302425467480111 8.03904578439654 11.392328904321642
Ga 7.875056454482956 11.209387511669133 7.370094471524555
Ga 7.3894611662397605 6.3911435337500775 6.9888750690167125
Ga 9.090449431302453 10.365655093588996 5.0385877764506475
Ga 8.136654812386528 4.854192217899957 9.382131930204595
Ga 9.139840812548975 8.707028194549025 7.0523990569465305
Ga 9.026482871685207 6.425096453238378 4.905341075616503
Ga 10.85981126936218 8.390927438483834 4.527733141942972
Ga 9.68849443004563 7.0738401501208035 9.101912527860902
Ga 11.17009381362635 6.973267072623452 6.8824423383978
Ga 9.64150116546465 4.815919603795999 7.222146479185343
