37
Energy = -96.22990509 eV
Ga 5.442790466719413 9.565430978254135 4.867524598365207
Ga 2.789043625236279 9.557940186521005 3.703312731684278
Ga 7.532539025875063 8.371879682082355 6.220780251949722
Ga 4.990969787597086 8.248436114249111 2.400931337912515
Ga 9.442455315820226 6.753206777809677 7.205186807136929
Ga 5.125207411625951 7.928821657099706 7.479130400832715
Ga 7.132897726560549 7.398314347930935 3.8354932691315984
Ga 9.231039395676627 5.9472981271735 4.734085702552107
Ga 7.337494251817404 7.352510398118992 8.855559026757243
Ga 2.459190617263212 7.059655171641035 2.0945375004881175
Ga 6.980612551586081 6.789518477100785 1.2388147193394825
Ga 8.441152762222394 4.934636473040598 2.383093868077083
Ga 4.406098006669843 6.924454154209774 4.817540003348119
Ga 2.933049219448413 8.973977757170658 6.4412194372175255
Ga 9.097305929140198 4.0284026588213475 7.229257981719755
Ga 6.779032001941933 5.628017221609031 6.252045780967543
Ga 9.630640048672777 5.657925296598399 9.669488613912268
Ga 4.655844073031224 5.626541547204786 1.1284756217823588
Ga 5.885124090696119 4.888273451726782 3.529181230452801
Ga 1.610882278314406 6.985360985121629 4.770007545934811
Ga 8.050320952296055 3.296684755457858 4.920124501455266
Ga 2.4342611532881233 4.160826686780325 1.0505440193494637
Ga 2.656386950047189 6.4443769998004585 7.3450256653105885
Ga 7.2224507412938745 2.3780380472018656 2.5089579685524575
Ga 4.910778004855229 5.380757865392031 8.360487658585939
Ga 3.0308722462819944 4.800577272616775 3.6437325877771225
Ga 7.254465421700486 4.479434521843205 9.36184829618967
Ga 4.348063662532685 4.108126785926506 5.948287107019841
Ga 4.51362639035578 2.7496531821347077 2.3167174033091573
Ga 6.497033547466721 2.925565601624634 7.144268431381823
Ga 5.71727933232595 1.6737037506570789 4.758508471083907
Ga 1.4644100570902665 4.333502626984755 5.855502055831619
Ga 2.7151705684765752 3.7912981660910616 8.290887690375557
Ga 2.909047528388146 2.1591704648706975 4.583250440225658
Ga 5.011620867257659 2.7396542079523054 9.561935187717165
Ga 4.269550240073936 1.4286047743638224 7.085296259650216
Ga 1.5475227946240533 1.6661335545625617 6.958090891667374
