34
Energy = -87.75858148 eV
Ga 11.107976450462635 5.021351515874915 7.052538147171763
Ga 11.614160495570035 9.048847479613983 5.08836762571137
Ga 9.960442719041424 6.908996438332299 5.256109684892815
Ga 11.947096482269481 7.558591314518786 7.270812725035977
Ga 10.13739103258711 7.464835346724223 9.340761556013998
Ga 8.79901281497607 4.055782882563576 5.694904698861196
Ga 9.638444958767392 9.108803455180816 7.218781752434556
Ga 9.611800989245237 4.686151653273272 9.166624469309124
Ga 7.618460817919436 8.626100125357214 5.3675841461443765
Ga 7.459374203688715 8.995046114382669 8.621337561554778
Ga 8.240360195967478 6.374026282723812 7.4047248913951185
Ga 7.318843332085968 11.115692318649531 6.878898624540543
Ga 9.588678690751692 10.686150534191157 5.066718878079139
Ga 5.661042450125326 7.569695320631787 3.3069583483971257
Ga 6.430157837270286 4.302676172243309 7.098989032845898
Ga 7.807377284351778 6.065391402303728 4.103214467101832
Ga 5.824934600153595 4.24440258287369 4.417745258892545
Ga 7.695422345035846 7.016760422000457 10.373996650112078
Ga 5.429270061823326 6.027824105819528 11.195606572110785
Ga 8.307763814285229 8.336085955474653 2.571923218049197
Ga 3.331173576282903 5.793277020503517 4.322156804395782
Ga 5.40383111421199 3.08533814918925 11.4523141136874
Ga 7.179058225466846 4.276965917633213 9.839198543724146
Ga 5.415494936849719 10.347893811385916 4.612321850378118
Ga 5.618361388987643 6.665452485614664 5.877184025226047
Ga 3.5932151886584602 5.007273656379657 6.914916800923688
Ga 3.4341493781822647 8.57904672736038 4.719443228231035
Ga 7.628954750689681 10.898225466025425 3.435450610334718
Ga 5.583381756670784 6.742386887656589 8.51635782957982
Ga 3.090313683926277 6.417387963001119 9.494738268954654
Ga 3.0957794869107724 4.55883338183925 11.394437083679575
Ga 5.302072218961124 9.15231483528759 7.0683049266661815
Ga 4.4980683374440495 3.814048749600328 9.018037605050347
Ga 3.0597651842443114 7.775250415526017 7.227862489826374
