37
Energy = -96.02722361 eV
Ga 6.467119884570242 5.986360021362377 11.238932682673987
Ga 8.152316146923669 6.480234112964743 9.164549806208097
Ga 4.787472624359188 7.925040047992498 6.626515560257963
Ga 6.887786068387178 3.992547767842603 9.415327155172553
Ga 2.951751181654001 6.114855397147501 8.123912626292643
Ga 4.241294453363229 4.735115553679604 10.225795184240967
Ga 2.0725791594136433 7.512052739565059 6.147558707636037
Ga 6.598640183448879 9.461486986784978 4.913743801308907
Ga 7.578099608201261 7.983709420502772 6.985407655328821
Ga 5.480894253477529 6.716509051397054 8.783954958535691
Ga 3.7309021378972154 9.416249206484741 4.585693970271585
Ga 9.104013749010718 4.694146043247096 7.3950614833466215
Ga 1.7775477619159896 4.189047271459002 6.402524899188112
Ga 7.2662390243651815 2.216011273370924 7.6061470684110315
Ga 6.140305098770602 6.843430839917682 4.305177764202555
Ga 2.284091132421511 3.398441473183781 8.978559834940738
Ga 1.1574110616418691 8.591607857325613 3.910482075861448
Ga 4.012287602430193 5.3793995969908055 5.349370830564373
Ga 5.470708216646719 8.9282748447311 2.3532201912611694
Ga 4.6191663153973925 3.623987756763188 7.577885885118361
Ga 3.3900869181016193 7.154799297708104 3.2000760461337396
Ga 1.1066895760734827 5.733544845575024 4.235160474597446
Ga 6.516686266291659 5.20113566627584 6.573611734022681
Ga 8.782886096433481 6.272462809719704 5.182954379304899
Ga 8.262478640371143 3.3443942688018615 5.232635511216913
Ga 2.989733006465764 2.6087156200540216 4.495146185928639
Ga 5.627360414026793 2.0878984330099692 5.621788471115936
Ga 8.157041154270605 4.922940640799213 2.9999905114938494
Ga 5.503435350478961 6.184902007103894 1.7456068054339635
Ga 2.8811525309672503 4.62402794378417 2.5695525101541956
Ga 5.483698894106177 3.9088602786009177 3.5588117818812934
Ga 7.327328584066462 1.900293740118606 3.295248636399923
Ga 4.817335578572698 0.5587317265208088 3.6232096594443983
Ga 3.966210826007659 2.346513484134638 1.8076178183664457
Ga 6.889549665743119 3.848441975819113 1.0557015717921439
Ga 4.343513501665597 4.362229380062006 0.013287623881292012
Ga 6.202894741061263 1.2324499524101205 0.8830588481416807
