35
Energy = -90.50044153 eV
Ga 6.808431680308681 11.203897984856109 6.422454429341228
Ga 6.652941467966784 6.0574515449883 4.739790450115224
Ga 6.7500786776680615 7.576534687127511 12.688050160627883
Ga 10.169843133961784 5.644685978604904 8.248944992476442
Ga 11.692530296581381 13.314247620529141 7.544539318353144
Ga 11.585867359628944 10.649839945816833 6.923356405430002
Ga 5.67470843978967 4.056680418557841 6.465979281853813
Ga 6.542093186908492 9.643493179042828 10.893842634903134
Ga 10.469836267235014 6.416026244664126 5.4372052168427025
Ga 8.928804228952448 11.34684912614483 10.928145567159847
Ga 7.744061890276101 5.464892049980975 11.255215388823009
Ga 9.268941314460006 9.689829968419065 5.395806310579973
Ga 9.032918993376587 9.070539985729422 12.155628677606288
Ga 11.458310300797448 11.493651624921219 9.594736615476256
Ga 9.54263923471012 6.660465035613606 13.222634823527459
Ga 8.88550523755741 10.121858092504876 8.188394813589886
Ga 6.752527510704577 11.763177282719113 9.185297632147408
Ga 10.805054780599416 9.020539522869162 14.373285062121793
Ga 10.432907360814575 6.185700869208895 10.748289602624617
Ga 8.64794462522522 7.659598791680623 3.8968921794877405
Ga 8.254452385994787 7.486617393862646 6.900399258021659
Ga 5.54444842164193 6.7508321849406 7.226081794160054
Ga 7.232428149225123 13.764299506187673 7.112924459513703
Ga 9.48971114312265 12.21864396122741 6.0620421893534235
Ga 12.031041018514278 7.939181862042045 12.132310418817044
Ga 10.914132120543039 8.204773927299264 7.352511271600332
Ga 9.205004082556323 12.923526012621746 8.803158219215318
Ga 7.2974515322672495 5.1840286990004465 8.683626816316234
Ga 6.260024836347678 9.080613687958307 8.207279821458709
Ga 11.3033282196789 10.830297887754973 12.296329871078015
Ga 5.298826117531211 7.125679394539613 10.155776380209451
Ga 8.524156716955398 4.690692522502977 6.316969902055316
Ga 8.292183479600634 7.721661741880894 9.749873634252227
Ga 10.915521215005192 8.86117152475497 9.923130418569983
Ga 6.33422648528519 8.833245262463484 5.347558824634295
