36
Energy = -92.77805214 eV
Ga 5.125661855064099 4.199055873762277 4.737161849723618
Ga 8.494233488429826 6.298689983897065 9.46511669611475
Ga 10.631593120440375 9.651274053792307 3.897495001139425
Ga 5.882832526613356 7.090920984806816 12.143399735113617
Ga 10.345554593942266 8.034076040885829 11.132788424341891
Ga 9.24952829368227 7.806846437656861 5.283558715542225
Ga 8.494838597893297 10.581362137403787 5.252576399926578
Ga 7.169341751022295 11.149915238093184 9.82028970293951
Ga 6.994140328628741 4.463494501395994 11.232483359311395
Ga 6.897741910857097 5.180793883775822 13.775626557622813
Ga 6.444056479993383 8.872810859625615 4.759882943405947
Ga 5.616730377684928 6.669744591100576 9.545490544187176
Ga 5.793383826644323 5.415419866256566 7.247664148521301
Ga 6.675208597706812 10.600780992404275 7.088504862516105
Ga 10.541967119212293 6.973908837651181 7.633409895338393
Ga 9.111261928887213 13.189480441662623 10.09977056943888
Ga 7.648551350978496 8.789935967546205 10.977269020462847
Ga 13.125260993062993 11.186439099423849 7.157631158276389
Ga 9.067791282596374 9.244464745133723 8.6978018714494
Ga 4.950161633066599 9.453881280507309 11.155965887941962
Ga 7.195985646676296 3.1528956602416494 6.310046995733917
Ga 10.879350698560126 9.605462530627461 6.741833647965978
Ga 7.355736188841113 7.781233496365676 7.324647002481256
Ga 12.035669488567786 8.616359918690408 9.04236735704055
Ga 9.716669946005634 10.68578589653655 11.143755380135216
Ga 11.205809588254835 13.595122511141922 7.635755849415652
Ga 9.069617400761958 11.862866680884325 7.667956752868743
Ga 10.885773376732521 11.992232854912773 5.323675576751977
Ga 7.335166952973687 3.8365772039405766 8.80468032862958
Ga 8.823984643893159 5.2737008728949455 6.695392871958805
Ga 8.750246496828552 6.401964166045481 12.268950834487745
Ga 4.550563811468193 7.613303755093457 6.510260305664786
Ga 7.003486101362141 6.170533833578206 4.778783467049287
Ga 5.107943110118178 9.244697926691673 8.543964451213409
Ga 11.420304143921138 11.421549038751069 9.232546830483555
Ga 12.400914498538064 9.894793873299157 11.39755935461986
