35
Energy = -90.11095031 eV
Ga 4.633648932796509 8.363119601932086 6.818136727701828
Ga 12.007519781167654 7.957714816852365 7.291678985241741
Ga 10.534663844534924 6.075299033366596 8.43115931554544
Ga 10.92667070785271 7.959322139014724 10.662587687501949
Ga 6.984348036343719 9.222092133236826 7.582212504686167
Ga 10.766574005583784 5.157793638865723 10.952547154625337
Ga 11.213221431775269 11.800576122702743 7.392222563304407
Ga 6.682107372178761 6.079046690829546 7.671435299630907
Ga 11.30618023162453 10.57762449689612 11.600868470771932
Ga 4.804298957202293 8.058271259304536 9.418411898258515
Ga 8.07665449891042 11.8447118643511 11.984667768294633
Ga 8.465228504667756 4.64720896141734 9.247021341134475
Ga 5.706971787756611 9.671777769718386 4.828775694903812
Ga 13.060299477665854 6.717467689761789 9.540561967963033
Ga 7.195952649931294 7.14220101433977 5.235252647606803
Ga 8.151822181419314 7.579143824330938 9.44487319264804
Ga 12.493563922074959 9.74323832022436 9.253099799107302
Ga 9.70372262807208 12.014742187492638 9.662944284576945
Ga 9.859143351955238 12.170983451152354 4.892718102222423
Ga 6.34789487349671 9.070451073589659 11.302733697115714
Ga 7.263608022067492 11.032400904939143 9.503336020622214
Ga 10.937027043773679 9.702791664081603 5.7118197679797165
Ga 8.299880295874761 11.82867506108993 7.201384994615561
Ga 5.093086595680638 7.299370462155529 3.582239212591009
Ga 10.836566457515382 13.241785618757048 11.843956095096253
Ga 8.352908750594361 9.790860164449674 5.230880092554267
Ga 9.311620022103956 7.462591929920237 6.626600025592878
Ga 8.466968346760334 6.708786271474628 11.995818756362718
Ga 9.748521883927276 9.53414133005302 8.479511916539938
Ga 8.04308618257013 4.050340696679181 11.960685126676388
Ga 3.865630506850802 5.764615687422815 8.511764583496799
Ga 6.2272611441221635 5.685225346237108 10.384929931427743
Ga 12.464780785657638 12.479444649594647 9.673988041769432
Ga 8.990440884184785 9.350477940837862 11.710337455764417
Ga 4.693512884118252 5.895895581731243 5.8611126052060785
