32
Energy = -81.16380391 eV
Ga 11.34480192112202 10.17724719317003 7.889460479352006
Ga 9.143747692934891 6.961870606763768 6.467269106702059
Ga 7.269548520242168 4.233496595716644 9.97613173747462
Ga 4.348273236341114 6.555837960292038 6.990148307413852
Ga 4.522350994914148 2.1916537398828853 4.659694767308624
Ga 4.775103122454866 7.620863897502517 4.353107451207218
Ga 9.369009104808796 5.639582154420192 9.128535497789084
Ga 5.133568532974843 2.7150311336882975 9.736620330704078
Ga 7.024810945470284 3.094707772211633 5.24912259591924
Ga 11.106003501347924 11.107264535058738 5.293784448140079
Ga 6.044105731290605 4.320045659619868 7.498179284298034
Ga 3.997674850149841 5.142863691425011 9.307573048391019
Ga 9.293879909356678 12.757738628082809 10.94093531755208
Ga 9.770757045501163 9.877335310946032 10.4243858218927
Ga 11.274736071585583 8.361052029257555 5.874989880921734
Ga 8.578103178459855 12.313264121397253 5.927065158346389
Ga 6.986831929909723 6.05269749420879 5.406627932233827
Ga 3.196352936686906 4.055113170195393 7.043020475191181
Ga 10.346788465644469 12.708264515129601 7.928144838379119
Ga 8.760512069154446 4.238540428349705 6.899493249393348
Ga 4.817763034906766 4.838992423472843 4.708521572521899
Ga 11.691921377882611 11.661918357813612 9.979535092655205
Ga 7.908650313935375 8.70137265532312 8.738038710089
Ga 6.1690923185422335 8.487333877996544 6.454589112993249
Ga 6.381709504027215 6.64570942582268 8.844494379681842
Ga 4.8143439544861675 1.9050544239968799 7.261920337028337
Ga 6.517914630242404 10.984783300314694 6.863699213268375
Ga 10.562029772958008 7.9042835602105965 8.654837040716595
Ga 8.171028699135977 11.393490411218142 8.881459427573292
Ga 8.892528710159741 9.686020097814591 6.333050591472056
Ga 2.172950598859562 3.6347753139400543 4.5540360250883
Ga 2.405823544768542 6.344440238372699 5.082723844573435
