32
Energy = -81.57233478 eV
Ga 10.554355178990013 8.520662502142994 7.887485557123748
Ga 8.695496463080252 10.616432740585008 7.23643463521759
Ga 9.76979783640349 10.30213602581364 9.867629951998993
Ga 9.41943042967197 6.260851901634412 7.136877387118054
Ga 8.554281933831293 7.782409282593977 9.777485133984273
Ga 9.65137886704122 8.40151697953838 5.066503264994589
Ga 7.562729482173144 8.13548793375812 7.182796252748801
Ga 8.480809124755684 3.068379341256186 4.370211233538394
Ga 8.130224296180897 3.9286564595245146 7.154009293395919
Ga 9.067223979457125 1.5701619582054693 6.835204014150554
Ga 7.044995431700455 10.113616132980201 9.571395563504897
Ga 9.008278509954952 5.527816264034486 4.637225397709829
Ga 5.501167770988899 7.840299902203482 8.947315504553858
Ga 8.452140430934609 0.4747795834394083 4.509891376758726
Ga 5.627274350913571 10.634327304557432 7.325217723550139
Ga 4.419513699081485 10.435475735436018 10.019107516988598
Ga 6.629365543616745 1.5892558554975014 7.907826650805876
Ga 7.103576243870496 10.067770418562164 5.073421032109805
Ga 6.113784634609333 4.686221500767867 5.218819655958143
Ga 7.156916003368902 5.726814662373234 8.980794911622025
Ga 5.177669377491616 8.130663126873582 6.155559898860994
Ga 6.097046053798229 2.139137140277677 5.299055111385283
Ga 5.415604233459607 3.855610324654806 8.213377340502655
Ga 7.032652188313668 7.106564453436835 4.494432494383229
Ga 6.522349818666545 10.634327304557432 6.193577461990889
Ga 4.242136779803216 5.932974410228983 7.316350775720327
Ga 3.811367875173218 10.397314258541472 5.365195341303768
Ga 5.305779648664285 8.900492248495173 3.437117647396944
Ga 3.1843390311826614 9.050821577980967 8.093791423887343
Ga 4.242456348552235 6.306221841154013 4.255259725737207
Ga 2.454843815646253 8.397828024280447 3.4148844128913005
Ga 2.4694126271004904 7.530812548067907 6.017894877616115
