38
Energy = -99.13698974 eV
Ga 7.879538674844072 4.884815970747608 4.056933596229471
Ga 9.165720627806046 2.8567143343250745 5.491777592163553
Ga 7.896666216876924 6.484533942963564 1.5925158699682804
Ga 8.06302143496048 2.0463311269322606 3.2820225964571472
Ga 7.650385194210924 6.0150500808865175 7.0093243619399015
Ga 8.01695588883616 7.501159773425281 4.65901307270299
Ga 6.657585125191853 3.882616746151367 1.71937325598275
Ga 9.101566466042128 3.9108443680340006 8.096484784118505
Ga 6.2547385064354355 1.0481992526373083 5.016900311336069
Ga 7.670064786750525 1.468059184421407 7.290176120070116
Ga 6.472064913812961 3.6981875083050197 5.987736083438724
Ga 5.130886638304331 8.115018419448393 1.3977603554508538
Ga 5.702393636580009 6.333706308762756 3.4015075882059316
Ga 5.174115279889195 5.680607275350834 0.4051665311708598
Ga 4.816283058898549 3.697422996291793 3.8137678130472383
Ga 5.93499809145938 7.395798091607156 8.732356872390634
Ga 6.529700102617907 3.5868973028175546 8.767876082187097
Ga 6.367833335041081 9.339801921464327 3.445414910861332
Ga 5.30530277772564 1.4492066084859503 2.117525577154138
Ga 3.6362361596884005 5.858105784767834 4.91125814056954
Ga 4.820252006598015 1.7297463828907296 7.270631965577881
Ga 5.583959108096031 7.534260223201809 5.924380761244158
Ga 4.727939493878571 5.474386451545874 10.182521692580554
Ga 4.330366044368026 9.392506318571318 7.875550764863476
Ga 3.5725793500793674 3.6178195554527757 1.2483423253441839
Ga 3.414742652744589 8.451261249759776 3.533166988218443
Ga 4.666026907772748 5.3388880141914425 7.318720761850801
Ga 4.653025764909384 10.050497949826028 5.354409380805609
Ga 2.9317246183659686 6.154961680558672 2.1588295317601083
Ga 3.66781139940693 1.203225693295366 4.564957476898442
Ga 1.975730125500663 1.7285248221268201 2.4870247478525167
Ga 3.0549215416002036 3.4290170922198047 6.0779982074486645
Ga 2.6127483232138267 8.058719722551297 6.233945516793402
Ga 3.685769490627096 3.2677972251668748 9.085277378278843
Ga 1.6797306843857922 4.15838978814925 3.8251201300598394
Ga 2.9360312056622333 7.089390665814692 8.814865763802604
Ga 1.0740931351070686 6.89096335395461 4.2500364099651335
Ga 1.490826496824661 5.480902078009106 6.90366394632378
