42
Energy = -100.66552623 eV
Ga 2.3341419854219283 10.596668265365553 6.979879151223125
Ga 3.6002278603250053 10.898333794165115 9.200989563580235
Ga 6.220217986185934 10.786213204520177 12.79889527227565
Ga 8.3332720251066 10.708738630175132 14.205429290163066
Ga 10.445652430803186 10.786227338847663 12.79824925310113
Ga 12.750939750826234 10.768185290219932 11.746957721267773
Ga 13.064783307398343 10.896809689222026 9.195699320399328
Ga 14.335346899229835 10.594406153975708 6.978641017822889
Ga 10.784748233292984 10.719998341283908 3.439903893542204
Ga 8.328531329008293 10.65787491342983 4.071086933264022
Ga 4.355569755462872 10.67564427657393 5.43810791523557
Ga 3.223337967258297 8.33639217726413 8.333031539544745
Ga 7.048196137761525 8.250424609054285 13.84318723145114
Ga 9.618246648858621 8.250398301419587 13.846059936353775
Ga 11.240616935410564 8.3634670136242 11.889723087495293
Ga 13.646887228839375 8.440757020112933 10.892331973735871
Ga 13.441427661481626 8.32837345147565 8.331734089195473
Ga 13.64854920815063 8.222030875610113 5.770238390034116
Ga 9.616569490978401 8.414341019685935 2.8215783972887847
Ga 7.046518979881305 8.414367327320338 2.8187056923861586
Ga 3.017878399900563 8.224008608626994 5.772433655004056
Ga 5.879166307514861 10.719000294044243 3.4320960871944894
Ga 5.424148693329363 8.301298615115579 4.775042541244632
Ga 4.354950444209231 5.991606592538773 11.222006747470855
Ga 3.9138258779136845 5.896580338519994 4.917807907472007
Ga 5.880017395446943 5.94476728745602 13.22486173519772
Ga 5.425496915838203 8.363498974026673 11.888168644054279
Ga 8.336234299731634 6.006890715310097 12.593678695475901
Ga 10.785599321225067 5.9457653346956825 13.232669541545443
Ga 8.331493603633325 5.956026998564792 2.4593363385768607
Ga 6.219113197936742 5.878538289892265 3.866516375638783
Ga 13.064537768414938 5.766431834574812 7.463776065159694
Ga 12.309195873277055 5.989121352165995 11.226657713504212
Ga 3.599982321341579 5.767955939517899 7.469066308340598
Ga 10.444547642553992 5.878552424219604 3.865870356464275
Ga 14.330623643318011 6.068097363374377 9.684886477516802
Ga 2.3294187295100865 6.070359474764218 9.686124610917037
Ga 3.0162164205892816 8.442734753129814 10.894527238705809
Ga 3.9126676506848876 10.770410864303777 11.749318203446453
Ga 12.752097978055021 5.89435476443615 4.915447425293326
Ga 11.239268712901723 8.30126665471311 4.776596984685648
Ga 12.309815184530693 10.673159036201007 5.442758881268923
