4
Energy = -6.14179431 eV
Ga 5.988689033608957 6.265573711850216 5.557845168814422
Ga 4.430628227402154 7.4673280654813725 3.7444104388227255
Ga 8.177974711535592 5.256711736240441 7.288094435408661
Ga 5.608602897492814 4.982533876450397 7.682145012247013
