40
Energy = -104.35530797 eV
Ga 3.9815023511012892 4.566952372241254 9.843458636688567
Ga 2.6227524128723188 1.6552944946799855 10.26213444496079
Ga 1.2987254222601536 4.236162048562449 0.06485011821873661
Ga 7.9140701230896715 2.771064026911585 0.7387356902906863
Ga 5.483851730633429 2.247792079918997 10.63225736329798
Ga 3.5607907368026717 6.320954128926986 1.0199492206569365
Ga 0.5842809454874044 6.80128794457173 1.4262552705850338
Ga 3.5551086835726684 3.262982777115226 1.375574742088465
Ga 6.006893493029956 4.772090280976767 1.2170347100356798
Ga 0.9939564563290683 1.881668600605893 1.7616079897884867
Ga 9.61626563331649 1.2702705386601667 3.2060006274754356
Ga 8.336728036935076 5.668159167737715 2.5596673214047945
Ga 3.5192941521475047 0.29013843894220953 2.0344807829510687
Ga 1.6756787150051726 4.734334816604531 2.7966480378993985
Ga 8.336497701746202 2.678015774410329 3.4077453123525063
Ga 1.4775715625746688 0.2150599618430085 4.183161027850236
Ga 7.025142170758229 0.011138390753073909 3.6854791112984624
Ga 5.65875935050817 2.213991250781035 2.742572012352934
Ga 5.6971388876681806 7.150978351631255 2.7211791639327583
Ga 4.169067578914358 4.983876016636114 3.467954215114908
Ga 2.5755788591618254 7.387983987501589 3.752885159935328
Ga 0.5729279521187033 3.039900806584895 4.4498853774148825
Ga 10.743628832714766 5.903881253456525 4.478060499494904
Ga 10.398675628561342 1.2218490726328906 6.183014986964764
Ga 8.968592869320787 3.6457110752375312 4.982563113012716
Ga 4.536229832456956 0.47928556239161707 4.941643009705838
Ga 4.830708096349972 6.381840663771991 5.93757132929239
Ga 8.968592869320789 4.522632837415053 5.356756848984078
Ga 3.0144686048438323 2.463245078113632 3.825122541356543
Ga 6.517611121203018 4.6164261223594645 4.3854140588507695
Ga 9.979391850543697 4.047928683542316 2.1882862541487804
Ga 7.444863826537325 7.178906547683122 5.147905945978942
Ga 6.892699673706758 2.143033287113851 5.66641691547
Ga 4.421515892853339 3.4700535760350575 5.729149314282934
Ga 2.2310511842161866 5.296876746784039 5.668161622021801
Ga 2.132241936548828 2.017854177668712 6.6348528959421005
Ga 0.19209405373282584 4.139451267852071 7.066669265025505
Ga 3.2126799049973167 4.327243169281141 8.101202375988406
Ga 6.406862638199007 4.348622981314978 7.387045243847581
Ga 4.913568243861981 1.513810283308082 7.602982909662412
