42
Energy = -109.25359684 eV
Ga 5.838256323682449 9.38361171301571 1.5123411075694557
Ga 8.515438128939339 9.60891082134405 2.78632034510599
Ga 7.54016919482588 7.045672858266336 2.1310807235408324
Ga 9.910014688167555 7.289920618365949 3.7531390245268104
Ga 6.230559284757691 10.736194237344389 3.9831424149629124
Ga 5.49189064570733 7.896904813193586 3.820284187124422
Ga 9.043374955382179 4.6774261554670185 3.101528573476934
Ga 3.684240609330172 9.95959287962019 3.2359144990890494
Ga 8.64486009428116 11.69585769140471 4.765822858016365
Ga 7.855164392641289 8.655263083081433 5.256559904342132
Ga 10.696356308299293 9.751482604340003 4.74251410166399
Ga 6.85239292556544 5.748004816362879 4.469652753989799
Ga 9.34009121857371 5.737676281842509 5.81267842722008
Ga 4.1379073827137365 9.610256676764985 5.844516049374026
Ga 6.790536236739021 8.427801364624026 7.702748974019222
Ga 5.955404922104034 1.496553532635508 5.874903461664012
Ga 5.401139521837401 4.169380849221366 6.260288182114225
Ga 10.248452602913254 8.04346058220062 6.795797907855083
Ga 8.028391757514942 3.2758688622110754 5.398219073855893
Ga 7.4457514976888435 2.4616317643965475 8.040344848493685
Ga 4.09677588991875 6.778035266474996 10.692504439785699
Ga 6.397465978124505 11.067583850551289 6.537110085375897
Ga 4.97105067402621 6.87718268136765 6.193116098301768
Ga 11.080998342373709 5.849693861016405 8.585445312507682
Ga 9.611565004871926 3.839583198364652 7.595175691175023
Ga 4.549911019765967 2.4150823370212944 8.302130202105682
Ga 8.989309832283674 10.438932355863772 7.219689782256582
Ga 7.14718370338531 5.5898711774158105 7.799235827852224
Ga 3.9020227255803404 5.44465930201311 8.165928747534398
Ga 6.858617191286289 6.555956414298478 10.606578475809048
Ga 8.625769818829909 4.278270543456613 10.114357260043828
Ga 6.603918270216158 11.445822089136664 9.095501634154465
Ga 3.970349170605135 8.357656059341693 8.276513779196742
Ga 5.656733869368923 4.387229297876918 9.893439448640358
Ga 8.871089358502054 7.3607551897764205 9.021887415235781
Ga 5.792739130175639 9.079245113093876 10.095104862838651
Ga 6.9388459804470095 2.1457537911477633 10.625272840969421
Ga 8.748011255775722 9.968206419636484 9.742003499404696
Ga 6.774934499222375 10.919575041489056 11.859394007625756
Ga 10.033526321945685 6.332815666084321 11.260324211992556
Ga 8.45679795451229 8.499026000785372 11.870349323418989
Ga 5.7852934217459495 8.21089424271311 12.674441740399075
