42
Energy = -110.27297444 eV
Ga 2.4667357608377163 1.701070058149418 4.048128945312127
Ga 1.1418378900031674 2.660794517308469 6.103592928163988
Ga 0.4265869169022371 5.2587790515974335 6.507477393950734
Ga 1.8137118282368108 4.548065717397183 4.101109956636773
Ga 2.894967300655678 5.891675001596388 1.8937622932384952
Ga 3.990565986598489 3.0791780985753157 5.8734972950212105
Ga 2.375855457226325 3.6967929458429847 8.433344573974075
Ga 5.066202859231028 1.0698474573714445 4.161030056610352
Ga 1.1114535129367116 7.91944881665873 6.733065869749333
Ga 3.372567306196246 3.1779885344891383 1.9779381547190815
Ga 5.900746711944921 2.2112891786408246 1.8939023444288192
Ga 4.989485040471139 2.9151879127830598 8.36797730961156
Ga 4.536745714992156 5.123836552846253 4.1403497528358635
Ga 2.4948606263565494 7.331211367820513 4.275355478870987
Ga 6.419479250082247 1.6368481594084359 6.357782983502663
Ga 2.040326201263249 6.37265049180002 8.93686155052836
Ga 5.504957881938734 5.106732336902535 1.5634806028211934
Ga 3.2480084352651013 5.656875258006043 6.431467412651338
Ga 4.816052997493455 6.042917989071778 8.606627935003091
Ga 4.951253387575982 7.638683638807705 2.678794514843679
Ga 6.638716523818253 3.4103029536841007 4.227535537634258
Ga 5.128289755617582 7.516301434768134 5.556071480652464
Ga 7.038677129007297 6.1105647582672145 4.240923774088684
Ga 7.996701543325819 3.774923188560676 1.5871737157713364
Ga 3.110838083268464 9.70997117046298 5.471171711034772
Ga 6.464928557929417 4.667548333178528 6.81838214156866
Ga 5.489050994009566 10.04602522186263 4.0551118042145955
Ga 3.993135408494784 4.411106152245048 10.675127308979215
Ga 7.8519267164928435 6.531711258846968 1.447243869108006
Ga 8.69216768729587 3.1951664224352267 6.224227932782432
Ga 3.762993110044944 8.396584983886516 7.860504889334713
Ga 6.675288458559992 4.664322665360912 9.923939238810895
Ga 7.803871808361625 2.3731075431009643 8.757266633878778
Ga 7.135162007183039 7.1334186131902335 7.691145446488636
Ga 10.378582746014244 5.373601774805643 1.5409565755829433
Ga 7.865572378908733 8.603915013218051 5.405356602522125
Ga 5.900697092307153 9.846616825493285 6.988276564937041
Ga 9.417849102246658 4.2570960764339985 3.9293277106212194
Ga 9.076441662015956 4.9807296579205795 8.51212002475367
Ga 7.458961588732982 8.833490236888267 2.6688696276878603
Ga 9.323122711322707 6.097674575420586 6.170341251854858
Ga 9.64453290174229 7.072963668425471 3.702462210828269
