44
Energy = -114.44324782 eV
Ga 8.936908277509197 1.9369383831514164 4.518618343060207
Ga 5.76964768125065 0.8842423463379631 5.891829391957202
Ga 6.465926598130718 1.8624245981803234 3.49511441004265
Ga 4.3452125610055115 1.3441752262376774 1.8548590810913614
Ga 7.2685803708903585 3.230234974159973 6.224848250575259
Ga 8.152731548475185 4.128235817781318 2.9909217951252343
Ga 4.574853623572248 10.543804318431134 8.062087804624166
Ga 10.033830775069378 4.3216908804134215 5.060151332069416
Ga 6.053097031818941 3.7079576433341095 1.485580618926785
Ga 3.91205615017761 3.315855385734502 10.639990785763132
Ga 3.3537870480343415 2.1245514741151483 7.301263334640025
Ga 6.0400715849729245 1.9535769005871875 8.425553052801993
Ga 9.38376815938657 4.787496065356243 7.587146407427055
Ga 3.842937599987469 2.440457031058528 4.7023113426438385
Ga 5.147458489897675 4.897819489262864 6.969612075350738
Ga 6.612812105054067 6.3227119552941184 2.5265459424088976
Ga 9.306682338881807 6.651278934952262 3.4917147854738873
Ga 3.1068169144988134 3.7369735865355858 2.4981356653288063
Ga 6.934093395877127 4.299587653325115 8.956611025563035
Ga 4.343100650844284 5.800392487828679 0.6957017735604706
Ga 5.29190174655644 4.584125587490557 4.191089530669021
Ga 7.4185437012299165 5.841611755221376 5.413205055590353
Ga 3.3781509041487148 6.361790642653512 3.1885841767593117
Ga 1.489619590823802 4.849986400872692 4.323727884013438
Ga 8.747862596227717 5.8793293927540775 10.093392817330676
Ga 1.097715210995464 2.4331157929965537 5.718656576959815
Ga 7.374311840628865 9.03001803710653 2.9438902562485336
Ga 3.495979872815075 6.5965919467094905 5.838640031747037
Ga 4.066300213624141 4.076451047141501 9.531793576830744
Ga 8.129155695255378 8.48263919536767 5.6388452385405525
Ga 4.7051714686953225 8.333910321973255 1.5759778881640982
Ga 8.071089248321293 7.181653287934232 7.87014336394202
Ga 2.388577509991389 4.560334296562098 7.159754825812867
Ga 6.055555125929045 6.807046488772199 9.947887698365262
Ga 1.0118142155793335 7.515535103819644 4.903652568602623
Ga 10.47084226884698 5.175331104663157 6.366235500015039
Ga 5.080983687884221 10.543804318431135 3.157606636843302
Ga 3.541760998587408 6.853740953951376 8.870255973934666
Ga 5.616320338377407 7.848500092034076 7.3295957700112035
Ga 5.486647480858595 8.156001386917161 4.692178335639433
Ga 3.3426155168741394 9.200477531401496 6.655887390058117
Ga 1.2560661972864162 7.164401763847159 7.693243119893075
Ga 2.8858780836214195 8.98932711019741 3.799463571042994
Ga 9.985261144765998 9.216368852362033 3.69019255780998
