52
Energy = -137.51266502 eV
Ga 3.4939460956945014 8.48595055760649 1.6726857925749374
Ga 5.753187382301016 7.187209686554685 1.032866385578769
Ga 7.7720892464249545 6.013660971126032 10.411298187018845
Ga 2.987711049818387 5.9304826927104175 0.4505039854116093
Ga 1.5524879903006552 5.408285269780771 2.7495931557056204
Ga 5.2209885203827024 4.4511001802162165 0.30586227121569304
Ga 8.346292312056233 7.559085866553111 1.8999687825996714
Ga 0.0729131371160716 6.7875021807245215 5.05423503344338
Ga 2.28366043121618 7.929931854879483 3.9913509828551246
Ga 9.917029530635034 4.814193445599082 0.985303005753675
Ga 3.6676502542578864 3.512288060759815 2.333682415291352
Ga 4.343139830729462 6.105988318710301 3.1030371827130687
Ga 5.601450190765271 8.844538542245411 3.4268130277213342
Ga 7.222044141559239 4.95041549821276 2.0910230855226817
Ga 7.7075751304615485 3.1310686493371755 10.837753758892257
Ga 2.9461573849724982 4.948141761153595 5.13929071610196
Ga 1.3765735446353133 8.91933360299338 6.620518286209394
Ga 2.0453432420762376 2.3746849151129124 4.024933231147484
Ga 10.83562715021853 4.132839285923016 4.7458620521109625
Ga 9.673315727790975 5.81087805535693 3.5665616127396427
Ga 6.226049357031373 2.1506059561364417 2.0510271033758016
Ga 3.7770985364584675 9.971943270212986 5.227943266607328
Ga 8.23577254577746 8.967968893077462 4.296024183838791
Ga 0.04307087132361762 1.4954024159492867 5.578438022980877
Ga 4.630910456581252 1.2467173540382486 4.059124859395135
Ga 6.950844019130763 6.493640221744258 4.275760017096147
Ga 1.5031385511166355 3.358016509343042 6.96239669884475
Ga 8.925459797921103 3.010131128446104 2.9112233482840955
Ga 5.765547651954375 3.9582127327782777 4.151076361366225
Ga 3.6921811934067277 7.222013993598011 6.226146671821283
Ga 2.6737566884495925 0.6606379909898649 6.2821913046771005
Ga 1.421332731806706 6.116503487233489 7.387766768891922
Ga 8.56031073777827 9.145308453114819 7.164185401200728
Ga 7.429186873101147 1.771362029908591 4.733952668397993
Ga 4.355163390286524 3.0434314904703124 6.402761787530249
Ga 3.8455327374246613 9.347943845796431 8.142157378903704
Ga 9.507113182970457 6.932269917544754 5.90788908664676
Ga 2.5857158079284766 4.471907108992559 9.133131785145567
Ga 5.8287698095552365 0.630983283954534 6.576016972404917
Ga 8.332622697496763 4.426295085044857 5.536196000247278
Ga 6.12440646382057 8.331483965346377 6.172298955738778
Ga 5.644590015737777 5.442504683711453 6.441442915367693
Ga 3.4216843236060166 2.0278862036011898 8.805804179756628
Ga 7.264162546293525 2.9418385496117487 7.312829961695902
Ga 4.198170755993855 10.309463751252151 8.34293326092927
Ga 3.985234002275146 6.704164553714489 8.966810416487034
Ga 5.242216717246783 4.2818507396037475 8.847196807531999
Ga 6.301638659113232 8.442191337050538 8.956172499703934
Ga 6.2225549044668576 1.560217134093966 9.4072117579876
Ga 7.901478442829987 6.103022121344413 7.947720299616045
Ga 6.571594052780164 6.194062130554938 10.411298187018845
Ga 7.771209472335547 3.8554495907439503 9.866646541113536
