55
Energy = -145.35937619 eV
Ga 2.6553334348530133 5.212915663959476 8.816860762385177
Ga 9.3871619834676 7.669199373764435 5.342279969779503
Ga 7.9891587205077785 3.132956158803044 10.209764695886399
Ga 4.705422895910023 5.138919117341186 3.6040419396602394
Ga 9.341180199392413 7.360966420324865 7.987086448250975
Ga 6.798089086363399 6.128774048062111 1.4369206177395528
Ga 5.175894909266307 5.455996272002245 7.413809943339175
Ga 2.9982644348352223 5.320962231245936 5.652851822949635
Ga 7.110298333923267 7.251430421361874 4.03223598025954
Ga 6.756366242779586 5.255656516465794 11.626516019217918
Ga 4.788499998047137 6.559528988283704 10.080086480597181
Ga 7.151024315296239 8.780924618546724 6.533143921778883
Ga 5.672263797989636 9.831430774429524 4.218188594504024
Ga 3.5656910379061015 9.96140473296752 5.898193232897871
Ga 7.158840458443273 7.806371936212236 9.853339797116146
Ga 5.293719705632465 11.38289037016004 7.3874131723850365
Ga 6.663657311394799 3.5731747724324423 2.603926649312719
Ga 11.197630702943169 8.901928642450699 3.481933790828622
Ga 8.887803018313642 5.081782620871968 3.4389067182572
Ga 7.141442743064722 5.05695106963245 5.593037064010883
Ga 11.849895392673405 6.7572470496138495 6.301989425099032
Ga 9.89201787669519 4.8517242216846475 6.027769435057509
Ga 7.636531508497183 5.28108945112271 8.338086645982068
Ga 2.554921422760764 7.844723963017448 4.259690971826967
Ga 9.24908449413621 5.872489908872621 10.558871053953434
Ga 6.823484039003001 9.113396583646058 1.638540029763542
Ga 2.414057715437189 7.967741996779816 9.698722713839214
Ga 8.510754054285414 9.95775760039169 3.904001079251956
Ga 7.554625270088715 11.470492803669403 5.9593526334075815
Ga 4.153099011135764 9.017304137919018 11.440288526205808
Ga 9.542913245850297 10.31211350176995 7.3615675583150635
Ga 7.279397120367172 10.453882261616554 8.94885369577698
Ga 6.014372465438585 7.563096265699149 12.606050534981152
Ga 5.427918896352629 2.910854195132174 5.219813485242046
Ga 11.36315033852082 6.092598576594855 3.7244337300303707
Ga 11.212965241606911 7.628449243275767 11.191248030297196
Ga 5.193509981485888 3.876978563617649 9.730302169671301
Ga 11.89353145905727 6.056030067101356 8.937701422523512
Ga 8.725906129604875 8.103965803413576 12.405613037472982
Ga 4.708010433978555 7.604259387043843 2.6016067399965856
Ga 11.726864106874142 9.555617048488749 5.972536231999886
Ga 2.7704610713729427 10.63972172338695 8.44487949196221
Ga 5.026357546147268 7.408734564740751 5.698620997934581
Ga 3.517038468817198 2.9994114273352426 7.331967802288955
Ga 4.945198169420941 11.272168610372903 10.128264556730759
Ga 4.99794065418595 8.687250755945575 8.377928550843176
Ga 2.523074319424029 7.746248465244295 7.073124663319652
Ga 6.903826054038634 10.12460616877979 11.766742559670108
Ga 9.162862911506695 2.266031008332109 6.944489368990414
Ga 8.215199097789293 2.528856267831174 4.49031052408071
Ga 9.488215738519388 9.544213844571049 10.100917920602711
Ga 10.209123824027053 4.003358448629177 8.637184544448344
Ga 6.572722262880647 2.6359323756236144 7.68367572153265
Ga 11.74332620599745 8.877681429759967 8.577515581297694
Ga 9.183497417549727 7.5334048055142855 2.130398220303216
