6
Energy = -9.15879448 eV
Ga 7.514814323487709 11.856181319623486 5.408995269308804
Ga 7.832707721878297 9.808373888675757 7.020421774067695
Ga 8.29210663951562 7.812249758696819 8.354425857617265
Ga 8.376618894734412 5.717292687466968 9.596768490176169
Ga 8.0844675243719 3.590626715045236 10.765632825452801
Ga 7.663086917579684 1.3261931907202038 12.018315704142214
