15
Energy = -59.45822052 eV
Ge 6.065705784340253 7.2405229594764675 4.9370797910154
Ge 5.17836807427297 6.841529395745251 7.332009079161085
Ge 10.167318163192553 5.96126049856064 8.148961579055472
Ge 5.837120581122186 9.485416267166977 6.237492406822158
Ge 7.586748538306789 5.980964721278418 8.760313736218444
Ge 9.10642379335724 7.241971045227933 10.555386468456076
Ge 5.52512604742744 4.581923546284187 8.63338497663232
Ge 9.05702318038924 9.94100091915955 9.8754006745006
Ge 10.65322585714444 10.477616410856673 7.7007636499701455
Ge 4.594421252232897 9.07385923602567 8.495166494290226
Ge 10.533035012264378 8.080266014361454 6.40138647286867
Ge 11.039750762757995 8.21876902303478 9.100362706921443
Ge 8.304692680832893 9.750165784130195 7.124645116528074
Ge 7.017229661764503 8.534160355941431 9.081186430083845
Ge 8.08692586474889 7.1998725118277385 6.495305828929819
