11
Energy = -42.45507076 eV
Ge 5.410348861101602 9.07707827770777 4.601203376971845
Ge 4.650788986057348 5.128045596887332 8.485708516044504
Ge 8.501659627476368 6.818042771569224 7.994292394618305
Ge 8.945032780314602 4.278310855005482 7.7419425666535515
Ge 7.010998926982665 4.69855559115427 9.266693324943232
Ge 6.637471927169867 4.830091642508561 6.6069392600355235
Ge 5.710673243844723 9.464002655782373 7.0572543321289665
Ge 7.15321389283902 7.463421909764807 5.531232181656436
Ge 9.590321170278246 8.392262104912913 6.227317390340957
Ge 5.983304360170228 7.222417888285877 8.11661433922544
Ge 7.805754973822345 10.0983374564282 5.828070419235882
