17
Energy = -65.82598633 eV
Ge 5.544706442508035 6.141336855766042 5.594166884892226
Ge 9.812037997201132 5.073587595653577 5.181971499684948
Ge 7.974138678589893 6.847205918074072 4.669361678811469
Ge 4.317791636145618 8.168522098821086 4.757835594320022
Ge 7.745902753868983 4.523765142169083 6.378346324396891
Ge 6.213691118209321 9.904631654498539 5.1639907628982336
Ge 5.417365903031771 4.401215989111178 7.406286935572609
Ge 7.72924762610896 8.644709824830244 6.7463461625565
Ge 9.456671657872596 6.64840163058414 7.202326057889378
Ge 5.026656437202376 8.544330760125273 7.284484113194254
Ge 6.603506523133026 6.557915922742994 8.263122866232623
Ge 8.685367908251253 5.978505650365558 9.620694892268515
Ge 8.622195068325338 9.896546221123609 8.753612959540295
Ge 9.106211553771113 8.285373253784996 10.608451537752448
Ge 7.818650935657965 10.722134964188792 10.961928801279196
Ge 9.842351147291442 9.892858213578647 12.328773745888192
Ge 10.721448653760712 10.442723926730096 9.957534475139934
