16
Energy = -63.82933955 eV
Ge 10.455343483916845 5.928567755643262 3.287651167388181
Ge 8.277864920943053 4.849545008765905 3.8685532750853953
Ge 11.330092798811922 7.0352882892595066 5.3329446520974795
Ge 9.763941486243443 4.9828114891543756 5.933657497608151
Ge 6.632142889107899 6.771325539533173 3.3562684054231955
Ge 8.726495896657317 7.314877492197209 4.942868724730568
Ge 5.319596877243325 6.636677557760037 5.557733152330275
Ge 7.5804943971728935 5.978181042334996 7.199690311602854
Ge 5.756175841020126 7.543433932305723 8.231067740749468
Ge 5.407365297583649 4.587663357405482 7.511852947077893
Ge 4.348268193284127 8.901197550480772 6.552020576303364
Ge 2.7055217183225766 6.909432654204241 6.058941551224667
Ge 3.676862516735715 4.511888059950149 5.578083797652738
Ge 4.771864546697196 5.727498824775451 9.74718901122674
Ge 3.055292890542084 7.648674673635931 8.672331814760886
Ge 2.7364488843164043 5.04993931062033 8.102470727968887
