12
Energy = -47.20094054 eV
Ge 4.812597329014912 6.65074744495512 6.801552485010215
Ge 5.6807993842984885 7.037122097237811 9.132578451012701
Ge 5.074739811367206 9.191592996983271 7.507828353510053
Ge 5.817023680464712 9.376210529706793 10.086281308952247
Ge 7.1647821890150185 8.192010654297462 6.4426486282354025
Ge 7.535433371129364 5.442380919843397 7.969117509020503
Ge 6.9767697340809205 5.735939643908242 5.381497669835481
Ge 9.35207359461553 6.584419248961726 5.888288420738818
Ge 9.632768043131428 6.978062060694267 8.665248711305514
Ge 11.42027686449056 7.68667814231211 7.085437183922294
Ge 8.09262181519088 8.959001218429329 9.13791314373463
Ge 9.50719131239922 9.345850999556724 6.9603828088369015
