18
Energy = -72.74354762 eV
Ge 9.924742995387874 4.175075748355083 7.365375025385016
Ge 8.75205888285266 4.235638796731137 4.945179287328664
Ge 8.272815835131864 6.8036048911278435 4.191527680959807
Ge 10.468423202553423 6.241465638622262 5.629507280469418
Ge 10.324992461435182 6.751896668804187 8.283671124489928
Ge 7.279689043990054 3.6075921295286646 7.248451537766088
Ge 6.637303728079725 5.703802414714122 5.933680049921851
Ge 7.520407779211038 10.11676257378785 6.340899236685065
Ge 8.470212349867355 7.693428459087345 6.669684300268654
Ge 9.26635314692533 9.822619930072081 8.322156137595172
Ge 7.9412681724350325 5.728644784269675 8.557912553518328
Ge 6.746872506290568 11.402543967672479 8.5218294412269
Ge 6.136678183208123 7.1399388824103776 10.012494977893715
Ge 5.821395061980439 7.8115578966629595 7.468204587474931
Ge 4.883203540584854 10.296948817436135 7.027642170885258
Ge 6.321438937901187 11.108157075873535 11.101878486695695
Ge 7.639034793707386 9.163263187478398 10.217844912306214
Ge 4.952278125092901 9.55161335235629 9.542093249543605
