10
Energy = -38.89418524 eV
Ge 6.870063819060305 5.090547465656252 5.498546996646199
Ge 4.716627087475648 4.975820647071787 7.059740020641662
Ge 7.092622211997572 6.002640848156652 3.161860606680295
Ge 4.852186371964377 6.944852438203336 4.100827553619709
Ge 5.79075117107429 4.250710168191135 9.251544444191795
Ge 5.086645978539147 9.236614610919105 5.214143593646909
Ge 6.885531399836889 3.2097719946045307 7.150811349466052
Ge 5.4023429457386385 7.4643520308154105 7.09323955948175
Ge 7.260728929039136 5.897531222442531 7.969040123535122
Ge 7.193210184490943 8.08428773726401 4.606743591260601
