29
Energy = -115.58711046 eV
Ge 12.400045515209902 5.0936063186957385 5.351891749762372
Ge 10.599754172434269 5.340851399836615 7.274525785862883
Ge 10.178035095896501 9.48235930200952 4.731392958501198
Ge 10.089817315592363 5.582939452141678 4.608269326247098
Ge 10.875020124946559 2.9335448972251807 5.1779477377597845
Ge 10.05020455925014 8.356103373560916 7.2371004937210515
Ge 7.502671159442231 5.934156365086233 3.5413223047001723
Ge 8.232537969996361 7.816108094408661 5.2550685138491025
Ge 6.1196860035492096 8.947758439683524 6.313048725327563
Ge 6.861460533373331 3.5261610949162625 4.81803842662715
Ge 7.597927959322547 7.162733209399286 7.743981590093063
Ge 7.540586065547474 10.296955805359707 4.40051295792829
Ge 8.795616162686116 3.8903903990959923 6.333230858286284
Ge 3.9670491189594843 7.725325150802899 5.627678462047991
Ge 8.957268599594187 3.562896600517782 3.3176729747837617
Ge 9.308264182685864 11.015261645289208 6.511316124061053
Ge 7.920002135810361 9.530517702166094 8.558767478123269
Ge 5.037145024556966 5.5995037748553695 4.689560846090352
Ge 8.33291949876265 11.98059058362312 8.621180296305143
Ge 4.36784686545783 3.154048870257253 4.286037595438041
Ge 3.9906680110394968 3.702887941989147 6.708582524307869
Ge 6.583018199781189 11.448536463621705 6.700182239728868
Ge 1.727512881899939 4.690398369513511 7.203703940210906
Ge 4.687682948055577 6.3593134004132335 7.7077277995279365
Ge 3.906611990326904 4.224983215691283 9.216498706749297
Ge 2.244283762092332 6.516757753059786 9.067183687330157
Ge 12.400045515209902 5.675037583896478 8.241995489704937
Ge 1.2764814055170177 3.848764809675718 9.67217572969133
Ge 0.42863937892191895 6.024388591125873 10.741224523743117
