24
Energy = -96.10314797 eV
Ge 7.540361669895092 7.10906478681671 5.042501547202165
Ge 6.112857523037953 7.255502238467917 2.738604236984855
Ge 7.822609254860907 4.822512204534101 3.820407854036024
Ge 4.900097604874249 6.508373083417429 5.007500658661285
Ge 3.587534700840707 7.871056532381222 3.1746430734436126
Ge 4.228016605684985 6.7936828473267825 7.479051446451431
Ge 6.585999652093779 4.591751586923762 1.4995805436156662
Ge 8.341180517609505 2.576743811524561 2.069251441744429
Ge 1.549038199643457 6.755103798016097 7.937158095036543
Ge 6.553140401956948 5.591335219468782 6.923285271904939
Ge 8.95701957188967 2.7242178151530223 4.714770116436682
Ge 6.549704720276056 3.1718492336617303 5.677796799412379
Ge 5.076286911164437 4.2676653720655695 3.768978835938087
Ge 1.683448788891314 6.105036593891597 3.047765469952955
Ge 1.3626563423909885 4.452084117196004 9.24957866121178
Ge 1.7129587446706838 5.87985433109111 5.541810528930517
Ge 3.834626956591675 5.526742464908117 1.5743567251364217
Ge 7.147657501403098 0.9767714679467598 3.7708399158470773
Ge 3.1035747654185832 4.321219498319642 7.4198147666806875
Ge 5.667360655831624 2.0458658416689457 1.8679862028226744
Ge 2.6716703176695114 3.4537111261957314 2.852255232641913
Ge 4.668441371993386 1.7174373546374464 4.410975691388064
Ge 0.24600890707220394 4.339538853933464 6.988156304099928
Ge 1.9982956201414173 3.055746054042498 5.421487850355271
