23
Energy = -92.56449044 eV
Ge 10.341663295748925 8.329651674183898 5.091182897915314
Ge 10.598847700756444 8.72302456029243 7.789256473865599
Ge 12.47699973970717 7.258064281622126 6.555468652099879
Ge 8.72663687797717 4.101171314101808 4.342816016405491
Ge 11.460306217412356 6.485424233392989 8.957388921917937
Ge 7.827180497961742 7.653379445475629 5.641888296739354
Ge 11.118815677276793 5.720085328135128 4.669818907608267
Ge 11.922994960722527 4.669417569973853 7.030839615605496
Ge 7.215491513871612 5.274491864992004 6.9229467718891335
Ge 4.679336424340635 4.926603225161245 5.401167292227959
Ge 6.800448449392073 5.697533008156994 4.196075595109714
Ge 6.69620936218045 3.2066651158994937 5.545786543010853
Ge 6.111628163462497 7.47113236036283 9.650913406247854
Ge 2.1728415315742424 7.586806930821632 8.250970616838618
Ge 4.576038680222872 6.58186852623275 7.439152873445786
Ge 9.834014929995433 6.2794682890138 6.947831910993944
Ge 6.109357611890264 8.658900415960217 7.28363197513406
Ge 3.679336984298402 8.581197635558352 10.518030194850404
Ge 3.4993358670418013 8.646248201658793 6.181265446660887
Ge 4.797101316226234 10.89201125276552 6.9806598132120925
Ge 5.573978900436873 10.098757289464128 9.507561627009045
Ge 3.7628233240007973 6.06142443117733 9.86120956982655
Ge 2.830599399049293 10.108191433132152 8.514588775964159
