25
Energy = -100.32159278 eV
Ge 7.045799311080234 6.899019536037077 3.658603651363061
Ge 6.583677568622389 4.879022400884241 5.075002843064282
Ge 9.44925494111404 7.695353857437439 4.9532770188208906
Ge 7.214777480707716 8.434966588361528 5.98965397179177
Ge 4.996357578837815 8.190758230550037 4.589465219928689
Ge 5.05556974811299 2.781335504213956 4.671322689336849
Ge 9.011272983936353 10.322864319707218 4.928312817379862
Ge 4.341122744369647 4.480761308442526 6.499577844384042
Ge 3.056700787886669 6.669021036320193 5.836963801909229
Ge 6.3485123897441875 10.73414880648855 5.369596839626631
Ge 10.609175173266582 6.041632772890685 6.709579175783544
Ge 8.646634601355968 4.376884455057633 6.514161550963552
Ge 6.164467485055005 10.108548915169061 7.983428152675792
Ge 5.333661971754118 1.858868927145616 7.247206239070673
Ge 7.456561128074825 2.2412176818899376 5.631448927596589
Ge 8.434618522400587 11.461876295717651 7.370130001245543
Ge 2.4886364403067907 7.877771496164303 8.142009180651536
Ge 10.30099229976794 9.623320358149002 7.2766477246366215
Ge 4.9685709143839265 7.702057902901718 7.554410399137197
Ge 6.53918417080936 5.582635514588686 7.882511238194562
Ge 3.1677360847878795 5.570011653344561 8.643169540934874
Ge 7.610732317370242 3.0188433157225845 8.43317481695388
Ge 8.759138987995398 7.34444691894485 7.843087934877192
Ge 8.531680321975252 9.551054864163001 9.226210055685018
Ge 5.05862886202762 3.727042155452641 9.144513179732055
