28
Energy = -112.24266316 eV
Ge 11.918659239341514 6.1926485158643585 7.915102875503427
Ge 12.160468208102042 7.537676570841999 5.642804091807829
Ge 12.676266110229871 8.69695351634507 7.972045049500182
Ge 6.465803312756848 3.6629159335461265 10.026862950189823
Ge 7.115416840498591 5.049062298632062 7.768033671257762
Ge 9.96394663708889 7.808945986813845 7.01987453980657
Ge 8.9704203824268 3.6395925939493137 8.921779024736999
Ge 4.907888858974685 5.636926951239418 9.19201693914817
Ge 6.895970973874834 5.817571787832421 5.285941757779725
Ge 10.548167055033607 10.028460177297418 8.590096362742267
Ge 6.165047693108844 5.955462022341089 11.53335630586258
Ge 11.18736689568398 9.910729556061655 5.90311823980321
Ge 8.503400251653881 4.531196389186536 11.450036957874747
Ge 7.2264477703449534 8.072606996712745 6.346869885629062
Ge 9.487710646441757 6.163529966991253 9.224319395768196
Ge 4.949873760754782 8.715531189688337 7.942922452833457
Ge 7.917910398566168 10.567749218587721 5.690352077218412
Ge 5.9229976138503915 11.976972087729681 4.823233754509687
Ge 8.48582073496079 7.291316473489518 11.372142445852857
Ge 5.4187491373410275 9.549815070376956 4.956062692941563
Ge 4.664431451646255 7.261930259807375 5.85716349403989
Ge 6.928284707515463 7.330129697521005 9.137581734278454
Ge 9.929934391568572 12.56667812504085 8.832935567394431
Ge 7.820200657543501 11.19724730636994 8.268872122600653
Ge 10.542589472765137 11.18923326871427 11.027068539854994
Ge 5.469632182891818 11.336715309168621 7.273454373505685
Ge 8.54586953254775 9.601693832109913 10.126542911403755
Ge 8.12823388465119 12.107958725637342 10.835599594761376
