25
Energy = -99.88123941 eV
Ge 3.795334110171787 6.566137050375107 1.1580627920101227
Ge 4.166414444078402 8.841738066518545 2.3715877654450104
Ge 8.124782062563508 4.432191164495884 3.6442872142666363
Ge 2.345437472383993 6.879160664302464 3.2508641348655503
Ge 6.45995093449652 2.9470421257093986 4.909500177284314
Ge 2.0587559031326284 9.409645914039677 3.7291396615543344
Ge 7.92989790213401 6.971712426326161 3.038693917256648
Ge 5.882406815664681 8.393330469296542 4.16124349293975
Ge 9.080061758545527 3.5941366725710573 5.771342842130314
Ge 5.481926967816747 6.04804129960834 2.9739471887624864
Ge 3.452652026201275 8.232170449473035 5.507524402142812
Ge 4.863004587661918 5.08024405764552 5.254731588082891
Ge 2.4104216201184867 5.875834144137755 5.626162614603868
Ge 7.985822984666928 1.3203308703318002 6.2986186160191515
Ge 8.125647112180282 7.9911382753049995 5.508968536853562
Ge 6.353795386032056 6.503572670754441 6.766163133649666
Ge 4.101290200289526 5.909701492795196 8.157755327086413
Ge 8.869056211224775 6.496348755101628 9.794415808504375
Ge 5.846248066857674 9.102302287167326 6.657031474066455
Ge 8.472638422001765 5.345987014747376 7.58822909216001
Ge 4.545616643651515 3.1448278736080697 7.2243581499637815
Ge 7.128247630518985 3.0439960600534226 7.936010579829679
Ge 5.194151117660901 3.9438223176843765 9.658050567978618
Ge 6.259656615297451 6.488260359105202 9.536263794067338
Ge 7.791084623595675 4.16262913779313 10.201348747422147
