29
Energy = -114.42553689 eV
Ge 8.89833058398338 5.321038562425979 2.0841350152835787
Ge 4.801470086362278 9.565362134587831 8.348263228954949
Ge 7.5020233137524315 6.970709993697069 0.5046904142222145
Ge 4.222468137317023 5.71896838094662 6.799273122244375
Ge 5.375539225262075 8.074251983009189 6.374839323558017
Ge 4.016593252361226 8.06713283111616 4.143790980888344
Ge 5.348546736296689 2.686164444503865 0.7029579315989721
Ge 1.616181701773139 6.115392781135575 7.958044024918667
Ge 4.326673261634151 2.038130008704888 4.635160964342565
Ge 7.259045286586547 3.4005458372589024 3.033925856572543
Ge 3.2108058734339187 1.9534454445565448 2.1111394727451627
Ge 4.357497713614166 2.04061701600779 7.291804360753287
Ge 2.6364857509712145 3.7801921243236367 8.382135763087991
Ge 6.132399809655213 7.768198969256451 2.631939023458473
Ge 3.673927446637538 7.437806345143259 8.797987201085702
Ge 5.968119885916044 4.028123587828312 7.616453118171541
Ge 8.083415909564742 6.8668700503094815 4.00960653192454
Ge 6.106381776691142 5.104759612792876 1.3475409689508198
Ge 2.2392152152884957 6.1973464507613745 5.2740415867303705
Ge 4.917277716834017 5.579276418872751 3.689502626255766
Ge 6.835947325528385 4.755480568670055 5.190751229577083
Ge 4.458814835670679 5.101184856044494 9.63587134327649
Ge 3.2548484576353807 0.12244807832459828 6.120631375606377
Ge 8.491656714420731 8.748531921885888 5.549279362390283
Ge 2.8625984146042187 3.982173572622492 3.925296866280706
Ge 5.94474991214041 1.1613673110481726 2.8494916309489633
Ge 3.395906743927266 4.548728011494112 1.4252705308073723
Ge 7.619405057142454 6.769640020082335 6.836498599209023
Ge 1.7447480029560947 1.590346783024755 7.692108151553133
