29
Energy = -114.5154334 eV
Ge 8.088933939318995 9.564096451414002 3.936688918840638
Ge 9.840158546304416 10.805464776309904 5.491798815944527
Ge 7.952239306340313 5.551521037710154 2.1963789954834043
Ge 10.322158079007899 6.436104251798697 5.87627839218894
Ge 9.299029191297926 7.204245880016465 8.653768352018975
Ge 7.9703787704734035 6.989396555252852 4.331711000826705
Ge 6.5417068953166435 9.660100084826226 5.9534102101830335
Ge 7.909378330246206 11.308366869262457 7.2122813726610495
Ge 9.791032928831804 4.830057532501138 3.883614732483022
Ge 8.010790225988957 13.000242618908372 9.05515701307676
Ge 10.323759859235462 4.946492297110654 7.955268572247426
Ge 8.938853116632222 8.729574694624429 6.58245891122456
Ge 8.431094394764575 4.335561656595066 6.3240705557818595
Ge 7.078846735893324 4.031950896776377 3.9883368937813444
Ge 7.773379404451829 10.308869700412567 9.656895715895223
Ge 8.849433378238782 11.882881581033162 11.125731347456984
Ge 6.433423950171522 6.221296743011647 6.27634568046659
Ge 4.990006668471553 8.261686726398864 7.449545560227891
Ge 6.831461770093344 6.696649411281582 8.952419244332848
Ge 5.7014463857667455 8.806325390425824 9.805228204592
Ge 4.546951851689339 4.658703271405029 5.422369813564291
Ge 6.092646326936779 3.805605614973205 7.623995664187125
Ge 4.979974609339573 2.6835760296743727 3.840301099221341
Ge 2.3126363081118613 5.274212463953605 6.440124655496843
Ge 2.5607625552961464 7.491060063571846 7.807163337252468
Ge 5.77204420622106 4.596761563398256 9.995518918512857
Ge 4.9121518488699145 1.967778323672658 6.3474073341044726
Ge 3.6495457625885823 5.396786229731814 8.776987003405177
Ge 2.8955762393075375 3.1515410338778573 7.712838113282352
