20
Energy = -80.4754382 eV
Ge 4.043551752773987 4.633342889646871 3.449570766249787
Ge 7.0959116926628925 9.509330543051398 4.392148967256358
Ge 5.984490385131555 2.885007091768636 4.825441688102502
Ge 6.0732568232913176 7.4821759912632695 2.9410835201580783
Ge 3.9676564657266526 1.9589075686483697 3.570421744164625
Ge 8.661793929311044 7.495630646731962 3.6846309069791334
Ge 7.2526605178203605 5.134692535102818 3.6616137458447073
Ge 4.5750593733237315 8.502372756315122 4.918231561055128
Ge 8.124641030261708 5.972742144498666 6.065622848374498
Ge 3.1948132299568868 3.175313409355745 5.565133172243218
Ge 2.866240773230593 6.093532673923483 5.324473391813165
Ge 5.867082897403367 3.48407690976553 7.342448799032507
Ge 5.5103590960807765 6.061269530269561 5.405770344098304
Ge 8.255348748529267 4.2151002049833135 7.988551733982709
Ge 6.356899356930568 8.204628422505868 6.831478769162779
Ge 8.872561810283612 8.450612355773446 6.199891179849183
Ge 3.528196922507465 3.22814983481502 8.138259037070261
Ge 4.984281115184144 7.710573831854269 9.042734106834068
Ge 3.9818355146597337 5.726826089065084 7.7069724043518875
Ge 6.606618780746052 5.878974786477694 8.748781529192822
