21
Energy = -83.56341242 eV
Ge 10.192635516533427 5.95553557254801 8.903134588736318
Ge 6.212558976153461 4.903970916200681 11.356464669775871
Ge 9.808843287364768 6.727865547453979 6.399473564966802
Ge 5.776639425980503 6.8791931929700105 7.875996709825222
Ge 5.280519532333734 4.421740409262043 8.755080245697329
Ge 3.6561394984895923 4.347719828797957 10.685077368429708
Ge 7.6756545236306035 5.915743154778585 9.378871664634177
Ge 7.292264492533647 6.68379178881534 5.768486705225335
Ge 9.47604988069525 7.756641398543561 10.862187503781293
Ge 4.421333890032725 6.693189611247366 10.29747246408077
Ge 6.180434804145507 6.04781280859099 3.4269491818232996
Ge 9.751667908804036 8.576857247292347 8.474678245243936
Ge 6.823869417972967 7.496138177858816 11.59202751675919
Ge 5.697697363927484 8.522239303418376 4.217368304939169
Ge 10.724441695014846 9.183306500632755 6.202533433861565
Ge 5.979828217150778 9.363463212762753 6.756597846577281
Ge 8.433167895702011 7.591065954509554 3.31499854188306
Ge 7.271060923598455 8.672697746168247 9.254773491711871
Ge 7.510599556746595 10.111779226997756 3.037882940905999
Ge 6.329231652937734 8.141296330395111 1.753221630780356
Ge 8.243467535323948 9.31435050309727 5.526313768316283
