31
Energy = -124.27822517 eV
Ge 9.849803650513495 7.898142677116151 7.8438510458009825
Ge 8.379879729969073 7.368134907500363 4.085972705288638
Ge 11.184204175568143 4.394686003371957 3.9523849318277624
Ge 7.878258289410615 8.437452222567165 6.379328664438689
Ge 10.444897041424483 6.2958891633425464 5.830427077668525
Ge 10.80417930665413 7.067547087765017 3.316550248253695
Ge 7.993659577802105 6.143525453037169 8.265119115876143
Ge 5.871023442568987 6.284667593215216 6.4765976354911245
Ge 8.835336778619807 3.084186265932031 3.8497076144292977
Ge 10.065930913841823 3.631529925477137 6.214605872128703
Ge 5.314485019843559 3.677316726978109 6.9607699163165675
Ge 9.487133287970448 5.043812187329154 2.0632153870085412
Ge 3.4639993483785188 3.7840622695937123 10.20616996718904
Ge 5.662942141590351 7.934816721812252 8.609922656660151
Ge 8.046707231030728 5.099547354195647 5.547237945968505
Ge 3.2450065971472073 6.76023060903323 9.492986401524222
Ge 5.579581315785956 5.229695253866491 9.120907971637424
Ge 7.0225623969122974 5.150267599993921 3.09422471686972
Ge 6.491498702725389 7.929330261298708 2.3424044046884474
Ge 5.928076482930074 10.081978694689866 6.559868655218235
Ge 2.0670885904789165 7.121149876749779 7.169427083587207
Ge 1.4083152405171795 4.753576148833362 9.227272705766213
Ge 3.062789268781291 4.955959356204354 6.327936671094381
Ge 4.460676825222107 7.15024517699022 3.6378797781779157
Ge 4.92697173205422 3.845859785865916 4.194058963972424
Ge 4.110380543765825 8.195519919632972 6.010710511656824
Ge 5.386833608853305 9.611031953744554 4.084748504185955
Ge 0.666279879672969 3.735696123665755 6.954178700222069
Ge 0.7238126859247382 5.740649264922766 5.213078893438567
Ge 2.8759361571413895 2.7328464326288273 7.892601800566666
Ge 2.8541883455856536 5.241819473349266 3.585099263920061
