35
Energy = -140.07856766 eV
Ge 9.991099590288563 3.4416938686081804 5.738365487668508
Ge 10.779632559693786 5.210167395915169 3.734945017073378
Ge 9.806017715116763 8.464224885279027 8.4265514650165
Ge 10.830037073483249 6.985322033332941 6.344743750858065
Ge 8.660605526375681 5.817729464325579 5.137867641658875
Ge 8.143643624337086 1.6116912842307451 4.91629612196832
Ge 9.557549732747333 2.90591673875726 3.0443143416884895
Ge 8.191138630820179 10.61556660701978 7.835657230882298
Ge 9.694394016749225 5.296675935352374 7.911502235046521
Ge 8.437199288378565 6.644764772382631 9.881873511646283
Ge 8.49115579295725 8.442813477339659 5.940974882917617
Ge 7.238042409373049 3.7777375414174457 5.959918626088664
Ge 6.950503386942376 3.0119184740602583 2.928135645603134
Ge 6.867165174675105 7.354247931470249 7.626974576966271
Ge 8.38764700345522 5.345267008348233 2.5197571452378247
Ge 7.638797784238727 9.380741099961915 10.244537129697877
Ge 6.694214841989975 5.011435785809474 10.85879143298348
Ge 4.411479344743678 11.73746760774693 7.326778200609755
Ge 5.959875739260306 8.899035216545094 3.987037772671713
Ge 5.926520690159875 6.557797136858219 2.7576170398595132
Ge 5.986099867176375 11.187566974068877 9.343561203149399
Ge 5.988425059991997 9.902847836729158 6.542724809890791
Ge 4.404210655925325 6.326234343169524 10.84329337554388
Ge 7.03908525305072 4.733488669629093 8.33269175783395
Ge 5.349586076173123 6.832249564285105 5.465020522724474
Ge 5.244709717437065 4.459884997233062 4.397941457180928
Ge 5.3656582575625515 8.30946436579971 9.535153743349133
Ge 4.527027257055647 5.506861151976652 8.458822340933674
Ge 2.8309398869355626 3.4748359411535774 4.520189484101035
Ge 3.596658351439878 9.4385042185274 8.054627441903163
Ge 3.4133002460882067 8.467637484142388 4.466548328862812
Ge 2.7847325478884764 6.034103076378765 4.085990132059545
Ge 3.067366060553463 7.122515807582925 6.785470488975598
Ge 3.2657716604846247 3.6824575069875363 7.068114356424529
Ge 1.3345894644602685 5.181021875336809 6.178507981690099
