30
Energy = -120.16138184 eV
Ge 5.422960322609728 8.7315700224393 4.049386247202026
Ge 7.086826058727053 6.784311562043001 3.0225436726780073
Ge 9.76396258755821 8.237166691722269 6.251740454803003
Ge 6.675166897226585 10.873089582795679 5.229277815682874
Ge 5.024604367681017 5.154205741930843 3.922105525461848
Ge 5.9841516938059645 2.6074428330930486 4.568321402888805
Ge 8.670540256934196 9.464039346703679 4.233225819244032
Ge 9.689794248208091 7.07796068006657 3.664893350097345
Ge 5.716366709652228 2.5145145467821943 7.309637657066395
Ge 9.488016288823133 5.314612494466894 5.533993450536508
Ge 3.2699300952176458 7.478081685831734 5.00537353618005
Ge 7.027422743614895 8.39979064414156 6.1966271645850055
Ge 7.889894209994361 4.102522364194104 3.5381759177386063
Ge 6.815854851586374 5.850116900737439 5.64320602951157
Ge 8.148499542528159 3.0961878452994753 6.129361846373871
Ge 3.720840584111131 3.552498872798579 5.759931989668891
Ge 6.3889635149896185 10.552700909542605 7.862726762936485
Ge 6.77388677704839 4.857586503989397 8.068706477442927
Ge 4.020156863345135 9.933186312335456 6.332620357296579
Ge 10.509431415058154 6.100226593582471 7.8242894175915145
Ge 4.0543621793805755 4.304506690658204 8.364510055335515
Ge 8.41368319474746 8.872852285607141 8.400596156509076
Ge 4.687655601560115 6.8051260457671665 7.244627457407811
Ge 2.282494205220021 5.671589356768535 6.7980101512377695
Ge 2.39326971527012 8.277815278525225 7.553665574282123
Ge 9.676057564139875 7.2862295381425515 10.073945775322409
Ge 9.007416410114754 4.7032667872739555 9.502243542870959
Ge 4.628284188304892 8.799521320710006 8.923970320274975
Ge 6.898514230736718 6.961024879928379 9.658558952212198
Ge 8.15254669113625 5.91780969145306 11.615281128891779
