32
Energy = -125.93728646 eV
Ge 13.217942573546843 7.818962855628832 7.08984812187565
Ge 12.043002132186068 8.155631323062947 9.352145976635738
Ge 13.166907463351194 5.653057305815968 8.739638241530042
Ge 12.15222890004268 4.614451544312764 6.572198204331654
Ge 9.722113308076375 8.763452185167266 10.18288248496234
Ge 11.199034857838653 6.783941062454486 5.661640213517762
Ge 7.966395863071615 11.103075380080128 11.077634247978146
Ge 10.578665106462237 8.928492708407575 7.225760069828447
Ge 10.575538933200054 5.878956829602594 9.228524512353218
Ge 9.453014065032285 5.165624949894769 6.981213355690406
Ge 10.291879142183365 2.7328104536999676 6.49148822449715
Ge 8.951528493226572 6.551299390300176 4.4876006784708276
Ge 7.060327004670158 9.64337144076627 8.789360537738107
Ge 8.661660018051201 11.589845330369963 8.464032389520625
Ge 8.222355204226773 7.65108667757785 6.713870941283466
Ge 9.175843111055785 6.400631378818875 11.272080654228798
Ge 9.190134145537133 3.7511938631610056 4.521836444904058
Ge 8.697381136299587 4.979173891246651 2.564809364073498
Ge 4.4251775971015785 10.223596249099982 8.764124322146552
Ge 6.280219465807595 8.968488571565333 11.30673776252026
Ge 7.355033479816034 7.0838667002069915 9.573937404725582
Ge 5.836865792011247 6.07467059947342 7.722436189492252
Ge 5.589875227865479 8.605575320465608 6.728483576513732
Ge 6.734198818985441 12.85558364589914 7.161981329845136
Ge 6.153822372224915 12.147300626429232 9.557807882369579
Ge 6.621206150613791 6.590503774840391 12.14872154201834
Ge 4.7299467492153076 6.121205255721878 10.247966789256644
Ge 4.803732783245737 11.318821076151101 6.374203434054244
Ge 4.55529815871701 9.148280744202706 4.507482028757458
Ge 3.625044647237756 7.549710982837836 8.307869727812646
Ge 3.740110596592324 8.641770110895317 10.796064737436994
Ge 3.228154276228278 11.192130680402334 4.5332810441867535
