33
Energy = -131.85542407 eV
Ge 7.212444002263429 4.9850912552101425 2.8231159513819057
Ge 12.166435148542332 7.447987342153351 8.89130692949633
Ge 9.50951243695912 4.546243382719024 6.741336653974299
Ge 7.181349492781531 7.524055448215124 2.2719846883297388
Ge 4.97747210043397 8.592415905706668 3.151996759806935
Ge 8.058165317600903 6.0968257582706675 8.22751041548685
Ge 7.671487786820953 9.60155480181108 7.8577863063341065
Ge 11.749990699802078 5.672883449122621 7.0438472456191885
Ge 9.837170350427144 7.059365046717346 5.707663125912173
Ge 11.847301045937144 5.747744853294769 4.4628314166626515
Ge 5.4780610372579535 4.655249594797319 11.881831100080351
Ge 9.804914075237331 10.33336288328799 9.311594035676807
Ge 7.753286863776119 8.350899022819108 4.569664376856765
Ge 6.446496226072497 7.500399031982058 6.781098473325169
Ge 7.039110566737584 11.892800287889271 6.5507833535787565
Ge 9.712537867470243 11.27456269486435 6.89235653035465
Ge 6.1259181510498335 12.918166863103032 8.825667299286529
Ge 5.84624210517423 9.974982193791877 5.213422496898442
Ge 5.273245209373512 10.574988911946695 8.522957285688571
Ge 11.014257057119034 8.917980143822069 7.04274490452979
Ge 8.278824469365546 8.02780601271831 11.65485555095406
Ge 7.83222065874871 5.62913640004382 12.5296488923489
Ge 7.344199479182577 10.188102963631339 12.566639495642734
Ge 5.749085957387767 6.459632219404499 4.389410459367382
Ge 5.887061003107763 2.673374313163377 10.321405420505297
Ge 7.81179490327211 4.244183548662165 10.309482621470877
Ge 9.402904518158278 5.055520162146833 4.203650385045898
Ge 5.627309438668578 9.25327795381746 10.908813808862869
Ge 4.232999019674453 8.807694377211199 6.885229440966198
Ge 7.569835625860217 11.245112783695212 10.226644706605587
Ge 5.3791410607673695 4.915116689064409 8.98049888603364
Ge 9.692977566202414 7.680072740505662 9.501571373617134
Ge 6.281009006149895 6.757933337024103 10.476816830673277
