37
Energy = -148.63384927 eV
Ge 1.8793362365321917 3.1027747588041246 8.83229155711435
Ge 2.5648596148414704 0.8066105116858799 7.474277062963528
Ge 0.8025442493460188 0.5849861693594954 9.449227321928259
Ge 4.477209493439434 2.2165487131159445 8.82123735295558
Ge 1.425182880736337 5.090222628549376 1.2799809947143734
Ge 6.170478465101122 4.040973167215874 0.0031506383544536738
Ge 2.8801483375121637 1.5780618007006821 1.0301064316717246
Ge 8.76233445693378 3.593342082066831 0.5734535146201453
Ge 2.2331833726071175 8.748957570464068 1.4519003961490764
Ge 8.003749102431662 1.0390369474369705 0.8958322134146395
Ge 4.226320834660106 9.364957742384219 9.35425339471544
Ge 5.621350265811113 7.007371044063844 2.749909939087706
Ge 7.10184841603159 2.2344053041836394 1.6600858453325034
Ge 0.221172295828348 2.1958407155350375 2.43091864025666
Ge 3.0497819078790473 6.786904090223335 2.8670745950831242
Ge 6.348958663399853 9.366926616039715 1.4660079925220755
Ge 4.885819422254881 1.43107201655893 2.8407143500482803
Ge 2.8845380292017704 3.5859591153214354 2.7871622824686364
Ge 4.446060256032574 8.653627420845053 3.352102185390088
Ge 5.187962519094404 4.474333291023289 2.3180903651961553
Ge 6.918641475004376 2.293923388677991 4.342123124913124
Ge 9.256713597968286 4.649423006252216 3.3179299226898515
Ge 8.103803339533428 0.43536393641255394 3.5845545008471618
Ge 6.904638190052433 9.343357519992091 4.180683248743732
Ge 6.703146140297438 4.925208827475124 4.491123364302151
Ge 2.311363460570014 2.1129464493535477 4.981537835043132
Ge 7.226853937967713 2.9371867297426766 2.843952623134872
Ge 4.685591203102013 7.099956871898881 5.334515913588748
Ge 0.7118815118411349 5.6290836540157825 6.350508505505714
Ge 9.13407840618932 2.544484444766374 4.968581528433045
Ge 1.087619865002384 0.10337206059367476 3.6607183634449854
Ge 1.9493271019940595 7.698907846773085 5.231155114184289
Ge 2.8221549417882517 5.10015414116934 4.965670392430835
Ge 4.909255914128148 4.588287970030139 6.509058392509705
Ge 4.685158749388043 0.8418676377372426 5.3598069842091025
Ge 3.140506311187091 6.549939001383122 7.4742770629635285
Ge 2.455165572946148 3.7052607603325733 7.227662001253235
