32
Energy = -127.72492647 eV
Ge 6.301836295152159 4.892031214858073 10.579240683116465
Ge 8.30591427165408 6.245948967029227 2.774911610355154
Ge 9.127720908819427 3.7108071720599205 7.565409615922656
Ge 4.370177093370739 9.201873780777118 4.942379509064169
Ge 6.640565391008105 6.942962461438028 12.328752769397276
Ge 10.872920925632044 4.477077249007451 5.707194597007024
Ge 6.609064865359422 5.885183644801117 5.15565997864779
Ge 6.974359799099494 9.142731285045775 10.650966058637374
Ge 4.592921456160431 5.266990287295943 8.5125654915808
Ge 3.819131048932433 8.030451144239855 2.747920925265061
Ge 7.156025373112248 5.477458248352969 7.890246841238494
Ge 9.307252636053677 7.6863578707372024 8.682904123468298
Ge 11.144777279108201 5.8078745958185545 8.192479571973449
Ge 11.961759158117742 6.8660172199370075 6.0344806945923475
Ge 7.741905552639799 10.492623689435446 7.270793953279314
Ge 3.3272765605179635 10.021979218848605 7.319727128325602
Ge 9.110947649386038 7.615355776734961 11.595376670727607
Ge 8.780595652244333 5.437698732283453 10.195155772604116
Ge 7.855849131663153 7.837767299231345 6.508736533876784
Ge 4.984865138949836 7.233575354280109 10.318037691545465
Ge 10.63788265918736 3.8063831065015292 9.677372831746405
Ge 5.863846242753407 8.575003939911333 8.160423336654594
Ge 8.503013996342382 4.259088527326433 4.55586130600207
Ge 7.085006163361128 9.789472282019176 4.709556768775214
Ge 4.1058091452875125 6.26498092010675 4.702830478884006
Ge 10.801023460191056 9.295269312817874 12.067997049804994
Ge 5.370091627983616 11.425082523851987 5.8948677684386235
Ge 9.52632541695195 9.879773345636384 9.959601137765944
Ge 9.693703305921522 6.868272147031131 4.857326222739076
Ge 3.8359604800915603 7.407442244444246 7.0154840009687955
Ge 6.286628212694179 7.758732121221784 3.2380482091333556
Ge 5.491149741847169 11.125489679492947 8.502578039633752
