35
Energy = -139.41950436 eV
Ge 8.726216769721203 4.5399427500698515 4.180461032539547
Ge 6.128776223093599 7.861701991307227 3.5069458638074713
Ge 4.896138030194542 9.879447602319914 9.680836708496951
Ge 9.63156245611209 8.905126321009533 13.914673051508224
Ge 10.035677667818641 5.877524865984443 6.010788278736132
Ge 9.304709540558155 6.255308077592111 13.626077343403624
Ge 4.715790905742212 11.428651015399272 11.763587953100437
Ge 6.6380549495130285 10.353617110632738 4.030464096148425
Ge 6.532288509125639 3.657347711590539 5.8323707641629445
Ge 10.156991511206718 11.931895687898411 7.070138664439934
Ge 6.065631230980851 5.391805000076524 7.765656992975032
Ge 8.948890095284934 8.61524323401498 8.90433968106748
Ge 8.237657028104739 6.100138195792473 9.083833718048307
Ge 6.436560687395829 8.933358396327602 11.434588277956621
Ge 7.114370996022287 11.514388749108546 10.888109270479035
Ge 8.60160952307501 4.130878305098968 7.394923306755319
Ge 10.15716106806934 11.08259852210992 4.66314461161595
Ge 7.235219431678971 5.835649379123346 11.651581133254737
Ge 6.0601577351210425 5.287927618514305 3.6704204785253807
Ge 7.243951600579246 8.488573149157682 1.2304598458537024
Ge 5.078985270120443 9.619838468243985 13.66482764592699
Ge 8.032769586164981 10.378615719822879 6.218677157003355
Ge 9.936446422400806 5.55842392465944 10.996778958810559
Ge 7.1705255109529205 10.385150923078585 8.616426981455286
Ge 7.458299810549852 6.363559930787076 5.816887798767232
Ge 8.726351902039568 3.988248222388602 12.700653704212037
Ge 9.21617857861439 8.09503963576029 11.523490335276449
Ge 8.776520649522205 8.380686212127499 3.7202344079295684
Ge 8.776403256021037 10.57708349644237 2.4184248147034992
Ge 9.899077809183524 8.518928403115531 6.317316280890451
Ge 8.162873722117032 6.322974363696047 2.1782780444812033
Ge 7.505203926506613 10.620353608767164 13.424140650144382
Ge 11.12631322007983 10.024673495151486 8.492747931694757
Ge 12.053204761293875 9.971827282668622 6.086095962238752
Ge 7.0715466273726255 7.882086099152781 13.903063596453563
