39
Energy = -157.94264028 eV
Ge 8.162282396174648 9.510675978313623 1.6148794398810336
Ge 5.774564863301918 10.355833841515048 2.2632971979983747
Ge 7.1123043571801645 9.146982721703726 4.294727962994134
Ge 6.220994295851642 8.538091151378458 0.14359465255631415
Ge 4.723968991473201 8.155039269713148 3.6415751810133394
Ge 8.79092147625228 7.427048859819789 2.995917048731873
Ge 3.8481681564106647 8.77679756699107 1.2228284091139503
Ge 6.510518990560544 6.306154052027523 3.6188179456936087
Ge 5.448881542524568 7.00926359372873 9.10672863796729
Ge 10.430446091060457 6.478615590516993 4.764086230428405
Ge 4.931203322591714 6.375788024627065 1.485595049707304
Ge 8.081666675758472 6.765694414046965 5.766102330955368
Ge 7.56256356074806 6.434195842508645 0.9512003425986928
Ge 1.0068337686828246 5.939188668760081 4.199580350614956
Ge 3.3261889587509836 7.0356082236535915 7.648791011593914
Ge 2.6584503786437854 7.7809119869476575 5.204739900660811
Ge 8.395011850707391 3.2381236655934993 2.348110790503828
Ge 5.123169845386456 4.774999475649865 7.575479839271825
Ge 3.1097513322999 5.100820664729756 5.667393703669318
Ge 3.762505314492151 5.2737677625085535 10.047131265332773
Ge 10.478482230693103 3.379919532707828 4.216835031420139
Ge 6.889680789118687 1.2172084211291558 3.240555415921264
Ge 0.46175065666228415 5.0371682952321075 6.592178402015398
Ge 9.32343080546697 1.2965365479912272 4.2650744978001125
Ge 1.3119598948259599 6.119315105547541 8.886017778206993
Ge 6.47665096093406 3.732367015759357 4.0516756535662966
Ge 4.021992203617685 3.0800579186741275 4.395442167723709
Ge 2.191269159332831 3.007998722590906 7.1407379370768505
Ge 7.673251996384843 5.955217271238488 8.149901314729103
Ge 9.491458178681427 4.069837177817296 4.551277198269591
Ge 4.163609092437454 2.6990204330825645 8.83520552707643
Ge 1.9635954649595504 3.723890871193441 2.8799485547260977
Ge 10.430446091060455 2.4837908435067777 6.680015596349736
Ge 9.464048570350641 2.4069256895833293 6.691797461758044
Ge 7.103304436776423 1.2727648124292699 5.899368442297314
Ge 7.459122379365453 3.9868307260794564 6.413548204381366
Ge 4.072344186154329 1.2606966856270958 6.205976635329911
Ge 1.6200929386739331 1.6120147137568908 4.824904224884218
Ge 1.8225706310749348 3.6477308214442123 9.814020552428172
