39
Energy = -157.16613671 eV
Ge 11.24185589787863 11.281318776281966 9.222689529833833
Ge 6.915136125587289 3.4882929743945597 4.857701107710344
Ge 8.97338228941703 12.494965398859737 9.657139264368464
Ge 8.292073381266823 6.583330583627264 11.570288272844367
Ge 4.621945663021062 7.519702938292504 4.635514281612996
Ge 3.552683500506156 9.782092904411613 9.540399686230394
Ge 11.38385669237987 10.953909715983384 4.286183750987377
Ge 11.652138236273975 7.073671939648391 9.248113829517251
Ge 11.48559537280252 10.45151936638888 6.829463334024832
Ge 4.547890644126725 5.248848455398691 10.009832084385662
Ge 6.3522609571324455 7.149155187655762 8.709347079127522
Ge 7.86692112458033 3.596160608353588 7.245780961391078
Ge 5.851004271557216 5.589039059013524 5.667616563603334
Ge 8.840674693815862 10.847171701869161 7.747407161061749
Ge 2.4820676931484127 7.130059570197006 5.9787130400868955
Ge 7.051872265523803 4.7162856608359744 9.454305380580749
Ge 7.962322945833629 10.536555217828038 11.07040567215796
Ge 8.005570258299075 9.841662468597606 13.484102678572897
Ge 6.4948774045764806 8.208818969405925 12.16183836711559
Ge 6.100353563925644 9.570958428602012 9.603335485453469
Ge 4.406256612125324 7.71756076879333 10.843770861915036
Ge 9.975175474312522 5.332449541516221 9.68949099349584
Ge 8.646614760401329 4.089778783318761 11.442255822272275
Ge 4.2330092621147335 5.951343358086967 7.561826616313541
Ge 4.062101139102912 8.65010138876505 7.241156298725423
Ge 9.04544585901103 11.053581234305149 5.215185591323065
Ge 9.575225457582526 8.804983469126435 9.179637386215171
Ge 9.744268451338824 8.623580350931151 11.901270039769582
Ge 6.315999315801709 9.741674790573859 6.711770921106153
Ge 11.952359182304768 9.200033894311622 10.663591475995426
Ge 8.336509285299181 7.350860239209297 3.16712643941267
Ge 6.563325161475837 11.418690063360074 4.749794941324298
Ge 6.486949830946223 9.016187184283972 3.80990794464395
Ge 10.036684993240238 4.87741273328364 7.216094952424057
Ge 12.49666922973062 5.801956695382264 7.106202615600179
Ge 11.31102711114962 7.936709652213516 6.547870519691809
Ge 8.677399948571686 5.395073180173192 5.004313476971798
Ge 10.079417024963472 8.681693909386862 4.474271395110792
Ge 7.836357945852297 7.748087864310499 5.94956320399905
