46
Energy = -185.67262214 eV
Ge 0.4753925761788046 1.681898431907633 8.961399404075083
Ge 3.760647960454866 4.650733477432247 0.49956297427424007
Ge 4.702935810602405 10.238301129984439 0.32053403125936286
Ge 1.2292476770887455 4.205935951747245 9.420608205164392
Ge 6.178087747588908 3.799048138264339 0.004064349667532989
Ge 8.868338205049273 1.0122887626733665 10.055834125780283
Ge 9.429749852303118 3.6401235004788055 9.400811124921956
Ge 10.786573731654334 0.2699324151378326 0.7733628761613358
Ge 3.1776615446510457 1.221320138539491 1.5940873597284682
Ge 3.3660104062086367 4.509532081731084 3.233915532842509
Ge 6.122116478659315 6.288215157205628 0.5347982451432051
Ge 5.893783076015617 4.516601088862917 2.671349282050876
Ge 1.176717939600808 2.5606320036061128 0.6540678925684826
Ge 5.695546615730312 1.0459133795066544 2.275441614849855
Ge 1.9165553894325795 6.3695201626346165 2.099035311017274
Ge 2.230653978744723 9.627795609995236 0.7237579625451638
Ge 10.656471898842815 4.817872330462546 0.8105012103079263
Ge 10.717275599529058 0.7353767531875034 3.506838726775786
Ge 6.777539315564084 6.885613646155554 3.3121203223533775
Ge 5.750740855636271 8.639963197213246 1.4214594879514684
Ge 3.6059607725230403 7.258848527292658 0.08749895597979065
Ge 9.213816166787664 2.6805285725667023 1.243090095601257
Ge 7.569852863417696 2.7067940203632346 1.9302841950515317
Ge 4.106934207967786 7.44283493889709 2.957322151758624
Ge 2.1247249654493903 10.023451949082054 3.1988369858739416
Ge 6.238783140409431 2.219334582855004 5.771360933002187
Ge 8.692698156704868 2.431882055976743 3.731996529725274
Ge 5.103507180844247 9.417434422697122 2.8427507134642376
Ge 8.692698156704868 1.2741766015406877 5.930191616316174
Ge 8.409947308005584 3.5924310371144954 4.732986655896206
Ge 10.3877425219112 4.332535226242236 4.141329431492284
Ge 4.086346300397487 1.1891549881157972 4.388226002670682
Ge 1.4151987900657275 0.8779913165627876 5.8880923483485175
Ge 6.616967279690315 4.783498703584821 6.2421882538566456
Ge 3.380993115478876 5.389394006965648 5.644836100688721
Ge 1.56798617421586 2.688674377153168 3.8678509413177338
Ge 1.0980469653924834 6.4107226600124 4.905844251214464
Ge 10.00921296894203 5.550825731556743 6.553716143829148
Ge 8.40342179064828 3.3493395131308015 7.606856251238376
Ge 6.982737517381768 1.1392908480569974 8.08199380026507
Ge 3.6732002160319386 9.55080569550486 5.091375960790877
Ge 0.2082936526847534 3.123992764689357 6.5516406082393015
Ge 1.5594865114194132 5.183737456291005 7.635452438974364
Ge 5.600528123833471 3.344126827504896 8.155721789324376
Ge 5.416562093556228 6.987506378245975 5.659454644728945
Ge 2.946835324398158 3.0755286669074002 6.806243961858355
