44
Energy = -176.92295874 eV
Ge 5.079540384115075 4.4546994062727565 8.803490200631988
Ge 7.28183682545708 5.154880561548043 7.494763723960995
Ge 8.50669347268057 5.819411928816765 5.184061212635442
Ge 5.441910359869366 7.874336752813286 7.904059181783882
Ge 5.512780858761928 1.8805689352688886 8.643164685093103
Ge 7.344277236782248 2.6371714297820836 6.942555040892629
Ge 7.882103390880877 7.777530943260209 7.064675915955175
Ge 9.16909055340062 3.3679165213071807 4.218620982285266
Ge 9.246173491133211 7.150573964898678 3.020943720875513
Ge 5.940380250631868 9.457618269845756 5.662214024391546
Ge 9.110397997886896 1.2388024041983612 5.687010165077444
Ge 6.6574077219623256 0.14536709995285468 5.220240366790936
Ge 5.372807338641148 8.484951008725357 3.3220246695980853
Ge 2.002205456682902 4.567049308663722 9.192957542192454
Ge 4.123334297921854 5.601634099392049 6.700916263839492
Ge 5.287006757989888 2.7264471026842867 5.333843507698159
Ge 3.7863906519410206 6.5423558216076865 9.586880953686089
Ge 9.43206099868562 4.799035644374168 2.0425741414793155
Ge 5.991585319268523 6.667105848857791 5.247350454983177
Ge 2.83784205700299 2.57073385774339 7.944670139364963
Ge 3.742180621173691 9.765350158113417 7.263720759078442
Ge 8.19423282549479 0.9954307218236356 3.0580431646167225
Ge 2.3735299870415796 7.483291650838298 7.197518961279402
Ge 3.1959320730917966 9.078045131594536 4.809661162182427
Ge 0.6126761717228344 4.753639277215856 7.096921886292644
Ge 4.067359917078027 0.7362530168576064 6.6180053461560675
Ge 6.883103202726809 3.4998160535240994 2.939634097359736
Ge 5.401237102976946 1.0566487899361308 3.177025104397906
Ge 2.8988049784257885 4.319502453866661 4.605203997187344
Ge 6.557161916981159 1.7715238453765043 0.8290702091727927
Ge 4.639427326364495 5.089411115178469 2.541146593856564
Ge 7.0195255971824935 6.434811298501113 2.039764670747054
Ge 0.1114400405331458 6.997659351651358 5.9361710259360265
Ge 2.0912658058191522 6.7672451113200855 4.046581146634772
Ge 3.628951875791521 7.347672182202379 1.6975991664662424
Ge 1.0067088621586022 2.751825808011564 5.6455719022989905
Ge 2.9547826241588377 1.6283265713789827 4.074827232128561
Ge 4.495336340609709 3.4835317254624374 0.33672106070771063
Ge 7.600440296117711 4.130418523506659 0.3219455553499988
Ge 0.37146873813520137 4.197897290789108 3.4108042342266565
Ge 5.45246302839356 5.890824183593283 9.816701224685982
Ge 2.388059846388664 3.3162270735534403 2.00209638894747
Ge 1.4465432353590302 5.913849749355203 1.4316899995426837
Ge 9.43206099868562 6.651495842704487 3.2773791152528857
