49
Energy = -197.68077858 eV
Ge 4.301276996945184 5.447072360211707 8.899137316072963
Ge 0.8219166019384245 3.439962456960499 8.753604967999568
Ge 3.3716257204933378 2.848156769748184 8.960902740054328
Ge 1.111361514842974 1.0054940934554648 9.970957441882256
Ge 3.564722104378213 0.2819373639226687 9.104856345759746
Ge 1.7693162583068196 5.7829112535881375 9.59073296850457
Ge 6.105014321938395 4.533752149718701 0.4393378796363477
Ge 9.030819188366412 3.641807736829767 1.928104024169581
Ge 6.898123036132346 1.848352181007971 1.1125328546809772
Ge 5.2346496341669235 7.515847701518356 0.13042321960091274
Ge 1.3800792259600627 3.665067501393123 1.0478421975290515
Ge 0.8593502182315218 1.5243035254778752 2.4764747615288276
Ge 4.1615102038174765 2.079021314599376 1.0719187055648118
Ge 2.848384664041391 10.05736419047647 1.4744446573823973
Ge 1.0287614833736662 7.7197821242058255 0.8980050807037727
Ge 8.251105963584939 4.035542139483809 3.3937893574025364
Ge 5.415843835070267 9.987510440079092 0.6754730918441013
Ge 3.3806114425792053 7.65006052566819 2.0469321541086103
Ge 0.23859939494996601 5.835155511959737 2.4498468755304703
Ge 7.426854846037578 6.569968984500484 1.3521050358222864
Ge 6.548053479597811 0.6442991831346727 3.4654338309170587
Ge 5.98126949558184 7.979158397806654 3.072582217289956
Ge 3.6333097937525274 5.226549534887829 1.2476943208720115
Ge 3.0489934414490687 2.505247053085462 3.683739326169921
Ge 5.881648309221668 5.020350523262167 3.12172140026564
Ge 6.139665130214391 8.903822921465549 5.283104449984411
Ge 7.992833479784543 6.588565298285864 4.335417800355552
Ge 8.251105963584939 5.344480939586323 3.877779248462897
Ge 4.031351705387295 10.199984522027332 3.926746250422532
Ge 4.062726635106758 6.376831608064441 4.3288993511184515
Ge 10.210568211712825 7.034546628302614 4.909300911863342
Ge 9.913450180305414 3.254734209096429 4.4362854900911755
Ge 3.573045698762643 8.497300364706884 5.745439184396494
Ge 1.8215856407654731 4.971425063543539 4.337064041448181
Ge 7.974395439944618 2.043874903451128 5.19423193471358
Ge 1.5871068180928665 9.937044937143126 6.839977077870402
Ge 2.2151347791729576 2.2205598422694894 6.25493184365759
Ge 5.310132355011814 2.4636557466846463 5.2067572290376845
Ge 5.881169128552072 6.667956717003976 6.239563171509326
Ge 7.738889797762087 4.572999649500245 6.097247363246062
Ge 9.049499582428382 5.022510798415557 6.441966203942929
Ge 5.160542883532884 0.42259331880774365 6.822056503286736
Ge 3.1595591037149795 0.894724603383034 8.41415040580026
Ge 1.4161397983132504 5.808981324747812 6.77791234736862
Ge 9.9574581774374 1.5364636260203142 6.333848280310283
Ge 5.165699998426691 4.2445707847290715 7.036506979568047
Ge 6.945706054709625 2.330512107483308 7.64451462627292
Ge 0.3848007532984698 3.501864953460754 7.969587451536304
Ge 3.0052115009207356 3.55630010653961 8.419099074144725
