41
Energy = -165.66960827 eV
Ge 0.9250969682903359 3.156524826048745 2.402664649319547
Ge 5.491408521712557 6.584946389592634 10.305079085059022
Ge 2.9238384546786347 2.8931221467582717 0.8235062391600007
Ge 2.991204550280266 5.707119607591127 0.4323514681653837
Ge 6.196598301033802 7.3971194596934655 2.210769301364812
Ge 2.3292965047930423 0.5525934289728912 2.48861763490325
Ge 2.9430652767473733 4.803123544577505 3.060402736747208
Ge 5.391707530803251 2.1399549738700583 0.6587197101262954
Ge 3.799689130248436 8.350806070242717 0.9823432994401012
Ge 5.2520447569752395 4.546635204360699 1.5292414040388647
Ge 8.583822040646721 8.136534208634465 2.955621111866238
Ge 4.931750614435346 1.4330744969846254 3.046138572136212
Ge 8.16740650344579 5.173754189833481 3.2750433163798225
Ge 1.8383774924715672 7.104999488734121 2.4336703255964913
Ge 6.352883520560964 9.681155231437229 3.6906275327725275
Ge 7.484910559287904 2.494396511797531 4.149095804191592
Ge 0.9889115909758965 1.8070817493212428 4.573172366284736
Ge 3.5611183592788547 2.679835459753877 4.839955478198879
Ge 7.720755860450733 8.405124234084376 5.481498311859939
Ge 4.071952065004387 7.720318255205264 3.672780639127045
Ge 5.816898745759964 3.371654139276771 5.988111456834349
Ge 1.5339351168258206 9.735896324537045 4.8191071071237594
Ge 5.6496283393582365 5.467435834833547 4.041163587058881
Ge 9.731794961492017 6.664870980603889 4.925201056392754
Ge 4.211233310535597 9.681155231437229 4.318295286726974
Ge 6.901962026739045 10.311353346374405 4.40751230550354
Ge 0.345322703747128 6.2166611811757875 5.720274308248608
Ge 4.245123270085524 8.905884473519457 5.945273168157611
Ge 2.4748252433405247 4.717054632562508 6.283728986425599
Ge 0.005560296218314222 3.7029924491688595 6.558827382399443
Ge 7.502670720672246 1.3555942924151039 6.639731386997221
Ge 2.6190812172563507 0.8648177756720629 6.728978916501134
Ge 5.107851896480661 0.5062823219943224 6.470750895815088
Ge 8.501496664496488 4.440904904614259 5.94717247518876
Ge 8.465523130823993 6.779876756511014 7.354298513131366
Ge 2.3633773505224633 7.235152321261453 7.073439747473862
Ge 5.747615352530803 6.872369891478893 6.284431898695771
Ge 6.34236958949847 4.9875423637749545 7.8923794717045
Ge 0.6534739459560448 5.6368079796741855 8.429638927618626
Ge 1.9184937758198992 3.1768901826213445 8.41217506223871
Ge 3.4174669552566206 5.420884451518297 8.689338320890307
