45
Energy = -181.26198196 eV
Ge 5.039839740402041 8.843540062283195 9.684257290104538
Ge 0.8751439438210183 5.97735816675393 3.6258370240708464
Ge 3.8082149745698226 9.604117338572562 7.476110111678892
Ge 1.1581306295054417 4.0312136218471855 5.3584272081883535
Ge 2.8958183535292843 9.14041686769573 4.553329738642375
Ge 1.563823050992326 7.851289699933805 6.895862190273348
Ge 0.38423896887613873 5.106422401278185 7.597375532582789
Ge 2.5311153241880215 8.198287392507353 9.376496478757105
Ge 6.141297040287901 7.990074119047539 7.389942183394932
Ge 2.7727569763256144 7.463781640243069 2.37650967671032
Ge 0.6942478754063229 3.253550807687952 2.8763518088385953
Ge 0.946853183663477 2.2334344429543096 7.28249067963602
Ge 4.270890045740546 6.279275836193925 10.256931617797752
Ge 7.54543457752679 9.603959264914423 5.873463923667337
Ge 1.7942521418046682 5.129554861183051 1.2065793444084725
Ge 3.2753784920369458 3.2761806581402872 2.8312116981023285
Ge 5.113714756605206 6.448390038542814 1.866604153396145
Ge 2.101429005348795 3.741040502715993 9.157884221649802
Ge 5.509641262445237 9.47135104669081 4.351065619264872
Ge 4.10304302453001 7.242303574014658 5.887127349662046
Ge 3.6616949760228787 5.5374915883346105 4.039780137220159
Ge 3.109864785524093 5.865137337498774 7.946086718278155
Ge 6.249736321198046 5.486995607904902 8.68848820355486
Ge 6.861733211185386 8.211988537706791 2.609022564550503
Ge 3.3984659539609257 3.567904708472102 6.574079195684526
Ge 6.159806452393957 4.385284153784822 3.0747113581119048
Ge 6.105954329550156 4.355142934604777 6.340712140522407
Ge 4.444523151363643 4.233704521772 0.6128601451571027
Ge 6.8671986838613845 6.982604052526489 4.953143259508486
Ge 3.4019003446687632 1.5488616839367937 8.338079044782813
Ge 5.787747739937651 2.871610808457811 8.807643212592659
Ge 5.475857677877897 1.903517333975556 3.40712057789604
Ge 8.202247189881458 5.214295597111561 1.5119918578224443
Ge 10.327357702649891 5.790244394208234 2.999577644585428
Ge 9.154840322137112 8.169927398918757 4.185284397965636
Ge 8.383294400343432 4.336896571632589 4.468314844826375
Ge 8.590981702791172 4.649020909796946 7.75951648948617
Ge 5.320467246231501 1.687945292215307 6.154582716020158
Ge 7.034010581591647 2.898825833868292 0.9510112094805193
Ge 7.707378897751758 2.245772766783643 7.094206537329345
Ge 9.911093882605885 5.966136494350895 5.797866009327707
Ge 7.716808897226983 0.9015488581788117 2.551721979631285
Ge 9.718184088128123 3.0187147876277893 2.184596967610161
Ge 11.106342907249816 3.8136410547061503 4.6418428067615904
Ge 9.108947929709275 1.8589475796663317 4.676159434453249
