42
Energy = -166.71308538 eV
Ge 10.495497170575627 14.390886359573622 10.764745905450404
Ge 12.25471151441607 5.219382387515818 9.819697064458948
Ge 7.514028191720256 8.145522003025707 7.760910308784864
Ge 6.956084928627504 8.927050565195092 11.39452685678483
Ge 7.3076931734787 6.892185269837294 3.708229177080151
Ge 13.232026832058459 10.063445038013683 8.832499085650607
Ge 13.452347697536242 4.55460330313905 5.5265884830961
Ge 9.032987655744554 10.083134179619803 12.793595361472557
Ge 6.807187345782447 9.353119267254055 13.84185760290423
Ge 3.9124010063298473 9.032429666530723 11.174514466537058
Ge 7.694306959568445 9.197875311895848 4.824323008600551
Ge 1.3150547695235677 9.247871527221713 10.937185526978553
Ge 11.508772564764712 8.545673578084765 4.314087271347926
Ge 14.363813393012771 9.883803879167687 11.157316607267658
Ge 10.031138471942223 4.381118364104139 8.484862927311667
Ge 12.60471460180037 10.486247186277419 11.502562530574291
Ge 4.041795366830021 7.6903490549027 7.590184323280525
Ge 5.007346713983753 11.533398282865463 10.270818187602748
Ge 10.061914435476375 11.943968368680128 11.35829813018685
Ge 12.798373012130497 7.526275881451983 8.668119987667435
Ge 2.9801543572657465 9.945305603722739 6.880743546322925
Ge 5.388125395728344 9.768738720740426 5.903487359986606
Ge 4.878287703944882 10.77644921956517 12.745868296798008
Ge 13.261015625933647 9.52754209476568 6.207062952134093
Ge 10.964731577431612 8.566695460614547 12.189027455423652
Ge 12.206298494679988 13.05179861997495 12.345674692930732
Ge 0.42934051515694344 11.539361432955817 9.962606989390562
Ge 2.7769008207150425 10.844243321461823 9.307806230618949
Ge 5.640861553703382 9.752741872676978 8.506279930694518
Ge 10.82588146366317 4.783328726111856 6.01780975837087
Ge 9.706492228761217 6.807886088386007 4.688779562572072
Ge 6.015882284313928 7.171298651680969 5.903781327651723
Ge 10.60701781262328 10.180613757151596 9.661666131875387
Ge 5.440300934019082 7.33599737293527 9.814391568845254
Ge 11.176415775153552 10.89890685989003 7.125114055475108
Ge 12.606016085056272 3.5066327323838955 7.8498005286254715
Ge 9.204221621983459 8.137437505261236 10.327060298649602
Ge 9.761611992626412 8.891962306873214 6.426573071180868
Ge 12.652278056326589 6.877564019359379 6.133544973935668
Ge 10.435571079514537 6.824182576703884 7.955949924055393
Ge 14.36381339301277 5.525187156295829 7.968587811830443
Ge 12.445650359387665 15.402830640007545 11.849234423419674
