45
Energy = -180.97828065 eV
Ge 3.977945276504304 4.907811328998683 0.9450224440826367
Ge 2.587467349546955 4.263926132026164 4.495866278704134
Ge 5.672869376971918 4.893904710749684 9.353456558302343
Ge 1.6435304191587343 3.619421561747508 1.994853586460982
Ge 9.220689810913317 6.140992339990904 2.1301451972492034
Ge 9.149901676526369 7.23127159162092 4.492143692676181
Ge 2.623595407559288 9.836494251221168 3.283695460052379
Ge 4.0758769041218335 5.276052142994817 7.07756464567829
Ge 5.722189413164698 0.35940332917800677 4.191694060981325
Ge 8.18675319586785 3.655323109558394 1.9514337242089446
Ge 3.1188083979853314 7.007755752796555 3.8353929088499243
Ge 1.4301031499160415 7.984067650461567 1.7998115830382924
Ge 0.5908811366281554 8.157705748839328 4.290535849233338
Ge 5.711159604819066 4.0554221679184845 2.8638026374213266
Ge 6.728235844752079 5.806925123450573 0.7908782957968653
Ge 7.2773497161928455 0.00973574860421984 6.404611439572373
Ge 7.8986508863849005 5.2683343402078835 6.283100732892883
Ge 5.121335146933677 9.180908442820247 3.700174978142004
Ge 5.043652295701151 7.426915024953527 8.678569891636148
Ge 6.7109770394097215 1.8058243145876307 8.2531470842511
Ge 6.6905892613012705 1.3737726758924798 1.7732855031740413
Ge 8.868472672204403 2.2974653292578 6.570143340543223
Ge 4.168044102595072 2.0985628128496625 1.643089879870473
Ge 1.509763263101184 2.4002571216115007 6.225174215213637
Ge 1.744462973608665 4.009342127293546 8.487108414600783
Ge 9.74442318454559 2.9872518987154852 4.132341393830108
Ge 8.259269835131784 4.036066001374007 8.725027768053852
Ge 0.3985730959464975 4.910216795145649 5.9576044194500435
Ge 4.077447306621226 7.854883923340387 1.5243327674425466
Ge 0.36479848256629727 5.570943275492225 3.223651515851147
Ge 2.720751966369514 8.757695476539487 5.813738835882041
Ge 6.864228509933413 7.242308819892428 3.0412538028546714
Ge 5.379244646676119 8.932070268405004 6.428241494585145
Ge 7.7256326511165145 6.651189750355075 8.754181556080633
Ge 1.9205487270628028 6.716779233272859 7.402965607336548
Ge 3.026674694982491 6.075160845790851 9.703706612060696
Ge 9.57988166478154 4.5188836144085505 4.283319517746072
Ge 5.860561286427883 6.4741589569635405 5.311301031490529
Ge 8.248803413540246 1.4548664152391617 4.136913652720187
Ge 4.631077976714514 0.8700605115142908 6.589720618471913
Ge 2.3397674903011407 1.6718309669341895 3.7637423783172963
Ge 6.291694991884027 2.723878346975954 5.602392981377456
Ge 5.827016498841297 3.3516997335155545 9.79426968396993
Ge 4.097639759711298 2.953866501511751 8.441731756602731
Ge 7.8996479093785155 8.082823696767582 6.585848617644566
