55
Energy = -223.19482465 eV
Ge 5.096931444595061 6.207469036297119 0.23742272887395707
Ge 8.526010578855248 8.050696057242687 2.1072838864453427
Ge 4.478762275179615 8.176229583591407 1.7584188780343761
Ge 7.129904344134068 5.945604299683946 1.7562089155172813
Ge 2.140457801588058 7.832308565785155 2.6590975717538
Ge 6.43025811122501 8.819614256112688 3.202505775125813
Ge 3.3637564193155898 5.5702630091885945 2.061199429810389
Ge 7.945574770145901 3.6558115794688524 2.4491945555776744
Ge 9.467648042305385 7.797648411057554 4.439732463613744
Ge 5.861098694513852 2.588558908065701 3.6078499441741947
Ge 12.129401291434169 4.692326566608884 4.283862396458542
Ge 9.975101129071824 9.89663991194118 5.82933954089921
Ge 6.246436232333494 11.094777969905612 4.399486166056267
Ge 11.930423992720096 7.185140558337224 4.38385007596554
Ge 4.145183190383963 7.203703349651155 4.503204767971078
Ge 9.715986462586276 3.821555144675978 4.408577439697451
Ge 4.085675309067078 4.539756017214547 4.26563534008922
Ge 1.9970018167687502 9.027728682884492 5.055558055842498
Ge 5.831057900537061 8.817746444122957 5.873284103157483
Ge 6.629495483380945 5.107772981538804 4.325920413076496
Ge 2.6970781770722296 3.2800955793644193 5.990388845704813
Ge 8.638290564905345 5.758966349163799 5.937322979856041
Ge 4.665245749960912 10.557860957666552 7.914376340433321
Ge 3.992368297854483 10.654930529800193 5.496631878154587
Ge 9.597786750995969 1.526252200627877 5.506790308197406
Ge 13.722031700156535 8.060088120585535 6.083988248394225
Ge 7.208300159353905 2.290507842718041 5.722433237217
Ge 13.940281061933176 7.384931190974108 7.461008504884489
Ge 7.730816900760601 11.20380894276523 6.631018550949609
Ge 8.099080694067892 8.463255058635518 6.9137695565440485
Ge 2.3246434276545553 7.5448632407208915 7.127881251772296
Ge 12.698730769890263 5.77818031746388 6.58713218100329
Ge 4.278922598942793 3.791221356075665 7.971321603048653
Ge 1.308847814300812 5.227240420771744 6.890057808278575
Ge 10.31379472312323 6.13966430520189 7.883779281010119
Ge 6.264850936675419 2.2144319410027125 8.057338505169591
Ge 6.642128226802965 4.999611677106803 7.602362551153032
Ge 11.545637364063385 8.473303460345862 7.358896890408393
Ge 10.085343520792517 3.16797010637808 7.380073516130189
Ge 13.722031700156537 4.735700430874738 8.408847446711015
Ge 7.095992121953415 10.584154014235374 9.145689648602179
Ge 13.723282543368631 6.688709205605715 10.133568268901954
Ge 3.9594417794532113 8.143819724524281 8.98305536902083
Ge 12.203002980529849 4.148643948409363 8.520516963245345
Ge 1.2936738365041516 8.393392873545768 9.485540536656757
Ge 3.450319423720585 4.114224538171117 10.404584169010906
Ge 4.634917695821321 10.297258010267543 10.330879201502984
Ge 8.240571928397147 3.4049619622508374 9.09943701199159
Ge 8.324074991872601 8.28149843322083 9.416114712769769
Ge 4.990423052039 5.96905390070133 9.819010037989267
Ge 10.878237901417746 8.176564753954 9.880272810451022
Ge 1.6401564110780307 5.652395063379173 9.498865475364136
Ge 7.487472360577596 5.986714193515347 10.037913104010627
Ge 10.84282660717953 5.560778089387639 10.30139603643574
Ge 8.779864349745386 4.329607121017644 11.426115914688557
