52
Energy = -209.73155036 eV
Ge 4.944673816615726 5.058761019609335 10.746975293939515
Ge 7.382221989108154 4.055244040505173 0.4989401224210162
Ge 3.785956308344788 7.3339167644689 0.5492807608955208
Ge 2.782268575176417 3.565028563252222 0.9573025937524432
Ge 6.829889472921018 7.071802009650932 0.5378068086817464
Ge 1.5997018238537448 5.927913950320755 1.5030036044098911
Ge 5.990414903128672 1.5943144848426176 1.1363930474394441
Ge 4.022881038445622 10.818841775840234 1.477161189131959
Ge 9.031554047649026 5.918675945871256 1.654090756869141
Ge 8.54620162381169 8.710588127163167 1.8755676965702897
Ge 1.5700325071273213 1.2592244922727063 1.1431951633463031
Ge 5.944807891408254 9.200752155038513 2.306306935731803
Ge 4.730127516224025 5.453681277961561 2.383167085372262
Ge 0.2395716485212588 3.4506045302601747 2.274005625273496
Ge 6.839354427528517 6.854286012708633 3.432748306129316
Ge 9.394406151540958 7.0417213315968565 4.08000013973527
Ge 3.479855604608722 7.870007735661554 3.117040770622756
Ge 4.248760966232826 2.585327084343117 2.8959761092388314
Ge 8.513375970191078 3.3751749221405576 2.845395124735802
Ge 0.8767365065996372 7.184203888074078 3.8316523988660434
Ge 0.9980008733836555 2.8492685214315125 4.9526717877493
Ge 6.709896418669864 10.292101825443359 2.584472289430433
Ge 4.388421446797203 9.320683196890986 3.628240041339322
Ge 8.003907865748989 9.320683196890986 4.52316187911943
Ge 6.646283768959174 1.8327985349086013 3.7708391948088913
Ge 0.35220837392829324 0.8436220219417606 3.444654168594651
Ge 6.371467176602759 10.561638722124794 5.248202950714713
Ge 10.174049340632978 4.417159425384629 4.56610968724269
Ge 7.475288141397579 4.670613450231417 5.014524084874796
Ge 10.530924588514004 5.050768037475525 4.874860280928201
Ge 2.8980915012488153 0.6817452336806482 3.8321377156534626
Ge 2.2476867203264805 4.879383048034951 3.8871019911795894
Ge 4.175870326825095 6.166100535005629 5.393859582238623
Ge 9.184441178153653 3.6304753806833996 6.861757195233065
Ge 4.907694285764739 3.5667298206371782 5.564618179364218
Ge 3.7841780452780878 10.49441690399046 6.06464572981232
Ge 5.3597117555484575 8.787394804274385 5.0231262713950855
Ge 7.334486253000235 8.268624704169484 6.988940601906095
Ge 2.2381319476677506 7.794213608370999 6.422370958816529
Ge 2.9667791684769353 2.025529258293691 6.587066926789207
Ge 10.76346761152001 6.888271851035684 7.638665853114445
Ge 7.755875911127766 5.771776328890493 7.416037613004132
Ge 10.525462568935856 4.180551703162022 7.557681231237984
Ge 7.101556403646801 2.0872071411699724 6.461244558205483
Ge 2.088865475711115 5.28996578743686 7.444354161446092
Ge 5.3664769408274555 5.08777353631668 8.058663635555005
Ge 4.814303895085598 7.617737211272841 7.652623384993323
Ge 5.136695874313844 2.5165911710176627 8.103105510042473
Ge 2.0864034236631146 7.469211904853539 9.211801750794335
Ge 1.6856488737042297 3.055771752969288 8.839074992858581
Ge 0.38245705476115205 5.473499689328767 9.831223366177229
Ge 3.238666710546422 5.103832954194591 9.872326938733817
