10
Energy = -77.85041845 eV
Hf 5.04610403023935 8.155903139778685 5.7673746179865715
Hf 3.774405267445623 5.672891191412948 6.241503594347356
Hf 4.086534232633144 6.618073027359725 3.5712506624651366
Hf 5.614284119488042 4.404555620747934 4.5064869127543625
Hf 7.7240093854521605 7.633824134420142 6.682528058008721
Hf 5.526256892407111 6.771041033844768 8.24226458454571
Hf 5.924494889221073 4.1147190481470695 7.352603503298101
Hf 6.885543847594576 6.887437143168968 4.032060953984681
Hf 8.122411604720826 4.9776470237780375 5.792755802002982
Hf 8.068302020956628 5.5362549275005035 8.583517422281714
