10
Energy = -77.19587237 eV
Hf 8.697894956378844 7.975425119709159 6.304668945305202
Hf 8.639119332703093 10.146255415662909 8.114069898397416
Hf 8.145696023359738 5.377621045973494 4.64951132981579
Hf 7.99355365742212 5.40424821397798 7.333209119198561
Hf 7.395492038364634 7.7270943392127815 8.885770065337315
Hf 6.302900011973703 9.453491912912964 6.874757304371567
Hf 6.208602007924321 7.181149430723436 5.065574792363636
Hf 5.945536377492067 4.957119202189621 9.020025225329604
Hf 5.6982133612762516 4.521873863224622 6.090179938256621
Hf 4.977087551155328 6.946015601565192 7.505293761670179
