16
Energy = -132.46404722 eV
Hf 6.313877965251104 8.4956825276289 10.540105653362337
Hf 9.067187363530264 8.860117011811107 10.345200423878401
Hf 5.072365976808771 9.402750889244734 8.112189687940282
Hf 6.98049146701039 10.353848193246904 6.395987735006191
Hf 8.049379701703943 5.940057327962787 5.218750953604978
Hf 7.833682637907473 5.993610978631422 9.998772220680143
Hf 8.468543298137895 8.636394306098508 4.97757940940434
Hf 5.654710187549265 7.588691733710681 5.825276873080732
Hf 7.78185357341049 7.771393768832114 7.796499406864063
Hf 6.553405113043103 5.026766458097562 7.308562011099223
Hf 10.46271364955756 7.203112797307268 6.187125012371928
Hf 5.064540222213595 6.755846035833013 8.75675215223927
Hf 9.310806032513522 4.98914818866212 7.6231618809240675
Hf 7.48825902467965 10.66661048732432 9.064490937418743
Hf 9.853859368357712 9.7945210193518 7.501669211684517
Hf 10.537891401962725 7.11012464420232 8.913624926053139
