13
Energy = -103.59425682 eV
Hf 9.093845489385027 7.1372405709394995 6.858827519726973
Hf 8.597034739109864 4.536424026975727 6.062016943734476
Hf 9.11267577798877 5.58343762657538 9.060939489181509
Hf 8.762556973114497 8.59679984996683 9.100019446708979
Hf 7.001324816283242 6.917661894896966 5.020352260765382
Hf 8.010913642593193 9.574157977108788 6.126665797496759
Hf 6.183138900439627 8.681987961356754 7.849156364871769
Hf 6.618080565480584 4.940863152440439 7.801268058525191
Hf 5.117456733274072 9.00154011719732 5.296435181693599
Hf 4.394160965540683 6.62606828234727 4.0458558283184205
Hf 6.671633408054727 6.81781080469806 9.795768428283203
Hf 4.469630327871151 6.59959317204383 6.837356693694095
Hf 5.647407532682773 4.450171529452559 5.238228626934101
