19
Energy = -156.58686318 eV
Hf 3.8793917755628367 3.520124391953799 5.120301737318761
Hf 6.484425347580243 3.806753387157341 5.287746921701976
Hf 5.1704289879729535 3.9111444075829147 7.892749521458899
Hf 5.1213155498509915 6.135144607294538 4.079900338320206
Hf 3.403521638583455 5.775058244195991 6.358429253846974
Hf 8.275388049594731 4.4817192727380535 7.474058776594787
Hf 8.097178349925246 5.714799271241668 4.473969376942187
Hf 6.649197036571369 5.626463568588577 9.679147640817687
Hf 6.401666841548979 6.5031423170207585 6.8014238794064825
Hf 4.200909860007991 6.564262903447906 8.779482893328172
Hf 9.035145998826465 7.581865644803815 6.459747545825255
Hf 8.980414182458464 7.0042707069415195 9.259299022967427
Hf 4.458394937605061 8.382782865245222 6.1491536828148785
Hf 11.220619120765162 8.53988212855897 7.765993156014103
Hf 7.013217880818999 8.383211742367248 4.46174776761294
Hf 6.337801424236026 8.468756711418715 9.122245102036706
Hf 9.746172426738765 10.205220154848012 5.922892408561679
Hf 8.940933480212756 9.78951504261389 8.55814508172332
Hf 6.948427655247697 9.902212091432908 6.669042221875639
