10
Energy = -76.97151833 eV
Hf 7.179767067123885 6.451065116604975 8.873340442909347
Hf 8.551844886966908 8.873282287857883 9.485312325693991
Hf 6.91949902857947 7.8114581031930514 11.356143183496979
Hf 7.4496240822119475 5.246469992555711 6.12433911861887
Hf 9.2089628236727 7.307815000548549 6.998935749372544
Hf 9.595022951895539 5.835086177461995 4.5933625299132
Hf 5.592326753810677 7.369220355288024 6.704592969091561
Hf 5.743571803322383 8.889515620692947 9.103488279818462
Hf 7.423630066343395 9.508302043650554 6.917956890663345
Hf 7.562663260311461 7.700872680509689 4.71295053994534
