24
Energy = -201.85658235 eV
Hf 12.284306930329583 9.173190052352124 8.51612860921635
Hf 11.311966698581303 7.55652594437946 10.676875668142877
Hf 10.645059859147038 10.303837954195128 11.164962135600957
Hf 11.593821936734754 11.812772724581537 9.035120381641889
Hf 10.541522473877617 6.6554987640526395 8.10381915382715
Hf 11.145517435364663 8.44033523277178 5.987838819376566
Hf 9.15263006254141 6.3085856157006726 5.65880503671721
Hf 10.481405771906383 11.168919912234896 6.573170414736689
Hf 9.453220918910159 9.540189244305825 8.683268457880915
Hf 8.128903481255065 4.735648162830164 7.826791874533328
Hf 8.580394542870582 7.996571594275619 11.273061179244081
Hf 9.319218491688815 5.42638824639652 10.344223266406473
Hf 7.524073819647028 7.4770003062004955 8.363653565488363
Hf 6.486980256064353 5.856576069052275 10.476715675559102
Hf 8.385833688530523 9.031030678062523 5.775574064748745
Hf 8.858725852739425 12.282886426409362 9.216158997552299
Hf 7.816870807586367 10.719851226652418 11.386215275001524
Hf 7.649788301738394 11.60003509797175 6.70401498975091
Hf 5.821237006298607 8.585809314506912 11.055397690699943
Hf 5.654982119651199 9.464752377205922 6.373670423986945
Hf 6.322537985459704 6.716263158895059 5.886856125229099
Hf 6.436637742204536 10.3628378512784 8.940839420515093
Hf 5.394716860822465 5.189547282687998 8.013346346379725
Hf 4.693258387644976 7.8300801435942775 8.527106328545058
