29
Energy = -247.97265079 eV
Hf 7.54294711738335 3.859068357132149 9.433504213465824
Hf 8.507539789120653 5.745087706271666 11.37389264881473
Hf 5.705817941928992 5.551702112750299 11.221866229818849
Hf 10.027138407032174 5.628881496174184 8.9627974969992
Hf 4.333712467617721 5.15017277996818 8.783666870830611
Hf 5.911009610777926 4.0055460030054535 6.99149921251839
Hf 8.70465833377823 4.386686654903453 6.73586590357528
Hf 6.921004864657919 8.109357731191114 11.509822557367082
Hf 7.213431616813229 6.603778683196964 8.883655465956007
Hf 9.188115139025905 4.5186760065986515 3.848134719347478
Hf 4.610219698402286 8.030760680217915 9.870528749844754
Hf 9.41799118437064 8.19409347845688 10.221354409671884
Hf 6.1603798766151785 4.523601197658978 4.324393994512462
Hf 3.5286576406634436 5.330498608431575 5.70879976979412
Hf 7.969577448855274 6.850985319079491 5.107337857204115
Hf 7.341337985844981 6.080876430149192 2.3438538972754226
Hf 2.714946848382766 7.266270125958706 7.873232982582667
Hf 10.748338042893602 6.28582073067711 5.618482296978372
Hf 2.9575528284302455 8.187279790444705 5.341696780843553
Hf 4.931783838900645 7.121217876315506 3.5292073532109853
Hf 5.394322975369827 7.263954378232788 6.58737566025477
Hf 9.441587730549095 8.179974040694376 7.474279699242768
Hf 9.862833605215606 7.120375749272085 2.900585876748314
Hf 6.991747137640178 9.587366480945763 9.09088685201484
Hf 9.930342510904802 9.054650159838785 4.876167443938656
Hf 4.339174388769834 9.78623265635619 7.469327446292984
Hf 7.474689029854614 8.947320027513362 3.2165957611684957
Hf 5.04666014995135 9.785080468657107 4.672695184290866
Hf 7.370791991668393 9.834566015498481 6.136045650110583
