23
Energy = -194.15255847 eV
Hf 3.622608829686023 7.106515809889079 6.663599577681749
Hf 3.131716167439855 5.921226387550231 9.365424711077408
Hf 4.345049468559181 8.479171300690474 9.285534963667848
Hf 4.027426909426247 4.163456785078686 7.332498876351474
Hf 5.8595116960055424 9.217591133723799 7.127798480578035
Hf 5.242658699753488 8.049522800288386 4.308765857721061
Hf 5.558329547793814 5.109106194261868 5.270709754087967
Hf 5.314183417477743 6.545384652384072 11.115322132941717
Hf 5.908447083349071 6.2805020408557715 8.119297597675601
Hf 7.349793372727298 8.174583704263464 9.65610843021612
Hf 5.122094980540562 3.940231075950921 9.935836817936053
Hf 7.707423351217533 7.330884650807248 5.505738607922222
Hf 6.972042887794889 5.878210366714117 3.0574954447087315
Hf 7.2866653120437075 10.196334654761491 5.0074675860561015
Hf 7.71020277877357 8.591027307751967 2.7114473815396365
Hf 7.6435630932938015 5.196884251452084 10.232333604296246
Hf 8.96692259556033 9.119106727999123 7.305453505875577
Hf 9.698879193589017 6.609725855383181 3.2880460861129954
Hf 7.023846151169595 3.7207667854625766 7.642263784685242
Hf 8.64186636602802 4.664605882820631 5.29300835887879
Hf 9.000122807788353 6.093459013217182 8.034580719135613
Hf 9.888624357868288 9.216420954915865 4.464849352527991
Hf 10.583426608655891 6.91466674332293 5.961780347513131
