20
Energy = -166.77288146 eV
Hf 8.601432994167507 8.49263199168444 4.191457157208695
Hf 5.883553179013634 7.840792337810195 4.687848404626296
Hf 7.9515232953975135 6.0224507643828 5.668417341787373
Hf 6.513575033878982 10.601631993706944 4.768159386377301
Hf 6.776480706496097 11.356697922924605 7.70716757144811
Hf 7.580607360309574 8.901031847335547 6.725485374842999
Hf 4.7790034704268605 9.576635070227223 6.723128892094703
Hf 10.446496039058204 7.299654768146221 6.2279608740148715
Hf 5.419534320829656 6.736103320299634 7.441127189896545
Hf 11.384738159334184 6.934159046147273 8.909581484523361
Hf 9.888652794522326 4.9814434140632615 7.659375084374068
Hf 8.271326904532138 10.321594363201473 9.980935582649506
Hf 10.369020609794665 9.603678130173565 8.078916281576797
Hf 8.491970581995409 7.434185051622965 8.770205093655662
Hf 9.071318552893423 5.563772702227051 10.567383198949102
Hf 5.731315350912506 9.116893466161862 9.402957014789811
Hf 6.114065718426527 6.291079135439869 10.20434143267328
Hf 7.248082715462981 4.6929829281664555 8.297379269319029
Hf 10.270350466090493 8.523655338565693 10.8274148118242
Hf 7.617635873593593 8.119610534847915 11.571442680503457
