29
Energy = -244.88656943 eV
Hf 12.750349556450507 7.334770282690015 9.819159304954733
Hf 10.35910007099918 6.1108853026757215 10.233185351426503
Hf 10.966213179447214 8.211276354473574 7.859315203526587
Hf 11.596086068225771 5.35807894027927 7.749765726717784
Hf 10.566416569829663 8.981424674733962 10.634325981022776
Hf 9.523837127650095 3.587747117004867 8.738931308765517
Hf 9.088719837303177 10.311036321638543 8.403732405994596
Hf 10.157368451301105 10.092230047263161 5.506473311769448
Hf 9.838407853202959 3.968401599593288 5.898069870087323
Hf 8.00848569477698 7.857363486128693 9.877122370906571
Hf 8.688318116016337 5.965783494328204 7.584940418754606
Hf 7.312043277583988 3.437557309290744 6.887286342202079
Hf 10.265151842855696 6.952636549599053 5.32395994413745
Hf 7.447603203079516 10.432626428982969 11.060934954249575
Hf 7.729300487340735 9.417779853454107 3.7829716637502053
Hf 6.400188675844586 5.197555273976981 9.20814524382595
Hf 4.646031742476998 11.152034858508237 10.808361479380578
Hf 6.194925609438465 10.703035588372197 8.51276982519788
Hf 7.725386546535701 11.373909329889555 5.955123704831697
Hf 5.296085622452612 8.487100312744989 10.578184861255012
Hf 5.857385183523801 7.765069125680971 7.703828668335584
Hf 7.989836645577395 8.530800300245936 6.28553629946437
Hf 7.698146261603848 5.649313020364035 4.822952488997662
Hf 5.112405542689495 5.266667850270559 6.418459519663016
Hf 3.563362493783121 9.38666953586528 8.584503672125278
Hf 5.266160199401861 9.995181670044074 5.520849683623852
Hf 3.7064702053110072 6.453233005334586 8.78452649629987
Hf 5.53412037112186 7.475251487727413 4.434112262997292
Hf 3.410704661503163 7.646095445730866 6.213754990085833
