28
Energy = -237.64960526 eV
Hf 5.223766563199006 8.065628508685066 3.3493738120968515
Hf 4.251095655208965 9.247725831019872 6.009446155278052
Hf 6.532982174390852 11.034868172217674 6.5407824408940005
Hf 6.332491510329535 5.267050591351823 3.527428668995532
Hf 4.696316115541992 10.50712719864978 8.691924496671719
Hf 8.032436523537019 10.13318156070536 3.951797233286406
Hf 8.00243034445945 7.543412866994864 2.7245639140368487
Hf 9.092424627848088 10.01110928735139 6.677206711424175
Hf 7.070873005194804 8.089520743835156 5.3896376065313465
Hf 3.5972266282710645 7.710973090122746 8.530679738358801
Hf 7.633926641354772 10.343690993647643 9.251922920146084
Hf 4.449062237944027 6.364446928320632 5.761930952593445
Hf 5.448109356916154 8.733589458952398 10.62551753401177
Hf 6.378289550824168 8.41376307105564 7.941035762972638
Hf 9.353966446772624 5.350534793356173 3.642686895851298
Hf 7.862531567460187 5.460156421798858 6.091499114950321
Hf 6.309404655949982 5.709630877942446 8.244771826623777
Hf 5.403438240806626 3.6487083559334734 5.7434895970126725
Hf 9.415780117881567 7.468694746747462 7.972923125331227
Hf 8.147051445694041 3.0809758548368795 4.894368943913777
Hf 4.3547103955803435 3.9381862054478707 8.516041764558917
Hf 4.842495068012504 6.041019962487856 10.672860453506804
Hf 10.026901556688081 7.896843484993869 4.94086089880786
Hf 7.722446207787411 6.818803157329805 10.576271980617186
Hf 10.600710662161214 5.24355336747523 6.250608897335757
Hf 9.08457072880218 4.738600096200277 8.861211410668322
Hf 7.063444655309017 2.8676312676494056 7.811522165220267
Hf 6.649460360707537 4.008098932590245 10.429460110059829
