25
Energy = -208.2976489 eV
Hf 5.587081453672305 5.9177170089890225 3.623764071304084
Hf 7.773369817840302 8.603133263755781 4.11103390102161
Hf 5.846457421843424 3.6478675426582767 5.462164653565968
Hf 5.140727496791194 8.32164863802222 5.109514097532872
Hf 4.218373381694127 5.766772625689663 6.174887184931898
Hf 6.618336346262427 10.915103642791886 5.5107368745425545
Hf 7.103058078188097 6.2114014124709565 5.911296679270906
Hf 9.42203882218898 10.663118681870266 5.360278326447215
Hf 10.440025560778249 8.079920457600291 5.488281497959272
Hf 8.520798102757649 3.6741319557096412 6.611018835489413
Hf 10.635843445827206 9.826611724644804 7.915654466971577
Hf 7.904823635238528 8.890862067403077 7.117871065339606
Hf 9.409928144691033 6.236221248616321 7.590009431873093
Hf 12.007859579722835 7.2821208426778945 7.811790919711023
Hf 5.819606463382918 10.71113944078783 8.435393840396078
Hf 5.076538366375249 7.86865265389859 7.942134707020788
Hf 6.252689075425534 4.471119848808724 8.24749717008646
Hf 8.29844717953032 11.7144684850589 7.73075523874477
Hf 8.872280181181507 4.326366271093023 9.577866969573206
Hf 10.120040713624576 7.618356182514033 9.895104553477411
Hf 8.191756106417683 9.9505212303089 9.956643783604603
Hf 7.331034032716373 6.862348185362396 9.71553379081197
Hf 4.493107541627511 6.073717516991498 9.979556997824483
Hf 5.442375613524011 8.848133081262793 10.617855621415988
Hf 6.514686087185066 4.559828639501238 11.144637969570674
