21
Energy = -174.89236756 eV
Hf 6.420501052371532 7.297802179204941 4.007787550025197
Hf 4.144896834943041 7.79549790294955 8.770586776544652
Hf 5.608053789010043 5.233298339083404 8.539913827182852
Hf 6.955976696914576 4.936114870771661 5.7092917951092925
Hf 8.150440819473948 3.710182721614219 8.157867122409991
Hf 9.92209531885655 4.97117356204462 6.219682335278303
Hf 10.39132216886618 5.293399632091087 9.059690939476628
Hf 7.881876033416598 5.419790553076742 10.500928223186419
Hf 8.087649378511378 6.417057366433157 7.843852185291397
Hf 8.955673072720558 7.414474573353362 4.939869277593697
Hf 6.478241974339464 7.955968971590487 10.130247497909505
Hf 5.4422241057436755 7.55636059323199 6.463715604782051
Hf 5.576799319263388 10.26829931598623 7.9985515257475
Hf 6.925313967262325 9.973866379046001 5.167749668065262
Hf 8.072066586946898 8.994948569475639 7.567195683944225
Hf 9.890379461065812 10.085431325235863 5.67075719614773
Hf 7.849489951033897 10.530798009369136 9.95195426852399
Hf 8.100399585041377 11.706946243510268 7.298946422694904
Hf 10.35928818102976 10.379701326258699 8.513951137810414
Hf 9.547073180107262 7.97040643249145 10.082834701954983
Hf 10.859528825881585 7.682648002066897 7.326703727154401
