20
Energy = -168.07890885 eV
Hf 7.365747002821476 7.501038303434544 10.886544564419307
Hf 7.25563668777632 11.4626528709516 6.721862585830626
Hf 5.1575415884723705 6.036482022658188 6.899438414730753
Hf 6.501081481853464 10.171296468869377 9.440978977464056
Hf 7.514147892967445 6.824295791476801 8.222641087390368
Hf 8.288674414050575 9.425411388434313 5.016354205678459
Hf 4.907399997214342 7.792796230127271 9.129641197068347
Hf 9.198139771471345 9.714431181705377 10.759439762209976
Hf 8.62915205192178 9.315647021388898 7.915958772809292
Hf 7.860157726596119 6.621832243202716 5.504468135392699
Hf 8.638867799279025 4.844925047426971 9.884735759410292
Hf 9.063422068393116 11.88793325985149 8.948605114235594
Hf 11.238612886912094 9.933710689241595 8.776964291071709
Hf 5.809707740793968 8.89668204882977 6.539277531498997
Hf 5.7657736943072155 5.137316169918656 9.620031419502972
Hf 10.332044359691661 7.244951052949438 9.59886589395837
Hf 7.317499228404056 4.161545346669242 7.361553827986188
Hf 10.139732494351737 11.096728342729174 6.361519771422582
Hf 9.890278170650424 5.352007335772635 7.371817157849383
Hf 10.545641023055131 7.997575265346034 6.45855961105391
