29
Energy = -243.75680741 eV
Hf 5.002605178995954 10.013961328628364 9.800955359963506
Hf 7.9771025489823275 4.941694895073625 9.854265966803752
Hf 3.4949205381727015 7.732499764338023 8.878080018540782
Hf 6.155534582379941 7.483253377457437 10.420189220746487
Hf 5.371249793689722 5.392993811918545 8.534904500419774
Hf 7.374120724518025 3.030166292135839 8.004772012485045
Hf 4.564881871665623 3.1980016219179985 6.950169312832795
Hf 3.708896264519086 10.15574342709771 7.318567872725863
Hf 2.8616778456666814 5.3755228291094515 7.1519859536991275
Hf 6.0406654745616395 8.327728807562458 7.501104182085892
Hf 7.879811330312489 10.020020420282227 9.68472708348033
Hf 3.4583362813371634 7.956831475010191 5.784263730892999
Hf 8.93517142461097 7.457535425633448 9.09480248591728
Hf 5.179176240810344 5.587125303783413 5.451260599608329
Hf 7.818071322087639 5.726313500006844 6.770689512849246
Hf 6.974029389542564 3.1453933315483176 5.148064385878956
Hf 6.323794283845811 11.372103304863888 7.667275653150129
Hf 10.251892415572808 4.988081959588521 8.001469730844647
Hf 9.591424095358095 2.84743726965396 6.189915405319468
Hf 9.13540956770819 12.138597483446711 8.269517737399664
Hf 5.7316622084185145 10.00960590338001 5.1263051736254655
Hf 10.639192226494869 9.87048065672055 8.759871180472063
Hf 5.435928789208733 7.674348545527062 3.6443960431307834
Hf 8.65956208480484 9.812071426072489 6.762432934492288
Hf 8.148231227451017 7.88438565287452 4.545638465558783
Hf 10.399784826389096 7.5720739778372765 6.6348990902771625
Hf 7.421588757526791 5.39425956151968 3.4655921403877388
Hf 10.014787204296482 5.391289098328968 4.844688076571186
Hf 9.27189419368295 3.045337592202671 3.443355965639599
