26
Energy = -218.83619139 eV
Hf 4.851382779842324 5.928190779638022 10.793313237048382
Hf 2.4183604746888987 6.922372048782606 9.587901266408851
Hf 7.526789598310984 7.3872858083208985 10.732274292681463
Hf 7.362866327910613 4.555255838049812 11.038298091845443
Hf 4.825988878567237 8.308544184137936 9.232236902266386
Hf 9.621866200201437 5.6656769520767165 9.85189108741778
Hf 7.2531501482558225 9.590901274527472 8.815527780800018
Hf 6.837784350566657 5.566440825767507 8.564586853263348
Hf 4.153210705123607 5.645601250196783 7.824055946380734
Hf 3.2180972416199887 8.185714019666435 6.868591894287471
Hf 5.479467932151344 10.459045830916516 6.717613044620642
Hf 9.90407386137275 8.498575125822477 8.968241470267616
Hf 6.060890536136031 7.712325784664974 6.382020961873191
Hf 4.4239388994846625 8.919489750677077 4.329743891719806
Hf 11.395858342533632 6.214113897096728 7.8533156463206435
Hf 6.389310268168323 4.684066617426318 5.7142122960717545
Hf 9.32396873003465 4.145816013569082 6.961283621963027
Hf 3.976604437986522 6.17905298032532 4.9438771480595385
Hf 6.987808416887094 9.778881398715404 4.259801192424607
Hf 8.644964963607869 10.020546720144832 6.4917980606056895
Hf 8.644442652618801 5.162070371324209 4.205452574826808
Hf 11.039064352144822 5.876154676431893 5.164981427123574
Hf 6.457668133592033 6.890114141859763 3.570840020895187
Hf 8.816308968387371 6.907619143089706 6.711586386691158
Hf 9.25970791422962 8.03335183004276 4.038093880637824
Hf 11.156124925803606 8.554152796807436 6.270580186581041
