23
Energy = -191.42059897 eV
Hf 10.1175827702611 8.858661297776727 9.496393403151314
Hf 7.767756340967212 7.79243809098329 11.06548741972493
Hf 7.3773438758144785 9.440093645721724 8.773880490087903
Hf 11.222644943027197 6.919218668071531 7.478079592321098
Hf 9.36389899779946 8.931172563590254 6.7066018215623595
Hf 8.690117485139956 6.777721225004121 8.639711973393341
Hf 4.475851858013188 9.530857788382773 7.983025413895653
Hf 5.380001260463659 7.220900959916738 9.436341624979532
Hf 6.9317567476123205 4.745704977570495 9.681897513609774
Hf 6.335405151748745 8.62636833348352 5.923151149530173
Hf 9.08370902477251 4.193120513605079 7.444897949983782
Hf 3.6338184714322814 9.427636255050135 5.325262244476789
Hf 9.336615982745304 6.2039536548325245 5.323111510835633
Hf 6.5992776806953195 5.817821052349394 6.871354703825163
Hf 8.419975276900649 8.510816176762123 3.880849136511704
Hf 4.41377966527613 4.678575452951931 8.421449508667138
Hf 6.378725279832268 3.010820071935554 7.355196626122262
Hf 5.763835442211989 8.878508964065956 3.1095573146866085
Hf 3.565455233400101 7.007945257490976 6.964655427774806
Hf 7.678564987368653 3.837536036451498 5.029400562686754
Hf 6.765959861237138 6.180950389239994 3.6352886281400036
Hf 4.114017160021647 6.964148764269329 4.197203013371358
Hf 4.7107493348097815 4.4143758593578095 5.4021116201991335
