37
Energy = -318.19504037 eV
Hf 6.872188137127702 6.293636574710365 2.970044721146923
Hf 8.669918657408644 8.662949774828025 2.9807510222503697
Hf 9.514161939931254 5.8228824392711465 3.7059155871663307
Hf 5.584089459392559 8.748431929733243 3.369269261163698
Hf 10.044917335422108 10.418876006048219 5.144896304444308
Hf 7.36883585166019 4.215606048593724 4.939422001014522
Hf 4.6718366797680275 5.919698691348804 4.772380584813818
Hf 11.02209621843721 7.614980656098588 5.281389529343653
Hf 7.16862314158039 10.51614259805669 4.994887652372683
Hf 9.56606921604007 5.5292197463887724 6.826908185723974
Hf 8.010461953625688 7.59330753380434 5.3761666121368705
Hf 5.310861913087045 8.446694087706321 6.142842123372864
Hf 4.98045561630853 3.5866261369291323 6.613889637253186
Hf 12.204364595937603 9.686934733808576 6.833177334129342
Hf 10.473595041034642 11.660920937264722 7.872637233328191
Hf 7.670072975694105 3.3382211747494175 7.972123970625714
Hf 6.466386186258626 5.837976495869607 7.178039171786137
Hf 3.570459125967611 6.245630749979092 7.464881609733506
Hf 11.772282109193977 7.084213664777548 8.213299335751373
Hf 3.4725386606371202 9.099134663748908 8.43241278439216
Hf 9.50759083242371 8.873608749957494 7.6953297721072085
Hf 2.848255821201607 8.610486067874545 5.5328783161418595
Hf 10.140847317528516 4.758600612491008 9.707396276206936
Hf 5.196624388310645 4.1943661749919015 9.460247117633948
Hf 7.569426800594104 11.502570917204904 7.719660131977531
Hf 7.7033465492310755 6.228910463452081 9.626660268893685
Hf 6.529185702686363 8.878140743118573 8.574349812865048
Hf 7.687577212357384 3.5290065732837377 10.844614242423999
Hf 11.646907525870912 9.755342167134435 9.547878530854748
Hf 4.785023576631599 11.104816310806727 7.139168381720792
Hf 4.72191656020646 7.053435888820041 10.1010493744419
Hf 10.078756208448684 7.706473579631003 10.61346749301686
Hf 5.649711271596023 10.988273033392938 9.985564634228187
Hf 8.720885232969636 10.481165101055884 10.08571671184055
Hf 8.834337616276892 5.747938417970802 12.184239157389417
Hf 7.123053888008511 8.282489409549527 11.528087793086284
Hf 6.040066931643248 5.520363721824606 12.01413574579077
