37
Energy = -319.34081557 eV
Hf 6.28956124691158 10.883289342981769 8.654864335199736
Hf 8.67364708206947 9.419063115484988 9.832467053432714
Hf 6.357879937674947 8.229222141291796 10.699036099038896
Hf 9.343722941903945 10.347970752381542 7.24595036016685
Hf 9.311117311611811 6.9592873957633286 11.416235765507658
Hf 10.965523907021446 8.120945114226096 8.714694627164237
Hf 6.962539089633528 10.95750104140245 5.780480015096598
Hf 6.728854785526044 5.398524722302271 11.522070025591425
Hf 3.8484051397565224 8.582181635449448 8.854503344729146
Hf 4.818215402989549 5.905244467355071 9.453083675491206
Hf 4.307205357063474 10.081439324232333 6.3061919454684805
Hf 6.6508172279028175 8.511161504622926 7.633670558042985
Hf 10.998864335444326 5.397209279535694 9.437800011410083
Hf 9.042779845483095 7.444189144743537 6.679052014445317
Hf 8.815377625991687 9.375671154089028 4.30522426614483
Hf 8.063387790933483 6.208710187332988 9.142374909701235
Hf 9.022821860328621 4.048994839993762 10.74462162036043
Hf 11.191995353546751 5.6544760556507905 6.604272993238444
Hf 1.8900498974482232 8.372487189568538 6.602355816872683
Hf 11.331001799423838 8.542504497666048 5.750899275968005
Hf 2.2784762746161027 6.104232390833681 8.151489363181263
Hf 4.346355251357187 6.934721293714489 6.382959382473815
Hf 6.558915329941145 3.5981618224739598 9.104922098366279
Hf 7.351526840562464 7.624215678538871 2.1175196676583563
Hf 9.327861835561395 4.0542899454335775 4.99249759180602
Hf 6.891540765714263 5.1782854886846295 6.507589855355061
Hf 5.590164138919701 9.59655208949466 3.569113019903553
Hf 4.122513768044868 3.979609276792132 7.180428086579303
Hf 3.0126642156405694 8.513563667847034 4.123177707660293
Hf 9.604494980472742 6.662119263090745 3.8845977989157117
Hf 6.732679954093526 7.323682115869572 4.73206439568602
Hf 9.252859891094582 3.6194301580150667 7.802902706402523
Hf 2.2417426027103953 5.767463167004793 5.155551680716719
Hf 4.6409297727366985 6.564615169977798 2.9022417924285793
Hf 6.899500392714578 2.635738350354692 5.920074536377393
Hf 7.174458410241596 4.783690407738055 3.25070409251909
Hf 4.708008064699989 4.193973227999601 4.506607926099109
