37
Energy = -317.4239327 eV
Hf 10.476616318074807 7.220735449731957 4.011868185704944
Hf 8.391973213453733 9.29348404609887 5.732272656198547
Hf 11.175224590998463 8.685925622394254 6.919891232200443
Hf 9.25347723692344 10.563743386059175 8.213842843821302
Hf 11.058749638713827 9.102814592569713 9.823013412459538
Hf 11.762358148256324 6.639839186720489 8.959430633263668
Hf 5.947131461343224 11.025878129821452 6.353562131912864
Hf 8.404498052664735 9.433778458825673 10.818599365267898
Hf 6.545628085914899 9.480082747697761 8.625744151998417
Hf 10.734550271514639 5.757885003560384 6.468528349709031
Hf 9.878618448632473 4.364553265844688 4.093966802785242
Hf 8.247738159828529 8.45378197641091 2.8311582134102475
Hf 5.857199146531 9.59644539971005 3.742594894781483
Hf 3.478077420028886 10.704817872560204 5.033559719802749
Hf 7.962769462352957 6.4205743822749755 5.140435575146811
Hf 9.751620222542531 6.7819019895261485 11.082094121356656
Hf 8.940263349370516 7.596618625788746 8.421281660534492
Hf 5.604854129782695 8.106308982382927 6.225592211299896
Hf 3.645117464413486 9.801887233238393 7.7997465877200245
Hf 9.794560199718159 4.5055516767048545 8.996984218851187
Hf 3.393536119386192 8.026916237331667 4.175969136484315
Hf 6.6746155473959705 7.114977961759866 10.835704854617836
Hf 5.880918997646899 6.688125315933815 2.964918425791131
Hf 8.491956633344332 5.781409021922948 2.2574482019862554
Hf 8.459226179915014 3.4896480197842905 6.459588520561369
Hf 5.064841488824522 9.434660923541951 10.860368931317863
Hf 6.696807504987283 5.398165256199495 8.110987495446727
Hf 1.2617417111190923 9.418187702352316 5.788315579111621
Hf 4.383870079696616 7.185514633610033 9.090074102726499
Hf 4.826244253247391 5.37141872123093 5.516920739821145
Hf 7.794984362459224 4.5550964751268825 10.98550440337806
Hf 6.952979026280143 3.980542418708996 3.968930793456591
Hf 2.645193180496586 7.198256610250772 6.806264147370383
Hf 7.527002456123857 2.652455763225687 9.050616228347256
Hf 5.15911550979521 3.969677082849259 10.030099985471189
Hf 5.554419596236538 2.898535629686915 7.119824850848563
Hf 3.526636912044109 4.627585820265307 7.911918762514155
