36
Energy = -309.30546485 eV
Hf 11.88750726636414 11.038779690616982 8.933966211357683
Hf 12.362167449624712 8.908676673546273 7.313428957625674
Hf 10.117597236776298 10.613732941387942 6.705250349771169
Hf 10.583820155984046 8.142131018485335 5.238173841162668
Hf 8.990096510275846 10.69141521266124 9.359638379431951
Hf 10.838114124730582 8.458536780914313 9.661049051034404
Hf 6.937174084164386 10.89231345456868 7.318131778782962
Hf 7.944388616664412 9.34245457771051 4.954998362057834
Hf 11.081899328141853 6.302753123673491 7.689415373845232
Hf 6.21335584051286 10.678813241030074 10.017665070582478
Hf 8.754941279029486 8.067984169519809 7.579890356221997
Hf 4.067239008409051 10.358465387079587 8.395806166504599
Hf 4.74047049854139 9.777322248071728 5.636756350968857
Hf 9.037836401774006 5.8434560106046005 5.461949965751109
Hf 9.14897386406103 5.9462173354213 9.936478398360949
Hf 7.734731490564886 8.434085897982975 10.747188594539484
Hf 4.717491867317111 8.569174908510481 10.843476619914215
Hf 5.769019277763273 8.040117487864116 8.156440356631247
Hf 6.063617309778998 6.001921662817924 10.629598820542443
Hf 9.603655876180143 3.605539587868984 8.256832702075528
Hf 2.8887775807767793 8.151002300544775 7.024376609120556
Hf 5.7957883365279095 8.982652782175123 3.1017056439742277
Hf 6.03181527507577 6.764935260714787 5.100873807673732
Hf 3.5156823318617736 6.4877527775736406 9.27664440025845
Hf 7.167221065166057 5.052543398866184 7.653953264064774
Hf 8.062621885307147 7.21536464868755 3.0048511666201145
Hf 7.506418172684398 3.5983293328237154 10.209586765792453
Hf 7.006194256892081 4.4350140201152 3.5483160718984905
Hf 3.4197756498279266 7.509876733797239 4.183117049346105
Hf 8.397190623008338 3.0304035986079736 5.6967446370909975
Hf 3.5296623125112347 5.411512944528189 6.59202284871842
Hf 4.848898483144361 3.857463876569446 8.868270105963338
Hf 5.384541753729899 6.441158440468789 2.203443729636227
Hf 4.129052880325623 4.723742394073486 3.871134432459699
Hf 5.500346107542383 3.2455836278698755 5.843194878503437
Hf 7.141257401080304 2.1236025854058544 7.958807358335061
