37
Energy = -319.04466077 eV
Hf 6.851630196985792 6.799264953068793 12.24722004150005
Hf 5.608190347196621 5.9896725903588255 9.951971321154756
Hf 3.979141919076316 4.672330927129388 8.01415342250746
Hf 5.390438178554049 3.729010957635989 5.7198276154314
Hf 6.71890309897176 3.7313449331212323 8.554477261255586
Hf 8.668494515768527 5.312422726527154 10.400817483049172
Hf 8.130228484734996 2.743592840515272 6.412184392855514
Hf 9.617136331750892 7.42229418578581 12.148864633222969
Hf 5.285381659606949 8.913140550667976 10.771510068572168
Hf 3.600261922773925 7.451812606992605 8.629168357428103
Hf 7.603973880687539 9.463787657254052 12.44615814917125
Hf 3.3996511121603916 6.4032798029264475 5.7877935827103935
Hf 10.09000973190017 3.4377593241464868 8.422300232467885
Hf 7.939130200206004 8.064572277124336 9.775638087498297
Hf 6.126408846921092 6.301060203256687 6.651644169454761
Hf 5.35052809610517 5.852659972015679 3.7976381958865115
Hf 4.638101989165617 11.211259013925016 8.534649631664708
Hf 3.2360627444783483 9.314492504985791 6.586251913574302
Hf 5.023263033161639 11.205078567730888 5.723681245670152
Hf 10.010683351510957 9.891815733005124 11.04953534344969
Hf 8.878172782015218 5.689170588857218 7.419792191015676
Hf 7.919787930202834 4.711517661765414 4.3778578512802735
Hf 5.0656989687999205 8.613673444398598 4.444333682239174
Hf 6.00437866882215 9.129447968429979 7.620305471142154
Hf 10.691792348483087 7.477157096663496 9.302805036873849
Hf 10.463678737033645 3.8027946168330886 5.645522182898615
Hf 7.293805346831431 11.013483066801584 10.02709988278018
Hf 8.601814540171954 8.532372239325081 6.319788254990825
Hf 7.688573870957781 7.531218081927388 3.5845855899758603
Hf 11.802897497772358 5.691506602439564 7.156101514867919
Hf 9.765626577010758 10.402727773116954 8.415497557955668
Hf 10.43012367582351 6.503127540120228 4.689468872070591
Hf 7.486467339319943 10.481416984720347 4.3628791871049355
Hf 11.476150555604022 8.645589488531693 6.496461868045403
Hf 7.419009314785532 11.77765920334711 7.13033315346584
Hf 10.105858439555801 9.161526581769003 3.9081109281907542
Hf 9.923757707003546 11.12551319456182 5.741342156103734
