37
Energy = -318.92327774 eV
Hf 11.099978909214059 6.900767273449078 6.170610560723853
Hf 10.760224213671584 10.003255308179414 6.175256186767656
Hf 10.45902408693261 8.583384374750603 8.504282802326893
Hf 10.835018570084973 5.8041536854001246 8.892740277599843
Hf 9.95259044585227 8.63787637405976 3.6872500134200723
Hf 8.462900880920515 10.747965849318579 7.8540139866479555
Hf 8.532111634499556 4.129367465326667 9.77148008208733
Hf 7.094111249847458 5.325355143579048 12.00745577724808
Hf 8.520537517801978 8.401083543478611 6.254179311239214
Hf 8.33245346114593 11.086686995236281 4.885489630568969
Hf 10.08970682622459 3.8206164177525728 6.759050930839677
Hf 9.117305569244127 5.762408929761 4.311350519369112
Hf 8.484654353357662 7.088373651645416 10.160228356496884
Hf 7.819120633071876 9.886770303040846 2.2366246996372907
Hf 7.9977643422364055 7.183094776538264 2.08281761308739
Hf 8.442215026311077 5.763714342215299 7.378761433609119
Hf 6.998470343715459 2.9935304649709966 7.648019791511471
Hf 7.66496683230496 3.46028752668411 5.048875530975288
Hf 5.90662068512161 7.9074421602620415 11.235299870782677
Hf 5.280920336633037 8.48624339180617 1.9765562162647015
Hf 5.8025136994263615 5.5396455121583 9.391951870734927
Hf 6.4019267323986435 8.491772312882857 8.414268846029369
Hf 5.732408353969894 11.050852324465474 3.5084354202978294
Hf 5.538418750658099 3.1281057923322826 10.803530557364029
Hf 6.362714688176535 8.301868712867675 4.473663305112616
Hf 6.290646116481901 5.324989830715268 3.4050429154213333
Hf 4.331632578199143 5.691265603621019 11.916229793238212
Hf 4.70480427725238 3.5416145982194642 5.34082650029437
Hf 5.9116435647481325 5.7746003067903455 6.35362599717828
Hf 5.781635895847511 10.634336539595134 6.365552781219389
Hf 4.283919978713563 2.9985375140569004 8.139171449307483
Hf 3.5428633235650597 7.389096747850015 9.597832586068336
Hf 3.6696731809866097 9.476578370271914 4.278373743120245
Hf 3.9147651842466455 6.492783357853516 4.395090021596163
Hf 2.9818053334127463 4.473171222108764 9.95156069591504
Hf 4.059921447468789 8.170029178876515 6.713765847642055
Hf 3.031593545380972 5.417597577913956 7.224024075784662
