37
Energy = -319.90913472 eV
Hf 11.244887346820203 8.229950126760144 7.288053403180086
Hf 9.751017984321644 5.60009325322199 9.09151192865027
Hf 10.617014691312644 4.973646261958704 6.291203886077422
Hf 8.989988509461245 8.4927306932002 9.603859974207317
Hf 8.102303460893962 6.296545321549516 11.380612148789053
Hf 9.473634699944526 2.8880436202127377 7.999398053975997
Hf 10.885041400630941 7.241248961767159 4.50001172107807
Hf 7.469345846076807 3.7895554493437134 9.91561112937865
Hf 9.97830728102605 9.722974228279819 5.010449794703128
Hf 8.958514932529816 10.667324735651146 7.432141684553264
Hf 9.053921010271242 2.6996256509219037 5.26498291695056
Hf 8.856382601351704 7.4753762650945985 6.649239569563869
Hf 7.060817682015546 10.59722555786161 9.619903439860806
Hf 6.688082002323276 6.530971632632695 8.96361211140157
Hf 6.008538313249452 8.33566848298862 11.017303779737253
Hf 6.779233827320274 2.0733977799727485 7.05473804767049
Hf 7.536681856875045 4.625887833680468 6.921286191337208
Hf 5.397633339629502 5.4172777344758645 11.188839469612402
Hf 6.8272201397796035 6.55868042868444 4.886752819148949
Hf 9.105775269826315 5.110751048114131 3.6838721398035155
Hf 8.463564800847339 8.137363326060628 3.05754928398632
Hf 6.124180050703776 11.660342401158847 7.2015048279564144
Hf 4.635117968246349 4.211921336596674 8.712227488636806
Hf 6.556645564247058 3.5666345059641493 4.07309624459033
Hf 7.192011264874212 10.369464887215637 4.770009340893645
Hf 4.353901241016343 9.833138092934131 8.869704327169538
Hf 4.645178759418975 6.76826085002336 6.618381060406572
Hf 6.542641113137605 8.92853675615956 7.228674364013336
Hf 3.598374985010081 6.928563051136735 9.458826716998582
Hf 4.530758660118897 3.7336961364262113 5.999008187494304
Hf 6.632615989853751 5.94999857555947 2.236590130933204
Hf 5.223483565437905 8.357162161542693 3.3439901683483804
Hf 4.210514867860637 10.045666469389571 5.665622390241946
Hf 2.3070894422856743 5.5844828699737015 6.821461910036001
Hf 2.3264914571856403 8.444068994087424 7.314699601376317
Hf 4.168028626295614 5.507482781565155 3.7787427479587636
Hf 2.684891871575778 7.798566897751357 4.6617071372506755
