33
Energy = -283.83255864 eV
Hf 10.382766786407238 4.234111661279215 3.9226966007689215
Hf 11.204179293707496 6.4983680327984965 5.477041124263368
Hf 10.10565316039375 3.883280553051595 6.891007751540288
Hf 8.243085848623311 2.7704005882233753 4.8732806639173685
Hf 9.71156356545061 6.762468740421834 3.0691585626411912
Hf 10.263657712631268 6.628311663365681 8.108288267785335
Hf 7.599041900001401 4.814739727041721 2.8481841242123727
Hf 8.4581745933155 5.684164082419969 5.592915196001275
Hf 7.130179897079366 3.393912008591187 7.301192971066384
Hf 7.950793663482902 5.315119713768292 9.179098949820926
Hf 9.20052983194644 8.707096208536246 5.147653206829405
Hf 8.958722698904133 8.052863922912623 10.239748518495075
Hf 5.489406765617777 3.7427696492069646 4.87117800083529
Hf 6.943851362327388 7.758095784530218 2.929774814380706
Hf 10.352665496042244 9.512645195772134 7.917586439488986
Hf 7.741488254874906 8.469234967517032 7.616412079091474
Hf 5.8650844343411075 6.6976477827555785 5.47218905976405
Hf 8.284267180741455 11.106596941394749 6.678654161117691
Hf 4.855478867934014 5.747058675634073 2.8231279864873424
Hf 4.635566956491628 4.78037251955709 7.453928249930687
Hf 8.253165891244983 10.743452489797251 9.439452436564393
Hf 5.037395920758556 4.762903600357547 10.282204454591584
Hf 6.851487468450355 6.5245475731125655 11.58123814332818
Hf 5.560993925604229 7.253302633756375 9.020314502932514
Hf 6.2740521867786905 9.669666258739861 5.203032224351795
Hf 3.2054165465898476 5.8250025275972686 5.175533857006755
Hf 4.1340778599240675 8.231329303770309 3.820326969678984
Hf 5.651840143551105 10.586166469955225 8.115827787230469
Hf 6.17475909860556 9.389444595162516 10.88328224778604
Hf 3.809994022124233 8.350296448600577 6.795017559239763
Hf 2.840463112376245 6.442802946617289 9.02428142350709
Hf 4.157013645227412 7.258522754714933 11.51536021102825
Hf 3.502948424097185 9.220065913780598 9.582799736619906
