48
Energy = -418.52358613 eV
Hf 8.642941862898986 2.348393026309124 5.996707164842888
Hf 11.169153254171105 3.791923793664477 5.796783031052848
Hf 9.047082472322046 3.360506886424579 3.4381248531915576
Hf 6.1387407267549 2.5420767601473937 4.289007067268614
Hf 6.757035868936294 3.0522178138468696 10.149280361225728
Hf 9.250914234842545 3.8756003365728695 8.294778634991157
Hf 6.512644520642922 3.878639999864042 7.1286234320652335
Hf 6.698823720974383 3.9068197479735813 1.7613220427039842
Hf 4.288020135309442 3.0580305867379596 8.495552283355446
Hf 4.068820661597736 3.5353426045315 11.269917919687254
Hf 9.106402332203853 5.456898695142912 5.734987049394806
Hf 8.468966129910415 5.507399394985211 10.799145171568856
Hf 3.847638360797203 4.046760861042197 5.532053835849225
Hf 6.197890571539423 4.852931303793408 12.43461400762626
Hf 11.052253987862938 5.416755567517912 3.321635070899739
Hf 10.629465742830211 6.2608094475873 8.166164338577081
Hf 4.228339261032385 4.415255306302538 2.8071690853037463
Hf 8.787058967302707 5.801403298974348 1.7064862319762881
Hf 5.42266119503605 5.6081012351100865 9.762304052075574
Hf 6.402158678507252 5.387748243685472 4.415261787979613
Hf 7.755587836338146 6.5453858933217175 8.056744750740874
Hf 6.250300959182824 8.2636868830108 6.0172533283721865
Hf 5.767091196639269 6.729283388165685 1.8994724961658749
Hf 2.4451356066990146 5.0166325238267815 9.36172126194604
Hf 3.875788494553983 6.916917421615903 4.402321436213728
Hf 8.638598551635434 7.92061433136495 4.064836932140348
Hf 3.7015373925608177 6.430712519106656 11.840776945843942
Hf 11.551698267037061 7.252323530075338 5.257353974430264
Hf 6.552295259146261 7.6264494881563865 11.846565232495239
Hf 6.093353907801546 9.407677964607267 3.3230375855555563
Hf 4.387875738235837 6.164618092368058 7.236011295826859
Hf 9.678008660724744 8.645985949628585 7.042174359861015
Hf 8.883960121995855 8.390360532652187 10.053192346989213
Hf 7.945890822338061 8.414819438139016 1.1582496175070285
Hf 7.92485572101357 10.589799215806725 5.328233505504685
Hf 2.7996952996118374 7.795453612325438 9.262170524692943
Hf 5.64901395067224 8.906859671729624 8.941690646521081
Hf 10.709733126227624 8.18310120447019 2.2124984274620134
Hf 10.727476212392192 9.926994758551027 4.643865541645379
Hf 1.7562405055434667 6.460281035605416 6.606366673541819
Hf 8.833483519459133 10.46633999173583 2.649974359197964
Hf 4.307058443072861 9.632557709088776 11.37232862891337
Hf 3.3531353792890406 8.914741388572981 6.5145918219498995
Hf 7.929298707496576 10.747697673703152 8.409498300476002
Hf 7.1458194933793235 10.303023874318821 11.203648157068956
Hf 3.1330527228633 10.589837116634921 8.863724714949308
Hf 5.3341909549642645 11.066361383139684 6.857894323572355
Hf 5.518375333914097 11.786246863967456 9.61041964580214
