43
Energy = -373.67273106 eV
Hf 11.232368651493493 9.011154611653396 8.023258805694692
Hf 11.55243625716074 7.158340161492184 6.104616244400168
Hf 9.651346651275515 9.442587418294115 5.584752159592361
Hf 9.0730256995482 8.309403208369426 2.7971558663190517
Hf 11.52198203306223 6.289462857914993 9.009537834877316
Hf 9.389056543942287 11.22277462401495 8.472420307619139
Hf 7.607364448917255 11.562299274820553 5.923148256437027
Hf 10.826339364190678 4.581241424528978 6.566843041412356
Hf 8.07294312264015 10.723140397415555 3.2945569138066952
Hf 9.084952000264451 6.646291874286777 7.80027306151856
Hf 9.088036105999503 6.253420188652158 4.80411287175278
Hf 9.688498104457992 8.662791752015856 10.243884513631526
Hf 6.933746690404269 8.488310344702528 4.855233472876098
Hf 6.102533800814417 8.83062965466463 2.183619987429782
Hf 9.391823586637548 3.812379558563095 9.007665302716354
Hf 7.545246908220356 10.616067871669951 10.59064826228189
Hf 6.478160550086374 11.895562943636266 8.440233759275637
Hf 8.873224627864952 5.796148903109281 10.936115380832295
Hf 8.032639240229736 3.797739961352178 6.506098632159425
Hf 7.241444723664802 6.138062970008093 2.249016605063401
Hf 8.306274378733978 3.747969009662818 3.6098450905619357
Hf 7.517258946407283 9.221417698830374 7.968957517087568
Hf 5.364678724872578 10.9121296803411 4.038182013911684
Hf 6.605464739047158 5.148887612953368 9.0461799267142
Hf 6.060714264078321 5.390175899209218 11.990395102232997
Hf 5.726671498049861 3.7668542109363936 2.3714099195995844
Hf 7.3702214323077175 3.1979428637395073 11.060571240538259
Hf 6.163623299391661 2.256836117380307 4.80052171137888
Hf 6.8397030975913875 7.86186381021942 10.833862205518157
Hf 6.009334593581141 5.222540447525718 4.91332176166773
Hf 6.738720511513995 2.2578314713523873 8.525689149566622
Hf 4.787493520302458 10.185196090535774 6.764197362870494
Hf 4.266500977444525 6.228474533113034 2.842310202839267
Hf 4.92448096626303 9.54714494584227 9.49805809796666
Hf 5.159598302885588 7.187486608707827 7.362361132936481
Hf 4.567844793068983 3.5936415648836086 10.173318373419162
Hf 3.8556239302056428 8.468172911053513 4.772971238836889
Hf 3.684051154194711 3.542574906951312 4.212735632818771
Hf 4.592021743610979 3.5013213010777906 7.02419618444323
Hf 4.107602998810106 6.756705538535169 10.3227206041423
Hf 2.9355321066632807 5.9008497335835415 5.606055878330073
Hf 2.6479638257575133 8.18147634220139 7.710579822490772
Hf 2.8972140756030575 5.324428886688704 8.348381797204274
