46
Energy = -400.55671672 eV
Hf 6.655001782324609 9.99895713351076 1.482430437778095
Hf 6.751824907189893 11.501575892251315 4.004610557480966
Hf 9.09336163919905 9.918647075500052 2.896491865568542
Hf 4.308126925163409 9.79636978512228 3.2429063561302027
Hf 6.749653228099078 12.188598570026196 6.92924247941212
Hf 9.203776178029502 10.39927431811411 5.859150881124298
Hf 8.274029112858818 7.547668627187134 1.5382977169764263
Hf 5.344392662558304 7.487115703046806 1.4785525911231514
Hf 4.395732261687175 11.38278006511406 5.770841599596565
Hf 6.76835035879028 8.345450036995747 3.7839487173416195
Hf 9.476010442893982 7.365910824167412 4.44485110421874
Hf 11.56043294320911 8.345368139308231 6.330939985118351
Hf 10.800707852027015 9.936382182120566 8.4500073681555
Hf 8.059067016420501 10.559069122448026 8.80996020059363
Hf 4.276022153745021 6.736211945984026 4.192800540361734
Hf 4.936669755688203 9.898365678436207 8.612751039273366
Hf 6.501147597933778 9.415964853324676 6.319373402796255
Hf 6.606846334683454 5.344527351653362 3.013306257267628
Hf 3.492298187831127 8.735477328938691 6.079692994872914
Hf 8.972787408889122 7.952932320912787 7.325396219300262
Hf 9.182166614724004 4.477391223490137 4.290267042681942
Hf 6.87324801197605 5.8949277030990705 5.705049104271344
Hf 6.613806790961552 9.858180662853098 11.193943544743957
Hf 10.967689136382438 5.457083425168997 6.402839231141237
Hf 2.560021024428052 7.870853771806297 8.75032579363718
Hf 5.000533732761478 6.929691960723477 7.852161441361228
Hf 11.179463645900467 6.977095518537076 8.988291879571461
Hf 4.279757655407134 3.922241654489046 5.087349665365795
Hf 8.392300139406885 5.0537921464752085 7.958187750153422
Hf 9.400158188165783 8.783556046889675 10.860856024218739
Hf 2.58349697201368 5.824012686780878 6.676109253658747
Hf 7.19058341564464 7.325179683724019 12.294835018097197
Hf 5.721718304551112 3.9829503032218034 7.827074391019205
Hf 7.180137035362622 7.621909865167615 9.507176320752498
Hf 6.9882563018594555 2.826055687026919 5.153389276474696
Hf 2.89652462005448 3.1358521921880325 7.616839962662902
Hf 4.575369951768177 7.707824016825826 10.931340439881511
Hf 9.519028027947709 2.773865297342971 6.6494903284464435
Hf 9.095659441907204 5.672500539922186 10.783954969886217
Hf 10.77633239385147 3.9882852016749015 8.9752611474556
Hf 3.374995198791345 5.141203507732131 9.604258050878938
Hf 4.790359545142041 1.4673394167725469 6.656205046889434
Hf 8.052419917170331 2.965106270530748 9.940460894870334
Hf 6.1134874284374865 5.007175494419666 10.84511202382092
Hf 4.962119060672997 2.139028523631539 9.575034361949148
Hf 7.242521737900994 1.3462297421291871 7.769295559895668
