44
Energy = -381.77532575 eV
Hf 9.450581624346498 8.002125585597904 1.1226112044562204
Hf 7.832790004084882 5.367156549103568 1.1355785789361006
Hf 6.7312381740508425 8.142182920399172 0.7178673319884655
Hf 10.46644131703997 5.911758115758288 2.5463374473775566
Hf 10.362821384321014 8.465231035589042 3.8665296700921026
Hf 7.83112351331132 10.00602681040133 2.6765467517946604
Hf 8.950063659093704 4.0459144756774705 3.836385841644685
Hf 5.073775420292584 6.275481486129909 1.9680246832766657
Hf 6.234622585303653 4.480827521273048 3.7442562586094166
Hf 7.742875578927756 7.0989082886106525 3.2534035711782923
Hf 4.91373595918628 9.08734201576901 2.7947794638846672
Hf 11.018781864438706 5.737936041336445 5.328091912287757
Hf 6.064635497378014 2.1092724432213563 5.520885363591096
Hf 3.9693733065905685 6.58640907228595 4.701894658339618
Hf 8.555269284478179 9.966425428352244 5.677653040543726
Hf 5.982528199441326 11.065502948433174 4.683283615918765
Hf 5.755773197284757 4.799558819816989 6.665964563869192
Hf 8.565447300157414 3.4832365025448127 6.589988298977307
Hf 3.686507086469817 3.676788441002012 4.8628217045337
Hf 8.518618329654768 6.389779777201212 6.098891034030897
Hf 6.2258382577569575 8.246461838252547 5.3591577199238785
Hf 10.550411029639363 8.498812447597079 7.171036077502933
Hf 3.884905154960261 2.6002476402138863 7.438735808682531
Hf 6.523062110385895 2.4092638593971327 8.370278454913112
Hf 3.7891673121558234 9.449249651912881 5.707165334306661
Hf 10.25576262888284 6.176798191505875 8.58943023649372
Hf 2.826470338924363 5.270445703604336 7.1791880397908505
Hf 8.950488047530602 10.772699906240913 8.414065985729419
Hf 7.811101385084371 4.864730841545102 8.94909440169302
Hf 4.795721737778231 7.458974458429757 7.768745684658747
Hf 7.872687479103881 8.072533208231363 8.32707736065544
Hf 6.0469643533950945 10.328976332495534 7.492237488360889
Hf 4.52033493168079 4.487862146818212 9.54127017471094
Hf 9.93396112920721 8.677285901390993 10.204017251052267
Hf 6.734967124458319 4.170061887275439 11.514980308848571
Hf 6.171299031534008 6.973536198981256 10.549220927878872
Hf 9.01399401858638 6.138654429441692 11.427535276302853
Hf 6.896761349623019 10.185523935081264 10.40085853120725
Hf 3.1461942003860646 7.062808426538779 10.23419014019769
Hf 4.213101037135244 9.552051371388544 9.688820815728068
Hf 4.324701314507296 5.571072292976063 12.304096997407173
Hf 7.97278578128304 8.66501728788148 12.421332455446022
Hf 6.803991120255553 6.389662880517747 13.321667631107704
Hf 4.892184635709376 8.541653460714484 12.411578341734232
