45
Energy = -390.87192815 eV
Hf 4.67956646298174 7.695164271014766 11.85088268460373
Hf 6.557536504239991 9.359522333819804 10.529143437150188
Hf 7.591974265287995 7.256956419177392 12.668309603721053
Hf 5.391537779468258 5.224483445678551 12.962891966745687
Hf 4.50362253614414 11.57839376574853 5.592891779894096
Hf 9.296640889480333 8.615105031776558 10.487503401501836
Hf 5.600320874808648 10.033347178706945 7.7526391218303
Hf 8.562198588893322 10.555714465848395 8.405562855629809
Hf 4.30467161407407 7.585562228895608 8.923646618934876
Hf 3.625574448929245 5.318610813354943 10.817973397464428
Hf 7.318390416555225 11.00893876304708 5.4724234826183435
Hf 2.820476477858189 9.183513863063835 6.557481909832613
Hf 6.592631673485431 5.96725908976385 10.352429087915569
Hf 7.610976508330218 7.879165848459921 8.255966638080661
Hf 10.193786132027762 10.816464294892128 6.033121311906803
Hf 9.682313820698468 5.876017545309994 11.107219684631755
Hf 5.628857992298054 10.912996218183112 2.9700445002313476
Hf 2.853475201823145 10.222252611444212 3.7774879635166547
Hf 7.893183967389647 4.2636320439288555 12.397914420738385
Hf 2.8041705366599965 6.16765402504328 6.66151567195105
Hf 5.775871729679741 3.1771884534744768 10.755904327289407
Hf 10.807084530229636 8.5670631292485 7.769039365737796
Hf 2.596028608548442 7.4619289050803985 4.087314146418438
Hf 4.435912900825737 4.261358817622586 8.321649583375667
Hf 5.155497172572953 8.871526369747178 4.869252203446842
Hf 5.48698571523832 6.577467103409704 6.451079703781916
Hf 9.321073756576395 10.052141450239755 3.443995442631048
Hf 8.707445613008243 8.307496175114144 5.618001982249502
Hf 11.510200470260221 8.690496817626594 4.867749495965296
Hf 7.282272131249505 4.763255908710686 7.611528566135043
Hf 9.863904979290945 5.8278552780319455 8.317756355572612
Hf 7.195235954630092 8.229887517390335 2.82801626933353
Hf 4.376123827970222 8.46486314455943 2.073243115369388
Hf 8.683061006184882 3.3954595784850885 9.792510733546257
Hf 7.725699073933067 5.482975392002486 4.725462273638892
Hf 6.538067832443552 2.1983096923599312 7.848557400390678
Hf 5.05720331933563 3.687745372153338 5.558207514291496
Hf 10.75496164114857 5.960490162983582 5.613694145544364
Hf 5.09991848343142 5.934935055969457 3.4077717170392066
Hf 9.854884519344036 7.0152951675861255 3.082710433187739
Hf 9.699096326661158 3.381732176157716 6.684356478350262
Hf 7.678722355951092 5.5434160907552 1.7985441148633545
Hf 7.644387173292346 2.295213507296029 5.193506519704045
Hf 6.60335707267085 3.375456423792102 2.9786852468761627
Hf 9.550691582343758 3.8123680859115536 3.5163823539734693
