47
Energy = -409.15170929 eV
Hf 11.314247169915683 4.182183310402277 6.451530416553253
Hf 6.72762910413874 2.6461304999763344 8.979828683524225
Hf 8.577303523606314 2.9923046453353384 6.4829904868786175
Hf 9.830836227507072 4.262955949905417 8.874675139221546
Hf 11.52540321658319 6.753982124924261 4.829718155536645
Hf 9.866566678815984 4.515181385838286 3.863949807618701
Hf 11.39678398260943 6.5763483393118545 8.384973126236986
Hf 4.032534758579679 1.8671902419583604 9.276922858008403
Hf 7.288843695654935 5.1973348858306085 9.903922129071878
Hf 9.627565098507976 6.660083289660806 11.050640230473077
Hf 4.979762487840842 3.902243013950837 11.179758593485285
Hf 5.180587211272644 2.443395116841707 6.5608259541559155
Hf 9.178509353772155 5.894200270594523 6.42748780127368
Hf 6.540165589666175 5.119702857128496 7.046323533141423
Hf 6.9377880258566105 4.246704669833437 4.392730367468216
Hf 8.63792561752596 7.6619097006830055 8.638412014412538
Hf 2.2499103822674265 3.975351750237214 10.13028911456972
Hf 10.535125836817626 6.756453701139551 2.1171236440705763
Hf 10.496479192924538 8.874708319740067 6.656370311150204
Hf 7.720735358916615 5.753334086910901 1.9255935763537166
Hf 2.2631145733154034 2.984691718414977 7.3464307187705655
Hf 10.695253485912742 9.079623318084774 9.779118551690066
Hf 6.546201510629299 6.951869904891484 11.789428414804425
Hf 7.992136640190051 9.369371572858265 10.960970620838685
Hf 8.579124262976542 8.527393825824639 1.385332996909612
Hf 3.602578973716087 6.692889231560488 10.428921925126838
Hf 4.842788175659297 5.310720650728244 2.649709212286852
Hf 10.506122081521351 9.464882852880594 3.3717778536325262
Hf 5.777468448486456 7.842746155947511 8.876841106929641
Hf 8.673433425324026 7.530393623785359 4.132820223843426
Hf 8.801803807824276 10.74078610756144 8.240136866000052
Hf 4.316729085881342 4.650768274751316 8.411885083945768
Hf 1.7242793199227429 5.749962242976025 7.8971755759841304
Hf 5.782635061737688 8.069445145087078 2.094737558909784
Hf 5.82950970698559 7.022732626139581 4.840128116591088
Hf 3.7076806386403462 4.9594047444670295 5.458920620848324
Hf 7.197498843284693 9.202808798244781 6.338708277879383
Hf 5.04929644506027 9.193362120449944 11.353144211867841
Hf 9.354031055685317 11.1985938833164 5.442660639462735
Hf 7.586277823032905 10.41060049412515 3.3717418722392574
Hf 3.6553328775299363 7.571348896120765 6.79679481298414
Hf 3.31590454027929 7.451648365645006 3.717602823398934
Hf 3.330936182227909 9.37600387195655 9.197386567937835
Hf 4.889720584368533 9.914776668935257 4.2069176519141385
Hf 6.631613347173189 11.861511081173678 5.979564481458681
Hf 5.945917537251655 10.857620268046857 9.038796569417382
Hf 4.263855471355873 10.402115351817313 6.830323609765073
