49
Energy = -426.69888045 eV
Hf 9.436310518327556 4.815255642191875 2.177515354171817
Hf 7.0891645244392985 6.270095676885578 2.0316895894140146
Hf 4.856542362975758 1.9299504169754353 4.817143143543869
Hf 9.832173638691662 7.781576766934286 2.2514653483736096
Hf 7.110846285002407 3.9086331428345287 3.946445222104593
Hf 10.160985240553941 3.7217229581424545 4.707397537605934
Hf 3.954906149896726 4.4919997401286755 4.038535814134422
Hf 11.564335815012273 5.9746086435355785 3.682004607791713
Hf 7.320828592672964 1.768753028645848 6.242720756598969
Hf 4.574696519484908 9.752533527585085 3.3604244055293746
Hf 8.76568060035464 6.331848185965349 4.551370228719004
Hf 7.239203117342701 9.037056185519358 2.7275202750198515
Hf 2.8206270447072956 3.2989574708186353 6.482298679879951
Hf 5.62650059876454 6.938371994575426 4.414577504227867
Hf 5.579530515774573 4.0917857686624854 6.523771526954751
Hf 4.770138575782766 1.6225272645810502 7.72722020304358
Hf 2.7349873955245636 8.301805130586793 4.515039727486665
Hf 8.5535735310817 4.3705784809146015 6.9351025949372564
Hf 11.231171000121684 8.590602939734321 4.972035147568174
Hf 11.146993876425228 5.984042148193575 6.541869732308209
Hf 9.478911569967957 10.34594481885878 3.681472137571914
Hf 3.2764020293511575 6.115391826742878 6.301114147445459
Hf 6.815065284324809 11.085851732886056 4.734805066491647
Hf 7.061169615822195 2.739907516771132 8.909657459638202
Hf 8.309408488398175 8.867400995638677 5.987360781171966
Hf 1.973919263873175 8.696797150236048 7.226576326812748
Hf 10.429507672562277 4.43527539475853 9.030093639028538
Hf 3.2881627057986424 10.942882284463545 5.664355888824703
Hf 5.066391803253702 9.013006777536662 6.354100500444572
Hf 12.2333469457028 6.664067332347747 9.241883341263712
Hf 9.461627328044905 7.3217926037263945 8.607217202039037
Hf 9.728009129635819 11.208686584327891 6.4121623437116355
Hf 1.701885039814732 5.888625917289804 8.668444474133
Hf 11.586813296676977 9.30551861117426 7.879626022328199
Hf 6.720535200939642 6.6683814355741635 7.234183876338494
Hf 7.5860623375774265 5.435657422549604 9.715961407090962
Hf 6.93220047256624 11.080391844292992 7.542022267058369
Hf 4.227802707057388 7.282208791133891 8.992399235261086
Hf 4.395498182720035 4.318350024170472 9.280896212585347
Hf 1.8566167024204818 8.530849260360876 10.102870481294936
Hf 3.8461479304561785 10.266027232735357 8.829119574190017
Hf 10.162411328192189 6.10917209837743 11.239720687530639
Hf 9.21621766351064 10.438304034119252 9.238711021416318
Hf 11.021437145318416 8.777811893816391 10.631606470076871
Hf 8.265423480033153 8.223269080317307 11.365686139937406
Hf 6.5743764095780195 8.8084084894923 9.251710910857897
Hf 2.94254500975954 6.159754602113983 11.23996633498093
Hf 5.7259430296374285 6.310762350389396 11.49225465879447
Hf 4.398086217798347 8.796766043175953 11.43429117960228
