49
Energy = -426.13766631 eV
Hf 10.38610193283079 10.480327902602959 5.5374510436197
Hf 11.879941403540084 8.060672176547987 6.506520585162725
Hf 9.369674946895927 9.338390001390684 7.938221127587228
Hf 11.107714831807815 7.574404880997849 9.278640513529908
Hf 9.808234231796234 9.5902405201226 11.346466531337754
Hf 10.405529150935166 6.708962497426773 11.936531869789695
Hf 6.9733528512980305 9.890903963722323 12.138386729359995
Hf 7.285272007759805 9.299992821205246 5.529628030472152
Hf 8.25282037290152 7.837948145657299 13.277713156219455
Hf 11.80132464408035 5.12103307603571 7.65178784345398
Hf 11.582533861870427 5.81253983413567 4.895629107531244
Hf 9.91928210594871 8.137310849237478 4.139334326641279
Hf 7.421287203545541 10.57644657298867 9.463388485150455
Hf 9.378208289199916 6.664204505342527 6.734857586077799
Hf 9.555463071776362 4.996758925385791 9.631857703007501
Hf 6.161099884063828 11.995082619221108 4.768799791335086
Hf 4.890318498098845 9.43579932988177 10.202416924263229
Hf 8.122813766138037 7.658546023181336 10.328361906737165
Hf 7.896596289418174 5.280371779827147 12.09607897994356
Hf 5.415983199314493 10.88481073099259 7.411050655889391
Hf 8.967003883832385 5.296201276095587 3.769761267625352
Hf 8.433945059329139 10.759954687316977 3.464207245166056
Hf 8.189948470471 11.818287565294913 6.635582492389696
Hf 5.681726555126304 7.197911994311447 11.969658419004237
Hf 7.509940755949701 7.812575670187832 2.4084457584193557
Hf 10.11624628145648 2.276797907154422 8.393834334608878
Hf 7.752180472703254 2.7357051325534067 9.955183720926085
Hf 5.48372025810344 9.937327904327995 2.9306794479129987
Hf 6.139806740313897 5.069701160014135 9.731358867711476
Hf 10.299575713239937 3.4728632994726265 5.786160451084572
Hf 7.804654556174089 4.302438959238601 7.357864046455843
Hf 3.774280734373245 6.7865437791153935 9.41636179776469
Hf 6.228692392618212 7.8340595503323645 8.025067181043019
Hf 6.634789826405538 6.412656438763911 4.887153248558076
Hf 3.1068585846285357 9.019415299521462 7.825130628822911
Hf 4.200891078342423 8.046070146702418 5.22803281625211
Hf 6.39493261870614 5.019010183053737 2.4101562663375224
Hf 3.5307144498651777 10.945999119675168 5.177305159869631
Hf 4.509668759289076 7.194175361128496 2.3117054054173902
Hf 7.7683399511946565 0.34052601493181583 8.696775077812946
Hf 2.64629465619887 9.356193124563609 3.002865969770791
Hf 8.164065191938226 1.5543385121679438 6.356274999182294
Hf 5.72287664853421 2.4061907543801295 7.785374226704431
Hf 4.893940370252355 5.4134015984577974 6.9818407411858425
Hf 6.648981673557885 3.5396858763046772 4.927703280253403
Hf 2.10989656344062 6.442562236361625 6.715380598594691
Hf 1.421550022126047 8.90234518829255 5.501878451137015
Hf 4.07545581939277 4.956431053490826 4.228095954867525
Hf 1.957628038599235 6.774829231941514 3.720989543239078
