47
Energy = -406.65642047 eV
Hf 7.693481034043882 2.7783668773336445 3.8314970927942293
Hf 10.315664339996303 6.726843320912649 1.8110186938350281
Hf 8.052605426388851 5.156508031881673 2.1189760347215327
Hf 10.337027255148811 4.418692193757286 3.755613662072272
Hf 11.947903564616471 6.991645112559673 4.172358335878832
Hf 9.557083141718394 2.8787456647056313 6.2636117144510965
Hf 10.83800505818471 5.694610183118623 6.542173960424753
Hf 4.762754575880096 3.7942730617433287 4.898243601789574
Hf 7.756278433113294 8.229476894585822 2.1039093947837513
Hf 6.785947886506173 2.3906682758584483 6.70530754949571
Hf 10.501438953731109 9.19824842550036 3.147170166437609
Hf 10.893247966046967 3.709486455578709 8.778407443573093
Hf 5.716212412995601 6.151940769635597 3.1266273036535774
Hf 7.557411422272437 4.973433174738092 5.329812255242143
Hf 9.091974411640905 7.115806598299111 4.457214540350362
Hf 10.643000209517362 8.793839594743584 6.186489631466479
Hf 5.1675260738535185 9.10373655593997 3.6470302980807516
Hf 8.686846037535148 2.0381897552639763 9.018504507936866
Hf 8.491397382766465 7.463927252848329 7.796247155788731
Hf 4.123762977361114 2.5211461796763492 7.591545010524367
Hf 8.199827688016953 4.745234977668123 8.34635953205508
Hf 10.838374931156647 6.382235419692184 9.510430407856493
Hf 8.049247006551177 10.052157462179224 4.340823402016315
Hf 9.016608764857429 4.386708492163092 10.952484190421922
Hf 5.998151889398577 11.46666081571107 2.593521034789137
Hf 5.263600962545093 5.301907576434909 7.583699319205333
Hf 10.1855972317649 9.259178022206257 9.170758998461286
Hf 6.366733250495344 7.783717006456759 5.757521703244383
Hf 3.6917904531811008 6.762778517138723 5.186141366774049
Hf 3.5372121222832758 11.36175753192155 4.091667057619305
Hf 6.049464161594712 3.099198204726733 9.666166604691902
Hf 7.762357713158573 10.140158645913914 7.380642534811054
Hf 2.5588822521887677 4.58474381679701 6.692301207588568
Hf 8.660718987211267 7.5019474159461 10.863118472068722
Hf 5.706902234129136 8.36217774825091 8.934407426964878
Hf 6.176750914665318 5.767939075324593 10.510225246756598
Hf 5.919367661302574 11.505081084694748 5.402817615944513
Hf 7.6232795054472495 10.188896315298246 10.332429783298517
Hf 3.2457562203050347 4.470965576448352 9.486943289158306
Hf 4.105283252597541 9.594384041085078 6.55447826467484
Hf 2.8334516856317804 7.085837024066655 8.046485878624797
Hf 5.365758039666077 11.321301306674647 8.625492811351688
Hf 5.807822742886933 8.487506779941688 11.950194782853615
Hf 3.5641978586557475 7.104827516995386 10.80541363386213
Hf 3.1491473608632425 9.769999490107853 9.660199579689085
Hf 4.982055014775046 11.169635481984962 11.413841474074736
Hf 3.177981484633899 9.458489399611711 12.485567782246935
