45
Energy = -389.08917959 eV
Hf 3.0891006684278652 4.7018143062648985 9.150593826113278
Hf 3.763795211187793 2.6705758492272826 7.157951991277718
Hf 4.632152979716159 6.13098137292097 10.906835381718416
Hf 2.7846824099492244 7.483115547886611 8.956164408038122
Hf 2.8234421332063673 5.586792135840583 6.525871237924137
Hf 5.7031080772859415 3.663927214093337 9.255345153104019
Hf 6.476734413227412 1.6525942804691063 7.319308954937032
Hf 6.897363510373267 7.672080915636174 12.316989918396532
Hf 3.474974963725732 3.564399266934488 4.413337653404278
Hf 5.00491690410748 8.914808926046724 10.38918280054426
Hf 5.672016300031633 9.684038453466549 7.699402255706896
Hf 7.717344397719287 5.683011585070938 10.195775665653443
Hf 5.353200023955386 6.721968710179492 8.101409653290874
Hf 3.5790895813495927 8.45975387961384 6.138751314749431
Hf 8.531508906795796 3.4644649064596336 8.029628678648013
Hf 5.43350643923704 1.7005442365024697 4.828859791590938
Hf 5.842770289444209 4.392535002684534 6.09209209543557
Hf 8.913379130223484 9.326932287085599 13.638039268183283
Hf 7.0442364738143235 10.448680283729662 11.85289051580702
Hf 7.749680340606144 11.36197253262257 9.126491771031827
Hf 4.166598270184556 6.218447919427848 3.961174601127934
Hf 7.750342312234107 8.487305767809815 9.410593671252245
Hf 9.75013148783623 10.258953766579994 11.056456258395777
Hf 6.329328994061758 7.914454405662543 5.198347075956587
Hf 8.59175206890158 12.474363660403577 6.433607208875037
Hf 8.273248502035942 6.306509344618747 7.273957018976194
Hf 6.086546392121228 3.9877168897250335 3.196415251666578
Hf 9.704416089521452 7.427418197793571 11.652249366681918
Hf 5.8963252828600545 10.925487913911114 5.059341249702957
Hf 8.117075097611032 2.7652883381201216 5.164387682077282
Hf 10.484113660953605 5.29865506152935 9.032605332529744
Hf 10.675726478214454 8.286027325548046 9.003469521849745
Hf 10.494324264743387 11.24275828272274 8.093171913699999
Hf 4.31688924406787 8.977546249175898 3.324711757324617
Hf 10.520914609342611 4.654562944309379 6.245682157167487
Hf 8.414490613922228 9.645833717803184 6.534333232507313
Hf 12.60270814699895 9.360680035759064 7.138524768277049
Hf 6.459204503537644 7.126452005585381 2.3805222220251614
Hf 8.493011191451572 11.444160921252543 3.8621815250528804
Hf 8.239212343599387 5.691971705690017 4.401708417704021
Hf 10.789095344548793 10.875007003208928 5.298697406099172
Hf 12.567812330559715 6.58449282177258 7.597127482380158
Hf 6.684866057248427 9.924405971413945 2.4783659603856014
Hf 10.525879626156028 7.6728823056502415 5.980123619480243
Hf 8.907697550679979 8.548710551387051 3.5411450067504178
