49
Energy = -425.63814251 eV
Hf 6.7242285400124855 3.7123805908960557 2.728050838493543
Hf 4.834191769901384 5.798612770926082 2.0525490346419577
Hf 5.759311455465425 2.257932771184602 5.12392497350605
Hf 3.7824178271499864 3.8437851471125786 4.082827373729587
Hf 3.259250538065928 6.735390442249328 4.237105019712303
Hf 9.349423108272152 4.803242373930253 3.270326675568503
Hf 2.152680077965457 4.971931253352701 6.223123467123676
Hf 7.717345017965148 6.74384374854739 2.1994817664349027
Hf 8.350037901364606 3.121190645918956 5.290577503472653
Hf 6.215390561244436 5.784353688529027 4.546296991977396
Hf 5.3670591629748605 8.438942655439519 3.1672999853147012
Hf 3.580289510685527 2.48498214924269 7.033584283196641
Hf 6.921579305975455 2.353418710981301 7.796778092867765
Hf 5.02074747971418 4.694766411418787 6.942457780121585
Hf 3.546696053884279 9.677029902404003 5.4604036757732475
Hf 3.5480456501275204 7.331938040489458 7.195848478513153
Hf 5.814709183228333 10.985958106189477 4.456058975919175
Hf 10.666813320251544 4.833881580863677 5.804662926522224
Hf 2.980695099594207 4.847377231464958 8.999455538945952
Hf 10.81357947990683 7.456930914498122 3.522587563239057
Hf 8.097873903040263 9.476293979243376 3.5054301913877506
Hf 7.870007356917632 5.386931574889585 7.573208492169596
Hf 9.713145853854282 3.0566110039644414 7.791299545546134
Hf 8.789479904287669 7.163895133884099 5.169887394623618
Hf 6.127092697236234 8.546090202534124 6.106705383377751
Hf 5.29701643986889 3.6742654666939996 9.957216003443039
Hf 13.26838471351914 8.790337218189677 4.550329842223661
Hf 11.843959143848398 7.448066754602107 6.582444340287239
Hf 10.799138959570321 9.866735798992178 5.266205604367267
Hf 5.427258442699558 6.629007386075652 9.608920225321837
Hf 2.4002543880412404 7.488250885856905 9.824319847899552
Hf 3.531149959575226 9.939585712085384 8.737989085600182
Hf 5.473558145915316 11.413506915706794 7.302643332391862
Hf 3.966137973219912 6.0694202613273855 11.872046855127381
Hf 8.156782311805431 10.827826912981932 6.168680933619693
Hf 6.712510680568085 5.2805827394873806 11.99269285670536
Hf 8.211174602602343 3.83707030379254 10.045628834180574
Hf 9.1558080226419 8.371346777318506 7.80812970909118
Hf 10.58266993296457 5.68216814292932 8.664524626029518
Hf 8.539803998940485 6.932934616996549 10.339408298092227
Hf 6.545729814868366 9.186284930198958 9.124029009094986
Hf 13.139169590370194 9.923290669229779 7.02822937903733
Hf 4.091329911602828 9.020360858886244 11.323979457129335
Hf 6.527451519612572 8.103614590525611 12.020947922793987
Hf 10.606767970108638 10.952278319688041 8.070688945133389
Hf 11.59552013250047 8.505687274310807 9.364216760272514
Hf 5.562993101780169 11.364212634482733 10.408907015879592
Hf 7.8981663712369 11.860490941527924 8.803730544493005
Hf 9.166811922274517 9.84064110668059 10.38669011939873
