45
Energy = -387.20498499 eV
Hf 9.91059249063393 4.407759825378801 9.127721036390035
Hf 8.956005037658382 2.243372856599468 7.571518011749633
Hf 11.998302234061248 6.016149792002178 7.5290384885570605
Hf 11.038084361992262 3.5317265101219784 6.436760634960856
Hf 10.723343544309792 6.8995524587814145 9.949856585042143
Hf 8.718351216359949 2.711108145252207 4.746206493122686
Hf 7.090408571515406 3.5956761832345343 9.465094813225388
Hf 6.339227074326405 2.4251219266695268 6.6091412389707305
Hf 8.193766757355185 5.886235406570464 11.140598114197573
Hf 8.948308025060658 8.975535625295542 9.886797568300453
Hf 8.373534132981908 4.882760184526219 6.324635155730107
Hf 11.542173867988978 9.23220841269323 8.4220254691822
Hf 10.936803926703966 5.831321454343976 4.7504726483007715
Hf 5.946871571316534 3.6254577509894146 3.94199125712406
Hf 9.79846404181623 11.581208592878252 8.636666576165611
Hf 11.98636251105334 8.415885493793498 5.726834618110718
Hf 5.212526369623742 5.679582574234381 10.684415770971167
Hf 8.161118588618367 5.67574594635334 3.348448814564884
Hf 4.236971951857263 3.7956497198847314 8.546176214945095
Hf 12.24196319884065 11.511710773636853 7.037840882095925
Hf 7.3684734645546355 6.440565813385104 8.609618163076643
Hf 5.163569427925583 5.329916439135436 6.164463898348113
Hf 3.710746210552352 2.927457404526172 5.835834702803539
Hf 6.212947612827916 8.492271379365027 10.859433016764141
Hf 9.921590648772424 10.373825667851255 6.076722789783093
Hf 5.281310927675162 6.3092747535761555 2.691753202140224
Hf 9.571150910870164 8.295257410478092 3.987375962731135
Hf 6.761586962083518 7.660298956580411 5.248508620564493
Hf 4.689754808873922 7.5140723024627 8.129624155791431
Hf 7.043136786687259 11.211010804994736 10.346556048461423
Hf 9.565505535320638 7.5448601348484505 7.050247487908958
Hf 2.5408879700131086 5.893137804214965 9.467708942479389
Hf 7.273079853083385 8.314226875217422 2.416801544552669
Hf 7.2628833708399085 9.875583371067727 7.6597688464482605
Hf 2.233681462590389 5.366344328115049 6.723668438735469
Hf 4.634341541799387 10.702586364216723 11.795690435824723
Hf 2.7171846430861266 7.364112810663681 2.3399049213306125
Hf 3.1523175801895564 4.894940261392142 3.928079123323291
Hf 7.248469107589574 10.366687014382737 4.552357842976267
Hf 4.650993926328614 10.34377864967712 9.051076085519107
Hf 4.744299495073082 9.844997062990899 6.051855123192453
Hf 3.253444730858827 7.641010519546992 5.075904656459952
Hf 3.3547529853613574 8.316805694912134 10.58000941458614
Hf 4.797955349977659 9.254406354057759 3.2290759821252446
Hf 2.0740297376308785 8.254905969482987 7.855633780417642
