43
Energy = -367.39921781 eV
Hf 3.9397440313720975 8.445306251648436 10.239493290818224
Hf 2.6756328039247914 9.471776408773998 8.028915413210765
Hf 3.379708473676938 6.687743510531668 7.97535544424053
Hf 3.7246613966501347 11.639601123685923 6.461989152152158
Hf 3.2818302291820785 8.199477347843809 5.428345039342632
Hf 3.579510259308852 3.3502714911334417 8.568523894531934
Hf 3.7735123681960863 5.074753227764778 5.503066905620229
Hf 4.669231854175696 5.459776151228685 10.20892213763174
Hf 6.595483375150061 9.135924329759945 11.025774924433412
Hf 4.738194912867897 11.03501752187685 9.299299834809121
Hf 5.822222747886119 12.627343284821398 4.737802703670845
Hf 6.373275468649978 7.465867138389006 8.78473787911172
Hf 4.86234329622125 10.054813853288008 3.903242807087567
Hf 6.477082374837414 12.330624286306257 7.485450301213302
Hf 4.911564237358545 6.314970218526451 3.1206161826788508
Hf 5.541234667851204 9.588837365216476 6.859829178965459
Hf 3.995228864181266 3.5707107862271608 3.145003864348896
Hf 6.009582202105864 6.952708702760582 5.627459231898184
Hf 4.577483550872537 2.309919188750974 5.862239306352842
Hf 5.140574115460136 0.9902253643436145 8.37252701180427
Hf 6.120826871739755 2.9516216594857205 10.066291726275708
Hf 5.944322084535289 4.573463002099578 7.597937894762052
Hf 8.04633790035621 9.994319631154807 8.467987369412262
Hf 7.19998686283253 11.198890517476851 2.729360638871074
Hf 6.409390540580657 4.090636329156331 4.4968835574199
Hf 9.094129059962906 7.882743731839321 10.198604796839504
Hf 7.585720738372527 5.538002482412495 10.786284491142794
Hf 7.190193356491269 8.488588905473794 3.398294776052418
Hf 8.751495082057975 8.112764407009267 6.297575374218519
Hf 8.742351300534299 5.791955835975066 7.98002898574944
Hf 7.397194935953455 2.051385395135673 6.973817267053119
Hf 7.975699166855788 10.7830989745525 5.411548928574076
Hf 10.565237994586068 10.260682209960843 6.663903017705429
Hf 8.594264819137186 6.239172520665996 3.8699882448775056
Hf 9.226674680056153 3.9749507538414077 5.642013379142426
Hf 9.06872925137145 3.087046274172166 9.305710004962448
Hf 11.209508534061465 7.563758689440097 8.159195682372685
Hf 10.49115250284604 5.411104080414395 10.201442438156294
Hf 10.035044754967949 9.100060599597539 3.9173117071273813
Hf 10.943079139222196 6.310211787043881 5.536384521125803
Hf 10.210119862966799 1.6839395828718948 7.076787257632338
Hf 12.460604573565872 8.652582414122515 5.587269808194956
Hf 11.296513630854598 4.238568935897207 7.714888352635696
