41
Energy = -355.24112475 eV
Hf 2.2267698132320715 6.019909895422444 8.98826969329572
Hf 2.948405081376864 8.56364491754671 9.81221288935116
Hf 3.3305488849228433 10.335848139742094 7.686160767357526
Hf 1.9200262408385094 8.030548425261093 6.90236701650798
Hf 4.642640292432863 6.147540175967335 10.487471206214153
Hf 6.107150035226185 8.325991096882552 11.646232010571058
Hf 2.621877968258433 5.2601261061488565 6.4354161557900875
Hf 6.973125160790285 5.620262777080369 12.057850777923402
Hf 5.73754919083665 11.671610451582042 6.626654192390841
Hf 5.663402351515878 9.875566638975219 9.212907520816193
Hf 4.5318637185705395 4.150389246148615 8.257650183316017
Hf 4.571464086638765 7.435879082610162 7.687205572736013
Hf 8.848559527337523 7.547819892126335 12.074778056300264
Hf 4.412254535776979 9.42378412591032 5.221460465172027
Hf 7.788018698055729 11.782918468596975 8.445445636891344
Hf 4.149960609114125 6.505197441904437 4.529660074696854
Hf 7.068311540394902 4.012480639448607 9.663842651638591
Hf 7.522932907410036 7.031599657154602 9.343416815636553
Hf 8.308070539641164 9.841229045052978 10.440211828497544
Hf 4.857829974399166 3.674302160292017 5.3319001302777655
Hf 7.3611959630282175 9.183938891538439 6.771203612225514
Hf 10.532499305056781 7.756758131416739 9.802504364579448
Hf 6.747533592155372 10.734084539215786 4.201333909763058
Hf 6.73462346774379 5.713914682820887 6.331417897646954
Hf 10.15307140652285 10.181295316636461 8.079138682968436
Hf 9.486058420875262 5.193231882759851 10.631499446013791
Hf 6.836182782701833 2.780963796248 7.183832025467248
Hf 6.539220920078185 7.940885072571402 3.8077233190318562
Hf 8.887097742582597 11.581329181879127 5.847058204998112
Hf 9.225411172515884 4.634604769944955 7.6828215628702194
Hf 6.298875131150331 5.066628017409962 3.3698713401046683
Hf 10.172092837690311 7.385567279173817 6.654432921781644
Hf 12.58163959638044 8.547643016320489 8.103878500139116
Hf 9.196475299477237 9.235907692326334 4.15837061240085
Hf 11.974515942635419 5.700255848245737 8.21957713921231
Hf 8.882218412694105 6.0982924811944805 4.0495448691508615
Hf 8.138753056631288 3.533927924469001 4.93612457451374
Hf 11.724214030383763 9.661408140987069 5.586379907881813
Hf 11.18078410608167 4.91659576993385 5.423672483354362
Hf 11.397039455079025 7.361151473297251 3.857957320010045
Hf 13.129841018338507 7.021079767260245 5.926503587956891
