41
Energy = -354.8548144 eV
Hf 5.782078079889365 2.400039563346128 10.644915544091031
Hf 8.353339437818267 3.596554048345265 10.39111079995957
Hf 6.044840672893366 4.801450201639717 12.04206799420025
Hf 7.077348420255918 2.191633173783159 7.941728098330636
Hf 7.9828308782326 6.584213982238409 11.074670933830722
Hf 3.6239430055897714 4.371467905117016 10.53443158796552
Hf 4.201463740155188 2.6147726869311714 8.375729677332911
Hf 6.048474276515078 4.910075981001233 9.143571497133305
Hf 9.74213503152945 5.912941101381521 8.922518833509397
Hf 7.259927127559566 9.308507017477604 10.990798652824907
Hf 9.66666450531673 3.266646092659295 7.775903519478097
Hf 4.961836399826527 7.330040885901294 10.863627681642871
Hf 6.540045638141417 7.905254223736615 8.542568078278638
Hf 9.784140391108567 8.947463224845983 9.523351725568743
Hf 5.425293561853139 3.226755762189607 5.7965259428034415
Hf 3.5303075352780433 5.257025720365814 7.600499112748925
Hf 8.278539593645261 3.0659235118515937 5.158161539047603
Hf 8.898586579974488 7.9924899467016335 6.926854974607571
Hf 3.4649777695044333 8.13011764030003 8.149254829899768
Hf 10.486385116150784 5.450433807216504 6.163115015650941
Hf 11.626129551100675 7.816785468339665 7.580341176051659
Hf 7.585371135457865 5.222115233684875 6.653408954039721
Hf 3.475377090365468 4.830363808739499 4.595001619541375
Hf 5.054226881426622 10.117398283297533 9.53647339658221
Hf 6.15703470285662 5.1064491826548055 3.6235214195504164
Hf 2.181913296321691 6.961719506489451 5.750966671174278
Hf 5.153791594880184 7.016162885599485 5.772063618685252
Hf 7.769381546358586 10.733719453495187 8.44713556424657
Hf 8.872332052660418 5.901985158128882 3.903345746674486
Hf 10.365316741073084 10.35614524141969 6.764951564031512
Hf 10.97615590928842 8.016988579805437 4.733440483127189
Hf 3.133338367691299 9.41947511866973 5.463855929489277
Hf 7.57673452790344 8.52381682605629 4.509830262316766
Hf 3.804531546489612 7.409162853089044 3.262519168500163
Hf 5.590150643793357 10.017746945800866 6.637296265961821
Hf 6.459054011051383 7.847010566491511 1.9812834466520475
Hf 9.395932732187102 8.210925256534633 2.212649554740751
Hf 7.655434249592827 11.411434099375525 5.241915720217506
Hf 5.2025184850711 10.033349320274386 3.585813191409277
Hf 9.939264784520743 10.470645907051578 3.8824493496527115
Hf 7.684155907606011 10.417234350435224 2.325476321662316
