50
Energy = -436.0223251 eV
Hf 11.860860655713314 4.4540726431874935 8.427867785776494
Hf 9.825013283619636 2.3683436461878222 8.418641600225033
Hf 11.169647462419888 4.381251587602711 5.777293717967707
Hf 8.909889595875438 2.0657892214525297 5.380092330260396
Hf 6.335568860737738 0.8161488054641914 4.769591888086602
Hf 12.600005972664372 6.917840682507732 6.928236367861612
Hf 6.989617486282409 1.4544630202087376 7.523827277013177
Hf 7.095866050803932 2.8056039425228136 2.8684538005770275
Hf 11.844407256916007 6.74168978434482 9.889372564283901
Hf 9.538773609635705 4.938265627764342 10.173391349636635
Hf 8.817887940311685 4.6419941808481315 4.105786950873595
Hf 10.47906807101024 6.997405117111883 4.474617404713552
Hf 8.457060299218703 4.387096624898954 7.2295497886773985
Hf 7.313555135190485 3.255167094164698 9.77352648263471
Hf 9.99057417081874 6.807831086041107 7.668432609135707
Hf 6.187546826611412 3.670615818963039 5.560654589151241
Hf 4.176192417626893 1.6570116402886512 6.366123377724082
Hf 4.398140903676757 2.5999883029227444 3.619346071220171
Hf 5.656281013247222 5.542438849272451 3.467793500142363
Hf 10.500601934932746 9.41978428738897 6.063518581325183
Hf 11.647506942267249 9.135025189296657 8.627387168461514
Hf 4.993941284725225 3.7850428171820165 8.298941712293987
Hf 8.177998246847016 6.864459458581723 2.507914811663321
Hf 9.2775877807462 8.15073811308778 10.284227213880438
Hf 6.9876335204236435 6.216954885398729 8.86403691190276
Hf 3.3428633615192496 4.39847159393007 5.66061094780612
Hf 4.9749874383173225 5.469021901781144 10.75315687325486
Hf 7.612070258615195 7.021663127181241 5.353022358947202
Hf 4.931246187188378 6.469398972823516 6.456401389464194
Hf 8.602157275600456 9.407298164427942 3.7226149960432315
Hf 6.2215199234300105 8.035634399742904 11.289291619297519
Hf 9.415360455223126 10.967874576780428 8.4994068100262
Hf 7.763090982018803 8.890369610113163 7.740604243055382
Hf 2.869017151175946 5.9216967514564125 8.925209108579148
Hf 5.845014523182427 8.559264320944843 2.7401371764763343
Hf 7.433634659971598 10.364488803266855 10.46300660325715
Hf 3.366905087536384 7.654885036736833 4.0313802008066695
Hf 4.794154945794828 8.379986411382383 8.577245636809627
Hf 8.172904175174338 11.447257701285377 5.840967922283158
Hf 3.363769309115854 7.812264656035333 11.103295775544973
Hf 5.621635188966879 9.54644826531244 5.621527822117834
Hf 1.9394866298894542 6.874105087640824 6.511641408633024
Hf 6.534674800247589 11.273057618201996 3.397606044684439
Hf 4.514195021106579 10.435563866768657 10.403007136705341
Hf 6.361043987121128 11.67960267921427 8.24987218349592
Hf 2.0129538009203025 8.853301109604724 8.786146255561524
Hf 2.386503259245069 9.409632806268094 5.966773618491506
Hf 3.7984382210293224 10.672685923239886 3.8268120336937326
Hf 5.4384183124611285 12.48191499252469 5.612671905225578
Hf 3.6344979402112974 11.203178281273841 7.565416508423929
