50
Energy = -435.99782097 eV
Hf 12.016723504379765 5.946803385165326 3.711432676100651
Hf 9.774209604041152 5.0900258548471164 2.196888669222099
Hf 10.543795313900972 3.7513575521838933 4.625542858291681
Hf 10.251171026162545 8.00217433716733 2.418613539743103
Hf 11.403568475556751 5.914034055512603 6.648262099479149
Hf 12.099257697542063 8.462754814587935 5.05308752667178
Hf 8.231909801393885 2.3167312392391093 8.900253139942345
Hf 11.234609450182381 8.599810937794938 7.991616178822109
Hf 11.282111658024101 10.981025800463653 6.377092337622329
Hf 9.339556219704152 6.4051364561463435 4.685952118761814
Hf 10.538619154901319 10.556269395899694 3.67316180293237
Hf 9.092107450189246 4.904729098263866 9.782379154770876
Hf 8.955741332056194 4.202985059008515 6.846811949669711
Hf 7.480855918445912 6.8124670955223445 2.2907139177922393
Hf 7.4547334457328835 4.255406829366692 4.21205198540929
Hf 5.383780766634628 1.9601231458466095 8.73298277682728
Hf 7.153251757616253 1.8306058813886177 6.187888479259604
Hf 6.651302660785195 3.5422071940052953 10.874182618432215
Hf 7.760058767616635 9.583095374935414 3.3135073077702617
Hf 9.28385386448719 9.065418866998986 5.8405752178291
Hf 8.620625051169826 7.054433811727164 7.8516447630838995
Hf 9.061004766338515 8.360411928231489 10.535742256172705
Hf 8.584438044011693 11.72533498878978 5.357303011611773
Hf 6.568560718034697 4.8925367123294246 8.329002315200487
Hf 9.02966513503395 10.692183063001067 8.255668264098865
Hf 4.3709511868246 1.0827617095842197 6.095557886444163
Hf 5.04784303684799 3.9676608595410614 6.112087632101367
Hf 5.288617116039329 2.263315729551487 3.760804801512202
Hf 6.603078659132015 9.021127663688134 9.095864907712134
Hf 5.0994077086940255 8.145470447360825 3.1472810388295276
Hf 7.783503687121491 11.058025402949047 10.814821368584306
Hf 6.855637128134949 6.402268718253289 10.830802005768396
Hf 6.437089218291578 9.984557505873207 6.145959977579396
Hf 6.225200466740662 6.889733455633501 5.504344979059079
Hf 4.825256599542425 5.113064434853735 3.375517875006038
Hf 6.380652338363265 11.905650041999072 8.482155508262966
Hf 6.634191873211255 8.905432235290215 12.077325121173386
Hf 4.0599055320557 4.699888637375508 9.647594794645551
Hf 2.7816652311816132 2.699643381028441 7.703203219697879
Hf 2.698472503760439 3.160157420677137 4.805664210372996
Hf 4.301283023509957 7.4644986686073524 7.988729328781414
Hf 4.794663264807964 10.616592019273675 10.70182110655657
Hf 2.5347728963359537 5.365517317649103 6.9340900363131555
Hf 3.758804169494962 9.437216045073535 5.2509632869352965
Hf 4.158856031102246 7.557602284392105 11.114198950327404
Hf 3.0480439619092974 6.890656616226697 4.660874777245688
Hf 3.9524648165805547 10.597583142949903 7.768248679734297
Hf 1.8818870431260277 6.592062525346628 9.427803253474096
Hf 1.7193661448689366 8.311100625982217 7.029912363913113
Hf 2.417868371703194 9.27826739532107 9.674201818495506
