50
Energy = -436.52380042 eV
Hf 2.0713119482336118 3.4382058589880358 6.794982194047335
Hf 3.474367085631313 4.388832860459735 4.3997024834464185
Hf 4.658145309157043 1.8805129384735089 6.231821644722242
Hf 3.179646274093636 7.475745249289918 3.4076366890202117
Hf 1.7609505829638445 9.132360544472062 5.342742216383982
Hf 5.161967559190239 5.631662728102282 2.313457016690109
Hf 2.3732224688752055 6.421446300259696 6.4270547618669305
Hf 6.412532455476773 3.6724369786313664 4.348308475165588
Hf 3.565493280258127 2.4563331868167926 8.929893379175777
Hf 7.668301901179421 1.4719637931391134 6.163224597795424
Hf 2.4595055136826187 5.066647643012619 9.160055804652021
Hf 3.9904164919732557 10.306512441779486 3.966444209642281
Hf 4.612363224237531 4.623188480789527 7.2949650882356725
Hf 6.029852228214364 8.425265324298351 2.9076232203036567
Hf 6.226800794774802 1.8757459754350343 8.731601802670289
Hf 2.1607388288405214 8.941696014875369 8.131751202931353
Hf 3.150127089927876 11.258190043911789 6.625082034304983
Hf 5.37564586372281 6.4174774488965305 5.009375179326349
Hf 4.483405884892097 8.761574629470266 6.420521949197541
Hf 7.925040163264084 6.069658271539376 2.906578181138641
Hf 9.318398773646882 3.6444880420920183 4.97976675439869
Hf 7.482651409613253 3.9524884685570707 7.186766210811793
Hf 4.405304679928777 7.13423063157525 8.823265618375851
Hf 8.098813647482842 6.147271678877501 5.719630109325808
Hf 5.483638078308745 4.504124354751017 10.221081491038621
Hf 7.345344577239331 6.360095176630986 8.883438215378387
Hf 8.945892164127471 8.761935190374453 2.5033399152489886
Hf 10.309196218567562 3.2255659413196063 7.815965140627696
Hf 4.6940871621380875 10.194112151997134 9.101307958713583
Hf 8.311470628604493 3.5135349994004854 10.088115073682843
Hf 7.75479819481493 11.161351753432447 3.498946893350675
Hf 7.3185710695877795 9.368977343384874 8.20836822605038
Hf 6.022928486310944 11.238460565248637 5.986075509577233
Hf 6.87258634023576 12.220790532177158 8.617013353633936
Hf 7.893580288621709 5.815352320234918 11.68462120242329
Hf 11.859106929061646 4.791885062459341 5.744983433008885
Hf 7.889973394595072 8.960203772539304 5.214981529264766
Hf 6.081836378788084 7.922772841629826 10.990345891833552
Hf 10.519616309166151 7.208493555045359 4.513695731709449
Hf 10.137267323569718 6.214203070005396 7.687932894358611
Hf 10.501270203737986 5.427824717697918 10.497347273431396
Hf 7.226370810839036 10.543080021932475 10.846702996720053
Hf 12.59194011637996 5.0739257564314055 8.459236501713297
Hf 9.508732987457474 11.05774924593009 9.286135899110837
Hf 10.444949838167528 10.173011114567073 4.431531787550175
Hf 8.813030610381894 11.61380490944381 6.407961462176912
Hf 9.144933567991206 8.216355781922173 10.360458343949121
Hf 12.63515966650923 7.3753380204434915 6.6466195609271725
Hf 10.290242199688961 9.134807137434365 7.216390020555939
Hf 11.931957011124167 7.787437034378355 9.347024358779482
