51
Energy = -445.36196438 eV
Hf 11.784086846458859 5.695804872523536 5.9112837075320925
Hf 12.527950584775695 8.542942832690544 6.582913843754996
Hf 12.011468146450254 6.562549264884104 8.782884382177777
Hf 10.697498199528589 9.422217165230558 8.800784548072462
Hf 9.994479001412037 10.485263061733823 3.727799757071096
Hf 10.1203882522362 7.485483123628388 10.759379890444906
Hf 11.550853101148904 7.937138519076976 3.816747717959669
Hf 10.608737686672477 10.95575057362087 6.364765028550681
Hf 10.251472346342284 4.7329981434075705 10.52551257936242
Hf 11.105317229498612 3.7892202734963814 8.051223522189984
Hf 9.868509186407882 8.027660433016859 5.980538211884911
Hf 9.77812398773671 5.646778908098844 3.7463327478502197
Hf 7.702648476301018 9.94874696559577 5.578497139762945
Hf 7.419465022766147 10.767087875988858 2.7234407967734757
Hf 8.463486027019837 11.401838628749386 8.401574391914863
Hf 8.224171946417789 9.641731872083279 10.802325743232908
Hf 7.674550037141848 8.427875456493629 8.445316533186022
Hf 8.078808026849067 12.565447015431728 4.921610028229298
Hf 7.537405954910282 6.159877210590641 10.76263074680631
Hf 8.175653475398477 3.32136924221035 8.72223659192077
Hf 8.659128069990464 8.027021551194737 3.0222527366001666
Hf 9.212154354845934 5.955105770879468 8.169013359655207
Hf 9.146283566460674 3.9601605726664713 5.8698025696112435
Hf 7.714089255502131 1.4467722133838852 6.463397910186244
Hf 7.224406071509335 2.5713677683060983 3.8761130808676225
Hf 6.651090610338798 5.461045162804317 3.1828582021943026
Hf 7.383817402000807 6.715119881871261 5.716868431232251
Hf 5.894222621598916 5.546704315394321 8.558707157085134
Hf 5.871259360093428 10.70038220069453 9.35296625632977
Hf 5.636821972817192 8.478160109058482 3.6912642700709206
Hf 6.096669602024417 3.839963541294534 6.202371568963438
Hf 5.333761180238429 11.25355822983312 4.515168183750686
Hf 5.3659716017021255 1.8911997295884921 8.258857130567339
Hf 4.60352216069469 6.026453708041501 5.029772370331296
Hf 6.011131589742864 12.134290332368549 6.970597614357565
Hf 5.213654889497396 9.058449536584876 6.769427734720402
Hf 6.0456654309968325 3.5030363687233503 10.64800856585334
Hf 5.070511375346608 1.3247070172638125 5.392036635833937
Hf 4.957951485296785 8.133851814228276 9.737236151916234
Hf 3.593125653591779 6.3764593552981275 2.691628406173994
Hf 4.568367375866978 5.724790586365243 11.197998363082306
Hf 4.357980638917953 3.4912244373088996 3.6064213779733807
Hf 3.353217699929207 6.550463552989422 7.381624335604551
Hf 3.3592700855710924 3.9116931650098055 9.369998929417143
Hf 2.797637349523751 8.391368216778638 5.058045827564224
Hf 3.1472803949433783 3.289769134814203 6.414763599729473
Hf 2.7383722495935907 9.326673867428973 8.144244417997319
Hf 1.6402582075950365 5.647733302923082 5.056664455704463
Hf 2.049682675710304 6.782771484355731 9.773496612841567
Hf 1.0626479924595447 4.819069435287556 7.814197323236557
Hf 0.7442413222969041 7.526164541506037 7.123757577209267
