52
Energy = -453.48174535 eV
Hf 12.805360141732868 9.812433102970413 5.799475625655471
Hf 12.105825332717947 5.314106249525804 9.722210072869554
Hf 11.301962056123523 7.4232796312863965 5.030123335926562
Hf 10.932959124712676 12.224026197013458 5.129780043455372
Hf 11.550446596670177 8.188352437593622 8.053819571170713
Hf 11.44609452071258 9.842149513359582 3.375808660586884
Hf 11.17525794261574 5.132210514941428 6.8875854351339
Hf 10.955912140820226 2.7783978562187923 8.301619819109222
Hf 10.496309290995157 5.345383773763602 12.213285826293104
Hf 11.788688805098424 11.36227610549026 7.790210693187484
Hf 10.19581254579646 7.710505359460047 10.645050323725215
Hf 10.386687556368832 10.703253099789018 10.173710019125906
Hf 9.956964528377911 9.835087210195773 6.028343650136045
Hf 10.934404241174395 2.8831099977275625 11.024113989085821
Hf 8.546588363515795 3.551706099636917 6.880872149807235
Hf 9.007229635731262 10.976607971370964 3.232721966891087
Hf 9.076742627205915 6.954623601619616 7.08966235486162
Hf 8.815328663238066 8.121226781641226 3.443397378168364
Hf 7.795107737417213 6.357930342612828 12.02520754324431
Hf 8.633397549206974 5.5084244884162965 4.529429050869531
Hf 7.526917847722377 12.000246786612268 5.2844337140767355
Hf 8.30114569472001 3.4982577521880978 11.997844446299665
Hf 9.057592648851198 12.256702764407285 7.828298919518722
Hf 9.304678826040968 4.935347155943598 9.532704032788127
Hf 8.40407011701772 9.36396500517773 8.790476301322412
Hf 8.504832172464786 2.058312169492719 9.495197984086966
Hf 6.46640121237566 5.577677979558736 7.01979989094333
Hf 8.03798165827078 9.436140834707086 11.77399029498863
Hf 7.716764748702985 11.8333423728183 10.266585042307671
Hf 6.117016823591188 11.19458975485365 7.872435305960222
Hf 6.336378512826299 7.2390302353818115 9.73000652946205
Hf 6.474072640755232 4.157360232156157 9.704540565255376
Hf 5.784764210426912 6.986668182041424 4.76856700610842
Hf 7.200503968863605 9.15048960098036 6.01968289018651
Hf 5.504110650014536 8.135669440018006 12.449487231942001
Hf 4.925739842752217 5.540286048075755 11.618642267754497
Hf 6.423842180336251 9.622411205708765 3.1907556571687974
Hf 6.224762583369551 3.9945074317092404 4.332299714051603
Hf 4.010111642899341 5.5097305846554265 8.604653138720684
Hf 4.5452064821999985 8.247081250909257 7.392576331388242
Hf 4.728211174150768 10.626978911082977 5.390370519950108
Hf 5.323777311357157 10.196398279778387 10.558024868310579
Hf 5.685348223830474 2.8791601326726384 7.287072167539934
Hf 3.1100893563490084 10.424003819819957 8.445970757619229
Hf 6.679260885762809 6.3151794159701256 2.2908874384784683
Hf 3.486952445514195 7.938066861220575 10.325727321291515
Hf 3.644876952913562 8.518489541528256 3.5446385684569233
Hf 3.938137422198937 5.546574234448495 3.209279699666941
Hf 2.4389197823122357 6.705949052084467 5.4312051767059675
Hf 3.8472592858416057 4.263898100682643 5.73194293153405
Hf 2.1770500080869475 9.420800286317773 5.891213596911257
Hf 1.7755265872428185 7.7430907477954145 8.083469620730117
