55
Energy = -477.86606476 eV
Hf 8.050276184867556 8.395451717541393 7.9108391352949985
Hf 2.6674259672896157 3.479913978652745 6.3696739387669155
Hf 7.411289989350636 3.07600453563215 10.472400491552404
Hf 3.0561965013423706 7.956492251719352 8.928853814016312
Hf 7.579956620482098 6.555235617196724 5.069513654027174
Hf 8.131333118409 6.547375528878253 10.328381179836303
Hf 7.9928676326603725 11.272760676220386 7.767588963242408
Hf 7.699059445538117 9.82333613273605 5.317517347475924
Hf 10.079070763753121 10.869724743781672 9.702049221840246
Hf 8.028200660694699 4.698072979976056 7.904460130009502
Hf 7.654500961086296 3.3008592236031626 5.290377350970717
Hf 5.4313046052301335 7.953585134473302 10.525317568699895
Hf 3.025544503086009 5.186998760445058 8.904318405343117
Hf 10.138531497025761 8.018142926851581 4.615194485655625
Hf 3.0773988176551086 6.558581550621525 11.532276408083403
Hf 7.910795235078395 1.824605596083016 7.731807847488065
Hf 10.108779066544525 5.067705823711071 4.591523208370399
Hf 10.757438061419876 4.979775013586447 9.663133292968388
Hf 5.530996494357675 6.562204357209882 7.746342120870229
Hf 2.1626005090334233 8.116962256218349 3.7918921643377375
Hf 9.98309607760597 2.2281209044018166 9.66370844517256
Hf 5.410473693363465 9.613936046649606 7.961075092836844
Hf 2.1377930485047645 5.0809121771740635 3.7701244351550467
Hf 7.500433097684652 10.002879434493797 10.503795498084822
Hf 5.3723520944841905 3.5139397735007902 7.927898753452519
Hf 5.094676411365568 6.582168547687426 2.7029295916636196
Hf 10.733536709324603 8.057762185460483 9.671708039597249
Hf 10.168911475639039 6.532489568098131 7.096546807665938
Hf 9.653215090892829 6.570776804549335 2.381282885147916
Hf 2.9182878288260583 6.605677934434845 1.0162023792182528
Hf 10.415279916274454 9.712520496196413 7.104471747739809
Hf 5.894478360259628 10.860793135372768 3.1148697692371763
Hf 3.7467158462925254 9.289092819601347 1.7781126092531836
Hf 10.384776531869054 3.3655078825173335 7.097665879619117
Hf 3.172451166597412 10.819269619882762 3.9268393844219798
Hf 3.7087789554803567 3.903365321569965 1.7353464457544625
Hf 5.014488113535436 8.595656243015567 5.00295439746506
Hf 5.8426904731743035 2.311526511159442 3.0659138742205743
Hf 5.493380218727919 8.0561732347469 0.1300923660435714
Hf 5.137956527340134 11.422665432377567 5.8196253030183795
Hf 3.1219389329035647 2.3733151972685635 3.8782327846772606
Hf 5.481561877231101 5.134119574830817 0.11205944345263412
Hf 4.986492222712694 4.558992787552093 4.982044184976796
Hf 7.4339446205715705 8.47479458733442 2.584949374531752
Hf 7.7620144325361204 6.585136463641807 0.4385204810025761
Hf 5.077964108936286 1.7235782461104825 5.764611947719509
Hf 7.430595908404243 4.677669561083096 2.5712408798302184
Hf 10.025858327035426 6.521751635419142 12.433468445885795
Hf 2.942803701902551 6.583239222205176 6.269005122853728
Hf 5.396693012906318 5.155546231744415 10.501898237555901
Hf 9.80557644239311 9.358031432506033 12.012565435982113
Hf 2.718201645917174 9.695170529412687 6.410201965426419
Hf 7.461307735683202 8.00523770597392 12.737182161361305
Hf 9.714405114810065 3.716011151753094 11.986330722300961
Hf 7.408618310886023 5.113697462111999 12.728379045800866
