52
Energy = -454.76012831 eV
Hf 10.902866645500225 5.860216165555997 4.000619721444589
Hf 10.46416417742853 8.729964034862777 4.946711402930985
Hf 12.445127684436336 7.09118690565187 6.183208339324126
Hf 9.039667968033527 7.646928489823483 2.4561186494451435
Hf 9.498820077438987 10.880512939533848 6.4040573112685495
Hf 8.373230429464405 4.736249844003545 2.5704109156322716
Hf 7.647380414979792 9.93956482134147 4.16126630608932
Hf 11.39834037272759 9.240001390746652 7.801092242118635
Hf 11.557050436301491 4.503931938935173 6.456261971272211
Hf 6.944745420718426 6.5370337327088635 0.7965212507697925
Hf 6.8249647467025865 9.209833154015543 1.3089093827023948
Hf 9.899051607595297 6.746987520467076 7.7562118313659445
Hf 12.26081444015554 6.036547045284748 8.873215925600919
Hf 8.866979984972584 3.332975961213036 5.630513331539142
Hf 7.603300281329182 8.603636828951151 6.7373517277397355
Hf 10.378314928405713 8.154925830749354 10.537846857632825
Hf 6.000875659886087 7.449495416858954 3.485577930747973
Hf 6.9052193633054575 2.4424995815174793 3.488592049086952
Hf 8.804344077993335 10.133452195286239 9.120805427195549
Hf 6.903844289544891 11.514484268712442 7.425312986563311
Hf 8.397321809462316 6.314592836736746 5.103846913390253
Hf 4.868609687898783 10.150207294151521 2.8545021413604452
Hf 5.322958239380142 4.587932338405146 2.1430896692352976
Hf 4.243286986024287 7.59647820323455 1.4011795669055656
Hf 10.223087092230598 3.63497416407492 8.72271549710792
Hf 10.080832567280748 5.505623936458447 10.766117378081702
Hf 4.162578701491495 2.784539184900152 4.117263269901468
Hf 7.947648950349342 2.01472430987436 8.339934752344169
Hf 4.881585387404489 10.128846921870664 5.8267480724249765
Hf 7.5543737724253885 4.779993616112003 7.771892841058457
Hf 6.041726730939415 1.8868286571319448 6.203424484030587
Hf 8.098695620050458 9.415840194791055 11.845705169431646
Hf 4.167649952334009 11.682374087391686 8.272168719607732
Hf 7.611590103771653 7.274101581834173 9.821059372517276
Hf 6.0357535488170875 4.617235232692318 5.199017416581352
Hf 5.437980256828786 9.152223551066417 8.671015800339406
Hf 3.0280931574633505 8.460030105441504 4.124786603891604
Hf 7.6731110964814535 4.051577460969327 10.581740704460355
Hf 6.157228532390435 11.20183588569307 10.518675857243448
Hf 3.4031886107899454 5.643833259136411 4.148659549285366
Hf 4.773528415757594 7.2699072823289415 6.089746663555463
Hf 7.813658097756701 6.5789175283422985 12.431228417780481
Hf 5.33976395284717 3.078028859504687 9.017661376845876
Hf 4.921187953677315 6.046010906963859 8.56399344807605
Hf 3.6084191969400767 3.9311993218996615 6.795660977574715
Hf 2.628586570776693 9.273353034782865 7.828238825249709
Hf 5.408818636535276 8.422037276958413 11.771211469886136
Hf 3.449271641211041 10.224207326889786 10.51069941441978
Hf 5.148748242118767 5.458934397383967 11.351812298898519
Hf 2.2293724426609773 6.384959797369824 7.433713378549018
Hf 2.9361692175194527 7.428898151830976 10.22667374010387
Hf 2.8312936003277116 4.577236970482625 9.602251383681164
