52
Energy = -453.49085309 eV
Hf 8.893775705215273 6.808842933987733 12.315899096384662
Hf 7.837134568786112 7.813484902863304 2.707268302252678
Hf 2.605090837430046 6.869091323827329 9.42165666599566
Hf 2.1382827833547737 10.372719374528799 6.113460626645288
Hf 12.125596204244324 7.8793836856083646 8.79347954922245
Hf 4.971339721272125 4.801962231569906 8.507756159864778
Hf 5.95129229069069 5.419370414515671 2.83783620910077
Hf 1.359921501982255 4.744252460524062 4.576029757967754
Hf 1.3504004197332444 7.66349869457434 4.927330381197834
Hf 9.013183279970926 1.8929429983414632 8.84713020865865
Hf 6.5972068702751425 7.154130401757619 7.347482153916538
Hf 9.33796593451301 9.152411938882766 7.818574387855104
Hf 8.701017270775319 11.18468528790905 9.887979210078099
Hf 3.7249904483153644 3.6606616918023436 3.6666678190468556
Hf 12.223167738850895 9.049634614334703 6.408364893665522
Hf 6.078429603867262 10.268869040303455 3.0270898265019555
Hf 10.567514228257613 8.153804081229195 4.3680828773134985
Hf 7.445036376593975 9.031598771944385 11.081941403426889
Hf 5.125592905648547 8.030364238715746 1.5993501029905897
Hf 6.715113676216928 2.9508814749910997 10.318426000381567
Hf 11.076708570772958 4.332531056864089 8.656778788827769
Hf 8.426374054788615 11.806476393102757 7.157636451787549
Hf 6.365315721744672 10.006890412920155 8.320693678991299
Hf 7.689691930588499 9.423553361780362 5.429944933460531
Hf 10.394822147205156 10.901196356027288 5.511439939025352
Hf 3.267042514584708 9.566568578633337 3.489997148652201
Hf 6.517608089795477 5.587672850429168 11.143144107948396
Hf 3.0399485911871267 6.408631763359034 2.773071941566468
Hf 11.224228822469847 11.023495810341451 8.423815448948396
Hf 11.213003455476816 6.205980294454796 10.829053405343647
Hf 5.405886978026929 7.836777536419135 4.404615737694692
Hf 3.004238987143954 9.835509181939127 9.149353459780817
Hf 5.033163573515528 10.867466607840628 5.593108763633615
Hf 6.113201540621182 2.0010308203648726 7.896106616674984
Hf 7.867425211064678 6.189417074327653 5.079975471863936
Hf 1.1715698202045892 5.570550106883807 7.218756065174843
Hf 5.9369252027024535 3.8341987242580924 5.623047526835163
Hf 9.242796753521992 4.12172484192475 10.93981310340559
Hf 10.444152580625772 3.6051840297694753 5.96535267395094
Hf 8.01347697885031 4.251201354612792 7.830205144571806
Hf 3.7085526591579727 5.828855989174694 5.724704942054936
Hf 10.124759589876716 6.495265000483781 6.880189288280821
Hf 3.9679471517359692 8.392714499114863 7.109548069544911
Hf 12.465533571088447 6.18681111559268 5.741511433574299
Hf 8.132743854625893 1.7077149030901202 6.0753946429921335
Hf 10.384664136668917 5.520309920026446 3.692095358152865
Hf 3.0702400003799637 3.248069822061147 6.490024096846618
Hf 5.163763262178414 7.776208022798348 9.793277420182179
Hf 1.020587311567672 8.380119035738328 7.698685355584369
Hf 10.398015088168123 9.03397960312958 10.897185796915712
Hf 8.654778325826578 6.780764337445704 9.517577730388096
Hf 8.354330121962079 3.539791210640437 4.012341390142462
