9
Energy = -69.19504505 eV
Hf 8.777155968993972 7.121941156015015 4.639996729189403
Hf 6.492036239045801 8.42847500044842 5.584214311285655
Hf 8.346861119306862 7.500386887147244 7.528160342675804
Hf 7.549886274881551 5.1317053094904885 6.174380170565002
Hf 7.568327225189304 7.741546753441802 10.26636435030084
Hf 6.148174145628845 6.168195613171195 4.0253014567254075
Hf 5.743607922338028 8.3316357213714 8.340361756772328
Hf 4.965716026088897 6.238448289821842 6.535416425793839
Hf 6.602965108267161 5.652905451128844 8.820323637109853
