14
Energy = -1.22104004 eV
Hg 1.4970988160532028 4.991186619706457 2.4933063955331303
Hg 7.941309008388775 4.0091280227418284 4.773993012385025
Hg 5.256398634847396 1.7432220615025018 5.392634601679763
Hg 7.144820574144582 3.9727378935261437 1.4241617597239264
Hg 3.8719384274936357 3.463504355474463 7.988800370319158
Hg 3.110299655495244 8.035821524251409 4.987320232068396
Hg 6.45336532794298 6.280849801865487 7.020163557496526
Hg 7.744253489847729 0.9456723209704556 3.2011000491458996
Hg 6.461357861254572 7.0096259515429065 3.4719911906847627
Hg 4.099705971550032 4.96580881548051 4.928199194417604
Hg 2.9555852077138964 8.03582152425141 3.746586776082294
Hg 1.6223182189649743 8.02118813007782 0.5840138278930145
Hg 1.7459601895996706 2.4475027686451067 4.98430945608431
Hg 0.872589078877936 5.756813302499973 5.780635578312349
