10
Energy = -0.69900835 eV
Hg 10.833195883008376 9.607087140813785 11.182742262459488
Hg 9.620794492008786 6.995903491483673 13.037481219219625
Hg 7.48872323209316 9.430523877687099 11.897000500302882
Hg 10.961951012016987 6.411840548985792 9.94302600685266
Hg 9.569068018746503 10.87403056559539 5.93910134635446
Hg 7.023825846622489 9.568056223633265 4.053653631471665
Hg 6.3632636079328835 10.869503206074032 7.1557868185317925
Hg 8.235585671904719 5.9215223112486655 7.940614027068245
Hg 9.523455189315056 7.523032070589337 5.210290068385395
Hg 5.9516209442161525 8.116749075028158 9.1380386513012
