13
Energy = -1.04390227 eV
Hg 7.004352391590938 5.932774529730757 11.0366123732588
Hg 5.361030195819339 10.76085807585285 12.141672676058043
Hg 9.700995361941617 7.793978624175571 12.302037547444776
Hg 4.838441619479658 8.315938146979882 9.96952131422527
Hg 8.64393185159457 11.028445334308486 11.939151291425635
Hg 9.14799964254331 5.410064722488249 8.359917229377409
Hg 11.274848356995966 8.072009419118695 8.901856019187278
Hg 6.178956115236775 9.658166156839723 7.256705923639926
Hg 7.257893441261466 6.751668928562654 5.960326688577901
Hg 9.13463073403666 10.757075176008573 8.403190034109254
Hg 12.599615187479172 8.07305049077006 5.68345093252883
Hg 9.699341846069196 7.54548834526306 3.7903712249399506
Hg 10.405050795068444 10.737645070431583 4.9272919254879275
