15
Energy = -1.49632575 eV
Hg 6.457513160680507 3.836070437987569 9.605694419894123
Hg 8.839654973169958 4.985985799895381 7.286655264639584
Hg 8.62594088260774 6.445245206793739 10.674289303902487
Hg 5.692757183904373 7.276213411852085 9.053823316628497
Hg 5.494640971763322 4.909999155844728 6.198850419482915
Hg 7.534949175821739 9.743179129064682 10.909924911079674
Hg 8.875481797502614 12.065105086644635 8.337976412885068
Hg 8.056655341252288 3.9274593524226122 3.8873251669998847
Hg 5.709477892155612 10.760603809683918 8.057316831813752
Hg 8.813623842729719 8.581592851790328 7.814858391864995
Hg 7.778408449782932 10.816324730351624 5.183744844197248
Hg 7.264099028497361 1.974740279236343 6.725686440652081
Hg 8.19287255776898 7.36630260295289 4.647202416180334
Hg 4.950890244223601 8.425352793724842 5.675604672210946
Hg 5.430888902178287 6.209454105240221 2.875790002391735
