11
Energy = -0.93379989 eV
Hg 4.390374419961034 2.1074434607820614 3.9616469521589153
Hg 7.81436673247806 2.6783721319951654 2.3391544311993533
Hg 7.81436673247806 2.7129221724470005 4.225741815323583
Hg 6.115201249472129 4.079743426375553 1.4947094418351463
Hg 4.435285600860143 0.7067375908174234 7.059218586644068
Hg 1.3956314690230809 3.5245977371495423 5.135719187127606
Hg 2.482792198225016 4.3264023386419135 1.931072759612113
Hg 6.3523282234938 5.733086949531831 4.469705291571113
Hg 4.090000629223036 4.222509909184726 6.972554019905603
Hg 4.4250705774300805 7.079392141992804 1.5023347369601234
Hg 3.003852949063507 6.618030869340385 4.707272545607608
