14
Energy = -1.376374 eV
Hg 5.50111180311512 7.864686384887681 5.50111180311512
Hg 3.137537221342558 5.50111180311512 5.50111180311512
Hg 3.6998054250839387 7.302418181146307 8.39987150116803
Hg 3.6998054250839387 3.6998054250839387 8.39987150116803
Hg 3.6998054250839387 7.302418181146307 2.6023521050622134
Hg 5.50111180311512 3.137537221342558 5.50111180311512
Hg 7.864686384887681 5.50111180311512 5.50111180311512
Hg 7.302418181146307 3.6998054250839387 8.39987150116803
Hg 7.302418181146307 3.6998054250839387 2.6023521050622134
Hg 3.6998054250839387 3.6998054250839387 2.6023521050622134
Hg 7.302418181146307 7.302418181146307 2.6023521050622134
Hg 7.302418181146307 7.302418181146307 8.39987150116803
Hg 5.50111180311512 5.50111180311512 10.831734000000003
Hg 5.50111180311512 5.50111180311512 0.17048960623024167
