20
Energy = -2.22340002 Dir = /p/work1/plile1/GA_structures/Hg/20/all_candidates/1024/
Hg 7.412705780864229 4.196458810657905 0.639630589073627
Hg 4.198723084428281 5.751653767155734 1.5162980473594732
Hg 1.4662903002639582 4.22071988289666 3.107124203532564
Hg 5.529614912821546 8.753356696990915 3.1265064923504506
Hg 1.541063487626175 7.88235682838814 2.861540184107658
Hg 9.808714873896289 3.609291139102279 3.621903577485472
Hg 6.561611386059696 2.297541852167732 3.3591850060749704
Hg 2.5642840224804813 0.7056604041765847 3.3904762477382526
Hg 7.279692605143614 5.802579862273956 3.6530164791817987
Hg 3.923439836370125 6.347322758260341 4.966476331944632
Hg 3.963681471677267 3.103409410979117 5.25435286986684
Hg 3.349664838407173 9.575645481025882 5.822011323181979
Hg 6.595963815727963 7.897200548294017 6.382451328184424
Hg 9.657134087262454 5.816257178675264 6.368676227716082
Hg 7.115371765082276 3.6488832791929777 6.575565103918391
Hg 0.9631454388203021 6.03403713895061 6.600760236804051
Hg 1.4553429684676262 2.310950423354523 7.167403988822711
Hg 4.967617253121557 1.1767569800039692 7.740458416892595
Hg 3.9235336861507175 4.677509067327738 8.444390690551174
Hg 7.376288016192884 5.8462921209901495 9.055656286078015
