25
Energy = -2.7559678 Dir = /p/work1/plile1/GA_structures/Hg/25/all_candidates/1309/
Hg 8.332982309239368 0.7761039451679471 0.28847551254447723
Hg 5.105690515532442 1.4010887430678158 1.621160633868087
Hg 8.043841474069358 3.779326524393898 1.8907333864865483
Hg 2.1888924840197688 3.173465479714573 2.1121813273014904
Hg 2.44364893694105 6.46135088655671 2.1798319370763375
Hg 1.6484441584567715 9.6774131701491 3.0597543790629573
Hg 7.773255554932918 6.40098073781415 4.354524249510523
Hg 5.308216030746096 4.000058905317673 4.0654760265212575
Hg 4.8987098143738494 8.321085677614947 3.4960968482914185
Hg 6.974844890445872 0.5886433532414109 4.353026398153125
Hg 8.045998221387624 9.688940606976365 4.0535433802312815
Hg 11.033698560963177 6.970459422282358 4.322323778819261
Hg 1.8728992837271066 3.012039147416636 5.392672889683396
Hg 3.2151750151270195 6.185116254523812 5.641063801506058
Hg 8.859501334129774 3.2955876261994006 5.138113443567852
Hg 0.8162588456354741 11.277930486596217 6.138322678884109
Hg 3.293815801051313 0.015174455246073311 6.186720303969721
Hg 5.9386530422087125 8.420671588314352 6.713222035705648
Hg 10.710210744407856 5.66648628636282 6.722314542209608
Hg 4.605783124407512 3.241279363648458 7.331233849830969
Hg 2.680137098156666 8.836208487721384 7.541656293600313
Hg 7.434681158926634 5.30548069318897 7.7905887855838
Hg 7.536164168182616 1.5781806352876886 7.800633134779285
Hg 4.098739409348872 6.195688380268062 9.127202235767868
Hg 6.159762044088632 3.4884871320856976 10.436376136200979
