3
Energy = -0.13655455 eV
Hg 6.708445622166831 8.21235622627575 8.246337916438861
Hg 7.349414597971385 7.404991746696487 4.931306912962603
Hg 6.444246947624884 4.8513177707377935 7.218185520654923
