4
Energy = -0.1909014 eV
Hg 9.28699973733213 5.203820866715984 4.979875638155225
Hg 6.320715454654578 7.3479901560993195 4.702237831393879
Hg 4.963160012948518 6.279985381618543 7.938645236083131
Hg 6.871706045872928 8.677089180885071 9.807710669272888
