5
Energy = -0.27877403 eV
Hg 3.4914707412635337 0.6706729374145943 4.0172214562391595
Hg 2.287646485151189 5.948902332778975 3.490935996827705
Hg 4.335493929726171 5.825661324045468 6.299134236092511
Hg 5.8798028947599175 2.9849961473914246 5.068392362751522
Hg 5.823935132733215 5.79527892334716 3.1185833673671257
