6
Energy = -0.42505674 eV
Hg 4.940067415511383 6.494682036817331 9.590367856764479
Hg 7.554750613358293 4.947359035902784 7.789794023156192
Hg 6.5169714619296215 8.038610578110028 6.469815557150223
Hg 9.631124724791519 6.645438005255002 5.433750930539138
Hg 9.597978126853507 9.819378676863781 7.007328279266469
Hg 7.048538319472571 9.357369079797571 9.608550861317767
