7
Energy = -0.47124747 eV
Hg 5.830011857940078 3.643119014510394 7.934084390125581
Hg 6.835954265266501 6.838256619992723 3.3663338008828014
Hg 5.74369851570125 1.7777253940460076 2.8479425294488894
Hg 3.395749905001178 2.708807579916226 5.726791763389989
Hg 3.4246827822065993 7.899148405239564 4.426532983414393
Hg 1.2396068532460474 2.8131535328873754 3.070532354820897
Hg 3.9810293621603394 4.753733138247552 3.0875961308473827
