8
Energy = -0.60612234 eV
Hg 6.950940630356599 4.414815839366 3.397655922849299
Hg 5.106337960552302 2.419262280457526 1.6199844341838285
Hg 2.601086929942154 4.573413359017022 5.161810273188458
Hg 5.515585618501915 4.575974851943455 6.927971427313874
Hg 2.613137873744692 4.8970824371053885 1.7735325464965581
Hg 5.716794930556135 5.327432613579772 3.569129391077873
Hg 6.950940630356599 2.279135228935473 4.639169401256738
Hg 1.8657026117279885 1.8567415548181454 3.152307630826277
