9
Energy = -0.50300022 eV
Hg 10.931916117811305 9.212897847582706 5.803499435140413
Hg 14.40501857129273 9.615676345950316 5.963528623738865
Hg 8.378675628066599 6.934436092660005 7.028624246015158
Hg 5.369328844005252 6.944414600339117 8.885469750793732
Hg 4.7805318106633665 10.387274144508309 8.612493229590296
Hg 10.044909352482783 10.51206824652474 9.036470102854105
Hg 10.087225183527199 7.158930807226274 10.083645604790645
Hg 7.223660945859716 10.823433175150447 11.084355776621624
Hg 7.231815338074164 7.266553723396036 12.435578751460156
