11
Energy = -20.91209757 eV
In 5.514451908206985 7.84333777841582 6.559245070520808
In 4.363446394800599 7.058367493965556 9.223451525557252
In 7.353526443895021 7.3319453980261144 9.787902121896096
In 7.689534570652381 9.718745360937394 7.656653171051945
In 7.49739115617925 5.648599008604939 6.443441175923977
In 9.357642225880607 7.442292270681116 4.7496082942266185
In 10.555393316236337 10.23249573825465 8.598461866244726
In 7.265428174927596 9.584181057336865 4.675220129552008
In 6.2040933582820985 4.503323410527823 8.927139553474348
In 9.741763493264372 7.386705546151143 7.7080488989879745
In 9.579085675991767 8.728125629778809 11.064578709920676
