25
Energy = -55.22231121 Dir = /p/work1/plile1/GA_structures/In/25/all_candidates/222/
In 5.572618416762498 6.16354526931505 1.4808746174944842
In 5.696822343487729 2.9380723419290433 1.534409991398863
In 2.626140207393582 5.456230587599971 1.8392965885091077
In 8.42217175043546 5.545237971984782 2.6059476746301247
In 6.745382133789824 7.701988000808481 4.14233289901591
In 0.908877695424886 7.779870862669258 3.2304534854647833
In 3.970320540936801 8.044149049866336 3.4960278880301976
In 5.398728622399507 4.7152851756187655 4.304267657025622
In 5.356645021695715 1.3361582194236725 5.122835683674162
In 7.82705087721293 2.7324602915772025 3.8395442412668723
In 3.0886806618317144 2.7289665697678425 3.4653937001179624
In 9.837491986778874 7.577412639697202 4.714031970115374
In 2.323504888317297 5.529764876945624 4.950788274106634
In 1.7534410262653417 8.34986950746851 6.20212367489794
In 4.799159495453136 9.43747812871146 6.216311086150071
In 4.615521203194902 1.1257379808218313 8.24299258005884
In 8.95391605288108 1.8524730081820513 6.5813500147387325
In 8.27627510297711 5.212701408628193 5.926290696388249
In 7.75043198327074 8.421680645188959 6.998009469592022
In 4.953398041562816 6.389888436189321 6.775536966490202
In 3.1394705043155584 3.3292354334170624 6.6333355842972495
In 6.4333297839988735 3.4139337813239488 7.293437278397758
In 2.1385008525814553 6.043383965011771 8.20955477336916
In 7.195246977811229 5.996658780884557 8.930861842971181
In 4.429601488814061 4.390544726562212 9.476719021391245
