20
Energy = -43.32803736 Dir = /p/work1/plile1/GA_structures/In/20/all_candidates/55/
In 3.0211717886020804 4.825395219871685 0.8286980473699628
In 1.384504880869816 6.814627005953106 2.654670370063979
In 7.419922504734985 7.513728590053226 3.8945503479523436
In 4.367665938033324 7.119819388105963 3.115134434009748
In 5.8126711907696205 4.741090369726223 1.987577406493916
In 2.6228849654082533 4.121211110008595 3.8515796891141796
In 7.622853830209902 1.2765329686323412 4.21964977901549
In 4.830142370495618 2.159350596083343 3.745734890579338
In 1.537797128510362 9.178574177356793 4.639526897234537
In 7.996722229495685 4.304531667155933 4.013295900023791
In 5.2413175664811265 5.029066456888347 5.389240631066635
In 6.057122047534784 2.4074096414280564 6.752070858530167
In 1.7917314173145533 6.18159606650176 5.821119557268683
In 8.600387903651916 5.034360166753121 6.872818703089877
In 4.277939433536529 8.415295850906096 5.791695888945284
In 2.871241473934384 2.761042786040345 6.779631984532486
In 6.637622064588058 7.164577408489063 7.181339162809201
In 9.289368832204518 2.0289774224707084 6.613514902323003
In 6.096542212608513 4.330601057862691 8.997712190630375
In 3.722014904039997 5.793836732736239 8.052063041970738
