30
Energy = -67.30131007 Dir = /p/work1/plile1/GA_structures/In/30/all_candidates/1289/
In 5.58946775622092 4.040131476766373 1.3767323729281182
In 6.445066586766481 7.052755121241311 1.1078383069862083
In 1.3622068747528673 6.164276361899396 4.490179986821738
In 8.216130677521239 2.158323526462434 2.652272698310801
In 4.899159651696919 1.0061104813234691 2.7018542574422275
In 5.463214749710572 9.719859734013744 2.510891131242628
In 1.7716067642551108 0.7373777216510483 3.6055055803957377
In 8.156407858854266 5.151973906952862 3.261187940630731
In 2.950265381750753 3.7175540270884713 3.170052265087505
In 4.627279040548751 6.341372013088724 3.6519419112820453
In 2.7187579846735095 8.911821076362715 3.859420760339266
In 5.848489628068853 3.4279741397174996 4.509454362951229
In 7.80594561682884 7.966703126663844 3.876194922764921
In 6.785018995701888 0.4927011828614322 5.620952414754926
In 7.568886955332598 10.988557653812416 4.512493916362774
In 6.372444043250317 5.927467077206512 6.3103941297329955
In 8.643044413118483 3.2387748259795552 5.970593003811004
In 3.556007601567782 4.578725679500018 6.196479991345581
In 5.344655362182964 9.177029013155169 5.689885001435725
In 0.817053439111331 3.0508185893832653 5.689583960692978
In 3.779677376944273 1.3968308501202236 5.884165887764229
In 3.222492493280717 7.613691898511363 6.908762454472054
In 9.479036486532186 6.27122728008818 6.168610240549845
In 8.375882356934593 9.061251280314234 6.90006525160762
In 5.886518501138093 2.8527111825033504 7.767066546998496
In 1.018897228824172 5.738570372714502 7.897486967151693
In 6.101093165423135 7.956526922095989 8.66976851882813
In 2.6905891449097514 2.5327284975671382 8.60952968844545
In 4.308895476195788 5.404679203160853 9.1565345826729
In 7.90213474124753 5.027802131138171 8.980427299534682
