3
Energy = -3.70713987 eV
In 8.5652723424644 8.893299669790688 6.265740326827462
In 7.510228584446467 6.3153190220072 7.232172173896676
In 7.093441729817902 8.146688323217711 9.516407890290584
