4
Energy = -4.36547851 eV
In 11.127333622428175 10.406952602778171 6.405920532817991
In 6.776023114359147 8.380296636881777 9.374282227589985
In 5.552660727242663 5.179559035725171 8.392066519069502
In 9.985811711275373 9.475019020657575 9.269552585376294
