4
Energy = -5.94099644 eV
In 5.286137837421389 7.822937638746575 6.023915086872054
In 7.618784779151927 6.134296242042377 6.778389779342009
In 6.311925194881383 3.768012864553448 5.533553274612153
In 3.9525526401590465 5.4441533434812435 4.833543036367955
