5
Energy = -7.89399303 eV
In 6.552196900349066 7.040663211898419 8.5905878004881
In 8.981737411640571 7.303234291471169 5.36291490140184
In 7.201798050903208 5.267208935848419 6.423671901171966
In 8.333167887259826 9.038499579405196 7.55961077696903
In 6.917217077222441 9.587606967409918 10.338842261122544
