6
Energy = -9.37810896 eV
In 3.6875034252436514 5.780354075209767 4.025772140063327
In 6.548286650445401 3.861458286009507 3.935460887208952
In 5.885800824165688 5.860355012138705 6.003608271255143
In 8.557672257478929 4.787825912453791 6.606566917254277
In 3.9370804710037763 7.957367650893527 6.715880892885189
In 6.971167041486193 7.340149733118343 8.300221561156754
