12
Energy = -75.44437696 eV
Ir 5.13353126205695 4.075522364881504 3.741232318616997
Ir 2.63017547000675 3.8172776941791167 3.9755878805829186
Ir 6.15623174909496 6.390341715625365 4.475897801352556
Ir 7.546444887889783 4.39258857165281 3.580011262131585
Ir 3.746336699527166 6.187095626714278 3.794889394546739
Ir 8.55838204757401 5.903890170100495 5.392888882295525
Ir 4.209007133059041 3.377082722015132 5.972595074934431
Ir 2.775597348867609 5.406596350128101 5.933915691388413
Ir 6.5621582674516885 4.335988220603645 5.945900471914934
Ir 4.439082830668157 7.357970408337504 6.097579634373168
Ir 6.804452516400217 6.754235107220888 6.904987658534561
Ir 4.796925872549464 5.359737133686964 7.542840014474403
