13
Energy = -82.22420185 eV
Ir 6.923935123575965 8.57094079521187 5.050635664918604
Ir 5.48779293548397 6.92456094129978 8.913738388045953
Ir 8.888025371642703 7.055890439437882 5.809461782954617
Ir 6.357365545855654 4.596824721008979 8.507852102634777
Ir 5.477854614286364 4.5476187427616965 4.418568764650303
Ir 5.072847309583747 5.851037856991737 6.625282560202259
Ir 7.283542700761946 6.284629318789338 3.9453658725037943
Ir 8.48287742254311 5.9385235084861465 8.269551843725615
Ir 7.3124377157843075 5.107230166493204 6.147332833691888
Ir 4.9554580391377705 7.053000734280597 4.451819442130308
Ir 7.67076824010793 7.697350732773994 9.830101324634082
Ir 4.896932024837936 8.38516756849492 6.6650054211642455
Ir 7.264850017551473 8.061911537303327 7.4399710555361676
