14
Energy = -90.34494669 eV
Ir 8.154039945693553 3.695875812900102 7.526245416478893
Ir 9.181819186603954 4.650279800295535 5.4524128312920155
Ir 8.22360879429994 6.252273235149113 7.24138372807051
Ir 6.0609544066107 5.0005728708620785 7.992912021233491
Ir 6.637500207598267 4.383055461049914 5.557352414150913
Ir 7.327208993862947 8.476529330921212 6.3757847948002695
Ir 7.654742061013749 6.533893191153918 4.752785065268349
Ir 6.366720121388127 7.451741638223707 8.54056530410271
Ir 4.376898367205161 5.480336087224226 6.1490218334607425
Ir 5.333357017847387 5.726851894877647 3.852682900333227
Ir 4.060585049596558 6.364601874877243 8.608603847746872
Ir 4.852845095925756 7.804623468403156 6.567662473551631
Ir 5.7848401659805955 8.190111221292582 4.287840706390771
Ir 3.3874176118585733 7.212838960460919 4.497572051649221
