13
Energy = -83.17486205 eV
Ir 4.795117350564143 8.892806909006213 5.003526232583514
Ir 4.500290352459307 7.826753461639354 7.186705681141221
Ir 4.071963972301396 6.497554640803622 9.222831675117991
Ir 7.143678978280011 8.216124204641112 4.8724529664004
Ir 6.903531155948978 7.250553685234306 7.134913315457682
Ir 9.413592096608497 7.293059447194632 4.556344490152498
Ir 5.243439101953909 6.442099514415492 5.0992592571183835
Ir 4.31486952383319 5.202292351051017 7.122639373974521
Ir 6.268977159857141 5.468528660108457 8.74304433430627
Ir 6.015914272803207 4.082232152197122 5.586495179282903
Ir 7.5389647435086244 5.689641517251205 4.295952443648576
Ir 7.610665840082755 3.979035768997619 7.385290257606604
Ir 8.852957446975214 5.8497083264877086 6.482235404683924
