12
Energy = -75.80675325 eV
Ir 6.2616206106770935 4.851442932206009 7.064199865104024
Ir 8.09181710583141 7.737432451261785 8.337015452469856
Ir 4.540243669597058 5.973539429439341 5.410607410743713
Ir 6.7072701768429805 4.981446135059061 4.547220138725437
Ir 6.4861151829833075 7.503441730632245 4.487860553864296
Ir 8.149751282267355 6.326098235904812 6.17129308021174
Ir 7.807998352124721 8.868583322620609 6.03512798032241
Ir 5.116749929006358 6.056910217841345 2.9961439736294566
Ir 8.369952791990665 5.21467959082577 8.4559071417163
Ir 5.867688441513184 7.578250857488898 7.066923078272661
Ir 4.057110408646467 5.949083035005053 7.8127471185722275
Ir 6.186035944497722 6.246391607476979 9.24302828324528
