10
Energy = -61.79309996 eV
Ir 7.1046260795016405 6.914666367868519 5.8617995059105095
Ir 8.17866093722575 8.2727762894099 7.523743841360299
Ir 6.127979295645313 9.359514314150655 7.9719986885171545
Ir 5.020037981744873 7.949891632168962 6.448323615068543
Ir 5.998790631448841 5.5288278466884035 4.1947576970141505
Ir 8.88832727279935 6.326242534162016 8.66192055661283
Ir 3.8722118220664465 6.581396055392108 4.839125998713919
Ir 5.172257306397866 5.317576259856094 6.653282181701517
Ir 7.744680949538007 4.970324724624188 7.116187167665272
Ir 6.649829698632 3.556564471568147 5.511878753937321
