4
Energy = -18.53807129 eV
Ir 6.473660480335512 6.432824734735077 6.41654014651564
Ir 4.45436623807424 5.720802565607799 7.07831551043472
Ir 8.214643941686196 5.875991544395117 7.63041220407768
Ir 6.586184220690831 7.665735164557245 4.574966216966184
