5
Energy = -25.77513103 eV
Ir 7.641929271507638 8.48322574782162 6.042174138192921
Ir 7.4690041885724865 6.334818120874952 4.9518059209892575
Ir 6.106684132638247 6.915312439522011 6.92210269443433
Ir 5.822154276060863 4.727570409988528 5.8321363805919155
Ir 4.678273702634841 5.294621974217812 7.866317206935402
