7
Energy = 111.67338743 eV
Ir 4.79433471917792 5.278445962191661 4.522153976202367
Ir 4.0067129598345295 3.7651849964402575 2.9767525766324376
Ir 2.9369064649730676 4.972897210907303 4.900629566075428
Ir 2.6401536284372042 5.196382541250368 5.927593506108457
Ir 6.181856313062802 3.7604426256229346 3.1802034901910923
Ir 5.7551456585473115 5.400401851396572 5.4043895305281735
Ir 5.291332317790705 3.2596941557211685 4.697551400233526
