7
Energy = -39.86507819 eV
Ir 8.699048979140255 7.985125030087148 6.588385400224504
Ir 6.840883784581815 6.998053437881183 7.666835996370526
Ir 7.360097090577316 6.590017321219505 5.16121520339757
Ir 5.854184128369471 5.189528055240357 8.850830872667961
Ir 5.05761814250487 7.408297234764192 5.987528842856885
Ir 5.644563375862366 5.0246739921212695 6.467434732663661
Ir 5.384920300466127 5.638791579211138 4.123239327827342
