8
Energy = -46.46212742 eV
Ir 5.867417397321433 5.943944445780591 4.950826497682396
Ir 7.96740116871676 7.0747143240741 4.790592709897153
Ir 7.22124587417206 7.928816648577521 6.901904588439677
Ir 5.692723623814834 4.3988113909936 7.0821328934403756
Ir 7.9283213477157926 5.364792098483308 6.563814603367978
Ir 5.360888462284737 8.232126187682274 5.418921817318725
Ir 6.801947104807394 6.029988090054287 8.685016858965778
Ir 4.8577623170214155 6.724514757435472 7.304497434613535
