8
Energy = -46.79502213 eV
Ir 8.316223490307266 7.225211967833808 6.094281672962746
Ir 8.56728896460516 6.441988360247636 8.496046210088688
Ir 4.124574389125882 7.298026230536378 8.091008410637755
Ir 6.340943699187993 6.65678786336243 7.619019481295198
Ir 4.453139090738781 6.6196568818625305 5.853614560221395
Ir 6.652934821737185 5.9463300039071125 4.84146299181181
Ir 7.904105924341459 4.860886673973461 6.630374916548853
Ir 4.650205473108141 6.023931845378888 3.590863383775165
