9
Energy = -53.62604841 eV
Ir 7.994323606668414 6.167181260362638 6.812582370735401
Ir 5.756909145605482 4.967321772205345 6.224066178547811
Ir 7.235857766180103 6.086054876917943 4.459833918822124
Ir 9.567807955356374 6.028476059217499 5.033105341056587
Ir 4.354937756237456 6.681976747509259 7.500942277542862
Ir 3.531964311712623 5.713207782630385 5.335422456415112
Ir 5.376512474273294 7.4154463603989536 5.233131633298737
Ir 6.391175469378797 5.6859381337006765 8.67765507748369
Ir 6.511815206820649 7.996063018362719 7.470227535196252
