9
Energy = -53.90162331 eV
Ir 7.668547543562636 5.370724809347107 9.31590250266916
Ir 7.437246515388244 4.417843787181093 7.146553129713633
Ir 6.564582370661791 7.330304363179147 8.527333661825013
Ir 7.327908563403795 3.474468747030349 4.965904653938255
Ir 6.378253037865912 6.379704535428834 6.376663959338578
Ir 5.403879804001038 9.274217044100377 7.789743618414327
Ir 6.255862569011888 5.460232246681686 4.207810210901388
Ir 5.268854308273502 8.318864589296624 5.615556737289516
Ir 5.112122364400918 7.396421870377361 3.4258912857670003
