17
Energy = -12.43855213 eV
K 6.64081682175047 8.046122707328516 7.491733177910575
K 2.203083207900176 8.046122707328516 7.491733177910575
K 0.7220961228998385 8.102489158370627 3.253675033255771
K 4.421950014825323 8.084168373769643 0.5140082335830849
K 8.121803906750808 8.102489158370627 3.253675033255771
K 4.421950014825323 10.223918 4.356560586647452
K 4.421950014825323 4.421950014825323 8.586910151930237
K 0.5288864176768254 4.421950014825323 5.617925572776179
K 2.155872526862843 4.421950014825323 1.3138097923541132
K 6.688027502787805 4.421950014825323 1.3138097923541132
K 8.315013611973823 4.421950014825323 5.617925572776179
K 2.203083207900176 0.797777322322128 7.491733177910575
K 0.7220961228998385 0.7414108712800184 3.253675033255771
K 4.421950014825323 0.7597316558810057 0.5140082335830849
K 8.121803906750808 0.7414108712800184 3.253675033255771
K 6.64081682175047 0.797777322322128 7.491733177910575
K 4.421950014825323 10.223918 4.356560586647452
