20
Energy = -15.60715226 eV
K 9.34108871636059 8.030598011312286 2.69407021188019
K 13.440916625819998 9.442877060625513 4.106345394441872
K 5.631005644270803 10.349941363472992 4.5466950973060305
K 9.72916854191358 10.694297363189875 6.093364036230306
K 11.511365501524157 6.16506116205126 6.189820589106536
K 7.002340961375417 6.510520690150528 6.103539973735695
K 7.055462904188789 14.048937388922493 7.115537239564208
K 2.8946058335843596 7.477941174523187 7.103625251275609
K 13.295080924284955 9.65492163646709 8.630934593507403
K 4.515462314266136 3.225343920520668 7.608670717368912
K 8.781127082786162 3.6113301927768497 9.0595413694044
K 9.069116209884344 5.540277555100828 13.195308205085189
K 9.796980478027365 12.3552819268852 10.307115851488389
K 5.3832217832488904 6.2043275283846615 10.693639875340502
K 5.848204608155796 13.825695216157165 11.52968699666295
K 5.647834474510089 10.35460462440912 8.91214916037952
K 12.780018184890864 5.523486374436804 10.49372215334052
K 9.293908585563413 7.991294879820196 9.580994629202875
K 11.762408112502138 9.233440995188536 12.976831908840303
K 7.240751015915853 9.779889438678287 13.078475248912282
