24
Energy = -18.90991573 eV
K 12.192030058405 4.536748272348776 2.6677557214342262
K 7.729438851521365 4.40314017478065 4.184777421315098
K 8.483418210750312 12.132439691252783 4.37394212322061
K 10.469370394079887 8.01179096365068 4.9477999167965825
K 5.812327294757531 8.498516669578368 4.8844890012210636
K 14.77466785005353 6.5978886860712 5.856318675208255
K 1.6129516164946593 9.548243437241565 6.813171183477148
K 12.525792470796036 11.629215828067947 6.938471032005487
K 4.889475108802651 12.513171351280501 7.340948946736691
K 11.6252405593688 3.734306528838866 7.029471519730835
K 3.996259622423969 5.124726075533271 7.118438872378889
K 9.18925005936951 14.513835380159462 8.20940452495395
K 6.608771031060877 12.486499455231002 11.753987778601838
K 8.08779100538154 5.848222377247691 8.442384758939214
K 8.51317426845271 10.125653732098819 8.437164125849154
K 15.093976463187124 4.377839990735692 9.849646894877202
K 4.724423597458623 8.593287764855088 9.823680829514705
K 10.660238784815713 4.354590654469283 11.787951789030993
K 12.194268006757286 7.833655930692139 9.529951120764496
K 1.949648358433344 11.78621513884476 11.005843291970557
K 11.37122066371955 11.97221587592747 11.414568053356101
K 8.808376767377817 8.44097430172946 12.83930523044664
K 5.89841760672732 5.112405250163535 12.170870216574214
K 4.407358846476274 9.442303965872757 14.19754446826782
