28
Energy = -22.36078923 eV
K 8.876926920790767 13.540008123362346 3.193941040115844
K 6.1793820834083775 9.63740935033603 2.9892477013416223
K 8.100235204353856 5.25116837269519 2.598681814656535
K 10.703647837492394 9.204494133122571 3.7416152932701907
K 4.709269834146014 13.716469016564892 5.106967756996798
K 12.211175217109025 12.607563127346873 6.568266775276931
K 3.8957894307078846 5.274864948344937 4.832809463599594
K 8.449898020745877 15.570337493681444 7.315468088098293
K 7.907850646425225 11.267512254811756 6.767206902800432
K 14.685020730427011 8.39494116565237 6.278538162795338
K 7.425210450610872 6.75944764163803 6.506878672518857
K 11.456183332452357 4.7477258076211735 5.847674753841326
K 3.6166226504556667 9.555238172853104 7.270738043264296
K 6.986087627715989 2.221843251042156 6.967242626103066
K 9.305194999687277 4.415990488874345 9.984650861832458
K 4.361706313374086 5.075623721137173 9.596894158549018
K 14.133995957712289 10.357231168711179 10.603374054874037
K 7.072772130449957 8.656772575803483 10.362203519449075
K 9.903120348327189 12.490321145830222 10.716738063348869
K 6.5972066076800315 1.6717126335079102 11.802077146601743
K 5.297561055280645 12.9625609310631 9.99363273272327
K 11.05663157970592 8.464975128955762 8.427667903581908
K 10.686504134786242 3.560602442728639 13.940528404774428
K 3.1657631626916687 9.189752139781845 11.861813235003076
K 13.68204089631977 5.466959229257172 10.638618728102658
K 6.595421136425611 5.820763760976891 13.731782525865396
K 6.955765230176758 10.760228270295695 14.05843921265985
K 10.690738864997847 8.065205908460648 13.004024762411166
