29
Energy = -23.35991488 eV
K 8.857375582183643 5.910739883928393 1.5052299629533483
K 6.036607474000575 9.650795105704608 3.4619540878993735
K 10.698622259730143 9.5776766156829 3.660194090428974
K 8.8322237141298 2.129081686784027 4.5794568014284565
K 12.232006829178932 5.1434424361417515 4.384800010428522
K 8.10528414312913 13.68850475190335 4.940754717166887
K 7.762193893065707 6.191358140518556 5.723179261342228
K 14.851306853359358 8.787360568082876 5.6344377880856555
K 4.0494266400625625 12.578578079365554 7.020382850889528
K 12.955747297726075 1.0760302290611563 6.269574477844563
K 3.97993401891237 7.8695570696616475 7.3972523303978495
K 8.013760733624862 10.287378072095587 7.390022735111649
K 5.475109991719653 3.410732064371415 8.337828666734337
K 12.06874194001268 12.186441057885641 7.393747648590575
K 11.333584857590672 7.675844527341692 8.006303490218427
K 1.295682507130627 10.400692924093665 10.348289579470025
K 10.159084460314023 3.2641044880264887 8.831721113188012
K 14.702206820149337 9.239396955918107 10.203327768838191
K 14.6365660055374 4.779504845372444 8.485005252754467
K 8.02538779749239 14.292995168740216 9.594403729055621
K 3.6548137171054025 14.200903202746233 11.44503190470828
K 5.685552479365035 10.408147578010945 10.863587131514498
K 7.701413434812753 6.568435911023738 10.426507371705915
K 3.4217177970651442 6.576523963559972 11.823658908700624
K 10.342602245013264 10.661639046367048 11.48167789409501
K 3.262465001093222 10.410713634549449 14.494619537477357
K 7.175565242017128 12.952103526320816 14.085487346275478
K 11.781616005961975 6.2561084936554145 12.234799692180072
K 7.392585339837391 8.314395054407052 14.465948931836516
