3
Energy = -0.36915753 eV
K 11.651893088436122 9.912552373251767 5.381307259556901
K 6.998254108425218 9.665350677099172 12.974597411715939
K 10.356038778757826 9.0835072674531 9.296097846304345
