30
Energy = -17.43876121 eV
K 9.705476709378988 9.739857234777157 3.119323836202725
K 10.707001667976163 5.417284221895594 3.489670035229862
K 6.284884122602852 6.553674917974879 3.8751481970210078
K 6.336924737698318 10.621393802177513 5.958178149948832
K 13.707631282879156 8.751197058932446 6.004107920066785
K 2.1689176410197564 8.464856063916397 5.87910014335956
K 10.693707307388221 11.824064126733164 7.012480984446235
K 9.518089006826058 7.5640368851088695 6.81974106152611
K 3.086674500100121 3.9372479216622245 6.106002050894798
K 7.98320653522473 3.311862046700586 6.867333621931408
K 7.939300686845311 14.940187029176636 5.233571450803098
K 5.450035229052707 6.700162281681037 8.225811584035961
K 12.541622790104654 4.635112535667116 7.954567457693586
K 16.19872548913041 7.4879165575252875 9.7283459524796
K 3.3505535346616986 13.563503530977705 6.245209929197889
K 11.463552372875009 15.749972157386743 8.093609185933177
K 7.043217569269423 13.849495719982945 9.251341564229575
K 3.584886372700042 10.459974671030192 9.675325818943316
K 1.6523768721164582 5.889759770326062 9.848983225210116
K 13.406395764556946 4.6947638024150145 12.127625334632416
K 14.681770630825348 12.125620090195259 8.943296247016962
K 8.012984217779755 9.713612539871205 10.153219578045654
K 5.095767929190388 2.830756329861855 10.280167715066918
K 10.167464551242086 1.3800835752931124 10.468771373744946
K 12.289231684546252 8.675124704473507 10.370554013549162
K 9.007011866332142 5.3901938848005155 10.85407557244959
K 10.969148098585842 12.699933609489724 11.543523614964885
K 5.2358169342912095 7.1955648104666805 12.638929666024403
K 6.351089881622162 11.54114681734262 13.46977437390035
K 9.588556714140994 8.51366400312133 13.984233042413576
