34
Energy = -25.00181787 eV
K 9.062387224690308 5.440520602759916 2.341761635534951
K 5.159978618197526 6.834463795754938 3.787753170044109
K 8.512274641274892 9.755156850111566 3.1379988285290437
K 7.3751729615079835 2.4859173681730886 5.542828594280241
K 12.35528704717223 11.99697927614508 3.618543423424392
K 8.503447647575003 13.890019003148561 5.049995549013658
K 12.528324654809737 7.651789135723896 4.1531860712870605
K 4.671727350328627 11.389608486852225 4.501468781532947
K 1.876419398615815 8.437165228740335 6.133492476716212
K 11.826864086482288 3.311353348650198 5.06155560852672
K 8.617583477111049 6.340715994143719 6.727110079389864
K 3.96530419963552 4.711703525031224 7.482156615203684
K 10.41528198090421 10.514856196137144 7.363934193041544
K 13.734863559483573 5.940394658479135 8.050063101667252
K 14.838813468383893 10.379379733868241 7.163172079917093
K 4.967887296918122 14.589450521913443 7.5261876628464455
K 12.618033610572384 14.37474984424174 7.280447261140521
K 15.098074650009863 8.62360078527196 11.192552950963707
K 8.863105092142991 14.46526359353599 9.678109166171012
K 2.0251452151366447 11.712864376720965 9.216907592285478
K 10.64158543194178 2.698104038833175 9.21448306127725
K 9.958617791301068 7.587481973101113 10.937678523506609
K 5.906211154398345 9.753873185670752 8.740093803577505
K 5.078919755957754 13.847274963462672 11.808092208306686
K 6.4456870338775705 1.8005105684433849 9.888216999508789
K 12.501486807847602 12.106018269379858 11.130395996112316
K 5.581503134020648 5.687868777244691 11.60553390442547
K 13.123173010905631 4.851347276429742 12.396022742380076
K 12.0544367683638 8.931170354474272 14.43269671804264
K 8.97547978389632 3.5249857732894547 13.19825837613485
K 1.8096419602095228 7.3494901021085335 10.34950267354326
K 8.551220998356388 11.556902539458381 13.144484496322878
K 4.354847215818231 9.751437056721993 13.098980099086686
K 7.83679719949406 7.543167023319641 14.881919783601273
