35
Energy = -28.69739499 eV
K 8.923637130811661 8.926873034459911 11.109004377913918
K 2.8799012294755824 10.471660196145368 5.101780261951285
K 4.618867683081824 8.688106545177178 12.312631277297772
K 9.779828476745276 6.96480652837738 7.345586758697146
K 6.312945334467859 4.836617417899093 5.366990090311439
K 9.665895347910222 2.4764550047256346 7.474168888903733
K 11.127391298991816 12.640664447913485 11.963171095094642
K 6.175835216873855 13.22257587222861 5.936979956802908
K 7.029076112098424 6.334211001886147 0.8770057116440987
K 9.020956820644011 15.655919358065594 8.578903176080404
K 13.085032888575865 1.5430677679249043 10.397969814573841
K 12.108565952365177 8.467523582961386 13.930698979213492
K 12.571209121277963 9.190927348040553 4.831381593690549
K 13.27668698260912 9.147435243576313 9.580379264364938
K 7.869249527093655 10.977109877738686 14.718001662059839
K 10.950662101653522 5.20359248310194 10.879128232798752
K 10.281560711555953 9.40529622836104 0.7499543795629038
K 15.109763412556463 5.500997224867627 11.638136257680044
K 2.523403751462601 11.641287506460342 9.428791769231124
K 3.86103224803673 13.086688906403213 13.671316757837218
K 5.913737928627348 9.061961059994891 7.9728056780966385
K 2.5400779313674806 6.721271196565983 7.635521205727238
K 6.632584543264871 12.667371755933809 10.507431438557182
K 5.757840389085064 10.8961990590633 1.4259350588568358
K 10.644895760599336 5.261500420786311 3.462611846638834
K 13.707447719900706 5.012064978746435 7.216203815178109
K 11.986834159278693 3.6420013742849497 14.515292731626875
K 8.775756781348282 1.6972572578936993 12.001501431479172
K 7.855681621201511 15.554581027687773 13.260859706761256
K 10.048405494796224 11.51312287877321 7.621695436909398
K 7.896547386926171 9.04487161741182 4.272151199147029
K 6.4060559241614214 5.083971757271922 9.969733519248798
K 3.2931198198101046 6.855751191418211 2.9544205029543136
K 7.953316801145515 6.031508638201533 14.205610808875507
K 9.875682276402104 13.034236095854657 3.5457312004349983
