38
Energy = -31.31161016 eV
K 9.725599081009296 11.218337848591242 15.753219010532892
K 8.518459362260737 8.152573630600612 1.2738676081778642
K 8.266262642360882 12.872478676874204 1.72033364382431
K 12.65500889326175 10.865577763322309 1.285781290743698
K 4.378720575517994 5.553720155593843 3.647363642513897
K 8.594415783638318 3.603717238419837 2.795286804918037
K 5.397630343832738 10.136095425198631 4.398354077185622
K 12.363976984162344 6.646200002894808 3.5472908047872576
K 10.188346702804727 10.513944092042115 4.782483019990891
K 11.91423291644257 14.494985917503962 4.381136166285246
K 8.382890815701092 6.694764660227727 5.526046989723744
K 7.442876618418151 13.911180797427766 6.284341750237636
K 6.242545573059199 2.8494915622470924 7.096521189296152
K 1.7552600791267672 4.054501193884173 7.775904945646794
K 14.59305695488688 10.831758897412618 5.555283293776331
K 1.2807792512897693 8.52580291435066 6.220200166649411
K 10.898661465326137 3.3170045490631495 7.028130219570256
K 4.816597204162155 7.063047430031853 7.8620254303845245
K 12.317411352422317 7.804514661108765 7.903497884572311
K 8.110055693689471 10.10328655496054 8.329400029312286
K 11.709231060551089 12.734495812896375 8.920662417542925
K 3.991710276003069 11.609967767414 8.71775836081127
K 8.633268407184492 5.783135936385475 9.907206255149182
K 14.65362557490228 9.767449439507557 11.202652594142437
K 12.71459968810024 5.473478760833542 11.792236243730681
K 1.6703718740785922 7.79993554557121 10.871524984799024
K 7.707021222825727 13.116757530023314 11.561924625792749
K 9.323733139547633 2.1513085045770413 11.954573728621414
K 10.3749198930594 9.294649715008047 11.900064362574405
K 4.775897239130524 4.044926067245193 11.565733643186915
K 5.967236314251544 8.59872508290318 11.837401510585478
K 11.951089975980077 12.719903536186392 13.8374296759903
K 3.62520709851742 11.645834564830585 13.503358097262943
K 8.377606922440053 5.900698125771684 14.618142687441873
K 12.405647243221754 8.22311680284452 15.506608954613553
K 7.844485241723241 10.463265872729261 15.478136855064333
K 4.0579319107310035 7.42213594960482 15.379609170091907
K 11.966921002010775 3.6305233915448483 15.753219010532892
