38
Energy = -31.36519896 eV
K 8.710068180116581 10.432092790421818 1.4005982983749667
K 7.825732009276106 6.34319483946674 3.492972586375969
K 12.374693805390029 7.5023568196798225 2.9743188336194155
K 4.1954917183247815 8.234262320575692 1.5245242545672277
K 12.584463518074292 12.542580360258395 3.4442780839539395
K 8.415581356988366 14.221009798108819 4.913324147133362
K 11.150342835336088 2.953929680742958 4.207004240404734
K 3.544188240772142 6.179302300922131 5.704248744244736
K 9.878350723163216 10.07413247225849 5.4642037082960355
K 5.666133345663052 10.659160544309595 4.64004940465787
K 6.952019814283682 7.667808917182037 7.685565322931209
K 7.308788226344007 3.291467876974134 7.109846886513847
K 10.939814542793243 6.100285145156105 6.926004184713979
K 14.012729065933543 9.58467627559934 6.785934110266382
K 14.871337134277795 4.799303819235345 6.396009768267141
K 7.362629506976662 11.897981281486405 8.592334971059989
K 1.5358369706604458 10.11205899532847 4.9841588406573685
K 11.668922799252474 13.378507990674056 8.052818581870163
K 7.452668534111983 15.91622062900178 9.353365409023525
K 0.6892149288802562 6.654909829421814 9.386089921294118
K 16.92336465047358 7.654984110836818 9.26368367913881
K 3.877937919710041 13.978953362978656 7.118415703866927
K 10.649522047384936 9.327369140199016 9.762263469088337
K 11.409656431373072 2.2133479040949036 9.019384655587109
K 6.78426555150583 9.008265381522753 11.858663054977546
K 8.99510841408635 5.421811032621434 10.83859205755069
K 7.418030003885444 1.6496057215168671 11.64908622423538
K 4.558137979949807 5.1476370980862205 10.50018840983422
K 3.4033219782684783 9.900685033347935 9.040437672076969
K 9.513445624811153 12.542905086634024 12.642936134660976
K 4.876981169154828 12.948750345562969 12.122305107408579
K 13.339051915399565 5.971698916174153 10.889731909802691
K 14.144582814538548 10.641438741318403 11.481814327042565
K 2.9001934982255677 8.432325088910051 13.352165553250078
K 10.653185076645405 8.219706843588135 14.13494345136288
K 6.768148699506251 5.618341623977264 14.61706051583446
K 10.95884791640432 3.3982294328963336 13.94776593046585
K 6.739896794116967 10.431388190987695 15.775597587647903
