40
Energy = -32.81452397 eV
K 3.738847072614296 9.802770036370584 2.541470979671544
K 6.641999264200542 6.313279018112414 3.6990263496549787
K 13.684937705639612 7.533864013301903 1.6704446812537774
K 9.36322535005602 9.690725929224083 1.3317479827846488
K 10.682033937579481 4.351246981253027 2.339073301341799
K 9.872224053519417 13.980677280710594 3.7586450576781107
K 13.198474307789692 11.323858548713073 3.7236158530944325
K 6.22463744215212 13.289038158816835 1.5436620245839687
K 13.987003053113606 4.750322880142996 5.933628758185779
K 7.1062139814060306 10.783884665247633 4.937767076986997
K 4.95767521519875 4.07615856603915 8.226301198831576
K 7.680044807966309 7.498039374050458 7.715439338877758
K 10.913232869633001 7.705005825569865 4.892185551266893
K 3.3680905378742363 8.428606006165063 6.892576571591677
K 14.83177925870477 9.192426360768406 7.160160605418888
K 9.482972991797528 3.502048564004149 6.744612336096834
K 10.460021944492215 10.987857648190184 7.701659661751139
K 12.90364570704059 14.17556001891524 7.586175464342989
K 3.6458418782318502 13.139076451046659 6.163362756960544
K 7.790246500540291 14.920870255250877 7.479885964176458
K 9.33487407453592 13.611259897870564 11.508321764368501
K 11.8063715839838 6.776422667115496 9.067991065707051
K 1.211219089923793 6.198782812514317 10.415211963501136
K 5.03414752570938 7.650026124076161 11.120067549470516
K 6.136503313999064 11.350276567435845 9.191468424069035
K 13.418517857056349 10.35395536431405 11.337931556915969
K 9.133289710278898 9.1761334411561 11.570327869577723
K 15.679090200889323 6.225501851694019 10.511678341479561
K 7.881266571029535 0.8308838615422582 10.272047240490318
K 8.5046902791088 4.857083701440745 11.058346402250287
K 2.098397633600682 10.883038489596068 10.687897891457888
K 12.269344912178832 2.6928206196170343 10.476610590832367
K 4.686995908965725 3.6394610853466 12.92013810053219
K 4.787530312268589 14.92688039130536 10.852516893004987
K 11.943859645653914 6.337823587881911 13.560233189816989
K 10.321437486947259 10.517501587764178 15.31155492938501
K 2.7297250705401366 7.626573660828978 14.59483231696683
K 5.82295195618911 11.24610541464946 13.732417222321788
K 7.384897996586613 6.878978028538741 15.0257589545534
K 9.028653202054599 2.5220864744694302 14.490118429798176
