41
Energy = -33.90902381 eV
K 10.157577206117752 7.78924338875483 2.0807708904634192
K 6.668515903499881 10.756720083201834 2.9696313366276192
K 8.860218988898529 3.4785288245233734 3.4563987256846396
K 11.06834732505669 12.42698479404636 2.4728083804862147
K 2.869354844261909 8.515060792883554 4.7685486052538675
K 13.297806845499355 4.398279506022574 2.864236892618912
K 5.660521266360505 6.316471882834919 1.5486117681879465
K 3.447165382813045 13.35912990714074 5.290969571208126
K 14.12188035049358 9.156825606728496 4.1438683142224315
K 10.012090519430117 10.144874878189523 6.155797274663814
K 11.534496365714254 6.325606609824812 6.472673925471158
K 8.214196732606148 14.406023177520526 5.647381638611882
K 5.85469933479327 10.669203737242064 7.645014948156892
K 7.246630819225443 2.2547680286110543 7.475330933777891
K 11.809433789251369 2.1247777586981935 7.120912557902377
K 3.7099485086920088 4.020107167105592 5.330061526886433
K 12.75035480782955 13.329818374595893 7.125403642555566
K 7.237145906745866 6.887053330019895 5.600690791805675
K 1.4857185793362229 10.278756071180075 8.693980552070027
K 15.76620292396565 5.255889276321662 6.598018582936868
K 14.861272524757846 9.284513118398067 8.605975265133983
K 4.659935893512255 6.789680496890694 8.906782485441868
K 11.214416485632578 8.829863145337123 10.492220161781644
K 0.5627607606184414 5.691326389804642 8.391241694041156
K 10.159949287673145 16.406355693954964 9.938597970762464
K 9.066349623675045 12.355828886488396 9.70181427519419
K 5.5273096784678915 15.061378729424732 9.251495465285645
K 13.31399494314358 4.8176494528432094 10.601268401166882
K 8.749902769190504 5.538291459918756 9.695462093566395
K 12.827635751149774 12.803492612670555 11.937555331183214
K 9.228932033340415 1.8267147923114002 11.767100595701594
K 4.041932778075553 11.822788209278235 12.077702323880013
K 3.862271406513845 2.863653295062765 10.40343438646562
K 10.619960493492902 5.7670420435546035 14.159097544972237
K 7.186335490094132 8.99696250841278 11.784761523677597
K 2.4711872179391956 7.465152827513419 12.503698745767204
K 14.468782531485978 8.461179222653776 13.442082066449824
K 7.9764015734686575 13.636954896976105 13.558922884165119
K 6.244710884972628 5.0399042225164274 13.610790483912723
K 10.38802697286481 10.140061324228888 14.947627847442952
K 5.794850943820495 9.506309920794273 15.760484038896243
