42
Energy = -34.98579013 eV
K 8.173593748810923 8.030476276442545 16.65291626526563
K 4.0975716884980065 9.015053127267395 0.8447675816034975
K 5.509838102045238 4.5997687754127 1.3274183281767038
K 7.386518408023329 11.71355093585638 2.4612527437990486
K 9.926106915931634 4.845152478000042 2.9053908038552376
K 15.173816249117529 11.012684531661975 4.524086153942135
K 6.883500408738799 7.582259142281132 4.135358901644238
K 2.882757848666934 6.387241331927312 4.755056670318844
K 3.99812043813164 10.894159631729135 5.349713874924277
K 6.264555080668207 3.4432104404055 5.617064859661169
K 11.078583900281492 13.5137042206841 4.91681845116536
K 16.504786856136 9.967390150873221 8.683390711196989
K 14.035331456594658 6.400570508294846 6.16232538620221
K 8.295283270441004 10.569288421164098 6.7010373819435545
K 11.168543871890485 9.059883290769307 3.481165029507389
K 6.427866296384967 14.471101698436266 6.6036360030985675
K 10.480605931281692 2.013938580726266 6.285888766645093
K 6.081164428367402 7.162402713543392 8.91501036960636
K 12.41432920960947 10.262963894519336 7.634833800837865
K 1.8201864034301096 8.977485141653535 8.386389328118067
K 14.51156567276748 14.100581630047522 7.92230535897447
K 9.968742396814788 6.206709965903901 7.468076557842969
K 7.506810601199571 2.4695659252311013 9.665253855019278
K 10.007423870161785 13.983049064154219 9.320117754554401
K 2.243008643061931 13.505657570538858 9.116924715995879
K 12.16703468746352 3.006391916541275 10.280945323919102
K 3.11241768816669 4.314030214133268 9.134899544981016
K 5.714909062936802 11.343681627143194 10.03580218731041
K 5.903176344715858 15.610923428936138 10.99999738747545
K 13.477469971754369 7.218989280308458 10.812848314810092
K 9.581171934685075 9.608068295309035 10.719764860580408
K 13.279889575707793 11.830697121650363 11.704218735732336
K 3.0415814849022413 8.10412425064856 12.337134174044003
K 9.377154131824556 5.662380743510077 12.12502515434239
K 5.532542532741988 4.38149050646793 13.330646884878208
K 9.291745798330082 1.6566984425717883 13.726219191350541
K 8.61335159265992 12.832729495808818 13.438218328204584
K 3.6495495701314833 12.493769352683884 13.514699365714742
K 6.777113816156346 8.79571062586229 14.1682643581269
K 12.789438129310685 4.443061903826578 14.68209582236585
K 11.29135178351801 8.741720085956185 14.749556948758688
K 9.054040140511919 5.262233203691065 16.652916265265628
