42
Energy = -34.92791094 eV
K 7.301008090485697 5.998819397532742 0.26205355996681223
K 11.236366567794954 5.637988841771666 2.641413434418221
K 11.053678901363769 13.857038880943918 2.8155069751576454
K 9.319030574659743 9.619691624803393 2.8374970586295727
K 7.978310811980032 2.091366768954684 2.38591276008143
K 3.9483912948419437 4.100895913310104 2.5314241644190143
K 4.549317829634482 8.721108612883244 2.8549283783730646
K 13.567130497332448 10.219631078399223 5.003941673207099
K 6.324499594018953 13.013754210381382 3.961983956048968
K 7.393033096710176 5.79477666654647 4.638406570115064
K 14.103675662150806 5.223502775543971 6.031192971322419
K 13.194450864835296 14.81521270807617 6.694529212701137
K 10.146039252411288 2.774464314564313 6.185140261577185
K 10.8121318067914 7.679829869937478 7.10096510601293
K 8.785918135035656 16.28652487100466 6.087393331897369
K 5.655955003154545 13.604302657702414 8.452607377074605
K 9.890518647971533 12.184938716092935 6.516662591245407
K 5.482646914271286 2.405668920369697 6.50888222333648
K 6.600165429874845 9.482074821804911 6.506926760989102
K 2.461564212786391 10.886751290681117 6.549121111790805
K 3.335250841613324 6.286829004168378 6.850756776054779
K 12.137312827344207 3.621035544981721 9.916880909771791
K 7.587637524651032 5.895904402409723 9.233256502150097
K 1.6968039031610598 12.41692686914533 10.80873137884757
K 4.454946592843545 9.197340940710657 10.154707704732802
K 12.976180264046159 11.311097133920004 9.670049983418007
K 7.944518440547139 1.7481535516094504 10.139916804190909
K 0.41011064620013743 7.998018181351066 9.939198173053867
K 11.103371654775458 7.548696348462551 11.687674001777818
K 5.80518113604424 12.479913701914947 12.881998112179089
K 8.547546273602634 10.441446826371044 10.190691418515257
K 14.959629364667409 7.3565083450123545 9.802042004003038
K 9.77372378320803 14.61179010007774 10.267389493801
K 4.044141775580229 4.977756886435129 11.445662865086188
K 13.889392972664735 4.909870054744248 13.795953022240006
K 6.930978456739147 8.059289199161919 13.700057707455507
K 9.134306355849823 4.236376775345087 13.571853113818573
K 2.4557207867470785 8.981488403448328 13.870357187822572
K 14.49322568405631 9.465717315942836 13.792162626579161
K 10.959211846137697 7.532702114633252 16.12097607871194
K 10.417619171805118 11.522821962386313 13.949936520448553
K 13.150837467454897 11.013454354309008 17.6547390948222
