43
Energy = -35.61824481 eV
K 12.024274633038397 7.526097673833179 2.946698517664686
K 7.25145338309988 12.039457297305555 12.918682702158957
K 3.9027981730597716 3.5288540270589506 4.957786172522845
K 12.202757682319286 3.5338878516905727 5.364066366503981
K 16.111761184209062 5.877002219585726 4.649329312305781
K 10.814245325840565 4.603244112853096 9.868926234755323
K 14.444554413312513 7.73482097464816 11.926148112775586
K 10.02386356520032 13.483008600565272 9.711255185727602
K 12.591430835342472 14.776619705083585 6.232338195012773
K 7.871238098869805 2.266234188167068 7.11723607230254
K 0.8154192232178171 6.955334973803745 3.8382502867652923
K 2.254986704723213 10.594633687656774 6.763006169451736
K 4.906453584477171 13.918240165575662 9.218656200116433
K 1.535032693618898 6.164869668730361 8.240536342456666
K 15.182600937867967 3.884726200065113 8.918278787312941
K 7.442868090149051 2.650796789276044 12.097828589598079
K 8.175854042827817 4.474095275009181 2.8343208252285104
K 5.810328997844303 5.73016344146681 8.90389824933746
K 7.6731753482967235 16.77783664418534 11.148238727916377
K 9.492769524322414 9.005368885222373 15.999064695805552
K 13.454393630306882 7.694426361239725 7.472967647904139
K 4.22946063123683 6.06990520687234 0.9892400600801479
K 11.323205315231464 5.322447362575472 14.230457580680861
K 13.95857195120437 8.585329744930778 16.378241846359934
K 10.342812823067334 10.911822644485142 6.052088928307687
K 10.029750931951936 13.439020388592992 2.6234839842470503
K 10.602458900300201 9.137069681887992 10.488225569385559
K 5.09556982547191 7.753049412914574 5.0806288587460475
K 9.175511762856454 6.788490990797346 6.409734363906829
K 14.224074956884028 11.740703283846281 9.2817018125517
K 7.104553648259799 4.940991082617947 16.07407087027881
K 6.004607101104823 12.55515473171123 4.743577964924315
K 3.1697524457368265 10.347837810854049 1.8944585301910049
K 4.848096339707626 8.892501106137574 15.519989765979027
K 3.549951332430729 2.0407310722877847 9.308931017234196
K 6.817108118704733 10.140076427812188 8.501294535861259
K 3.479836002718875 9.505487421375717 11.131255057100955
K 7.512206628808117 7.272158038335309 12.395291107532483
K 3.50580006565011 5.137939942071009 12.829807228867201
K 8.114474361447366 16.003717317044575 6.488197400238885
K 14.596668376672874 10.90410380969422 4.594035821502577
K 12.223327184139011 11.806022946272833 13.535277322811575
K 7.897016953649669 9.27279656303953 2.10957270876817
