45
Energy = -37.02152367 eV
K 13.63404314202419 4.247588508986585 12.393159367899333
K 17.568377865211552 8.567050237918563 7.090268355857788
K 17.861542319808784 6.5094767972282135 2.918056402179004
K 11.448673830110861 11.333454428184421 10.744109663540517
K 7.784097422544665 8.624470807497064 12.245593651464631
K 8.425290437909599 13.6067413330979 5.4640168015723125
K 15.655370201156597 7.215674078569514 15.324991557221233
K 11.014414486096866 2.661714945891518 3.798501127308562
K 6.0586565235089 1.5542828960623682 10.421438900262114
K 3.974024976638185 10.591502978294702 13.171752945853097
K 3.1613414013383254 8.081709437943367 2.096936061868602
K 5.430712790440071 6.910940895868081 5.531305914996864
K 5.278101764396413 15.162656903894021 12.385026336265367
K 13.497537293348092 9.328022790210369 7.344675024417264
K 9.414233104014935 15.425908917028863 10.063107466587978
K 4.272795879773859 5.6783002567349845 12.539674470156534
K 17.568377865211552 5.2114115155637535 7.115653652699394
K 2.9371665079415306 4.299975557690826 8.476667936361194
K 6.711994644674201 2.464262980228371 5.942880821921367
K 6.742776200777483 12.217508928758072 9.869473553454576
K 10.61302909797195 2.576519078399467 8.764046618803754
K 4.593346337474605 11.489557843338718 5.580661961386905
K 2.190466577887252 12.416418869280617 9.409175973414701
K 4.3969691152905215 8.706007324769466 9.235898416501112
K 14.337843288763658 11.690639991624101 13.945542558800271
K 14.36187300114165 4.842550275852724 7.79469569902803
K 6.978041736202 4.776532416223991 2.1554181810051887
K 10.197678938907243 6.181531579825163 5.590734441531925
K 15.976047182907944 12.312722629419158 9.742100002325753
K 11.546277313243042 8.237256327449492 14.333703678543536
K 15.462368026102766 8.238252449756615 11.158232302368665
K 8.783823151299579 12.523326369697049 13.943901478412188
K 10.904049667904065 6.566417837375577 1.1906903463935212
K 5.207602381669611 15.687313919638324 7.844636754137807
K 0.42077979709415675 7.973694387945537 10.586644194869143
K 9.078370306336712 4.336137984589464 12.894512264566556
K 7.264962032515059 5.463620119290216 9.087849679413972
K 14.476244573947314 6.757101750222284 3.8528928576527597
K 2.5069842002556597 3.9868453273699744 4.138027599076864
K 1.1258456134422334 8.712661124268845 6.197840872530756
K 8.849155473671544 9.707445583811975 7.394086451083229
K 11.732198894946263 10.478458635231982 3.653153612206894
K 11.236860626902143 6.887997984603207 10.028673026519781
K 12.483668756973547 13.576738907939571 7.128625183848212
K 7.601756594775269 9.499102844187274 2.728472591453669
