45
Energy = -34.68762122 eV
K 10.324550689401216 1.8847066020631231 1.598421213903152
K 13.237793274031018 1.0291835420520714 4.928795835331058
K 13.34191942631569 13.99574914664958 6.4319255308583765
K 11.66493194697731 7.098602768464787 8.328567021293292
K 11.202386692352787 9.354394732154518 12.323423553391624
K 13.92548785879458 5.150467440225821 11.413523732443368
K 2.4440395406418114 16.035651010201278 12.781842325964819
K 15.187548780662093 0.9505551790312148 9.127247861101806
K 6.783242181387945 8.563238619689052 13.992507774971536
K 5.3817965276165065 10.045334208569615 2.959033293877841
K 6.942282781542191 16.18997745843045 12.43667500284347
K 14.63293947620294 10.212242889781143 8.9500269035516
K 5.337118471428389 14.597614929341734 4.23259238972402
K 11.801011427155899 13.940296020329388 10.987806782163421
K 11.30738349209756 5.0863758801726355 4.273891556809429
K 11.850950595922695 0.9718451699544491 12.295573289609345
K 8.954624063095176 12.493695209141402 14.987135102453168
K 4.288961893918213 2.537741047293526 7.315089911091547
K 15.120786212679585 4.955339126756861 6.822221522593161
K 11.467405319948266 16.189977458430455 8.443496947399503
K 4.331478365274802 7.334217297507908 6.622041529676778
K 7.653872085009052 12.31920619994095 11.049100804544034
K 7.766223753142263 8.270695387111896 9.75173843285429
K 7.470818588773763 1.188519454336167 10.298284890630805
K 7.820852703151764 4.665757448090915 7.636551287152507
K 6.896365067882781 4.8511977931902655 3.3231548090266085
K 12.991519004400176 9.578579249947142 4.597837144316238
K 4.398153425829206 12.458182248693022 14.093618527533572
K 8.649651568766622 8.366670719759103 5.298622533450894
K 2.127165831204698 8.360137656841232 13.786512577811406
K 7.428727410648758 12.748169510938753 0.18263599423742877
K 2.0509184910822573 11.35931838378262 6.69122449671637
K 9.33919657913666 4.897560273397288 12.176783322195627
K 8.570358989052723 15.339988560611129 7.746205896110208
K 11.453753869506045 2.8105840722708324 8.504373266038819
K 9.66821318417331 12.692969421878162 3.843343483112462
K 9.464944916026713 8.76540290888971 1.1880261971910908
K 0.6177234533212376 12.261867471121297 11.167102834152077
K 10.562755792332387 11.292968562015787 7.92583820142513
K 8.566288260105775 0.9036478822687642 5.566753462693566
K 6.34157520833986 11.527282347005002 6.945556767806327
K 0.808031366932643 7.496494410708635 9.509859795171332
K 4.143924988687766 14.728427908200468 8.994573123467134
K 4.680582623279242 5.218322454754047 11.126150363756933
K 4.054960511313106 9.991949362441332 10.399529397099286
