47
Energy = -39.25177026 eV
K 7.411661822879613 7.699047197639262 6.158754183730318
K 16.86732154953202 13.664842347061823 7.834604525536164
K 10.594425868517588 10.156226914397 8.795584879304311
K 7.385297326876801 3.3430578884018454 8.392237511196186
K 14.412794753611767 6.954966050625047 3.670899631511477
K 4.996672302378018 13.072907171300463 12.435603123864544
K 12.810441660447774 13.481244378118705 6.756689135133926
K 2.2581533439845094 4.8306453872198905 13.617294846009132
K 10.856931505963775 3.305593676940048 11.504363216590919
K 7.719729771078287 16.811610413556934 11.31567271095626
K 11.464459982062763 9.740771908460372 4.659161345778437
K 7.0502027952918125 15.36096139509407 3.2592856228069245
K 13.687304662623639 12.367133897571962 10.998390958557446
K 15.491313377967545 11.731317520545518 3.737440602472093
K 13.648248314504603 16.65034809622501 9.36644332422616
K 8.82418856342306 1.635865570352245 15.513544825431378
K 3.6675734060609124 4.202949694936953 6.138133520248243
K 5.585578203875135 4.568436535563094 16.863402172073776
K 9.781896751622517 6.621834128342329 2.050795409989548
K 4.43040748896918 6.255513926219654 9.874679418016237
K 9.117491342993146 10.698650743995062 13.042211780445047
K 7.710801337588541 3.465656901070885 4.015685017515838
K 1.854246161431779 9.224939153310313 11.512008144864309
K 5.975030247775012 10.58212975892844 9.307574814654613
K 5.474607536665279 8.330525756123697 13.949793164980793
K 10.896986512203211 1.2581184310476203 7.427282086729762
K 9.48468826906553 14.307181512685286 10.178836550670061
K 4.964071316821679 7.29920207685922 2.7430935059807267
K 12.642221669068507 7.735678843540073 11.630020905118126
K 8.55095736757065 12.593412337257949 6.039670384186579
K 8.522659866069874 6.984956025512889 10.640512074136518
K 12.65128311514659 10.171436495130138 0.5762886796747398
K 4.377787118950604 0.6961582928460103 14.563460476709398
K 4.4694304018150275 11.64019652717419 4.786681375156772
K 11.353672591277277 13.974785248148498 2.651266472468203
K 14.85098937201475 9.403300076652073 7.6427046907908665
K 6.482788205117776 3.8645634240009517 12.784612398328907
K 11.636956690640066 5.7556887813366755 7.235576977206103
K 8.029963052799777 10.86817791257489 1.9703404625701078
K 9.990573732069748 16.811610413556934 6.3720768353725274
K 0.44387959186330866 4.902643926490219 9.478099909598923
K 2.080052784635732 12.649412310475396 8.642226460082874
K 2.389088305025157 8.484959904109017 6.729628495450666
K 12.062164823304613 3.117666648740033 3.510103408713804
K 3.4863472617319275 1.7145842149839232 10.20506414776809
K 9.446121451329574 6.333754260087203 14.970464293635036
K 5.679677612261609 15.10864292358558 8.020876712665965
