49
Energy = -41.227866 eV
K 5.781750428919597 7.497995549204726 17.39392803784595
K 9.116944754118716 10.42891877709004 0.9112550871806356
K 9.879541531093452 5.801946981522384 1.314875373895112
K 4.332536350674092 11.329250662453177 2.0310734049959756
K 5.794349289440616 3.881114693559075 2.8521620186755885
K 2.4322939945389246 7.241081395732584 3.221143371139005
K 13.188177048764173 8.958279994920021 2.4462128267266237
K 12.172997044162853 13.583865781082414 2.0774360103096186
K 13.938328434390925 4.315899791616716 3.1510798358544014
K 7.65113355658095 14.353906265471291 2.806074849717661
K 6.909350318924383 8.196305953229022 4.096314974633224
K 9.891630718835215 2.2453414232549154 4.471630535137146
K 3.172239960174347 15.09160550751908 4.310021068589365
K 6.018715238715891 0.34209994147515205 6.145543093218741
K 1.1263788475841237 11.027386174727141 5.43682835866267
K 2.6262707230630187 3.5945250015948544 6.510813841081185
K 10.259554727664144 11.362169454344778 5.375639755826751
K 10.981357682791248 6.539949548149023 5.669450737728722
K 16.978050532566986 6.920045629260425 6.886880852381964
K 5.726742703838054 12.119179595182676 6.375941024047125
K 6.936981077501422 4.65358989494152 7.24879905873226
K 14.749760059422018 11.770324255604452 5.7793323298491375
K 15.500077309265272 7.229792877719291 6.277113663810022
K 3.739699466307284 7.993666041183548 7.603334223803993
K 8.109280196235492 8.830963228461119 8.410596928814282
K 9.195033224741511 12.888732755938564 9.8644655506542
K 13.579954106656146 3.1822850484457663 7.628850240239706
K 16.97805053256699 9.943995928784194 9.53053118430246
K 0.5882302136500206 9.901132407284736 10.26938454476885
K 5.029671887463167 2.0616008113730975 10.470125894935698
K 6.102211751331719 6.492679523652459 11.553993156591972
K 12.507792758682728 9.33342933215132 9.010409657131108
K 13.835126718621737 13.288280270348903 10.20392327053408
K 15.094751047482701 6.118167259549192 10.994208297951156
K 2.1909642583289815 13.97237022339262 8.783858465260955
K 5.059643736922466 10.981476831915266 10.94031397428807
K 1.6903497870153232 5.414602716977405 10.769350804408322
K 9.484333480558393 1.286805911438776 9.1231641228503
K 10.547628604529999 5.504342558378996 10.312835028641752
K 6.278469222503032 11.59917546019732 15.116922780119548
K 12.857557878500286 2.228696743533159 12.14155832891056
K 14.007187399579546 9.888947367494218 13.234166804541678
K 2.979021588439085 8.43180606066418 14.218320749744501
K 3.9690663355112474 3.9412900465414777 14.571448200676848
K 9.519153818410336 9.500406820460896 12.850064279635502
K 11.759720061062428 6.129770804202987 14.707790927717888
K 2.0561869588149997 12.877554870964955 13.45319415063785
K 7.2836359067889465 7.059079400774589 15.885613129773265
K 8.416718253674555 3.148529776455317 13.586626720435968
