49
Energy = -40.99508928 eV
K 7.00024759867236 6.114036594761007 0.7790496141336817
K 11.00949692164722 7.556107025110889 1.8684377541147017
K 7.800061961395892 10.726906102322426 1.477328682485866
K 15.260446316716038 8.118817200287465 3.110985507512006
K 8.532482746169142 3.2033629275096644 3.8178229461744353
K 12.351168369651909 11.856145166422598 2.7730111284424352
K 9.027015002288298 14.987574163773129 2.2219340709775564
K 3.7646207103962146 8.978178337391498 3.0331338562788406
K 4.315838909384688 4.6380328862994755 4.478794159292127
K 11.322445017760609 3.552121506400734 0.5585410543576598
K 7.575945366613958 7.800014456266586 4.829116448423913
K 4.972274380718378 13.451216815049845 3.780599461911964
K 10.92927914217294 1.0968415185502405 6.969863088983522
K 12.00704020278531 8.77806007627784 6.042752916077984
K 8.852136126293377 12.195580948458476 5.558784977593273
K 15.875608747602298 7.151675812377657 7.554809924916264
K 0.9991907629218406 11.825739003242878 5.442648212787766
K 6.37066357662369 1.8606255521185788 7.643879699285449
K 1.493214067938251 7.578772170874813 6.877418077989578
K 13.017928750695948 4.523199976029392 4.732223470452837
K 9.714662587753386 5.161632756299202 7.892809905970087
K 4.788048148369538 10.588016101272078 7.149149675522809
K 2.1505887450208685 3.243916120738836 8.519764495727022
K 7.370118511817476 16.3343510495276 6.33312623809509
K 3.4734426286785576 14.742756639349608 8.088166235853532
K 5.33359950393279 6.285016929372166 8.637653130187186
K 8.585366026043298 9.391529323724939 8.88670804474505
K 7.350353766829491 13.552037163980543 9.804307164778207
K 13.541683613458599 3.7605382546610326 9.580250715029901
K 11.929765552249824 12.364496021396167 9.004550197542178
K 15.490012213101146 11.474113665118775 6.205375852942949
K 1.2859048366604362 11.085082623962075 10.002886522903779
K 5.19202640630615 9.765275557868843 11.732284713888001
K 9.491025924350613 2.264289642537401 11.232359299959409
K 12.380280738401842 7.9490800235140515 10.495468072453964
K 16.16667644646206 6.4880049466001966 12.134153293237256
K 1.885488386450888 6.765153229940935 11.536079083236878
K 5.036922282131075 3.3700960586881004 12.076652113683211
K 8.310119256659542 6.483065831795939 12.192476999833064
K 9.54498693739571 10.959210448933435 12.940533158494008
K 15.838828303229551 10.718408686016511 10.583242858966152
K 3.9030009099777225 13.807464288864374 12.736934213983963
K 12.147691750953125 5.078834373621721 13.886789826767385
K 1.8112715431998712 10.237418029321283 14.501539364164918
K 8.020676292164344 3.5744264130494154 15.429936800312165
K 5.9807586037191145 11.142003944547891 15.960077419704703
K 13.50985808780103 9.448684628451677 14.393812202287743
K 4.821537453522729 6.805582519189186 15.087750456450857
K 9.284748945336592 7.983055568555825 16.240575971511504
