51
Energy = -42.23638266 eV
K 4.899167303563376 15.247255388963717 10.00690278773429
K 15.226715455589853 9.687232865944878 11.527995022784877
K 12.072213732412179 12.81584189705209 12.744697907495183
K 11.126341018061721 13.989588479036586 4.908202493095312
K 7.8820202260983 12.952690962164962 1.8559613558121175
K 9.621132035105628 15.428769192118276 9.095056199685478
K 9.417027510232387 6.176844147220256 15.75884475944163
K 14.11856693926495 12.817134090543865 8.236542164865496
K 16.839377225636248 7.81957781890909 10.45951491365949
K 12.860711978344424 9.73683692782885 5.080054629607944
K 7.7974167370058165 3.793717348661107 2.7179657101565127
K 3.3780212817110287 5.939432381828718 2.81623681106267
K 13.231004111712602 9.207056649995737 15.709565388945164
K 3.7056902498250843 7.0163222335614135 10.243620579015086
K 7.808047552599576 8.117005784637064 1.724647546339395
K 16.839377225636248 9.435298285153483 6.853478570530357
K 4.300439778069389 11.938876010897035 15.199763858332611
K 5.162461375328438 4.65893097589983 14.122328824638178
K 15.889364014305377 8.774353836068471 2.1349730200791996
K 5.431273050042312 8.017096345089092 17.245172228785762
K 6.336026530991276 8.716371827353958 13.058464361252005
K 4.503514213716562 10.632529505623756 3.851543593915304
K 8.91629213850025 10.853773893556145 16.064161461372667
K 10.21548072912536 11.196183705724161 8.917111625722036
K 10.307387502160905 6.1436078866291846 5.477994016899989
K 1.1784005048050998 3.965596309677306 12.005208019218335
K 11.88141231716599 11.00540622108693 1.1729568715161391
K 1.3964730310775075 4.590944881720548 7.420193118693658
K 4.535944251539691 2.1406430495127884 5.218477677153672
K 13.47298379516451 5.439960233626175 12.88363483819846
K 10.633448078300585 8.73714310690303 12.467051350054174
K 15.384415484826894 12.888728069700777 3.746208520572966
K 6.635919207794603 14.510455688379858 5.886036885702182
K 8.243856257893638 7.088760869765362 9.284779376172493
K 8.502575705554596 2.575873069509625 7.1933372828550635
K 12.778345042519364 7.566684393249791 8.807773290285263
K 5.7011076253041715 10.812439781318878 8.500743867175709
K 2.341601474195057 13.358480991016194 6.930959229259438
K 16.59062582650626 5.6580854244476715 9.513868643594863
K 5.047935981672938 2.933448068108746 9.818176383629027
K 2.339373638538864 11.337013109761212 11.200399017948984
K 12.103129952178186 6.287677334736135 1.5611856432730107
K 8.556842308170703 10.251843487249442 5.2326438643524
K 1.7541531499793084 8.979002972018458 6.850193502246745
K 14.916682729552562 5.618675306415259 5.206594718670315
K 12.744662065708079 3.3183541388932216 8.572053656837461
K 9.287481142200747 3.9236845282137343 11.815898610422922
K 11.95390834056497 2.400898096332064 4.027580906414816
K 5.698736224268091 6.469684920289239 6.075383189525981
K 7.596776212707976 12.707795272167292 12.179301153897299
K 1.943188959570907 8.010165450509433 14.308333766167863
