51
Energy = -42.92284998 eV
K 6.03065127009779 7.710649596608405 16.490561381461074
K 10.207104152946192 8.506855435353824 0.7954326176318047
K 6.908288937447509 11.672102735702335 1.4561027353256548
K 8.769899125122345 4.300291722529371 1.206262728162972
K 14.488582438393738 9.024041155411323 2.421429223456943
K 2.990951987378252 9.601228890933925 2.391731527086745
K 11.29443893771765 12.350059139063848 2.906077239351821
K 12.79264320522536 4.788525601241264 3.0837976775731715
K 7.948831091292042 15.512635469645291 3.690288951731647
K 6.726749482506752 7.595292636066328 3.652974743800615
K 10.829984157151829 0.7949207257245398 3.6421019958984666
K 3.8038676731960206 13.804654473820827 4.4542885546202555
K 11.136706040626095 8.38235394007797 5.154258079291631
K 0.16625286408009088 10.999509685272244 5.541202649974547
K 8.021984108990562 11.69591769987754 5.744612343487745
K 2.537367055470386 6.350001294011293 6.104409048421703
K 9.153639377744913 4.150255664749831 5.769109554443061
K 15.230860346828804 6.703404652163118 6.363765057792558
K 4.126959214713203 10.132706461425947 6.725919015274529
K 11.036670007033683 14.698369365090784 7.0091563902820395
K 5.078814839053003 2.8282525079119596 8.272675875536653
K 13.254365164026437 2.5219583679957855 7.091312374225915
K 6.480986601987313 15.25613798138898 7.966405039969764
K 10.94531220710653 10.671658904146705 9.13325952045142
K 9.38511148238816 0.35261478009144626 8.038320073517625
K 7.68401642821258 7.631451268016747 7.875262524550955
K 14.056252427777565 13.591116613784619 10.395079638493876
K 11.878408294034683 6.2088191777148465 9.114765950871778
K 1.0652872551169386 4.202475094848739 9.772572783256729
K 8.412469647059353 4.023537464453088 10.46105322429049
K 9.568373206940686 14.393407342968407 11.356976933328243
K 14.310924014273573 11.367052779677113 6.452744911201523
K 12.015949257933642 1.9781713404685386 11.668711216595135
K 0.6096681015513131 8.920745957027231 9.486913358358372
K 15.618512579758566 4.4713216749121365 10.458664080834108
K 2.314547049817393 13.27981009630597 8.966193763479286
K 4.422597372153504 7.006412219193701 10.526059911862106
K 7.686467625767764 0.21729873636711072 12.156118897744221
K 6.483385227507081 11.340730639014739 10.201541209756092
K 14.993669299675208 9.02872528414837 10.49833746069873
K 4.524320625285638 3.3166450878393845 12.885761505661423
K 8.791794758040725 7.986971596949065 12.258806573711878
K 12.049335802083394 10.799873143658242 13.548100999506305
K 1.2589728589760405 6.66232331453469 13.573356733036551
K 8.816453564514594 3.9020578321082673 14.706198572515511
K 3.0638789071822004 10.722041844220312 12.906994794019042
K 5.0614989370584 14.817287485268691 12.363443059158358
K 12.72824875866611 6.192404967236556 13.48777112730023
K 5.461104408099559 7.254338260194868 15.037384428771837
K 7.314793569416956 11.49238788991826 14.618835280652876
K 9.737946281947831 8.064092030239479 16.490561381461074
