54
Energy = -45.2632378 eV
K 6.703939602840062 0.951991759353108 9.366115908175855
K 5.4867891780645435 14.802845184026824 13.450760072484263
K 6.381217299684365 7.274322850093051 12.472392608894532
K 1.922693850658532 8.211556868748692 12.502368440173314
K 14.533029395354346 14.260866976105392 9.402409736664273
K 9.781793664945813 3.947921259007109 11.86074366556923
K 13.4676146847812 1.583794083538417 12.10089844260659
K 0.7705473138721158 11.03412847577668 8.752577191379004
K 13.497870872488164 5.006303147995566 9.141408732360613
K 13.531928534735972 11.800812757986636 5.541688986973219
K 14.400757685193398 16.09857778912191 5.163711370844603
K 4.440081070411427 11.330744293296437 11.045243796880383
K 10.159052968677024 15.31414888728934 11.943458578172084
K 9.647447183590094 7.1835956870760675 15.471696285074582
K 7.621009495528103 1.9788674896696232 5.105147809351423
K 1.7441158800631786 8.876812956179025 4.6087110482817115
K 4.7269711356976645 10.48124834056447 15.437382980657581
K 9.181513191074554 16.098577789121915 13.11030790225459
K 10.783284667932346 14.457425756835958 2.5423387349516076
K 11.26688293594444 8.769587573183394 2.6310407907612072
K 7.549476534879171 9.587574448521753 8.883376667133275
K 3.388133966046692 12.144714855642658 1.8407605997987262
K 6.312197390503346 15.096418926180311 4.166615908146511
K 4.703766979403568 7.70859080484166 1.3006084956076005
K 10.52088606575084 15.77646957777741 6.907398236185881
K 6.722247386464077 3.5049572153914172 14.899946629622743
K 7.179065419975992 7.893112588247315 4.771441924285491
K 14.845541649381667 9.503948626587377 9.417351134873595
K 4.220325589495609 4.787861420098781 5.0344005384119725
K 14.957824259815382 7.062125532832896 5.140230271022597
K 11.232478485584114 2.8859095466839766 15.875140079350059
K 4.5731968537406615 0.12851420788213452 13.090127773376667
K 2.515076395716786 15.06558382030761 9.54928649756527
K 11.06342406211819 4.683678490418751 5.163892091875343
K 14.753338568627125 2.4518871221164042 5.6140692318687915
K 1.5296343520864994 14.270330550593801 5.273364687535866
K 8.451581827786264 11.377284084673853 13.161704040585871
K 10.83088264265355 8.02893727615686 11.300050240026643
K 4.601502092218274 11.533780719150771 6.267833568712833
K 7.541893519160843 11.216934511639357 1.3920280959084073
K 13.452113447317352 4.764086538584871 1.575395275324709
K 3.96498715157251 3.9390918436953406 10.94208805976371
K 3.7206372507064827 7.618786334963323 8.369742974119987
K 8.561603789514265 4.970561276504629 1.6622872913835567
K 13.768498456741913 5.954802624868671 13.725584218462206
K 11.010278993846248 1.3431581084285171 8.209019170492518
K 11.213922432402086 8.3543723517405 7.0494686598645675
K 11.34163982985936 1.1402106524787177 2.8471544271373013
K 9.023980696216832 11.879234533657419 5.428582592146794
K 7.747553860162752 5.169100970173484 8.288187949787638
K 13.037466372828002 11.382337916097011 13.144961145765846
K 10.983438982079768 12.04230980420731 9.36153453484931
K 6.982408583099005 14.238126450360447 8.968845056975265
K 1.2588049507177552 12.779490723552296 13.335468299531708
