54
Energy = -39.29851827 eV
K 8.783399571435288 17.53711351100232 9.899555942500806
K 15.30787156038912 8.822915408679025 4.471144303151822
K 4.706197892436107 16.524145060361942 8.037852312826214
K 9.010525939310323 15.030482074550834 6.37293808360806
K 13.18726163196027 11.795409656521437 13.117763815929926
K 5.33306723526686 14.195863196639973 4.143291697600065
K 14.870577092499289 10.763457164583704 8.966531357036537
K 5.3841381812345395 16.746764470510357 12.58515157385503
K 9.632965198439399 14.677686021763188 13.221723146836073
K 12.69706359000324 15.163515375895328 9.55229339064798
K 15.923103864199193 8.10229414384985 12.673020151155086
K 12.301789225356718 12.355942784922092 5.146189402965423
K 11.352892676038989 8.479366777839173 2.1236639941227677
K 3.3684574684335 11.935822097676745 7.285957046749273
K 11.6535398314875 8.35998357978032 6.682750530123556
K 7.625450144532851 10.71176153733194 6.127036806243541
K 8.612450123596306 11.997836797605478 2.1552985920826866
K 12.102481493856208 7.7477111850302505 11.019834924002037
K 12.13354477836221 7.996947543995158 15.396645714400126
K 2.3886321813333544 13.579947477544597 11.239649313305703
K 15.051446215628632 6.000931297719665 8.337793367077705
K 4.224377334270602 9.732078881085119 3.2407657131400294
K 5.6795159241684665 12.725116749031589 14.556453394011207
K 6.692195946151717 13.296012257054397 10.07626359154088
K 9.732458745119896 11.605367839035189 16.659837483726722
K 8.807653830672423 10.134135346934777 12.862978377781905
K 10.556430703791651 11.666051491998603 9.261677269035822
K 3.7902952487810158 1.0304419554649746 10.157683207573998
K 10.059796761810498 1.307156378331679 4.851845643004375
K 2.757837703172454 1.4953532390760116 5.611475741880849
K 6.059277354520878 0.7420954257233927 2.7542860186969356
K 8.073897865966828 1.9182426951261882 11.153956137759442
K 1.7756452408569263 2.5237598231742537 1.4378251837183627
K 11.045180849172933 17.86460107054741 9.0592101958694
K 1.6302800039139334 4.586126923395777 8.566652786975892
K 4.824491869278185 5.242774726602755 11.637357729977651
K 6.2400094918387286 3.580545356724304 7.385155445335239
K 12.785054099058982 3.349207491127421 11.74572350600497
K 6.79928031250254 17.53711351100232 7.247815899300933
K 9.06991718837432 3.8934338483506297 1.3886510359346762
K 0.9246906452959897 6.1548143097771115 4.456315048067492
K 12.819778426084362 4.762159530619207 4.139211589291283
K 4.872642099141853 4.865000019754138 3.2035813571267164
K 7.099736497090094 7.866571006378034 0.5775117058217062
K 10.675701177728875 4.1956478777004325 8.152316133178362
K 9.006414566816579 5.5638059734075815 13.338928439979798
K 0.7817076228167886 8.89499835306528 9.201835562166291
K 14.24809554400877 1.7197551361126884 7.124972274776826
K 2.63614090505587 6.754385500925111 0.12680284914438578
K 4.545746975708756 9.63238762941648 11.39090556794106
K 4.367141524177758 7.545733568588343 7.054996280070457
K 6.207611105245946 8.298005332202163 15.592307502837718
K 8.053491462818805 7.562830386239191 9.322896614686073
K 8.410580197296602 6.521418628731066 4.785650365932254
