6
Energy = -2.66771011 eV
K 5.5670751543723 8.963812892545246 8.108704211917617
K 6.567843819275835 7.0475121541769115 11.45332180683611
K 9.161407297293934 10.593961113698267 8.01043132829349
K 10.158697877062997 8.673925361642398 11.25851099744347
K 12.756383469036017 12.220092052714348 7.815868518840099
K 13.804780668804751 10.175282178224595 11.059778484246472
