8
Energy = -5.13125548 eV
K 11.834142512064362 12.771421483698626 10.483110761441344
K 10.953887816963931 7.775373711377489 11.460697545685354
K 8.266004239002015 10.821377772509567 11.792227437902442
K 7.299512197031983 6.089909911664509 9.9712890163377
K 13.893517397794387 9.62323670003262 8.822077211695829
K 8.827244279385136 11.548479483706782 7.618843225685662
K 10.226142779055929 7.763026200260969 7.257550864425525
K 5.207576836015127 9.502866567375875 9.018744960802348
