9
Energy = -5.82115268 eV
K 4.876964635224599 7.249688928703467 1.2239099427772895
K 4.876964635224599 2.5042403417457324 1.2239099427772895
K 4.876964635224599 2.571085912769301 5.667515415128357
K 4.876964635224599 7.1828433576798965 5.667515415128357
K 1.8744448501232223 4.876964635224599 3.0288592070345977
K 7.879484420325981 4.876964635224599 3.0288592070345977
K 4.876964635224599 4.876964635224599 9.53514518232809
K 8.4279933856071 4.876964635224599 7.258483708782471
K 1.325935884842101 4.876964635224599 7.258483708782471
