9
Energy = -5.7377379 eV
K 10.748354048175036 9.721512846683794 4.382975069545091
K 11.444188725546011 11.884597739773854 8.480038949732148
K 10.231563427353239 7.767532975928663 8.471219605808301
K 6.666315217445551 8.877904044183103 5.521786373259486
K 7.218665850474022 10.750821636541797 9.724433427501499
K 13.217909321704415 9.400552076832556 11.797987985050609
K 5.858981419171744 6.690832746542065 9.272103846917053
K 10.250228543449856 12.191321602563818 12.988954517106588
K 8.862227479915568 8.037513498778251 12.868723639027964
