15
Energy = -20.20981952 eV
Li 7.640086020132927 6.271180447956361 4.0716935472267215
Li 5.59437140319046 5.159081289102875 2.331592898678413
Li 7.920142864947395 3.2917060029744123 2.495901158141592
Li 4.373458381852439 7.58100211303821 3.7832722863260186
Li 5.169428801460494 2.804157862953682 3.9931083539021435
Li 7.604938607424011 3.6263745465737807 5.30551882236485
Li 2.8287916828443485 5.013768639238466 3.4104317209671566
Li 2.1627189809324014 6.851410114454817 5.6705932337532765
Li 3.0030510934065413 3.923691672732345 6.131749146002324
Li 5.187520117245782 5.429272712078669 5.228094723131509
Li 7.592047458278094 5.9964238282152 7.130902463787161
Li 5.7598560690058065 8.048527410273923 6.450435936754703
Li 5.81777755960513 3.894406958778363 7.716065071147758
Li 4.042674430909172 6.217148987486531 7.732702875204706
Li 6.2587737561879635 6.847484641565908 9.50357499003478
