18
Energy = -25.41492634 eV
Li 5.925454367322564 4.499250002080921 9.139493196511792
Li 9.962546042086785 7.000985385493875 9.217524105102974
Li 9.0715950303693 8.964079611188394 11.35050859006314
Li 8.560006801559933 11.367121617885147 9.576073210810275
Li 4.526965058116101 7.19689378259103 8.649395300415389
Li 6.551399400572428 9.182380695661209 9.67111137175708
Li 9.877177766261903 11.202164463488945 6.685591116480602
Li 6.128836405561186 8.379846752225713 6.383005595832825
Li 6.093981084812714 5.387236547251277 6.191333794025497
Li 7.21586062253113 6.700600558896901 8.327903298838143
Li 7.409839128973908 6.426846202120759 11.009936890582829
Li 8.797557673373001 6.668428859926558 6.031729846035827
Li 11.122489331328548 8.286640943635113 6.514241216159325
Li 8.803704590222234 4.469916673285978 8.080436007545982
Li 6.731998833527167 11.093213473930389 7.118883843762703
Li 8.435089986975433 9.336826119657667 4.773625680344119
Li 8.684796807931825 9.110381388566083 7.765555761546778
Li 11.118515293101225 9.725466985971346 9.236816178522346
