13
Energy = -17.17091483 eV
Li 7.338016228681852 4.9461257234522815 6.0542297820185915
Li 4.754158088409417 6.57724261530186 6.301317138274077
Li 6.861537403941247 6.797259298356883 3.5731325055118655
Li 2.245974763907502 4.54318275667529 8.081376874528086
Li 4.687883241519151 3.69429806808573 6.778304568246908
Li 7.750239688291293 3.9600302969052272 3.209322724984098
Li 2.394440594065817 2.5108141901936913 5.655594365731356
Li 5.177671972060493 4.788908783816764 4.171440277404246
Li 2.404415330215503 5.250988285809277 5.262783325198743
Li 5.254025001780682 2.157595763459956 4.066117464864454
Li 3.7947543000092514 6.779702410888041 3.021775754240653
Li 5.513830168815322 4.85388214940534 1.4257208712131766
Li 2.8689366101916303 3.830179009775055 2.704463437228448
