22
Energy = -31.63604365 eV
Li 10.806010212051499 9.468506329392783 5.247534511770533
Li 8.439086269588723 10.891124128712004 6.633536662757736
Li 4.25992012042229 5.16805958023381 8.413965194973313
Li 11.128597068785501 6.5646364497533805 6.658855109130716
Li 7.491733476528663 8.887427420577323 8.839687653544809
Li 9.069652770363927 7.97031332801344 11.180027877902573
Li 10.279567179175901 3.8786328210912338 8.146841505885702
Li 6.119230208003344 9.21702230297123 6.256321507447577
Li 6.389608583742297 6.472952583275986 7.3258779289982465
Li 4.018480644391589 7.079456345924066 5.867870389796715
Li 4.505921784486965 8.463305882564802 8.519872765217627
Li 3.587854073884945 10.303776315671875 6.194981057038428
Li 6.73916857102153 6.960584844150301 4.407575369122744
Li 7.1739326683767946 3.9833551986698534 8.558936631137746
Li 6.449205028640242 6.544634828588638 10.25139896037028
Li 9.79537337540238 6.816116110116805 3.8434142551254102
Li 10.34392277641908 9.102577207250654 8.347911022681217
Li 5.646811516228847 4.262805976438374 5.791614859627128
Li 8.998300688866381 6.36996891830145 8.767694020787044
Li 8.732492894342043 7.993679092604829 6.222005746340233
Li 8.613505647708568 5.0603136584779955 6.053833863403007
Li 5.733974989530061 11.239707634846226 8.271725893755985
