26
Energy = -38.09523353 eV
Li 8.203547580564136 6.099239709455015 2.453503307677458
Li 11.541961096087427 5.006174446497311 7.227496601751261
Li 10.301040180280246 6.685035268959335 4.879293874327851
Li 10.292497772139232 8.123702494363393 7.859102064237675
Li 8.391885746062437 8.786042763156113 5.576609644261347
Li 7.627569007180921 10.188949676244743 7.938942407341843
Li 6.3049954945689075 8.60762168891555 3.451965618310484
Li 10.080136072416845 5.657614605181256 9.925446132458505
Li 5.226369326002854 9.334938766661622 6.061763473853967
Li 7.949723219918649 7.946267981707905 9.944901245462312
Li 7.249407840841551 6.328414307902766 4.916406437325747
Li 8.94555987396348 5.866687898220067 7.38192168440141
Li 4.9236612909276305 9.078994666535904 9.1492232316803
Li 6.701673928743519 7.498720092137217 7.541544379902294
Li 4.973983338193373 6.311669199852693 2.7285089730870826
Li 9.12230502173828 4.081803698237573 5.167225976572049
Li 2.420556759919754 8.101323885548513 10.435248901553921
Li 5.302341968722218 7.225205342994686 11.363850592387537
Li 9.01222628805525 3.3063551006232488 8.181567095260903
Li 3.1290588828087658 8.681974710952389 3.9512301622106714
Li 6.342844678455112 3.9610079594681804 3.9438211408707105
Li 4.285830759746008 6.448507880077621 8.724299447649342
Li 2.6178920816334683 8.488082586516903 7.2337146661484315
Li 4.493257556335867 6.6908394072779975 5.596304732402675
Li 7.052064318768586 5.295211090096113 9.682054496020452
Li 6.322513526955961 4.548201070420047 6.929455462767202
