29
Energy = -42.7293039 eV
Li 10.39106966966773 6.75901501496364 9.255296114013683
Li 9.02732285042138 9.08967578423534 7.753539496864868
Li 10.03622370683382 6.955242433756591 5.995679354172512
Li 8.75058224854035 9.738445792876565 4.7339912968108235
Li 9.683802220859075 4.249158209675436 7.737177274136476
Li 7.88804177821368 8.043651787205249 10.43859130058865
Li 7.975714533123543 4.875313101939653 10.385116221756165
Li 6.071937895975866 8.989281016152038 7.881768707732895
Li 8.524069042765383 6.827575469262829 3.1605275318916806
Li 7.850388805082082 6.407509052904683 8.124768009936478
Li 7.809284154018905 4.969371059147863 5.444389939697851
Li 6.426680150835319 8.86874679670937 2.8736782917446604
Li 7.249044122404006 7.751552006228086 5.62164426635533
Li 6.719605888825479 3.629062558779071 7.818844680055344
Li 5.557009106886959 6.212687605260186 3.8233488717778212
Li 5.241113987509208 6.745604879751442 9.646207471905297
Li 5.300145671317263 3.489641765076439 5.117922608625085
Li 3.9969731474609014 2.3038520881076874 7.595322233673923
Li 6.985409196427456 4.025187243791979 2.66182196029674
Li 5.083065054154036 5.989889904778349 6.843165235003661
Li 4.871709256635973 3.974733285358838 9.947834776787104
Li 4.673279222809981 8.869725517770059 5.254274846147209
Li 3.1337098665267002 7.965067616489597 7.803008899673437
Li 6.030838381341261 6.39711313991504 1.0634002049294062
Li 2.4984867372470343 3.785401955364188 5.443013542343473
Li 3.6034695752041603 7.685776493291818 2.3916806281076224
Li 2.71346657007386 5.0200658359153 8.158096912477358
Li 3.814213326270796 4.525559812152817 2.565295462180453
Li 2.815852564405784 6.5574388430075095 5.114346256128464
