25
Energy = -36.75070578 eV
Li 8.59845771137896 7.762302631729276 4.396013119114277
Li 5.666995389902909 6.645100521783331 3.744204803875167
Li 8.235073242241873 4.730332326656197 3.576836205604137
Li 11.094723251726387 8.763844848959497 6.041842670069741
Li 6.170682788747003 8.465866305838874 6.104786201320359
Li 4.235809534817595 6.14572280824529 6.342948952095605
Li 3.6217685108325344 8.821489272273093 5.016393753870859
Li 8.303088825046911 3.1267540658677806 6.154811186848868
Li 10.218972859505447 5.68376094280678 5.893786398194074
Li 7.218292193021412 5.689170055264152 5.977577584511236
Li 5.589556949717098 3.693675403593318 4.786665300494369
Li 8.79703340971609 7.895211841553857 7.341130661733465
Li 5.238042809057515 11.115737112513868 6.511805422241875
Li 8.389831324519744 10.485082464338424 6.115677025884727
Li 4.016701062701867 8.787647006481315 8.063769841352995
Li 11.161542148857551 7.114054931393378 8.596766835144354
Li 3.7441788118410813 5.966395896489058 9.390147854975558
Li 5.754967793999635 4.05622628744177 7.920397476727962
Li 6.246296956474314 6.880895624281735 8.558240846539901
Li 10.115081818756932 10.019838642077902 8.688695484071687
Li 6.925189691384983 9.873666572303254 8.695775697504653
Li 8.665495382216163 5.184387739913857 8.510944746313296
Li 8.464092369440307 7.808431304454787 10.25859701822278
Li 5.389348789005695 8.261479473831004 10.830936786175682
Li 6.450186571718925 5.334336116536816 10.792658323740639
