23
Energy = -33.4326873 eV
Li 11.44162201647657 4.733322655743818 5.031275527242516
Li 5.287094560084605 8.167962923865169 6.035286948341323
Li 4.069613587062487 9.921756741151611 8.734731755474323
Li 10.442396873726802 6.561545700307902 10.181764346856012
Li 8.920752296820641 11.234935272512214 8.0334803461724
Li 7.470460016143781 6.981076475886424 7.111945561471169
Li 8.020913601075993 6.701570806114739 12.233953733896554
Li 5.831497039559321 4.934047708973682 6.589063051600085
Li 9.01450842897123 9.618781733559725 10.742308179136863
Li 8.271956500414223 9.363473651026672 5.796565630829725
Li 11.477164920975842 10.059509358082135 6.549099871403399
Li 9.727061001964833 5.469561331584652 7.27575113719353
Li 5.161493938776262 6.9304639967746 8.871761823199282
Li 6.3499303253311 11.727188840801677 9.841943310443721
Li 7.936564877609565 7.3897280758402095 9.693955797507313
Li 6.757988795387529 9.471001157327903 8.380594473004708
Li 8.123483674196441 5.907627046952017 4.6655864221476895
Li 5.951716038591413 8.94596942990996 11.065861844207339
Li 7.44384364096191 4.834403726775388 9.411285807781749
Li 6.0090884914141585 11.415813344037058 6.7197621571562385
Li 12.381744310140121 6.880863668096006 7.33948048946219
Li 10.490831187703083 7.455564962144698 5.370745410123243
Li 9.86111262424115 8.455359249460313 8.026239982920913
