23
Energy = -33.35076291 eV
Li 9.329599482195327 3.1928949148557115 7.743666311827117
Li 9.47189605446803 5.39648224857499 5.47378197019106
Li 8.551307778689424 7.784020772197639 3.43387511852765
Li 7.353483051155935 5.0438103310142886 7.696241911255837
Li 9.749888611773889 6.6799216424781935 8.139792105748159
Li 8.426142322489275 4.823412357499411 10.205592283506643
Li 6.408975317269909 3.2004826173500027 5.940916725973818
Li 10.397044904890834 8.612247904120359 5.614729058135767
Li 6.556227889333015 2.640358290341562 9.001607155471355
Li 6.752915861518692 5.645228489049086 4.492421427991083
Li 8.644725261483504 9.762382098818751 7.872975119456472
Li 5.2723548169814825 6.613016625842887 6.695022065133703
Li 7.877318123892652 7.711522359029021 6.169526627626401
Li 3.8555861027079 5.435974278487682 4.676408343541688
Li 5.4168461303211055 5.2368743670102385 9.9153231690673
Li 4.0648469046837885 4.302060060172047 7.637591012221942
Li 7.639982673803633 10.307923125725873 4.93572087104136
Li 6.864559634970083 7.6030784918415675 8.959855913488447
Li 5.5105288088710225 8.340168428459927 4.246938900839465
Li 3.6213476076271918 7.378945028154648 8.684949078267605
Li 3.078550201178819 8.40216081958197 5.777643548088393
Li 5.5008995009977415 9.53085590631474 6.945956800776669
Li 4.459798046645871 11.084881584391958 4.590955338721941
