23
Energy = -32.88575992 eV
Li 4.073657310158907 5.884372095462015 10.300890948423305
Li 6.326536977113141 5.137595339809183 1.5650345708776352
Li 3.568666561068214 4.6709524491753625 2.4126638987415876
Li 4.296802895973164 2.886630591511601 8.140000110354176
Li 2.7062353377858996 6.6687158737888526 4.805405021055637
Li 8.349442622678177 4.5843171390491975 4.03034917638234
Li 4.5536352827742 7.385705653241782 2.323110715206438
Li 7.506584717360172 7.534670986914695 3.1600976722671867
Li 3.377016111442455 3.463153564955253 5.21993150194514
Li 4.019705265989643 5.4567818030855255 6.919493909630148
Li 4.0031770853152855 8.1357061156469 7.996750854029941
Li 5.387389794012411 8.037294313033646 5.399410599079142
Li 4.073395539747198 5.525115582592963 9.714497030948047
Li 5.845988144215084 2.7822612381575866 3.552882471254204
Li 5.606791450288468 5.53572543371991 4.408046865261668
Li 6.418155830186214 3.773089429511293 6.405844248944519
Li 6.341997312932074 6.417614236982334 7.83395563369434
Li 6.305162908993437 7.559595253003196 10.300890948423305
Li 7.160205480358392 9.092658185594649 7.595615736621837
Li 8.15195436554943 6.790864102388287 5.874615695263235
Li 9.102963950852088 4.380815110542976 7.081800742360734
Li 6.924721524120998 4.384177303214483 9.493974774771468
Li 8.939373384620216 6.8264566075282405 8.866844801819116
