29
Energy = -42.32367078 eV
Li 6.789809745613054 2.356549578590353 4.540790778031059
Li 9.785943625724784 3.29632188846999 4.653985085199553
Li 10.865566396483596 5.10682189589261 6.883247790471727
Li 7.774905661374835 4.795988731674698 2.9708055788773438
Li 8.193286342428971 3.5948871105555185 7.101795135749632
Li 4.822064056758628 4.19948319158473 2.9143101555758193
Li 10.804185448782349 6.037579809183694 3.8301932227520297
Li 5.783265753506625 4.631816292788197 5.762715200867382
Li 8.515253884046531 5.882690572256306 5.331866153724053
Li 5.765761435724085 6.837814629258426 4.050705544354284
Li 10.25065086348414 8.101010725769104 6.085024381233444
Li 8.434732806884417 7.956266171828391 3.2083390330049317
Li 9.49758504228827 4.273095033327397 9.695175883963175
Li 6.231093774863428 4.80454635914703 8.981725164829909
Li 8.468443730861058 6.4393032662047185 8.079949475553477
Li 3.409361298395221 6.0249490349001835 7.882057547008033
Li 7.86256835748107 6.655529478860992 10.834394799209553
Li 3.04178296481117 5.371790011102997 5.051264696037374
Li 7.490277713106611 8.5942664914778 5.810040335148099
Li 5.639827283353136 9.773993043710146 3.984725361659404
Li 5.912964511081238 6.991538804735322 7.146119039655366
Li 3.62378445457874 8.083779374438281 5.691799805581148
Li 5.349264651510312 7.871365953291612 9.752193797843852
Li 7.666597944020257 9.190397449539978 8.93114716594182
Li 0.9568627300658122 7.239984588176987 6.502960830789334
Li 5.284576294091181 9.936552446279155 7.140847969230052
Li 6.905303082448047 9.33356136996903 11.911724291442031
Li 2.8344059336455754 8.901945004755753 8.408883226335622
Li 5.027200973235311 10.729430588675386 9.967999950474104
