25
Energy = -36.89828219 eV
Li 9.959045110337769 6.056978468068481 5.4090963735861886
Li 10.155666200908485 9.277350639785878 4.704460818917989
Li 6.714888850383285 5.555762300477683 5.180371026536583
Li 7.622680337879281 8.266076813644123 5.856444137664939
Li 3.5291259636877714 5.464700454612978 6.410956894005729
Li 2.9150936452574494 8.150549999272878 7.8063402092730865
Li 8.121658192242416 6.129990509530584 7.493758146883322
Li 4.7170168541241955 8.19839817250636 5.21428515971761
Li 12.195516555693963 9.908407106584953 6.992031120287785
Li 8.935025743898288 10.639722206644713 7.108705672311921
Li 10.166640736562153 8.12729774851789 7.233476804280351
Li 5.4149266075777085 6.9290237058552036 7.642291377574271
Li 6.980860592953837 10.621550088989672 4.619107140545911
Li 12.380062587402342 6.712224853480874 7.533561774926842
Li 7.4443882426083645 10.851291447197328 9.970641198924984
Li 9.500063262995326 3.9652305070610168 7.751156013608149
Li 5.794017777469413 9.915538305491975 7.414594373366813
Li 3.771720218078542 5.587670183556932 9.390344331594685
Li 7.809605231986995 8.442990349679098 8.88753444712251
Li 6.110868230127491 4.077883883219041 7.7640791880436755
Li 7.031411266510392 5.762955520756758 10.034284123926902
Li 10.019345776159316 6.434947160322792 9.5710972916959
Li 10.530686811806001 9.475720862144806 9.595265012747987
Li 5.242542876090174 8.412072831396054 10.101765153017503
Li 8.168982432879087 8.267505986821996 11.546192315057667
