23
Energy = -30.81624926 eV
Li 9.263053544462538 4.994553233030657 4.379959554967605
Li 7.054374323880901 6.145851159655585 2.996446562799411
Li 5.457766788197693 3.7601551240420155 3.615446086973666
Li 9.587030830215966 3.866514091070369 7.0039871881860405
Li 10.78283538592842 6.51122908459064 6.396648318400377
Li 8.223522709327577 7.423753872064924 5.3800389593081634
Li 6.926115907488503 4.700289556330946 6.088724141533934
Li 4.954623926995002 6.50611573955838 4.874994145891195
Li 3.84616183179062 4.121102406403147 5.926517352406471
Li 6.256289164867589 8.867262997518184 3.812998538057087
Li 7.556924973373884 3.513940173163025 8.928034816766074
Li 8.615934144197686 6.196323878179349 8.263670727529343
Li 6.216519792437452 7.436002126299551 7.340967321997708
Li 5.113716524228798 4.814488616324467 8.350228336413698
Li 4.342894985590604 9.17654429275817 5.970294081633346
Li 7.323676325206252 10.121423467335196 6.213594230148785
Li 3.26256754016095 6.7351237282775385 7.183858277610555
Li 6.789637380415165 5.907201140929195 10.436763122713812
Li 9.600471384730001 8.87347370759616 7.519631711272958
Li 5.562225525014751 10.09932129557926 8.4758513517191
Li 4.550866284651874 7.609534786031573 9.657661057318268
Li 8.3101979147485 11.307836331790805 8.733589374748302
Li 7.668563572502225 8.573146166613034 9.682964648847204
