21
Energy = -30.2784722 eV
Li 8.150377635711147 7.899246725986773 3.7250625597282636
Li 7.355331876858896 4.851432952450517 3.7589348377760654
Li 5.0347222394192555 7.500613400614766 3.7354597212690237
Li 6.431566693600251 9.392085109804023 5.811287758837575
Li 9.520224051772077 6.458278788794465 6.059259486064955
Li 4.956214538969742 4.452356392038219 6.367371517354511
Li 9.473583841909686 9.551663162295203 6.133529627508017
Li 6.765886625140153 6.576001602553634 5.640914309942707
Li 4.07366732299779 7.342822168460412 6.51775802147743
Li 3.6039037513474117 10.061597256952693 5.59336805951702
Li 6.181652018099915 3.9360464284400836 9.4946569884261
Li 11.137007908190412 4.593939570645577 7.633437970644144
Li 7.960049109506126 4.082951639682359 6.776841632021259
Li 5.163221073158797 9.09356924062829 8.442100049181704
Li 8.00071628674132 10.495442899776231 8.757359579534379
Li 7.908838304416495 8.071970501627975 7.760012621086353
Li 3.8485573282275594 6.281845954083484 9.456920486831706
Li 10.485346011783996 7.946374514595613 8.65633678681422
Li 6.12574793405522 6.189913075588193 8.150649403315569
Li 8.77851142457403 5.574838192009954 9.010511360887374
Li 6.938096307070973 7.540232706522772 10.41144950533256
