29
Energy = -42.81667331 eV
Li 8.007667514026595 10.526314251899041 7.4242876285010855
Li 7.711083139079937 11.503370588726582 4.34691238516223
Li 9.566201442868836 9.040716222507625 4.975216151157272
Li 6.6754364467204965 9.088185843563657 5.340202860308534
Li 8.065510449998264 8.47699721232821 10.108519515153475
Li 7.635788135007559 8.922949840615596 2.7056920354141547
Li 9.842032639863683 5.775828750148367 9.020524589775917
Li 5.6901048528702285 8.76194520145496 8.398815285664856
Li 10.28409495565927 6.80948303550915 2.854885480300744
Li 8.271984942870176 7.602537044782108 7.358414523712478
Li 4.946057803820232 10.356834909925334 3.631366218304851
Li 10.519084432986096 6.197540174477745 5.812311654239623
Li 4.724234604252903 7.262457654357849 10.933246524274011
Li 7.015401588342508 5.844710033470135 9.296025402196681
Li 5.940962430070392 6.454992320903379 6.263229647508177
Li 8.118362293081955 4.607914022323362 6.845460388085397
Li 4.4529028986433 6.210669506587261 8.464248363931269
Li 3.861164566932638 8.471682089727063 6.096516399515778
Li 5.191675794690664 7.1449534346680235 3.670635929699108
Li 8.09225729237691 6.557427783781243 4.45665343599745
Li 7.843594776520975 2.9926941071672735 9.259200936697193
Li 2.4990484391211267 7.992336514798903 8.923399830836482
Li 5.064958552066627 4.149230750715612 10.560685150719793
Li 5.406608798925048 3.6395268304068304 7.618223157135077
Li 7.718550412752422 1.8912400897440709 6.2402723899344705
Li 9.317300063784328 3.9066401242222533 4.1717926200100255
Li 3.3026715288412802 5.4098812359030335 6.037949918724339
Li 6.1917546355328845 4.1495677193996885 4.651075499889849
Li 2.397834312413558 4.801636429488365 9.217988241787241
