29
Energy = -42.74028721 eV
Li 12.246322902598598 8.526332913728607 8.4611284769869
Li 11.681323528787216 5.8603767135532925 9.96955506129281
Li 9.864526351197107 7.246298061027666 8.616785433096664
Li 11.35119648646071 5.7536988098144555 6.757942860598426
Li 10.3816553459526 8.58652264065854 11.000432634683104
Li 9.272795101381355 4.262716296281106 8.612237362589472
Li 9.512114846232445 10.131643496630682 8.714992572905366
Li 10.050275053285517 8.539390652201593 6.109566768024316
Li 9.493361589366746 3.6063528777605 5.401582539312469
Li 7.928887069305582 6.6797568266051295 10.482553782170552
Li 8.267376598475526 5.805332131663781 6.6473032615691166
Li 6.88363438359242 3.2357664876004275 6.638835398551692
Li 9.54003216404942 6.399217239335815 4.142649019251493
Li 7.108641258010568 9.804990942098877 10.587242455810472
Li 8.88046218451608 9.599702248404652 3.493312261650939
Li 6.056480970780194 5.411597491640952 8.498856555740113
Li 3.8184247514514613 10.707449121311264 10.358515485802844
Li 5.534482105506268 10.414883468905575 8.103639190495173
Li 7.837934938907377 10.639848248928033 6.249719142308719
Li 4.843078540620269 8.038307523226782 9.657257984235482
Li 7.363314704263407 8.242161951270035 8.118446164885063
Li 7.3249216223194065 8.087180775725212 5.254615700569539
Li 6.397710213754782 5.365223229782876 4.5240484689890295
Li 4.170072476484068 4.478180770011296 6.152893738134819
Li 2.9579655993973026 9.250988867148552 7.54193948215462
Li 4.9396563411095125 9.730770358676955 5.226458269248739
Li 2.8876007656816647 6.279439538736633 8.113390772465019
Li 5.059001738300799 7.231441662892626 6.715667176689553
Li 3.0887848392046644 7.112291540383801 4.939978780614101
