22
Energy = -31.8761614 eV
Li 8.576830124567888 6.968164053398655 5.933566547451311
Li 7.475831579248079 4.219320970269866 5.709656990705411
Li 10.370632020328946 5.046840393195487 6.264065722307973
Li 5.303062324508597 3.910527503717424 9.100596728118795
Li 4.2018710597968525 9.64828969878937 7.721751392334924
Li 7.28105272497113 5.942722614803705 10.609067144652904
Li 4.648961527678838 4.938535083426964 6.544148114177929
Li 4.488379187087114 6.775722331472824 8.833288103205371
Li 9.67058544575673 6.756679115010322 8.684250523370453
Li 2.2262997520483534 5.009930882677998 8.329806726031817
Li 6.049701450511918 6.4321965473666936 4.223557274252508
Li 11.056850822661643 7.840421682176638 5.040978331229693
Li 5.969208876188526 7.985985352767707 6.441515052107331
Li 9.102182637314389 5.9270493545125085 3.493555649286045
Li 7.059798335902798 5.8637089964185245 7.929748534119321
Li 6.775839974683124 10.633708491649118 6.442538945468361
Li 8.479438298945741 3.7780015335995216 8.623547153321391
Li 7.111166742496001 8.627120446119772 8.914055499160005
Li 8.043963973464555 8.940572333031744 4.173903314641258
Li 3.0919055791991097 7.253441395975048 6.228801626982195
Li 9.406789564745552 9.328556189184232 7.025780953865724
Li 4.766276269269128 9.307419126154466 4.473199267016541
