38
Energy = -58.05542289 eV
Li 7.242590819044157 11.393037975972979 6.159265506174198
Li 4.158071716137652 11.7588915908684 6.813250884720445
Li 5.822416502316165 9.948899984902198 8.876932037194527
Li 7.4814792730182536 8.73083503137607 7.014227562354866
Li 5.0598054335139935 11.220188257745297 3.8604394767531502
Li 2.98103634266808 9.091772496069765 7.947662344960968
Li 7.42359199099633 7.125777820748611 9.594512451550333
Li 7.345899976125142 9.078988632423533 4.083680888651658
Li 5.006101918046429 9.38138202992096 5.879349159085572
Li 2.387842567219217 9.885451996249712 4.990428806651577
Li 5.208323989230114 7.181230031190926 7.852698647089837
Li 10.026804728753701 8.53381689730843 8.5663360097695
Li 9.965704248168281 9.356589881693026 5.6405543146656845
Li 9.062100017485582 6.7494034621401715 6.700174850796117
Li 6.499183575995237 6.456823287029054 5.121220189546626
Li 9.463487810985427 6.846163462692453 3.934493769257706
Li 10.025915590744814 5.176000757468185 8.715698185237658
Li 4.318786959301613 7.710239230298264 10.435984864532747
Li 11.714396481870336 6.722737604789752 6.383156728561134
Li 2.4590288578474304 6.052516311565504 8.346585983503413
Li 4.491490517678017 8.182798413224612 3.287984168885116
Li 3.344530835915709 7.031536683612017 5.623846170785313
Li 7.210942267762025 4.876368037030144 7.686208101425094
Li 4.88760417420612 4.797454569781943 9.653799728140342
Li 4.405230547576222 4.555201179796978 6.742296101039547
Li 9.721692162828404 4.288652427981514 5.6953982190495696
Li 6.878149857467814 6.7844652360209095 2.1630225654898014
Li 6.7439060931978485 3.1396629742418707 5.467951808381554
Li 1.8911000910626063 4.441432087933033 5.502326384140758
Li 4.647497153103933 4.766023802281294 3.7307261348220355
Li 8.599906874117746 2.248272998434213 7.504304534587341
Li 7.966126451718566 4.3284771574751275 3.284023579105268
Li 2.6229397142540907 2.979381352314142 8.22165454072781
Li 5.568160996795606 2.2436768199011787 8.078082076778013
Li 3.9347436345780604 2.084483265637814 5.450524191732017
Li 8.875451828635443 1.6157871027258155 4.344091734508867
Li 6.013118855221781 1.8807420371787513 3.0767179209488322
Li 6.517383012911933 0.39880729145028465 5.802702602329219
