34
Energy = -50.60306976 eV
Li 10.425268518139164 7.937530756536917 9.497484649987431
Li 7.888187013629094 9.48634173397992 10.61107959645809
Li 9.966353317533455 4.974919756023473 8.929814025590344
Li 7.6791939575852854 6.521088811641153 9.933782767098705
Li 5.415179271511633 9.873046790474138 8.871032153196275
Li 5.199152966212288 7.786455332621349 10.820104010488947
Li 7.798898362537659 8.39865435690251 7.995852258424746
Li 12.627836041645235 5.9370129989035805 7.914387235713333
Li 10.156887755488043 6.905459401050036 6.9085776628640865
Li 8.278544269878115 2.7634711346047243 7.6661885461076915
Li 10.610253775094062 4.1805160108928225 6.159264494042053
Li 7.735236544295219 5.467930646059702 6.96956771740079
Li 2.7181512998099318 8.604344148159218 9.099111120518053
Li 5.931701293162759 4.3236679898673565 8.96739805558345
Li 6.712949407308855 10.649865981901671 6.265521359277184
Li 5.031877361218705 6.985539224888578 8.077714330367709
Li 9.181358391312688 9.1899416685917 5.387090418776372
Li 6.658539457924518 7.766380556969392 5.415274440332165
Li 9.09245606475296 6.288757111072869 4.314153264598634
Li 3.2448640564049063 5.716952111592609 9.86614940631758
Li 5.155044025474237 5.03453578057655 5.67995196976397
Li 5.523740413957076 2.302096719080783 6.288956306823139
Li 4.076001178166584 9.115782827334787 6.350031948216154
Li 7.8074265256144635 8.508725901472326 2.7203581232314087
Li 7.857183513785449 3.6219041269326246 4.784765872742195
Li 5.371765182211432 9.729445494875051 3.6709718331325343
Li 2.5438260887436037 6.495495483769273 6.786305907384561
Li 6.378514588779189 5.8558924184378345 2.9981700072118613
Li 3.914301999426641 7.086549757350769 3.9840096046292475
Li 3.3518901094791067 3.7908935990269614 7.598419906311532
Li 5.2815395115915615 3.0901488637668257 3.411430748390691
Li 2.7938400742056437 4.038771950460402 4.63954228118741
Li 5.118338792102526 7.862961683259351 1.2406838277866767
Li 3.7712196527581723 5.157771901247478 1.7781054087857076
