30
Energy = -45.03477185 eV
Li 6.5934936580281756 8.254831775272333 3.3375682759486778
Li 5.728966488405966 7.071179859965977 5.63195720139626
Li 8.687374467300414 7.360147874655983 5.242640003432541
Li 6.542175999442604 5.09465027251639 3.7779741220358054
Li 9.418894160061441 4.495517858659625 5.00295374087616
Li 3.7496583757156077 6.8807920210652185 3.922020144235567
Li 4.957299990738879 9.744239669839928 5.549339012012045
Li 11.189166393136581 6.730926159933417 7.027344077015489
Li 7.23666508786011 5.077751946715727 6.5290985848355625
Li 3.459888636037114 7.465754365274898 7.105390070746374
Li 7.014571856761958 2.554179132477097 5.857739549940994
Li 4.4548992909044465 4.602605328587139 6.223919973087271
Li 9.818620948720339 9.310842076725347 7.654019040061847
Li 8.330051293515341 10.480997273676408 5.34979310891104
Li 9.28333857541635 4.017591919878746 8.078475395890186
Li 10.596504496144641 11.930920003217443 7.3538180096016665
Li 7.046411647067621 8.808538981065684 7.149143966560283
Li 12.445885425757066 9.537538083963257 8.406922878868226
Li 7.723604207629362 11.347510676818402 8.31283779049207
Li 8.627610003735859 6.738253318796815 8.07554477330204
Li 6.215788466619931 3.816824707400112 8.73365637893418
Li 10.069319564262829 10.65118565060574 10.196890551073201
Li 5.795262789718554 6.691002675979738 8.664751575000514
Li 7.835336798770666 8.805459343744849 9.92804889922785
Li 10.602376979887392 7.624890757961555 9.984122216876589
Li 5.151624731362861 9.686515271513416 9.031270602021978
Li 8.016379493939276 5.950737809255714 10.693123359943764
Li 7.0104187347927995 10.919247889044444 11.39209497883007
Li 5.841706419292007 8.021250166198627 11.600093705491721
Li 8.807268790511477 8.578680900727926 12.438011784888031
