33
Energy = -50.28418537 eV
Li 7.661639785908414 4.671074198662963 2.4596542146843166
Li 9.471605056279367 3.8124247409284187 4.992928440169303
Li 9.075604121742893 6.828853199761002 4.325730833057847
Li 11.222870480243651 8.8642756392352 4.4452780270395085
Li 11.409643330343956 6.217596541164609 6.1940053221113445
Li 8.028652316348854 9.673640821196376 4.373545787361888
Li 6.036553302005344 7.300273224652798 3.313166801816948
Li 6.6503347206039365 2.3964813794104325 4.266386738813361
Li 4.436886620368226 4.639752419395652 3.3665264882245007
Li 7.483510050862703 3.0810070536379097 7.234460624258584
Li 10.480910303426704 3.8236036355312795 8.075839580730639
Li 6.783496232333348 4.993062722201565 5.0510939302858695
Li 8.769214361709164 5.705954810724651 7.101061612240864
Li 10.288545511939764 6.9049396083863055 9.24849810879688
Li 6.80311513796519 7.711329216067968 6.0507618309493045
Li 9.530867565955408 8.596787282611846 6.772617220641658
Li 4.405546131933373 3.6397729712041933 6.30479371456966
Li 4.201087274152195 6.508499467265913 5.5778124947396766
Li 2.8237817562460954 7.485796001859341 3.4333581559831643
Li 9.051186055195133 9.891379405775014 9.664208858157904
Li 1.8279974221941062 5.189654986602667 5.306796215352454
Li 5.909596625118767 5.566030945740449 7.758230046383056
Li 7.505201991345453 7.775609701542166 8.844794377957884
Li 4.729700726493732 9.42696026311879 5.103612822134521
Li 7.918083396873156 4.982116404570825 9.79246081541913
Li 2.977137079091597 5.872207639878786 8.198284439393415
Li 8.05030885960207 7.676213200072403 11.50250940568486
Li 2.6459914341682693 8.597227143465826 9.816852763458037
Li 6.897328758976964 10.273570163331318 7.327688063431862
Li 2.1006677207381674 8.187127513701169 6.4637877589454575
Li 5.147386274095064 6.742392657700537 10.35542580938772
Li 4.658695752134549 8.315957124675247 7.921431156680279
Li 5.855345148310414 9.66716860014947 10.282203588896063
