33
Energy = -49.81222794 eV
Li 12.014788560212963 6.586981029531451 7.7271078528566015
Li 10.226452850879571 3.99551662696131 6.353755926067796
Li 9.577080015729475 6.6833202044928095 6.846496973384334
Li 9.602821531052648 5.057188451500936 9.372654728002479
Li 10.987028071560125 6.6560034898052125 4.426597618846063
Li 8.538377391616413 7.699068128664172 2.446315235080456
Li 10.919149705875522 9.174644040522537 6.219812962701503
Li 6.802556635704231 6.834108524710649 10.271597214295644
Li 9.327359784620468 8.24025014582763 9.006291750140338
Li 8.41891422204814 2.1260360176022934 8.265118747811373
Li 7.619657768319178 4.64921653681638 7.539560016586535
Li 7.298990536901704 2.949186074537241 5.354027658168985
Li 7.93586062981777 10.745593639751757 3.75637875573587
Li 8.442354525468104 8.460481965594585 5.089321474308897
Li 8.228809332032107 10.31958763326785 7.198930532925383
Li 8.191695820844794 5.660188268382053 4.631694915245531
Li 6.671092159073046 3.7733014336041504 10.167518281490185
Li 6.986431520554444 7.5384643616794085 7.34481970075524
Li 5.132361052173856 5.681568007063888 8.50509897615903
Li 5.781403421257079 9.343477851582868 8.92558599285624
Li 6.041266847264245 5.1939464272275355 2.826539302083202
Li 5.17289910098399 2.943497579722104 7.724224960899015
Li 4.196805876345294 7.824031743251139 6.642497234550821
Li 5.736176772752178 10.161967064523255 5.889757193646893
Li 3.112110272892638 10.229193307757923 7.566494157415446
Li 3.310660678845999 7.506619863441396 9.421787488429304
Li 5.560600175998822 5.38525543091934 5.677216361860585
Li 5.8955356681611475 7.933828434427762 3.9890028027126596
Li 3.5967078424748737 4.442304755830531 10.324043567845418
Li 3.1914725032772058 6.333521528913207 4.3924835884301885
Li 3.091585578397995 9.40997571647433 4.530505986932889
Li 2.8181026115054366 5.000737748039748 7.274443209596062
Li 1.516589313155642 7.762268702128275 6.725055979065213
