33
Energy = -49.4468576 eV
Li 4.508758966668856 12.731523725316894 8.47086066686232
Li 7.77597952955114 6.313026791303014 6.485494068723018
Li 7.677731545058445 13.034566405126643 9.029248774981705
Li 11.158336144326002 10.081104927090808 11.579887178814648
Li 10.866650850437988 6.856316071129139 6.691695114499707
Li 5.769112031127593 12.486576485256197 11.410903350678197
Li 5.486787855967131 12.035161694288186 5.589990231903079
Li 6.176569227104755 10.711507047236015 7.861607819356987
Li 11.01137704590745 12.889942368170013 10.887948601569198
Li 6.342415566957352 9.476284492565048 12.566726388050235
Li 11.15237535095076 11.74791511097509 13.869735158002424
Li 11.265441386278903 9.850761247432219 6.646294145179545
Li 6.250111068715984 8.945114093709584 5.775395989623085
Li 4.342545088246718 10.159885431020102 10.115209825559514
Li 11.267649825652704 8.277622119885823 9.185694522550031
Li 8.617770425498811 8.708819627049083 7.66604270374662
Li 9.123902031763555 8.665395334126123 4.862676552208405
Li 9.294748515646855 6.095524776864552 9.16926524445148
Li 9.420062410422881 9.154497413801316 13.59562600377956
Li 12.445780748961864 5.773259093229396 9.276938597831437
Li 7.179895714646512 10.484315785591825 10.199938690787532
Li 12.562557644492442 8.978229756223211 13.730355720785449
Li 6.241684045200287 7.884320083827477 8.953656371834242
Li 8.481028189662265 11.321449638433249 6.367190479755418
Li 13.632956530966355 8.123341123523023 7.6743838343892845
Li 9.761435710632208 10.904237376078978 9.104245076007091
Li 12.758613834299098 10.8042015556055 9.145275703078568
Li 3.635796755625936 10.069018513686308 7.100361117455106
Li 8.760281802572544 8.40620141510757 10.816030971861961
Li 8.61943249867209 11.684479774344304 12.17536897049156
Li 13.644343686091684 8.342751781537777 10.821435908795733
Li 11.092081079547834 6.968464146507892 11.80541580510648
Li 13.57886944454454 11.325347961108315 12.057021512709131
