37
Energy = -57.23181599 eV
Li 12.593059453565587 7.623590465309359 8.060457321983973
Li 11.277141716790325 5.619859657422857 10.044326047368928
Li 10.172998084701787 8.642544850648301 9.890304201997845
Li 8.330089200932212 11.191159490522493 8.802953311100463
Li 7.004169532596991 9.037129047040334 10.706356615323529
Li 12.060492833102469 4.696355021543295 7.1504320327798805
Li 8.217829308241491 6.223691393275222 10.04906975379102
Li 10.42443976086861 9.558856102910323 6.791073744591987
Li 5.769636136977498 9.958090975483366 8.127697639336162
Li 5.730417261374593 7.017555648972223 8.839160982438784
Li 10.169312097832197 6.548439363329954 7.6721107342927946
Li 5.4707533497583976 11.691688263491706 10.323201139036112
Li 9.242471269499593 3.761173825139909 8.24829803225635
Li 4.001323632553758 8.867522684883536 10.197090775615868
Li 5.445396481553878 6.248428247282349 11.467468209051123
Li 7.663461422189686 10.431569022166551 5.755790975070702
Li 8.124042607389594 8.475209098983958 7.965760019801525
Li 11.523287114499873 7.127103888243895 5.0530166268338546
Li 8.795008626242922 7.628398154974692 5.190613123551554
Li 3.3749906340538764 11.12905131368444 8.056321616523789
Li 3.370873495267597 5.568703388024863 9.116500528368931
Li 7.590037124660922 5.685842913370589 7.0580884468016665
Li 9.527896959213196 4.7073501383467455 5.2276031119625745
Li 3.4926438375450255 8.051389953871587 7.200300402428408
Li 4.571897618036347 10.113107974739153 5.197531650089451
Li 9.363122532499455 6.6196532421369785 2.6559386571500596
Li 6.054847645127367 7.920511016639162 6.010065446159053
Li 9.997088049754833 9.53980451218639 3.6227158771518013
Li 6.085599991971977 4.115663221286411 9.088835723747788
Li 6.827339319755727 8.571788716401647 3.256624630394061
Li 6.781831900506664 5.597369784836878 4.123022079476654
Li 6.799608048504212 3.093575027779913 6.08552225923762
Li 2.267111969223861 5.313093268030222 6.105655657429005
Li 4.880446645839381 5.281924115994949 6.515534022329984
Li 4.11434839228073 7.039536163048958 4.153312742499601
Li 4.264985591831797 3.7864432365277914 4.254078985198012
Li 3.8094660266421965 2.8654981934254318 7.233413339354173
