44
Energy = -68.12774133 eV
Li 10.187663201406037 6.064060194925278 7.422623900305673
Li 10.443757959160536 3.5987629687198766 9.25862523749129
Li 8.172196715868509 8.314465660196241 8.542551146291164
Li 8.352719358080655 5.5363018552621295 9.817624853107851
Li 5.763874512149918 10.315836965613084 8.81671646759137
Li 9.192470768018621 4.256908683582786 12.249004152618294
Li 6.0778548260761855 7.525789308818392 10.706521011643481
Li 6.11144730395251 4.564080232441879 11.724176642043261
Li 10.861922116797311 3.484595455294274 5.92760678849835
Li 9.10759161776278 8.11207939419459 5.6606064367023725
Li 8.552726688417959 10.845237270398094 6.78949977687723
Li 5.587337168043374 11.767361379088372 5.940610461858292
Li 8.343246141099847 3.8777422986298453 7.220158892801215
Li 11.494647730009067 6.651474921265778 4.72496190702274
Li 10.840551177553948 9.864981138990752 4.412343482742915
Li 7.071639758913666 6.377530288694658 6.99370872649562
Li 7.662660873677214 2.7272854789199847 10.090725338068129
Li 6.314340209552118 9.133927285207124 6.371697958721108
Li 4.375896310401086 2.6407631013242265 9.913589798607042
Li 5.873248897884209 4.757303109612515 8.861559021349464
Li 3.129345577642116 8.877540192592516 9.98990156588808
Li 3.4101178057082993 9.599428318488359 6.854895644222399
Li 7.485605553096142 2.562622088150181 4.374023124102942
Li 6.088766659233746 2.321142337631486 7.333733353842515
Li 7.732245399352422 10.091279279136792 3.9550514808204147
Li 9.300475060054294 7.681077662107719 2.807488028924349
Li 3.472300800445316 5.694815048295047 10.16545603668424
Li 4.821206679594933 7.48735222616068 8.351896261962725
Li 4.6298821521094595 9.3088095779217 4.038697627563433
Li 6.716443011363983 7.198433218560029 4.256749328974694
Li 8.868839793571958 5.2783423768466164 4.74912302060555
Li 3.681249171178233 4.316772037731751 7.295212915053777
Li 4.273372820623676 6.888127994748028 5.7539928874718065
Li 5.745806260719769 4.518370293696003 5.145959079982788
Li 4.222387881781984 2.1417226318631717 5.028748786203822
Li 6.39146743682886 8.140284224100276 1.6400681994944901
Li 4.2962508941254445 6.4496113940628375 2.897099275066404
Li 7.063918286083263 5.199551185989053 2.3057568149414718
Li 2.0351501938816465 6.92288865820967 7.551907148475964
Li 1.9564852691384778 7.686349220096419 4.346409826366825
Li 4.482711080883323 3.679164354680749 2.448955050385284
Li 2.598719595757436 4.783405531006354 4.5849515142987975
Li 4.703596171928707 5.814950101407806 0.21617788982195973
Li 1.9624708947281084 5.502126011854081 1.6895782685550116
