43
Energy = -66.21117139 eV
Li 10.844677260479436 8.120803832958385 8.947555255392045
Li 10.480552916123333 7.891821567488231 5.688701615510798
Li 10.84734718750735 5.206942216568456 7.576976342892105
Li 9.088736791424058 5.5242428662085175 10.206315971273781
Li 8.961137183932564 5.352151060153507 5.390827900844125
Li 8.147961249321204 8.391015587699655 10.108991935511897
Li 9.70395057755818 2.4613282875318423 5.885436785480308
Li 8.885244079225584 9.96404929796928 7.304602302781408
Li 8.067585560371816 4.013703190753016 7.847070268350535
Li 8.803157325829538 10.177458363062751 3.9625197150380527
Li 8.621286813798834 7.018728322026127 7.759742762807495
Li 7.018156455025234 3.1017376186223453 5.265643638575245
Li 7.530700286865174 8.10602248348351 5.263858997839498
Li 6.2443843059362045 6.085940673419864 9.306873952235879
Li 8.802315072233846 3.5997868999308196 3.019276459629709
Li 9.091354991013535 7.092185519014708 2.9839757318534543
Li 7.159667912876534 11.063654133613237 9.692230198800406
Li 6.553101830747888 3.258356309550038 10.169435991329252
Li 5.196012908650575 8.421891203154523 10.785368416200413
Li 7.135958494771263 1.1393117770032513 7.271501612858865
Li 7.667980242348175 0.7323232378326895 4.064495418450155
Li 6.2098738286745965 8.157759851481394 2.518562318830701
Li 4.7803194844973085 1.3199507446242815 5.056766935011447
Li 6.141822725959266 5.895324790079111 6.561356337891982
Li 6.660998478139371 5.590045564483411 3.7607359826464064
Li 6.145774183976841 8.969216863233092 7.811089682064804
Li 5.841615868851437 2.872432099170686 2.603670383064005
Li 4.399671562969302 7.438848318276517 5.043517575564683
Li 5.8026553190171235 10.178567530408987 4.42773016262359
Li 3.739770970302346 5.086159841159653 9.950213123941277
Li 5.071887630102124 3.357022484032106 7.589831209518278
Li 4.359164979941051 4.197260525007534 4.77926883297932
Li 6.403716183594504 11.730473849178379 6.8564506898314335
Li 4.3236165798726995 10.864939648930987 9.04528639536258
Li 3.662954157454303 7.84860394961846 8.397414184290481
Li 2.189984252588996 2.916372445740186 6.073814614738728
Li 3.0190896175281137 8.81995168244239 3.23645276305072
Li 2.7497706242971565 2.8441605701819004 2.972229266647722
Li 4.155344019416956 5.746186946269296 2.2938944261294503
Li 3.6902855809535766 10.03856883964251 6.249493787172472
Li 3.1775097038436404 5.5342909932601305 7.023265982629243
Li 1.6541569338549116 7.9705970777599795 6.035348701627374
Li 1.9662964981965059 5.58907545956606 4.235137001730037
