47
Energy = -73.08174064 eV
Li 7.025223104605373 8.28660530858136 12.086909070226428
Li 4.498745472016003 8.812219965240212 10.360976489718663
Li 7.797214311827598 5.312797145703701 10.93958707303012
Li 4.744666192983206 7.534022359747326 7.832942615871246
Li 6.104325033742968 11.102807962585386 9.583047469696584
Li 2.2196849088513853 6.926153047927346 8.9172205105797
Li 3.6024975338220493 10.090541813359659 7.710394367863461
Li 8.753500018451986 10.260522604031928 10.272056150576255
Li 4.788739700272497 5.932554650363512 10.447819299137763
Li 10.079143422594875 7.6754456948566325 10.62803854817743
Li 5.0196655859877755 9.627235589006482 4.95957172436624
Li 5.853956413700971 12.174743972370905 6.659058771353389
Li 7.191236485546801 7.714901609712832 9.496933123427338
Li 3.677912602557719 5.088175847157679 7.098572530056265
Li 2.491439510365622 7.592884162435613 5.8904886384242285
Li 6.603773561605255 9.631762390242288 7.360962775763096
Li 9.353078783412242 5.67344687844055 8.493773020034464
Li 0.9513886889837794 4.7899381832024925 6.805342016284613
Li 2.8497135790453636 3.7077111154910787 9.172501147097556
Li 7.8779481913028055 11.005543606734053 4.4603889485186095
Li 11.456169704746227 10.319653453831215 8.845262910264369
Li 6.218971645098374 4.702272357563471 8.412676087644353
Li 8.830542837305961 11.453652505962548 7.48747958921909
Li 7.190639229890873 6.563102353161834 6.797819260518668
Li 2.8909791592776397 2.5038153840719404 6.1175858853989284
Li 9.432033773835856 8.64241606689346 7.961449106954598
Li 5.14227237522876 6.810740055861893 4.969885046061344
Li 11.94512300248499 7.335035484211571 7.960515549873443
Li 5.256854804014025 2.1936690076599588 7.827645299406361
Li 10.806257954667766 9.664998144748525 5.769439783352587
Li 8.067253814184337 8.51896774979015 5.296857899330739
Li 8.32790025333104 2.773667350519652 8.537720746966476
Li 2.8847676833863254 4.8701764547918165 4.274630222757674
Li 5.668674773769404 3.953291972765356 5.407394718494782
Li 11.22956893426503 4.065434377763126 6.928927610865863
Li 3.468800169783512 7.741971368502562 2.9018354137916185
Li 7.807478131934825 5.910685409744425 3.9824878939622708
Li 6.617120580277443 8.197595651314664 2.7192432360249548
Li 4.5882160184089065 2.193874941558769 3.5735323075802623
Li 5.343123697742183 5.16554375908857 2.516795738595674
Li 10.116967497761001 6.5710717161602386 5.816262795622035
Li 7.061096488835672 1.46030308595516 5.605500751175492
Li 8.470081348738873 4.036200251931708 6.011082653177144
Li 9.714417454642854 7.941249451905393 3.093178269758072
Li 7.519816512454947 3.1652222319351613 3.08122799047107
Li 10.238481832568045 4.574546088907502 3.640855128049627
Li 8.250707091243953 5.697472938648894 1.292666729443458
