45
Energy = -69.86063386 eV
Li 3.3479483646741324 7.521820187502096 10.565064045926029
Li 6.264998630692793 8.231013661807257 10.183010137987553
Li 5.550638038413874 6.548927417152472 12.644392851638388
Li 3.3330930780145125 4.63508845602814 11.756416236841547
Li 4.445840351215423 10.078962005192071 5.88883616528816
Li 9.345846527199779 8.176765067737293 9.052505228645597
Li 3.9772501264045013 9.854085292072387 8.838253166857562
Li 6.901226343662724 9.616329558135954 7.725095635338132
Li 4.589230183137737 7.3612549318962275 7.52942438938528
Li 2.6172798548048704 5.337661392415406 8.720564619767236
Li 6.557672945408051 8.424931044898823 5.209467754656524
Li 1.9791780049005652 8.104245031641943 6.667603687729027
Li 5.30950860537655 5.4856252240992065 10.02092186580293
Li 7.347178877264757 6.545943752252039 7.716488456474741
Li 7.499664494774531 11.062258168712107 5.125866888511915
Li 8.08972490931749 5.929665336721153 10.645001912657909
Li 5.406584863520802 9.8660613501164 3.040321941242557
Li 2.1768038887906718 9.693380927998174 3.786155652333616
Li 6.234590559435121 3.654943333910226 11.817737518622693
Li 2.8697274128355197 5.174167833218717 5.6939471985362555
Li 4.434270325346535 2.6484446856664072 9.554453748714005
Li 9.32800604984241 8.580228854400723 6.075231508030946
Li 1.272776598181223 6.740438372392361 3.6088193096498884
Li 5.117625893744782 4.311628798332457 7.446062168618224
Li 3.7957601296449845 7.628500270401645 4.389241040807081
Li 5.695766685949497 5.7864087945112965 5.1755308718035185
Li 8.662364580746303 8.865372546075585 3.1324671706259974
Li 8.409974321716007 6.2873279672169815 4.601467269016519
Li 11.068794448213449 6.859097424536464 4.122119422356794
Li 7.556068902376639 3.841172362448549 5.909941614148787
Li 9.888455343538759 5.434656752029456 7.015474212150621
Li 6.251078529961196 7.087324080610795 2.5613945443666353
Li 3.502510989135752 7.734357133131584 1.5690251761214402
Li 7.550323294984881 3.6402344585995845 8.835364100028503
Li 6.904736610591347 4.259230846419258 3.0346107131251765
Li 6.36761766237085 1.483066497672167 7.080481842915162
Li 4.885718954548559 2.891174373690801 4.8379281678202455
Li 9.809848601096569 3.8950258906909365 4.006708359553031
Li 3.9896936203130897 5.023545361400477 2.7849665212105874
Li 8.987271840298918 5.978718152916301 1.788764073556349
Li 9.492372818473271 2.1627040120749212 6.697396578655341
Li 6.116827346904588 5.0492491831094695 0.41913878670501786
Li 7.607057607688159 1.625183034403333 4.089560748176485
Li 5.46446004690568 2.2813702700412772 1.7829538471696769
Li 8.416053273064918 2.981846001961711 1.1893404571952642
