48
Energy = -74.55736277 eV
Li 11.152118901376346 5.378825627598224 4.802008465496013
Li 11.221812239702055 4.508394571345353 7.929542710909441
Li 8.998677060857547 3.570997064665657 3.1241560057020585
Li 12.133794325765505 7.407387696087869 7.016052016921463
Li 9.96424526940955 6.428393449594585 1.9782824530704166
Li 8.910906717276475 3.930549075677755 6.1485853496997205
Li 8.091594505827148 1.4211910023857526 5.337413121532066
Li 10.326035009065018 7.062196331962575 9.581213401220516
Li 6.906875363322879 5.578898488513061 1.8380776650646444
Li 10.082477411167066 8.363566792713632 4.56119817775817
Li 8.235286243745197 4.789054091736681 8.99352662940614
Li 9.549334304917721 6.62764020256189 6.891011968204638
Li 6.374844609342621 3.932586471967792 4.5531811822112145
Li 8.792261498692719 2.067284548140291 8.376353907727204
Li 8.369083486573508 6.103676968035456 4.200868300095425
Li 5.154973873535061 1.2432948071429655 4.8432043150476485
Li 6.472474879654339 0.29525147149023023 7.669626059806042
Li 9.424939999761339 9.481267698871553 7.460196939368036
Li 7.502964835460682 8.450541530820384 2.6706980482681186
Li 5.956858943961311 3.0387030602500325 7.23456807841728
Li 6.81826423385782 5.884285113945908 6.676346980016879
Li 7.626762397687232 7.71889983918458 8.862683896046764
Li 7.935709636559862 10.92229657607594 4.659829349751686
Li 4.307173721194927 4.06479963437843 2.6967194585665863
Li 8.56128429656251 9.42129670680571 10.700761169161252
Li 7.196979524536409 8.486218119835613 5.690791062868311
Li 5.331891062684143 6.710325459392464 4.1155756284588465
Li 7.6497343271878595 6.470082860977748 11.391874627432225
Li 5.976399994266068 2.5704236718683595 9.93884008623978
Li 4.193240430254688 7.194472553140741 1.6557838351802903
Li 4.838741441251877 9.636984419152538 3.4069772259767994
Li 3.7490820155929754 1.2734971284770842 7.751232940228504
Li 3.2708064253266156 3.3994456606325447 5.494998934809178
Li 5.456197516290455 5.71458554338565 9.333626631188377
Li 5.270452792054677 10.747165876027276 5.965824612978409
Li 2.464379456636417 6.059985703232848 3.984413580434597
Li 6.75103368058157 10.55694611862632 8.41667389956925
Li 5.167974272380524 8.241955317250728 7.653721065024291
Li 5.37230488799312 8.648466915865159 10.458114711973737
Li 4.096993403793888 5.728066903390393 6.603722202245607
Li 3.302732761942814 8.40331618625595 5.636935844530348
Li 3.135589878224677 4.04225806247548 8.637473063745427
Li 1.763689422359617 8.820626795422973 3.3226815832258474
Li 2.3937331856432595 11.04611651954867 5.221120950933533
Li 3.2629157336323207 10.233727761984133 8.164580440129654
Li 1.281776460235986 5.666091270431757 6.653245928902621
Li 2.716411384058521 7.258857203239426 8.769301050715635
Li 0.7690731862771568 8.717899757533692 6.373578077003682
