40
Energy = -60.39069287 eV
Li 7.942532924027707 2.517963547163767 4.40291769181232
Li 6.106317569466912 6.827584183086678 4.485060583233837
Li 1.002256215099034 7.58061161873015 4.4229257093572025
Li 8.824585234545454 11.03486779887447 6.238720220497262
Li 8.329194354454188 5.621486614464925 9.144645463362243
Li 3.181939356180914 3.150695374621872 4.348125378932617
Li 1.2562301547954542 4.954928104261812 5.7082372063169124
Li 4.549906314768571 11.615811509897346 6.319522317864902
Li 5.402219224414417 1.5572752213821301 3.1921112203882775
Li 6.438669220507796 9.477047172341168 5.910286933650237
Li 4.012996888943265 9.183154053950833 7.955024392833782
Li 7.749925785335318 2.7573906184175794 1.4357259380893113
Li 6.211366178374064 7.261982505558127 7.444418672936632
Li 3.306667848960825 3.5617686063857197 7.567445934547839
Li 3.266818242514364 5.834070205689624 3.477894142677332
Li 1.5818172631909493 10.368649580625943 6.354459480813379
Li 6.303049269846476 7.79012669318557 10.059206994715172
Li 10.302273212591764 3.7222865809440355 5.800396052768478
Li 8.971049320806047 8.010010831624516 5.175262351709054
Li 10.663319368476548 6.393043594640999 7.257808442178707
Li 5.819359883531597 4.626585436848573 8.320044941421214
Li 3.848342873715158 6.1259703607792915 6.285002780863291
Li 8.101604938966203 5.482558530473644 6.240442549869525
Li 6.609579697759365 10.534362497909667 8.472095712289242
Li 5.3472168171980945 1.5480691242292028 6.374151094958632
Li 3.628426848832806 8.764784623422447 5.1901188941617145
Li 1.5951750250124914 7.527468720345398 7.329983084148419
Li 8.79104170460622 8.600179842056605 7.928566683968391
Li 5.704151785288927 4.066945231598338 5.570780713405099
Li 7.871238426430574 2.865962384694612 7.609499454873811
Li 11.395821421782975 9.093861844796013 6.199301081046429
Li 5.784237544102148 4.287659099246062 2.8812559035309606
Li 8.607859863955692 5.087466513508084 3.4500670311514168
Li 3.7422219695754197 6.238143127631791 9.24260261749854
Li 3.4957352528460124 3.384708985037289 1.4096529117865808
Li 0.8206008415705852 4.555298770674881 2.776947225121906
Li 10.608230776684344 3.1454999128860583 2.8669453405631065
Li 11.219422021238412 6.16906416056926 4.387956030034195
Li 5.954872355645499 4.842056537053693 11.030558748707524
Li 5.387277241066725 2.1780855400537056 9.435441816268678
