40
Energy = -54.76291111 eV
Li 1.7709077059300118 6.277551850198841 6.473208762178766
Li 3.3974605392499644 6.175180822185347 8.678195007843533
Li 3.422924234587608 8.649242541672725 6.900345670750271
Li 4.992727533395333 5.562539076554193 10.888723516651657
Li 5.094616238026535 8.336867901260057 9.259917493697243
Li 5.029257329643788 10.940134243491848 7.633183730872214
Li 2.5026358952053367 4.955500708380913 4.076674599938011
Li 1.9476520283143908 7.980312758799987 4.12146779037795
Li 6.986598657781393 7.491151845270484 11.270907406005284
Li 4.734187472779936 9.162057341651046 4.036419115871928
Li 7.0586489428391985 10.389737611404403 9.536559994339466
Li 5.966068385269592 11.512700125713753 4.969125923011774
Li 3.6018820501826445 3.918062094457599 6.726486332093965
Li 3.9874871524952074 2.414816125292304 4.30803009815041
Li 5.130103770166351 3.227432499148343 9.053661284749166
Li 7.743648544059948 4.475429710528799 10.686782354984445
Li 4.685223860691225 6.381578002390707 5.490439531067632
Li 6.307162314243386 5.70531696344811 8.187591703184108
Li 6.350402391831274 8.608324721920644 6.456857812760325
Li 9.008502396746872 9.406184868212586 11.254190046862998
Li 3.9320586220898037 6.902967997075235 2.3107420252047093
Li 7.83741967625374 2.9075573776398826 8.279609851074472
Li 6.395559654990085 3.748429299576971 5.830889601451576
Li 5.348202643351722 4.525283525614402 3.0105381418233357
Li 8.237458106780732 7.856650053787945 8.601565495207788
Li 9.8520329924067 6.583580168469188 10.884276211940639
Li 8.105939777586284 11.002926882892394 6.7369885631520265
Li 8.02022746830101 6.2091381267568915 5.945835401500833
Li 9.46355456288359 5.20060090885479 8.330818508163075
Li 6.6803081219995075 7.064688153196543 3.454483544605579
Li 7.950914866162898 9.58985717615801 4.08424247643502
Li 11.763152824943502 8.88665273627173 10.728289095404362
Li 10.09884417753079 10.226575538379555 8.616247104349975
Li 9.454531923003316 3.452898171313392 5.915461548645507
Li 8.163837563845012 4.531206763209449 3.528727300985642
Li 11.27306742459778 7.479727728188929 8.321561570912356
Li 9.735642968159521 8.622554839788021 6.150004605979926
Li 9.654692216728348 7.11343076347647 3.5729850111365256
Li 11.01405419443197 5.977240313788244 5.936906894634498
Li 11.03554469457736 4.386881005170409 3.504212165935443
