41
Energy = -62.8120394 eV
Li 9.528053049497466 3.210020049657368 8.304802969683005
Li 10.451502894574363 2.8460578930503857 5.170332452645587
Li 7.609435758986648 1.889267765080405 6.044064463439011
Li 11.197237040763639 5.367515075114247 6.7529557643046445
Li 8.721761253254096 6.155039263911397 8.419998387487958
Li 7.669764849088672 4.81163345210453 10.758675294405716
Li 6.693112480585193 3.9023939653355426 8.167425732804146
Li 10.804196592786974 8.249076328981737 8.138527086415086
Li 8.093102640955466 8.134120193253414 10.313289676112312
Li 7.8856187282174846 3.6903930664216786 3.2084989637613996
Li 8.532102024448273 4.618739248997039 5.950566297805646
Li 10.23628942150937 5.53890954377942 3.634453846452251
Li 5.759850979594205 3.999763659122899 5.238758284376896
Li 8.064024289870115 8.953248501064213 7.301049909291447
Li 12.13558455357397 7.8737433322015855 5.215597426149167
Li 4.5497585392299005 2.085844611264978 7.2092476536803405
Li 4.391377983313319 3.7750979074856925 10.03190820757039
Li 9.461872899627725 7.414374283923736 5.598102771307569
Li 5.5635401903589825 6.575535847144264 9.551466525866125
Li 6.424003236322542 6.631971567313739 6.821322558162987
Li 4.043069098025757 4.937291549406351 7.411660489376116
Li 2.334874944636051 6.115488898014648 9.496856371331107
Li 10.146693618581075 10.209932650021267 5.652971473599986
Li 10.171349518943336 8.44466056384147 2.944554435402656
Li 3.3972519353207695 8.925900752634844 10.259689455611248
Li 5.140708931052238 5.055690618728108 2.498196026843023
Li 7.77891890952455 6.733041900745726 1.5687572640749532
Li 1.8595720137575689 3.444559487217915 8.012878541489586
Li 5.842945470660802 9.46621798314344 8.721762743570315
Li 7.124937712159471 6.487297713826609 4.113681096900482
Li 2.871188431714015 3.726386142730421 4.9565456117862485
Li 6.852718873893452 11.420190031106863 6.442440624405949
Li 3.6589058665431287 7.838823854132769 7.613022551012899
Li 7.66633618133812 9.328100734107808 4.097194594186475
Li 1.140113894365862 8.801962384890846 8.07639894491345
Li 5.115215232527344 8.201721240115422 2.7575604364889683
Li 4.158939924553285 6.466314769405104 4.93246987814681
Li 3.559759196279618 10.695265489029472 7.433385888318224
Li 1.5306736642432766 6.125623336738658 6.452340667101909
Li 5.403996934022046 9.04884244056146 5.690648087355448
Li 2.472355766159832 8.868789704406902 5.094086229610695
