42
Energy = -65.17342503 eV
Li 9.978021429951921 0.9345203069447418 5.987993483161814
Li 7.496038409382464 2.253404904456575 4.345356574087655
Li 6.469502828784301 4.472995602036799 2.675597520140529
Li 7.900081733765479 2.6265399007749375 7.224012501121759
Li 6.453455883441446 8.096723126513753 2.127467287985849
Li 9.859324924468252 3.8275432736345087 5.247125117780523
Li 7.226040751081622 5.0251329809469025 5.3510117302181035
Li 8.787662063182177 6.150341954028987 3.115863200269925
Li 10.694193850919657 2.836163001772377 8.329798649157055
Li 4.727655025613468 6.694879136411718 6.389167145092502
Li 4.544164954834796 6.251830847193211 3.710598432911882
Li 4.700217698756279 3.8285068276037046 5.6117481134782246
Li 7.427240522250284 7.260397625016524 7.306372094909619
Li 6.524455595709886 10.797136774025748 4.458404973909355
Li 6.914396181244173 7.845755753649305 4.697837942478503
Li 6.155730262547594 4.84905649977416 8.17371222980415
Li 9.175568721225009 5.165873199695751 7.838116269321695
Li 9.823783730188095 7.0428935914715805 5.658941928596077
Li 9.194806819445892 9.369380896938123 3.61053181333464
Li 2.103520630037227 6.3440741397889795 5.543165829386489
Li 8.182308681872588 3.750428021968022 10.22160742647486
Li 5.372897932570924 5.494220659479459 11.018197646637569
Li 7.911516623040413 6.655066090806518 10.009028487015838
Li 5.242861743523795 7.596743375695375 9.114929058825842
Li 8.214022245607657 5.95254055583834 12.562721761250653
Li 11.370187627584329 9.768622738382101 5.924257862207688
Li 8.634914191823425 9.736712822693406 6.367131859480254
Li 7.595850327756718 9.51333245541851 9.17824125297308
Li 10.558247548326591 5.647879849391732 10.415251176675714
Li 10.142962856808296 8.091710910771681 8.414459973525377
Li 5.687002960714339 9.482654995849975 6.889896971772584
Li 3.1788376037544355 5.629727376490718 8.487583329500488
Li 3.941813902743493 8.981059940275678 4.63743961150997
Li 3.1226902647044428 7.894502107825213 10.77618036982772
Li 6.206946877216968 8.437962831382375 11.64648508397124
Li 4.702900907173386 10.474885525998307 9.42037348620204
Li 9.402301516644412 12.127160441708758 5.29554152634643
Li 9.49879787378664 8.620672100039313 11.310113593195734
Li 9.96831463663792 11.173496584960535 8.360474985536374
Li 6.966501134018747 11.949781613710273 7.3811812917129185
Li 2.888238600291761 8.67488149078006 7.593045817454431
Li 3.9732374642739012 11.595159649710398 6.480941237310665
