45
Energy = -69.65240854 eV
Li 9.155172014489388 1.977638961173223 3.6719718490851756
Li 10.178766659305543 4.077323548781942 5.663765289351525
Li 8.626441621804382 6.266029814886993 5.724190375048103
Li 11.380328829553507 6.740315799923317 6.995359443598355
Li 8.630458098491854 5.287154855834157 3.040880195099763
Li 6.675548742124863 2.881794450134995 2.191940528193738
Li 8.41768826071789 1.8087093120600468 6.8777870675161585
Li 9.008197993693118 7.104964008335486 8.287222661138381
Li 7.475692462316433 4.461651214968588 7.50501860137689
Li 6.388814516093801 0.840496581710525 4.559991308404653
Li 10.16304678523333 8.37087567056674 4.696322168219189
Li 7.4194846291521825 8.292548279162814 3.144880490037667
Li 6.23986881617108 7.127306055591907 7.6648683164497875
Li 7.178383322773176 3.519689742906579 4.833031786419033
Li 6.18535597446742 6.337126800526394 4.574062055513542
Li 10.007446189245002 9.630761195859057 7.827198146379916
Li 5.3812133400918825 5.714715909147449 2.1859660883754377
Li 9.985955488957527 4.361705585665072 8.716658691535033
Li 11.101240701602743 7.0924222383777416 10.032001769709808
Li 6.9524219001873435 2.7229197283886046 9.741038226193854
Li 5.348587056907587 2.278558550197653 7.152335805508457
Li 4.346758615871899 3.3245416523070954 4.201992829102301
Li 7.587569578304414 5.643214808255741 10.218078347370806
Li 8.819776124148976 11.525825939697814 5.448417750773268
Li 4.224101944969321 8.720748940089491 2.9671622200699725
Li 5.116977743305033 4.62149551398284 11.83797220779565
Li 3.191976974447912 6.2228758758372535 4.560561202530727
Li 3.7110806505842526 2.5182148809453038 9.94862096373176
Li 2.5725603696260544 3.9236453503421806 7.267423070995626
Li 7.758825260043329 8.886892379105873 5.941534572528532
Li 4.932524984014516 4.74628097032362 9.097569002887276
Li 4.9696515076382255 4.921755608400121 6.353163685450575
Li 8.434618309781385 8.393065703032542 10.754401746900134
Li 4.930493356315927 8.732323390793887 5.542613258875788
Li 8.110982400391425 12.589533391162151 8.115731032301447
Li 6.415777735884427 11.0396090693198 3.758247438595343
Li 7.099802283921082 9.633021979824269 8.577513095055854
Li 6.540934985491939 13.731214829370233 5.284348480276859
Li 3.8373047767000252 11.50362373077559 4.98250680583981
Li 2.527864170461065 5.46393195344515 10.195104876622803
Li 3.311559919147835 6.886021449163768 7.572847930828824
Li 2.131602255212564 8.960669438407859 5.528119990717242
Li 6.201286572831322 11.328896810781789 6.5159661515759115
Li 5.141717511488838 7.450674919909221 10.224372685705939
Li 4.111370166115637 9.715292285873428 8.019682690151468
