44
Energy = -68.57253449 eV
Li 9.128887360184137 6.238140011352413 2.3323391951224783
Li 11.058447172150741 5.0458788160526815 4.493742065007305
Li 9.49446336599489 7.784752815723449 5.149490572637589
Li 8.854130731054088 2.973296101602157 3.0882642026341323
Li 6.621952467337193 7.558099128826014 0.8277622067943142
Li 6.34883523164688 4.766804964936366 2.4200987944346495
Li 8.56230118493045 9.326326301655559 2.5968984748686466
Li 7.732127888918867 0.44139131603018933 4.755065834299007
Li 4.108459835179745 6.899427088664586 2.6251599150211087
Li 6.872508254098906 7.424788819963777 3.580648121390369
Li 5.878071490392689 1.6564212585841647 2.6801937385683434
Li 10.213626524277899 5.859787857545531 7.455604269489477
Li 9.508301349872538 2.8266169758420827 6.10526242463058
Li 9.549423048847927 3.232522021708671 9.227896212625042
Li 8.33349638718311 5.251132397467858 4.912025875360197
Li 7.2089875489244655 9.705586709229182 5.505343051624816
Li 4.558335856489406 8.316711322578627 5.19720534862366
Li 2.4229337926856074 9.51338717172318 3.9791166022689697
Li 6.687070613638236 3.0122791033669425 4.942981365800087
Li 5.421846752235008 9.816586164580901 2.91246718463201
Li 7.779742995886712 4.670887345611606 7.736907799543623
Li 5.160985060389386 5.420434489603217 4.9888295405272
Li 4.57609220083337 1.4016599845260158 5.582691685117056
Li 6.765651451099753 6.995800989183535 6.5148573895764095
Li 2.255022174684414 6.415507557344987 5.034145585296166
Li 3.605097239790205 3.671683273392617 3.5954612699239012
Li 7.1074842727408285 1.7233019922788135 7.591311492906188
Li 4.483742521727072 11.13184570802787 5.979118639154211
Li 5.2001175392048395 3.9174127555165774 7.370120762848215
Li 6.909251796726529 11.351235949596381 8.159943747613797
Li 3.8725371442814813 6.54161337193661 7.4012396657810715
Li 5.3612950483970705 9.136375729296912 7.9098051494384265
Li 8.710232004820787 6.073594683170706 10.188316046707149
Li 8.380795416778714 8.431966351606956 8.249344584089949
Li 2.5452006510337344 3.7702623375323436 6.601391478817709
Li 2.446401551948689 9.105159155590528 7.099085671519484
Li 4.054058152787471 1.8013510818661074 8.642377320413614
Li 1.1963765619166695 6.351192263061156 8.065226213447284
Li 6.431353366301695 3.621264096530639 10.013808345334862
Li 4.019164638024225 11.171240323015988 9.169843642468356
Li 5.990104736480032 6.523096334052817 9.27005248882663
Li 3.4197231102175 4.747488429888699 9.534825916758697
Li 6.3472488838021786 9.312849271800573 10.481153616908005
Li 3.3853999235278365 8.057770174296053 9.813820910750364
