51
Energy = -79.48163312 eV
Li 4.341966161695131 9.298310936673357 11.234033483025376
Li 7.465122480983977 9.275940615655689 11.017978432502051
Li 5.632779141262883 10.789889550636603 8.76114547692694
Li 3.403383596633073 6.562622413585166 10.0420969304618
Li 3.02803660546351 9.161076875860278 8.254992241934444
Li 10.675838779965204 9.234408934599072 10.855007049963065
Li 8.777246379315605 11.186070816013137 8.955226624657788
Li 6.098095741524996 6.601425680345721 11.734294732006328
Li 6.960505358197143 12.681182096933764 6.5804278893966375
Li 4.148317515914378 11.120668417698498 5.918094973295931
Li 5.718535105838502 7.927643263958612 9.193797308441319
Li 4.962751469492927 3.8997902285213013 10.769129626627096
Li 2.505535207157497 3.9020161967586993 8.61478899395597
Li 2.178386880223773 8.867842835492224 5.085546717641585
Li 9.40145517145597 11.354057514207435 5.756864691346822
Li 8.90240554257893 7.973906561111312 9.022625076017077
Li 10.967862758634 9.53744570269044 7.813144510426757
Li 7.516961941721431 9.651751169387284 7.050516737443442
Li 9.278545412250324 6.606012277049691 11.525179728056665
Li 5.013461894638723 2.1543498957140437 8.171396419290865
Li 7.528819536045062 5.261924230496291 9.66880333583074
Li 8.070904765980869 12.57677882506052 3.2037349974681977
Li 4.999107694960792 5.10514828649848 8.191431614800713
Li 7.8023138370601925 3.962084533497165 12.27116940509156
Li 6.670579723552623 10.673332666516925 4.506217788945547
Li 9.292081250981804 9.682398555773098 3.2984406448675334
Li 3.0072770010761243 6.418817959461398 6.738514337021413
Li 5.441765099187603 5.92085369894027 5.161662312467611
Li 10.177602932936093 4.011452609855884 10.049379775582954
Li 11.42647616303033 6.643611836060889 9.031129425313392
Li 7.0765332668005305 3.795403760528479 6.770063925782755
Li 3.1580054796612433 6.153937176857888 3.506518463370989
Li 7.445352506477466 2.4669584613126836 9.650477943232538
Li 9.56812828772063 5.234979268110157 7.389670545577688
Li 4.967386200938547 8.522494749050463 6.356690606750164
Li 4.555712365256483 8.732545821963733 3.6231206842070054
Li 7.146254300821812 6.750491491613426 7.157899539829074
Li 11.191411098864863 5.8459997221691955 4.979047413387875
Li 7.257142445936604 7.99693546286941 4.268011530323998
Li 4.093014502688483 3.547958295568831 5.708337002591144
Li 9.53495071996439 7.9818084677309775 5.897255191138107
Li 6.53223403978688 3.655025816419289 3.666642048576856
Li 5.915194681590446 6.487577863296599 2.2255582002162706
Li 12.009117884987452 3.9149896343749018 7.401751654371359
Li 9.447310277745608 2.294696421338741 7.634971324322737
Li 3.578173482768435 8.169354026082871 1.1120382216786526
Li 6.984010663719999 1.300177909040193 5.889372173274448
Li 8.265716212074281 5.528622476715199 4.780019487024463
Li 6.680988991272216 9.491452086040615 1.7232931195934598
Li 9.59623631514885 3.1541524512049417 4.835254420527358
Li 9.134269614126405 6.635176331416141 2.484179834127316
