54
Energy = -85.21774844 eV
Li 1.8009868468739096 9.201304621717084 8.019716630677404
Li 1.2027270995594532 6.103056335169868 7.993159869080035
Li 1.6443321742210133 3.0329761099229717 7.530718410983574
Li 2.143400817550554 7.571964949728317 10.70756960214067
Li 1.5389142003013043 5.001246728678613 4.991420267659016
Li 4.517492594141923 9.545425163851094 6.956920724132988
Li 4.346591925157632 9.722924339672833 9.921874300301239
Li 3.1765320268914916 4.6293224600158736 10.003194933389386
Li 3.009038053226843 7.417857069634027 5.742157141851309
Li 0.362598931187505 7.863387878631608 5.509136222162355
Li 6.3204885958459665 3.729052290444341 6.0734706782241545
Li 3.7205103605205623 2.588806919305744 5.188527610319922
Li 3.8218004929101035 7.211532403980014 8.564047959857174
Li 5.293783449296879 6.8870618769470555 11.075615489401374
Li 4.728712703601112 2.4757309276310795 8.299637573827837
Li 6.610607812505989 8.146538411684404 8.710935001811011
Li 4.66451229487292 5.497333388911583 4.023249066973535
Li 3.616784604608143 4.7947184075656635 6.90016784157795
Li 6.865763940671392 3.862464810546142 10.732530088556066
Li 2.24602647876436 7.537766250787599 3.0769198979708294
Li 5.694608974423643 5.148897015955747 8.751914834301337
Li 7.102407637649941 9.320441894844349 5.952913136369601
Li 6.619198416944769 11.128921060532742 8.275840366065589
Li 8.184325481248536 5.049725181618 4.421808818424844
Li 6.2248120963012505 0.8890727630967077 5.990754829007814
Li 2.467691375793256 10.233253746383111 5.073088213380952
Li 5.934789723306273 6.744648408667688 6.244843750866538
Li 3.4925483569861195 11.920104247404225 7.816951011356989
Li 6.429923127964287 2.723295969292197 3.41585035532321
Li 6.774174900567896 5.386789353907546 1.8000216780675413
Li 8.384285975660987 6.637091277582573 10.453117913707171
Li 7.95876060533715 2.5643889733068685 8.054804791416407
Li 8.85512301936248 2.08342361422934 5.150128495934889
Li 7.4931223239417175 10.502549906612366 3.3909117167334752
Li 9.230301349320802 7.46931999139732 6.048715858857294
Li 4.939877950372701 8.814320547357575 3.8607875174043116
Li 9.529494520498922 10.579383330487348 5.960670260136994
Li 7.47379629868239 7.5459987290389865 3.6343974750768773
Li 5.394341316428706 11.707369355578878 5.383449029531156
Li 11.097062801087732 1.904318689706301 7.382501037052518
Li 7.245385921925275 9.51920135411892 11.06702187540207
Li 8.138527618134985 5.573502338641675 7.873924458887308
Li 10.05733785965265 4.24901832739055 6.488709901874122
Li 9.347840528202227 3.5345114967486064 2.507201362707702
Li 9.183562591804758 9.152243858244676 8.567979840421007
Li 10.142562357462245 4.083024355739866 9.451148916060596
Li 11.900942061182166 8.341938882089062 6.079381814787008
Li 9.488093762498316 6.466071416105892 1.830796728126397
Li 11.709903269833896 3.0106002356015575 4.5205115044192
Li 9.99493059594749 8.830406101113095 3.5474621850433476
Li 10.816097930202986 6.705315877896827 8.353573823064632
Li 7.16420623430508 8.467105734600183 1.1115496531626665
Li 11.080448309669023 5.947631453783912 4.3563900727463105
Li 12.625625047136834 4.799730357345689 6.952591190910693
