54
Energy = -84.50754967 eV
Li 8.481140197192204 1.986045780946008 2.872807351135446
Li 6.64969541095829 0.763481990244611 5.608775091727295
Li 5.301429972785733 1.660895483471566 3.073494576910296
Li 9.207484340050812 2.140211730003252 6.179121172687329
Li 6.1464229958068675 4.011019016431627 1.4654244732760295
Li 7.820657083595821 0.7038872054326225 8.636040858733532
Li 8.572232238846805 5.214515754215932 2.4480798858671027
Li 10.360055297133425 4.252257118193441 4.436865853050365
Li 4.761989651333515 0.9619782320562565 8.287670480272793
Li 11.146232444600432 4.326725982343332 7.393210310803914
Li 12.957099772986247 5.787177193286909 5.365826690341692
Li 6.8573701066951 3.632179835469268 4.31826522104306
Li 4.253865553203264 2.6903414087695285 5.8436744916747365
Li 8.841617298932782 3.5746550377285318 9.18832449997188
Li 6.551043522343337 2.8904759663743773 7.4855793425454875
Li 5.710868193005523 6.587700137960787 3.050022250924756
Li 4.001066281635963 4.542261815613432 3.676118409225238
Li 6.113473951598317 2.973237262540666 10.352785805257735
Li 10.885114007097627 7.0738693458564486 3.287293849418674
Li 7.904924042777067 8.208199064610632 2.0228016202826553
Li 11.899605163247973 7.185579174504595 8.428797453649743
Li 8.349548746060218 4.834542519127735 6.528394860428698
Li 7.922553483600693 6.849498531538683 4.666447630146327
Li 10.452834973858904 6.789063668632495 6.044699945335152
Li 9.035268116920271 6.48094713730861 8.63286899724324
Li 4.708421742686011 9.228298103683201 2.273105780445734
Li 12.262439377858136 8.793560450305026 5.667179259970659
Li 6.399599777243855 5.531992616463785 8.900770710888597
Li 3.8805615493230805 4.152632346018908 8.472596812267506
Li 5.521897225984478 5.451634694261257 6.160194909649462
Li 9.352698525255141 9.320201734998536 4.585614241929668
Li 2.474529821837665 7.254684506096022 3.4248941092265266
Li 9.164517651576087 8.506683851183285 10.412351523403435
Li 4.339754259207725 7.802870463759908 5.29538387850125
Li 7.687816563237516 5.659266769170999 11.349827968005158
Li 2.532748821153864 5.6322079376060605 6.252490606448485
Li 6.397837154677518 9.439039229453524 4.430060687987915
Li 6.943249292241459 8.10379535858682 7.161404772928174
Li 4.443766606180201 5.599885614133074 11.016103619549725
Li 9.663002339276982 9.177006047660074 7.5188033531351905
Li 3.9625486281257047 7.605203901414022 8.438319349018732
Li 6.174336313960274 8.082504105966205 10.292487660650993
Li 2.9110075097023054 10.142437539284117 4.498032298787371
Li 1.7415424705971787 8.478412954546833 6.510561142998844
Li 1.6285994587886885 6.4315838720991945 9.30162852591913
Li 4.739260702075782 10.202153199225853 6.965290073406198
Li 7.560132374729527 11.267190719860666 6.309535838405229
Li 5.027620430822112 12.108305018291329 4.7826943151215735
Li 7.139230573420873 10.486904587606587 9.023175347617192
Li 3.230210867538176 8.279422231222243 11.276722728268673
Li 1.6593466686822078 9.52892736308521 9.12690861357138
Li 4.254368717227164 10.649848428742965 9.71960539103536
Li 2.465303973165163 11.755335846133837 7.084776288468129
Li 5.318005551957769 12.82797834069703 7.829035523343751
