51
Energy = -80.04493046 eV
Li 11.056815641124627 3.265626791358053 4.775304323479109
Li 12.846861750357279 5.4648195482543205 6.644275670473717
Li 8.128382749799082 6.958300425995111 3.182813829794702
Li 8.907992844276581 4.567545811081322 1.6939874269988877
Li 11.001832794839995 6.0919534495272 3.695034393966708
Li 6.013104233490758 3.5708141978451855 0.6731058494919925
Li 10.218342969141856 9.006993955579588 2.814560071132195
Li 6.434986325426085 6.720118475435626 0.9058244763938661
Li 7.549350356296005 2.248993663545546 3.1490518733214294
Li 10.848647918828958 3.1985527365474673 7.8276914041893555
Li 9.225163190485835 7.98362993276437 5.36868607398434
Li 7.216155360707646 9.807823221404757 3.4341105616864374
Li 10.282478570911195 5.718435137771987 6.487498316081087
Li 4.388855294013455 2.666895201166397 3.32557848892444
Li 6.791213210656909 6.237888376372221 5.708773929522742
Li 12.010051841087646 8.355158470658838 5.325103490055447
Li 3.715272238175906 5.5127795709260665 2.0290403132696615
Li 6.204343243058984 4.786059001234568 3.062413015664585
Li 8.522566664020395 1.8359047767651253 6.167388801149109
Li 9.49708387016405 10.622897970209223 5.553418005816693
Li 5.257823688431551 7.5389559104212065 3.673615322009921
Li 6.032344090685261 3.355716333801782 5.787679609560159
Li 8.579813920762415 4.451408207255886 4.6643500317102315
Li 6.647973190791834 9.093614453303065 6.083236324125973
Li 8.10693143099544 7.09338806095998 7.958475173861663
Li 3.9788654379983144 5.202043633780131 5.037023485275896
Li 6.232305245768745 2.492197596497457 8.777328629536846
Li 4.220201129220052 7.566678038466358 6.625123930102287
Li 8.18847452912123 4.244055973511089 7.652013895127592
Li 5.455315398183454 5.302596363721553 8.097055127693881
Li 10.570044977814746 8.45200282973569 7.990588377594972
Li 7.891406328738535 10.152697315204632 8.31095810643996
Li 10.336221633944403 5.770447607559011 9.39117074039839
Li 3.4152030166087406 3.565740783642308 7.622363578774874
Li 2.3182557237574377 7.616754497621575 4.335245812573199
Li 4.203193341770816 10.073486789285196 4.945683578823286
Li 6.612941835605954 11.862079724005897 5.823137726686888
Li 5.720003555134499 8.085284656085861 9.035102605165022
Li 4.262548356407648 4.3210902530705075 10.582710737065131
Li 1.565673155680306 5.993517152069603 6.88975312971361
Li 3.0482954375177953 6.562231068757874 9.213855492936498
Li 7.31027530932284 5.167913395470841 10.258651441229926
Li 8.283114149631787 8.084531732640736 10.604876387235807
Li 2.0057692312562057 9.019516854126673 7.247993528477195
Li 5.1761062911178835 7.1744059767978205 11.526160213738088
Li 5.919753277756678 10.142638139918262 10.952252684533846
Li 4.739729803056702 10.484024910250804 7.960053351623666
Li 1.2530575989683026 4.552145639614099 9.737802210241197
Li 3.069515142142674 9.123051957503895 10.252872051467364
Li 2.153687320017204 6.611258534601894 11.867003553626446
Li 0.44252255883778174 7.50986193721927 9.449097308598528
