54
Energy = -84.94377252 eV
Li 7.512477786198484 2.65773922992712 7.7908495852437065
Li 10.067624816617702 4.014841420728639 9.067964275520069
Li 6.919529778881526 4.862343106469942 11.193792522817587
Li 10.167219578688496 1.5643904953875518 6.96273225402514
Li 5.297798075777203 2.6683527316365288 9.716803299294593
Li 7.664237093996524 5.508842884542683 8.472493560105944
Li 4.780276968756218 1.6042114219135433 6.747849280711649
Li 3.4981800617680476 3.8434702331444988 11.848452568315738
Li 5.127441842672305 4.386904271113207 7.332861939648602
Li 7.638350360906431 0.9484508737060182 5.115865052949883
Li 12.139092992030198 3.7679272656617218 6.480977362761651
Li 5.361242179747091 7.272631147696936 7.854277507459402
Li 9.33665036973098 4.211886138412157 6.195881317141782
Li 4.372827494326421 6.733084653084406 12.289014846554087
Li 10.863833759141267 6.449303685450417 7.285983307045504
Li 9.542908535676974 7.207665706403892 10.010339636682573
Li 4.476320782740346 5.47737584451312 9.881281263574943
Li 2.6562084531780554 3.4168049601151167 8.62662464384527
Li 6.543645393391463 7.793564400656638 10.366863824362989
Li 3.2666990910683396 4.056034773114663 5.249403513530219
Li 10.139776889977062 2.5719659189443798 4.106262706716284
Li 4.913007334442673 1.762799610122556 3.6378113855086807
Li 7.018591763295351 6.07789704208542 5.800138702123272
Li 6.613051329554341 3.41035077265146 5.074438312323427
Li 1.7141435449260676 5.976026236793256 10.363867483441846
Li 7.507825691508316 2.7119769347641527 2.349962943924028
Li 3.4280050285451114 8.336714745725283 9.768361724274262
Li 8.131667091536404 8.296599014261627 7.772211952500653
Li 5.662708968953725 10.09009618799374 8.567259125301918
Li 2.677054370067547 6.170951190569433 7.477357738554764
Li 5.469230843312022 4.91202818113972 2.9975202268726813
Li 4.432014404789412 6.7457207620444795 4.986659317703688
Li 11.268011429491656 5.449246955138913 4.131910995582754
Li 8.465834910240897 5.116830921465179 3.4402270005323823
Li 8.584411652244519 10.22132469996199 9.698466324319938
Li 10.51125002308209 9.529637558572274 7.273569562983154
Li 11.864299053706938 8.296677618532916 4.6800333130564455
Li 6.968803473895353 7.640768944889034 3.2347015441425944
Li 9.313368352539355 7.3683406781523235 5.233178499305792
Li 2.649780428283807 11.070733634292248 8.519513160917416
Li 3.359669834014368 9.012387455876107 6.800076866385144
Li 0.8658640061620856 8.44029070097483 8.018756525853254
Li 6.290533614002294 8.988258694327932 5.677178293045875
Li 9.817595086936317 7.514984845943302 2.2675324457008976
Li 1.611468361732858 7.400901819329887 4.949492443198976
Li 7.336384725553593 5.949965434754999 0.8546349934238072
Li 4.6680569502432965 7.58388391389643 1.7257613225218469
Li 4.5907263062152985 11.475492705285491 6.052143801439918
Li 7.839570229205473 11.105000251373276 6.688822236666775
Li 9.053320051827415 9.785197249327364 4.089058214852549
Li 1.4802896953571747 10.589361043709415 5.651043557785276
Li 3.7188914743375094 9.361036931027517 3.9713847563829536
Li 7.4788587267013185 9.090017930577186 0.9896218911513388
Li 6.304486062167516 10.658532522814092 3.409036422397182
