52
Energy = -81.44518254 eV
Li 3.517452787565986 5.430660607455493 11.155153257911785
Li 6.90742787534767 5.805064492402132 10.603523958158847
Li 5.121086025202172 8.093308060295188 11.609773825275727
Li 0.8613207348519786 5.826020776475831 9.581405109442759
Li 8.459799916621911 3.04731055920721 10.264471969034837
Li 5.4720920871367085 3.5405674054713954 9.515021945920521
Li 2.4853438111045905 8.3505221359864 9.985388312811148
Li 2.9278125763568714 4.196079174106475 8.168253539022299
Li 8.020980623572711 8.649360386835744 10.249290097742545
Li 9.734523982331876 5.919447065459359 9.72532371052871
Li 4.740142414872609 6.725316118363965 9.179068091141303
Li 12.279498510389812 8.186676669365376 7.862696822789154
Li 0.4983028241653164 5.248784870220963 6.425325070090744
Li 8.209452754776239 1.6588320650567816 7.4551878141962495
Li 5.324906866237425 9.566761624757701 8.831829614963372
Li 7.689828463908414 4.427063878892179 7.921958241558168
Li 10.579552503430616 3.3314740115534027 8.020339948382414
Li 5.462595255718266 2.3327458981544438 6.750353308857852
Li 2.3827819498304916 6.987483140035457 7.462260427783177
Li 5.158189545196871 5.26798592565837 6.862707974401433
Li 2.62853758224264 9.798183368371738 7.195978960341556
Li 2.954891335722322 3.425312874852191 5.221272745975917
Li 10.45413848909846 8.49803561208863 8.223274909074576
Li 7.533613370217186 7.381104713254702 7.823976966136396
Li 1.0539600595740173 7.92054290213077 4.980946432160089
Li 10.50578046148237 1.345665832186991 5.51152878354858
Li 10.053433118662891 5.940078732372887 6.817446834853694
Li 11.861411549474921 4.133342014534246 5.343305338494509
Li 8.948648838012598 3.6233746263334585 5.326137836799215
Li 1.1641261479994445 5.245476414666393 3.3608584368532752
Li 7.56993166906449 1.5538764429957772 4.110167462511444
Li 4.889744001870567 8.028632316100325 6.562863861113169
Li 5.913776044523841 3.9876678833721995 4.540471838244696
Li 3.32909649007815 6.1403499081718635 4.779441772834535
Li 10.244004650437512 2.975452754713347 2.9140925632958785
Li 12.27949851038981 7.4812137564759515 5.809516088592169
Li 2.929996117267281 7.495372190026645 2.147032203833016
Li 8.117729842514764 10.145823960846071 7.242878963927344
Li 7.564790365904885 6.1833451841956055 5.206863501079526
Li 9.589599217596339 8.377166701195652 5.3675207239214435
Li 3.6422715459738013 9.189189982727157 4.398126696108675
Li 10.263705154911541 5.997626267165717 3.749963241805894
Li 5.420945434876452 11.079553599001487 5.834912302450539
Li 11.12821527378512 10.496275066433999 5.968677848596189
Li 7.705079916739892 4.721377119730145 2.482439140627444
Li 4.1112885280619995 4.4704664058266745 2.383938623321375
Li 6.823890087475271 8.881280075115438 4.9257561566286645
Li 5.741052840236979 9.87985935740907 2.5222776935216014
Li 11.241984654401648 8.9535251134542 3.2260353716966486
Li 5.563001061399751 6.908981300417311 3.2689693325999505
Li 8.635315931076 10.7805537861904 4.017797531127229
Li 8.324301819304214 7.965299917275122 2.6174330529007626
