5
Energy = -3.98439388 eV
Li 6.142671514007475 4.878039474782472 2.3478714751605763
Li 7.899051738602386 7.768811998486409 7.260003003955668
Li 6.635292730922549 5.846726781385799 5.3399853437902545
Li 5.53508304621752 6.2701182547267935 8.21132863161559
Li 6.8805707092493655 8.328973229617674 9.933481284477208
