55
Energy = -86.62988383 eV
Li 9.439235060937222 10.658985971849948 3.8708702388895846
Li 8.217231541317096 8.23056689688653 2.2030634095588897
Li 8.441791646640405 7.959226636743858 4.858047558962254
Li 10.492485995953986 5.61360869184338 4.911778160636429
Li 10.14836077675898 12.94346826359577 6.778643672976351
Li 6.526827265898065 10.32585513621688 4.484189692782656
Li 11.228940767256526 8.24652098504023 3.569175436380741
Li 7.425302048790818 5.073436186087193 4.489148698643998
Li 5.745648272246703 7.593058060676877 4.008619553624332
Li 10.735256765224099 8.279286225939325 6.423689157496751
Li 3.912148357683098 9.316062995435281 6.000860545563589
Li 12.035850425159525 10.63253334090716 5.585887458876638
Li 11.061064794818588 10.715109121788652 8.297174775185052
Li 9.425259865502477 3.3838280260556735 6.647006179820624
Li 13.047448528124235 6.89252873411331 6.110197224286394
Li 7.000312092866443 12.670852436011035 6.582778964235971
Li 8.77300513218262 10.433139260431469 6.568043319374788
Li 8.131019031291732 6.067896228136915 6.985681977996353
Li 6.436670570794214 8.86380178781853 6.998349079761973
Li 5.176757835907667 11.095325658024999 8.229393542108042
Li 12.515731577793584 3.8156433030488217 7.049292517453569
Li 5.185799224247039 6.457548026688916 6.612066231377753
Li 6.360281072092477 3.81513662374049 7.322097725841815
Li 8.812618746518737 8.387618014894931 8.519885162697603
Li 13.706704964280675 9.403829858484505 7.817898237800539
Li 11.627093517171822 8.152597112478386 9.107976823821831
Li 13.048512625259068 12.580788107146269 8.06941694455212
Li 4.202681399899456 8.329709236608798 9.030110409049142
Li 12.782735596480816 10.631323998094667 10.580849235302722
Li 10.814280753483901 5.699493972907602 7.826039485867629
Li 8.494069544832826 4.123928859310024 9.35020478302682
Li 7.977153619833373 7.839778838826751 12.009543633292342
Li 8.179990102625938 11.621865552142598 9.06295871920882
Li 9.844972241984955 9.783450332942937 10.82663195660582
Li 6.057141480759086 13.064010422380743 10.317326088319113
Li 13.400544283619071 6.147975994612229 9.150044366545913
Li 6.592225924556021 6.454142071998151 9.406516818792605
Li 10.582134012200227 12.882326345526774 10.089102134371638
Li 11.814053620200117 7.95370881865714 11.908240612346574
Li 8.251012818914422 14.406907374568318 8.86791169182986
Li 5.15061188125473 7.505718662492525 12.006632329589618
Li 4.592409457605947 10.599858205970813 11.403293298255882
Li 6.38369729784148 9.712520358844117 13.757257365895885
Li 9.706196092362001 6.4478369266348645 10.352462692971011
Li 7.77940828226881 11.314470475009305 12.033657557794898
Li 11.354323241339019 4.093563150767018 10.143015428169859
Li 7.222107856292607 5.042006478846018 11.948555271245606
Li 6.647871695462158 9.37923819911056 10.114900957477781
Li 9.549720379608154 9.073422784865917 13.863411502468445
Li 10.762000370144527 11.643751266448662 12.782182118112493
Li 5.765822544513446 12.80179646985533 13.391620971590752
Li 7.372554947157549 6.898217201149067 14.533192451203398
Li 9.91544124649203 5.806251651546432 13.06078700512348
Li 8.385419469586198 11.925174495538467 14.689981712280467
Li 8.490027768810451 13.93726659710731 12.120303545402159
