7
Energy = -7.52057131 eV
Li 9.002545909638748 7.4294996929733355 8.064303985891677
Li 6.9619213122831045 5.322406159214057 8.497311441988922
Li 6.146332763377834 8.351973658869658 7.8532440742496075
Li 7.235879750125439 6.596270383968504 6.02294765236143
Li 5.345933145900745 4.569485509764729 6.1677594957778235
Li 4.703214967674747 7.596438057376758 5.400035786838101
Li 6.164547480396891 5.694301867229954 3.5547728922900768
