8
Energy = -9.26588316 eV
Li 4.69642034636624 6.731264340769632 5.571199844350881
Li 6.832969838690718 8.589084373698304 5.975028776789176
Li 5.533991121314303 7.971128306734321 3.01968353802418
Li 5.864087529979339 6.984141994176915 8.35774577922298
Li 8.390763910204841 6.423000687481276 7.5002121429280395
Li 6.279981695979988 4.527087470896924 7.042774596466884
Li 7.273610531489559 6.170841534410199 4.699401403576819
Li 7.153297306354531 4.628573572211806 9.859076199020844
