9
Energy = -8.52167484 eV
Li 8.22794734880978 7.858516929915535 5.780525821727322
Li 6.1068200950613685 9.289474293772683 6.827706754573451
Li 6.46604105263498 3.7340931475579167 7.243407747459915
Li 8.262648436064406 10.852219605241567 5.63158858410306
Li 4.999871583394337 6.654437102198035 6.460603230752769
Li 6.932647945017181 5.469408065173205 4.940048000514901
Li 6.940614186969013 7.039508176922651 8.526722727768972
Li 8.71756598451518 5.4422145543744325 7.181920941883524
Li 4.801451237587366 5.109891876304442 8.898208578602244
