9
Energy = -9.96595244 eV
Li 4.821498200264198 4.755742853289904 4.744083937694969
Li 4.045356188350953 8.035560077165739 4.844754294431763
Li 4.345773925332483 6.311913792770698 7.35478715788601
Li 6.806138222467217 7.072797053522103 4.232017787122033
Li 6.996500459494938 5.328195838242079 6.583001714256429
Li 6.139451427211749 8.560434386046762 6.780062345399148
Li 6.975226040289335 6.540248710849175 8.963373203281852
Li 8.877132053464287 7.203630885707731 6.519706456145095
Li 9.522378833107483 4.720931752388721 8.507668453765474
