9
Energy = -10.005817 eV
Li 7.728619559225671 7.101073682895046 3.8585048584299706
Li 9.21372321737241 8.394232322525239 5.743383030363533
Li 7.439205678469842 6.24209000632796 6.654131393809172
Li 5.236432132181394 6.450050974520092 4.6501379927869735
Li 5.146427356402756 7.858236914337536 7.183974798141301
Li 9.47258027945334 7.523200929802719 8.301729003643235
Li 4.580148874785195 4.968605550020027 6.808694270590061
Li 6.984951793436397 7.8844778122894725 9.297807207398316
Li 5.923458135127252 5.3979274250698355 9.113825986788704
