13
Energy = -7.51009029 eV
Mg 10.421723719224534 5.7494120237150845 4.705025568864772
Mg 7.459883140939411 7.77306459136351 8.848819313564318
Mg 11.040336801660189 9.879413500351031 8.239957254290756
Mg 8.320358701719341 10.676018552670907 9.470088542276816
Mg 10.085351738341725 7.978396970244054 10.539634792467675
Mg 7.219447947626133 8.850789559630465 11.647037231673396
Mg 7.981604291531164 7.167994475601786 5.722173721338367
Mg 8.121705789244057 11.853694572165855 12.363004003117657
Mg 10.552076131332614 8.687992127404856 5.28551864881746
Mg 8.210595149913269 10.044640512311423 6.650326703992399
Mg 10.921956901831853 11.021400769913773 11.017431591758823
Mg 9.632037977522847 9.548767660476921 13.300542184070867
Mg 10.271049839291047 6.878081014602159 7.793343913021098
