19
Energy = -14.60841336 eV
Mg 5.250348153072355 5.911950485040753 2.1251028753835404
Mg 6.908363590500249 4.2873952576274705 4.007441691892813
Mg 7.584719237557771 7.458757868355571 3.3719935118102717
Mg 4.691469522441576 8.303960784959147 3.765218996258294
Mg 4.000451254552411 5.341293016656997 4.853702230345489
Mg 9.515522194527893 5.5584175535843245 4.8605422795646644
Mg 6.1991008716381 9.605079989441977 6.040544300787872
Mg 8.478642391461634 3.2247236525312304 6.407060856260926
Mg 9.045378778097755 8.418318489139832 5.772150981917943
Mg 3.3944375494446772 7.924736623905394 6.374510023378071
Mg 5.377691082260346 3.096538979580839 6.3433953268864105
Mg 6.567372620067301 6.443191490251746 6.396562787895892
Mg 9.167419088677475 5.827592975334361 7.98432549180121
Mg 4.249942401747344 5.428247498298438 8.168657697856366
Mg 7.9584462337235955 8.791014783340003 8.436706044087606
Mg 4.930882417710439 8.57451661171892 8.731542134433937
Mg 6.837818516628489 3.662620702382636 8.824207833309778
Mg 6.679040293833453 6.411183388986829 9.792474102955264
Mg 6.6629538020575145 9.230459848863902 11.243860833173864
