17
Energy = -11.7593829 eV
Mg 12.804181468321797 7.833782851659382 8.468767382748938
Mg 9.031895557537638 10.14980666050246 7.279464783066438
Mg 4.665432545336146 9.195228964916694 9.665044680012796
Mg 8.466563155947137 6.743918917083573 11.458004660266532
Mg 10.457040457417895 8.854973820976998 9.978580718877824
Mg 10.995339996646369 6.042941136746672 6.767283559091831
Mg 8.820042140940537 7.725269322021215 5.316674559675961
Mg 8.58094533087718 6.995680905709461 8.21142463686074
Mg 6.499380155331367 11.654301177959853 8.389924001569652
Mg 6.04614325541777 8.411660464125074 12.269146179265997
Mg 6.109681072647517 8.994737979123283 7.00996341240433
Mg 10.945384277475357 5.773669215320725 9.851398691957934
Mg 9.124874962085313 11.97924820770499 9.852754454482682
Mg 6.809768512767149 11.307979336687024 11.687135004474515
Mg 11.934288499321175 10.811245739436224 8.251043855277686
Mg 11.48916162641488 8.907636472717648 5.985794848780039
Mg 7.5702710762470184 9.168222749416291 9.85455197999705
