13
Energy = -8.07812184 eV
Mg 8.602429378340064 8.794290407095017 7.837707781339889
Mg 8.88778837907982 5.674379431374585 8.815325639935843
Mg 6.491273302715135 9.81311333753588 9.956833815159326
Mg 7.429690767643405 4.4699888719506715 6.335303309507218
Mg 6.168357318227463 6.8768622750036705 8.263852849040344
Mg 4.555199068755836 4.55100636119931 7.084161031929501
Mg 8.730079400472274 8.002435147151786 10.714062873922988
Mg 5.709903716639047 9.756934412229066 7.109640534202051
Mg 4.202464731340931 7.399253989112377 5.967695723707561
Mg 8.176589014608245 5.485363263859494 3.483453553157676
Mg 5.32667324280417 5.310090059621472 4.197420600686757
Mg 9.533578550359996 6.516779652016914 5.954358392531724
Mg 7.019454143443109 7.948934634613781 4.981420479545729
