15
Energy = -9.51488321 eV
Mg 10.989060136625996 7.691234918930373 7.115985141703835
Mg 13.479434156486818 7.266669581492969 8.639844999633553
Mg 6.436006039174101 6.230883119013787 7.760765576666281
Mg 8.097980447119191 8.526987657351292 6.789743591951048
Mg 8.938478955459468 7.071702528653635 9.34797785691909
Mg 12.554859902396384 10.091325145210506 8.331591851368689
Mg 10.294271934195423 10.597128691974781 6.410318693667355
Mg 7.446079548060456 11.410946396085976 7.617019006963672
Mg 6.058805760383953 7.69148740188429 10.55297858490862
Mg 3.6872925314774725 6.871411539519788 8.672367102450725
Mg 5.343762854783189 9.280446362043445 7.9445398263868965
Mg 9.597054317689489 10.239970454049464 9.364228919345802
Mg 11.53905661089286 8.352264129791351 10.692637087044622
Mg 8.613627653985711 8.828128939463625 11.804551040473186
Mg 6.620254974728552 10.641242003461192 10.417614319192023
