12
Energy = -6.20395385 eV
Mg 12.052609340815838 11.19563425323778 9.240801541234244
Mg 10.186220219847328 12.308099713365397 7.198433858458264
Mg 10.946934850920181 9.277222782177718 7.0324127923976105
Mg 10.18468267008379 8.89385800424936 9.997382671742548
Mg 9.262577808035644 11.98659715756979 10.06584371390335
Mg 8.056425115195156 6.885922727004434 10.706572191308629
Mg 8.075147115969097 10.158693392182588 7.7168985955731015
Mg 8.994530041977683 7.130995726672594 7.649728365424461
Mg 6.080805702704566 8.091670600914043 8.585551595912701
Mg 7.325493235503191 9.899826373976962 10.776136713482323
Mg 6.7342666293909 5.186539300010058 8.671402695085066
Mg 5.9755836456525335 3.1947342548626554 6.418418322099557
