19
Energy = -13.60975989 eV
Mg 13.689453921630289 5.201951462959785 7.759795368725639
Mg 6.566083220343524 11.94385993834142 7.233050453548537
Mg 9.282280880072731 10.946826875028442 6.4335793483820325
Mg 5.828096889677129 11.801131254524442 10.126179247288476
Mg 7.009079769628991 7.173981700344098 12.078321474098695
Mg 11.09175637147396 9.182070911649616 8.4864160687913
Mg 8.957850595241286 7.065048826670032 7.737377253322745
Mg 6.299871504050762 7.3412444726642425 9.095965955922596
Mg 8.5346845514867 5.37735024434938 10.294150911843964
Mg 4.5807359377580035 9.837542378587353 8.256567422721059
Mg 11.837881707168966 6.905194302695486 6.218797875896174
Mg 11.383243563044655 6.198854426879494 9.443175324522006
Mg 7.591375918278511 10.135139505717097 12.056772501405137
Mg 4.840291143658159 9.15174373987737 11.194114663719278
Mg 11.938191859895943 9.747113222282376 5.484103070466229
Mg 8.16004373660032 9.958578143766648 9.0958712154458
Mg 6.864108968128001 8.981709490318444 6.443980107646724
Mg 9.691269460462706 8.157140479866321 11.011669336577414
Mg 9.40813015837851 8.261173148182905 4.874538362153604
