10
Energy = -4.76286306 eV
Mg 3.6257396279662206 5.798143528115714 5.789371010220567
Mg 6.423648731031394 5.0685364427724595 6.639799034820827
Mg 5.041065387919912 7.615426413512871 7.920336218639751
Mg 9.263499030200592 4.418039500826253 7.499302863911093
Mg 7.6376072604224285 6.380620574057592 9.161288658609838
Mg 10.37966281078317 7.137096232394065 7.921547300346672
Mg 7.8304597311638675 8.641890382395202 7.17077402576383
Mg 5.9690412134937985 7.699594360663486 4.930707334337263
Mg 8.827663236675642 6.486659524977167 5.309282706133273
Mg 3.022132748152489 8.71645223799585 5.694667276877633
