10
Energy = -4.91305789 eV
Mg 12.574101253928335 5.86336978386361 10.541448571975792
Mg 9.591373995977404 6.702159312393808 10.172709276496468
Mg 11.758830991078831 8.331408171944727 8.870958017032633
Mg 9.458040594847063 7.338691396377145 7.081799479787357
Mg 9.066238723570374 9.709035299078261 9.558965007855091
Mg 6.84496434925466 7.640262432813881 9.035162526756379
Mg 6.703156863050054 6.878262956314483 5.889992624662252
Mg 7.53623489702697 9.694739151888381 6.742748016947938
Mg 6.179174097344607 10.641786495465693 9.446236396554605
Mg 4.664658858439202 8.8535152965882 7.37364146101103
