15
Energy = -9.6938327 eV
Mg 11.437491570001646 13.265443748836015 11.518553242072693
Mg 11.313068625741591 10.308173172323764 10.104529870351072
Mg 9.592818103229556 7.756941975854741 5.7393553987330606
Mg 9.997787972797552 10.272321234485917 7.392473249024856
Mg 9.105486676027068 5.23255923900071 7.232389477917525
Mg 9.0260804161679 8.519362846144425 11.098592516604636
Mg 10.583639645320696 7.579784343445264 8.639007633384958
Mg 9.568016696428067 12.676507320576718 9.114139349957703
Mg 8.995228725378523 11.457974433029735 11.902748525618119
Mg 8.72817182987892 5.647271752007642 10.18993482766866
Mg 6.345381433149441 4.819916466547405 8.411524361088713
Mg 6.879193028204153 7.739199630709667 9.017292184685338
Mg 7.179363080722415 9.515785105882195 6.646580978069625
Mg 7.350519386993725 10.623673611865089 9.443512798235469
Mg 6.7020916450451455 6.596762060026941 6.033701458369377
