15
Energy = -10.43025849 eV
Mg 6.442528447759606 6.3587491701922545 6.738111586968298
Mg 8.623809279158957 3.85424611099923 6.949490880657517
Mg 5.982897849885263 9.448528745839512 6.5506408608584765
Mg 9.438675289093137 5.89146762405502 4.699985250403524
Mg 3.333342691837423 6.141686971705049 7.389917863852596
Mg 8.824320330207106 8.226403669716815 6.582030237375097
Mg 10.703400716569293 6.077614695188549 7.444081210660057
Mg 5.453039003665426 7.659578349754174 9.26240329443208
Mg 4.118486281295885 5.313546628715694 4.618474571892337
Mg 5.4742264777298715 3.6675100916925287 6.932364670164475
Mg 3.698875105267756 8.173912854057086 5.0071183937002175
Mg 7.158172702914074 4.076070743629052 4.349688332294342
Mg 6.659946628957954 7.391691147111821 4.027799499226827
Mg 8.276904773103636 6.093672861465143 9.107642389998569
Mg 3.3435743002610994 9.157520213585139 7.872450835221922
