18
Energy = -13.1935388 eV
Mg 5.067667003094247 7.752734116730725 2.3658681574129448
Mg 6.546994368486171 5.323812120699366 3.512777244826158
Mg 7.6906051162705324 8.21931404481681 3.643660884874593
Mg 3.6792743210759795 6.178501016567603 4.514184507353387
Mg 5.0403107367503015 8.930024866274117 5.1725638952134085
Mg 4.806816059017276 3.5339770848800782 5.486358383584453
Mg 7.901943832658415 3.0819905154583287 5.170370865876721
Mg 8.609047422538138 6.031658356797922 5.687436619172196
Mg 7.814020076694069 8.909106480816469 6.609531295913767
Mg 5.73274956009012 6.256343867547497 6.704022358281373
Mg 6.542806825557485 11.666749477459552 8.06504031245334
Mg 6.427885876716361 1.635234287014259 7.22272781733406
Mg 9.185159845107796 6.945545420705679 8.593941886164467
Mg 4.968533846285353 3.969058512686721 8.574101695077903
Mg 5.048405300480952 8.785584069826626 8.191913795771628
Mg 8.010078420575548 4.154935700238604 8.123746962062564
Mg 7.6254434919638605 9.242135176118195 9.675436233200614
Mg 6.349955767911464 6.430992756635197 9.73401495670098
