26
Energy = -21.62631338 eV
Mg 4.809089035254231 7.959776795487131 9.004026285694723
Mg 5.997404593572327 3.5335570265801857 10.629371897674206
Mg 7.858142642869704 7.985487968723248 8.95558615447623
Mg 8.952766250922084 9.590207587285713 6.508129796387636
Mg 5.653795585872243 8.54711241416651 2.4931473783188562
Mg 7.019576230061124 2.1569543605517496 8.300510883227602
Mg 8.316989137665535 7.895913467718929 3.588183585991151
Mg 6.198693778079518 8.236458655917872 6.148450965380811
Mg 10.109799302200141 10.442110183694012 3.887858327827707
Mg 9.6190420165925 5.199063004310009 3.9322366932219657
Mg 4.127684335347668 10.267996277085517 4.34616496723
Mg 3.8442248295910835 6.966712603365444 4.510242154057109
Mg 6.512731768050884 5.368820828205698 4.461676557837504
Mg 8.535922913702741 3.6310161244135126 6.255254474111803
Mg 8.891596123338143 6.536184124353702 6.5702176524306495
Mg 2.8567220805516786 5.918195706866368 7.306860478604312
Mg 3.0867504575055245 8.85535179714572 6.765564663131113
Mg 4.09415424595338 3.0654839680151564 7.970365328346567
Mg 6.480059840439487 6.4404410681105615 11.060713094801331
Mg 7.10463472661644 10.695182850580204 4.182657777832495
Mg 3.7518804873495535 5.316434003668084 10.099072120859129
Mg 5.925568043526439 2.3006347387524486 5.5181624590163905
Mg 5.991361637639327 5.4122846320146865 7.510334029816127
Mg 8.462348204251919 4.878289493109424 9.203409119505471
Mg 3.657039080936602 4.052040564380481 5.098199727286033
Mg 11.142022652108544 7.748289755496756 4.6936034269325075
