26
Energy = -20.19641554 eV
Mg 2.644148444005639 7.437092398129733 11.139381219557677
Mg 8.181576594499933 7.193471411028118 10.635295249303354
Mg 6.581142817436522 5.449254886056541 8.755201900756305
Mg 3.788879702233555 6.67003371198562 8.646120707157108
Mg 11.127487456045007 12.03454080861959 12.401823571885775
Mg 6.5918211232818145 11.144492754239865 9.025596733215696
Mg 9.67071812176006 5.403663179340032 8.900674266074128
Mg 8.341900637626871 6.7666689004151195 6.824243541150225
Mg 13.412326629581328 10.019464028949377 11.274463495296292
Mg 11.295699926826302 7.163415674941935 7.27846687082286
Mg 5.392802177591094 6.634918930201763 11.209409393154864
Mg 6.347114833082024 9.489160056405597 11.458710078982051
Mg 10.620043430250218 14.034633312458634 10.326916357512987
Mg 12.214517044483024 12.991784719011601 8.098288795718329
Mg 9.307611128399897 9.56404120404983 11.812321768160713
Mg 9.303564768493292 12.329572248277085 8.232145095504803
Mg 6.19678623583263 8.309167028273245 8.154566338412545
Mg 13.56520371095704 8.404134823980378 8.754695572656061
Mg 8.371806360021681 12.176255649773426 11.097456666104023
Mg 4.012357804227236 9.489446612080332 9.679774864294274
Mg 11.775752630140719 10.147499917248407 7.096414327778061
Mg 14.325843835253849 11.185362152443208 8.684287842307585
Mg 11.143084377450664 7.748884015882021 10.258815408907745
Mg 8.980131465875308 9.280177886769309 8.379660442644361
Mg 13.390680016802511 13.001577751974233 10.809297237469721
Mg 11.110022465615204 10.72631868296594 9.830961357769107
