25
Energy = -20.18457155 eV
Mg 7.968005603343137 13.208080150733975 7.712647442915334
Mg 10.397676869485396 11.395572863207386 6.926751378378064
Mg 7.856529006872191 11.55272424181378 5.20561245575259
Mg 5.263786611083371 11.683813556980228 6.838870494534508
Mg 6.168797221118237 11.806692310583967 9.739199147526705
Mg 7.591733489824055 10.04133140324008 7.811268532862522
Mg 9.915830954250561 8.596201007812864 8.500897307196817
Mg 12.143058419563657 8.806862561318994 6.56651927701431
Mg 9.207329925938248 8.743695910644387 5.489781924761905
Mg 9.33355881255504 11.242751326996133 9.980653169030205
Mg 12.226566151744516 10.223392479464128 9.307578588154247
Mg 6.0384394324012 8.726847800486473 5.695305186440238
Mg 7.562822692109042 7.026877141774849 8.445084051293222
Mg 4.834124112166468 9.075721414947775 8.570491027256992
Mg 7.152746211242234 9.120770089646477 10.774910023906138
Mg 12.36840820295872 7.0478657341793465 9.17021903533428
Mg 10.187650566625033 8.190770764459618 11.333947887395787
Mg 7.588420348746723 6.170221304110772 5.356381199765609
Mg 10.352299506127734 6.164096993615903 6.806097722942459
Mg 5.104183760764478 6.68825306360466 10.383873949822764
Mg 5.130774285905364 5.912903084918575 7.4057325685827715
Mg 7.773920550355911 6.359513587461892 11.7402385217878
Mg 9.887258072262279 5.3528973810428635 9.780106549435489
Mg 8.248732960960389 4.017422949520776 7.50902823323006
Mg 6.710213678304372 4.154860143908936 9.950073877737244
