29
Energy = -25.32366772 eV
Mg 15.437313311834545 6.724079874284205 9.441912992387703
Mg 15.16485132449555 8.284710048446545 12.093219002545142
Mg 6.741390735335455 11.483214225388773 11.099752755967083
Mg 8.65934290226037 9.463464936300255 10.034680768215965
Mg 12.585050798434358 8.994482791968657 13.296223675871246
Mg 11.929543056638703 10.155810772077377 10.141107504154514
Mg 10.269956241620854 10.909247939170251 12.582638271819706
Mg 7.098047348605035 6.908363500912297 9.021199363529561
Mg 13.478797771744139 7.82689919291211 7.453113357668652
Mg 14.895535807336518 9.693444562336989 9.381733638583098
Mg 10.204891862029749 7.780870673950977 12.014332620733725
Mg 11.043632292595497 8.583158962279898 5.84523220686707
Mg 12.174698710332096 13.199963493795915 11.384122098173114
Mg 5.673867984725437 8.525896928154202 11.340478003144426
Mg 7.812871595672176 9.255603478527227 13.155504495009145
Mg 8.058264933147635 8.966064396729712 6.802296073766575
Mg 7.413122574063622 11.931971059285642 8.020999680610466
Mg 10.220332209196513 10.883340762329098 7.619091515918821
Mg 9.488968804734183 12.528491080324299 10.142297868884711
Mg 11.837017647310976 13.364971292583645 8.255888970506925
Mg 14.270797165895369 11.197838233588259 12.140501410055899
Mg 7.551803413749801 6.364153989984011 12.063303228475561
Mg 5.778481493465972 9.600439996968419 8.616623263264128
Mg 13.205287174140546 10.853746410644426 7.060162248842581
Mg 9.554394792382489 5.414311906495499 10.024944852715558
Mg 12.746017147631418 7.013880102756872 10.681919513598158
Mg 14.35722643056996 12.627786354663813 9.422343288898949
Mg 10.675737952576593 7.837971783216223 8.691502597568217
Mg 9.071185212022495 6.103655329469842 6.885883385007607
