27
Energy = -23.47447542 eV
Mg 13.938278504359626 8.218259875329425 9.832629270922242
Mg 9.902864060401312 11.196070552700595 11.177788589845026
Mg 10.314404551725302 8.441345080453146 9.74091093747166
Mg 12.585854636910321 6.05492970832934 11.306130384883259
Mg 7.156176163764442 7.356145796809233 10.502812954975402
Mg 12.737589211073916 9.38329601325412 7.372025014428325
Mg 5.75251042154984 6.367670166304665 8.004599474191158
Mg 10.126641048024757 8.062266238135978 6.5083031656893064
Mg 8.766629086815174 5.992782380277375 8.257635551788848
Mg 4.953178841882903 12.081124978668543 9.736367421435839
Mg 7.890913808805859 12.451713826180713 9.148646073065976
Mg 10.936736009897878 6.625618186152555 13.712745584816084
Mg 8.553590177289662 12.437089815248546 6.161771014738909
Mg 8.985390731884985 8.610925092285909 12.666561694828106
Mg 5.854061188307108 11.33637596456074 6.987877840442411
Mg 12.113339012748698 9.053129590225714 12.292068581023033
Mg 9.648745971782688 5.658662511519476 11.15561127724145
Mg 4.886709633211834 9.10651607754623 9.052853705789884
Mg 10.417583263279512 11.17153297214227 8.158672321292483
Mg 7.860219304125268 9.712073666325896 5.02558933154093
Mg 10.779377677954665 10.682260308053895 5.170623028279982
Mg 12.800335030488538 10.932679544817459 10.088019380862383
Mg 7.865297623830756 9.268262473523865 8.158668597868584
Mg 12.024305141074382 6.26739561202273 8.377499565671746
Mg 7.028140207843379 10.30602855544757 11.115595988597937
Mg 7.540955985775746 6.767945417842627 5.6451809467720295
Mg 5.187928738538165 8.528141838418106 6.05542290778254
