26
Energy = -21.39686598 eV
Mg 1.2806611334999183 0.8035461755019441 6.81925173893824
Mg 5.06382529707816 5.002259075587773 2.617832799288371
Mg 3.0157967599933575 3.0993363266236664 7.292494203538638
Mg 6.414061701150584 7.447701590137496 8.817993441545415
Mg 3.947615216881438 5.721097338492653 8.97709145403841
Mg 7.102136860861203 2.4753755986819743 2.47789592639336
Mg 1.7939165920863238 1.7862664010088993 4.0074301253156746
Mg 4.272046025170368 1.0648574557792432 2.3907338255873154
Mg 4.705542754092877 3.0782944840005673 4.750675942303081
Mg 7.687589692230991 3.1088945312173877 5.3896562708784685
Mg 6.521829280981177 0.32643895937054507 4.518621009127566
Mg 3.706103498526541 9.022425861693332 5.264857395266465
Mg 2.444814916083023 3.4412133476012516 1.6709117801190179
Mg 5.6353223257024085 1.2062351459659937 7.230130858887884
Mg 5.107358783450922 2.920807397451583 0.2727728952554567
Mg 1.960276259104721 6.431334217392187 2.031891099521136
Mg 3.7491621188465123 6.034125836680504 6.743687787339721
Mg 4.147230575021394 8.349155323378307 1.319514727931718
Mg 7.482855083590006 4.893875458954756 0.51580214578095
Mg 8.524061880307 5.048370649672443 3.290236163280223
Mg 8.546254282553335 8.609838830587137 8.817993441545415
Mg 3.9661360383621216 7.425035580379388 4.19223608457374
Mg 5.907254638419481 4.106747982887813 7.6373416000682735
Mg 2.171570906278242 4.809514502529126 4.513092611948174
Mg 6.857165742250486 7.5387912198559 2.6598741475719163
Mg 6.409024157256187 5.902647150039007 5.29402276186673
