28
Energy = -24.25404726 eV
Mg 12.861761962739136 13.995120015941472 7.3767174456148945
Mg 10.69743164177815 9.443760285563357 6.232692239402016
Mg 9.827771393559125 7.059503707519957 10.44863400764906
Mg 8.289484988136838 7.65149839470251 6.902483479770818
Mg 13.054834260634767 6.649185639677157 9.806624853308763
Mg 7.475707307593421 7.649489304846841 12.28280289464795
Mg 7.5778522278730485 12.635309230854633 8.859050575133637
Mg 8.822565164615538 4.99401409079876 8.317520334422177
Mg 12.976279788647279 11.34158231462317 6.072089555923274
Mg 11.134535321793042 6.8493273852972765 7.582557441146449
Mg 13.82076172306461 11.580879435525137 9.027946321960448
Mg 11.308317029031507 9.574430638795878 9.481347141098706
Mg 9.652627892482458 12.128075782279314 10.97774348499122
Mg 5.6592973433373635 9.017943275603983 7.785063455484608
Mg 5.4303851342437435 11.938286107985181 6.82769100354027
Mg 8.307172923190217 9.60286210278808 9.370022861262012
Mg 7.043840982316376 10.853409854647737 11.920496385562613
Mg 6.741478509217207 6.663217884432379 9.47847240727122
Mg 9.767298390422082 9.595003136327703 12.454356720098914
Mg 8.012447179908781 10.669015444194034 6.336312311200017
Mg 12.30783554894088 8.06724849727705 12.349256152096913
Mg 12.045818030264758 13.71439445718741 10.19541425016999
Mg 4.998954465029754 11.418767492324129 9.740375884359658
Mg 14.43195538803206 9.170170247268532 10.606646990182313
Mg 12.467870756383078 11.135414395378184 11.875174422993222
Mg 13.603100432371015 8.751539294039354 7.591242158010243
Mg 5.091677301934088 8.720487330706858 10.834413778521078
Mg 10.414284665698348 12.072409250945505 7.867333004482641
