24
Energy = -19.50503569 eV
Mg 5.564100916748518 8.49214697993056 11.971399733512492
Mg 3.6732437482932907 8.631084495448873 2.252295900995378
Mg 6.615092868743231 8.745164585767451 2.951477240031971
Mg 5.336039113741622 6.0606559953292205 1.7535576518403564
Mg 4.53847078432433 6.852190822890675 4.61263828087752
Mg 7.559287667313813 5.9851018733031 3.946496340170765
Mg 5.380839198601474 3.934720289281282 4.515832483034903
Mg 8.18025769101673 3.3969562643290834 5.486778673388683
Mg 6.615204426614015 6.452473492406666 6.807011714307225
Mg 10.085491715463057 5.725504993763014 5.571300291789242
Mg 8.637745429756341 8.46959238573872 5.375308928771564
Mg 5.641761251097458 9.35312566449194 5.9990137215652775
Mg 5.899438874892397 3.37460969492267 7.505384675181653
Mg 3.4143529650612465 4.806735977637462 6.61739737636572
Mg 8.64138048505275 4.644565049511319 8.197846097306334
Mg 7.883144418735296 9.752764894400201 7.960958027426087
Mg 9.912284987687746 7.4515102260265635 7.948142889738575
Mg 3.246347746583647 7.735601622066295 7.156569236975459
Mg 5.171476722791703 8.850245108825652 9.037585217273103
Mg 4.748860560129344 5.755203212313481 9.17468297204751
Mg 7.511230580701883 7.1815274475341155 9.604824726199503
Mg 6.654874960664364 3.4025710939493896 10.395583378847114
Mg 8.994949056170244 5.104152014479809 11.24424065517965
Mg 6.133736232467281 5.881408218303169 11.971399733512492
