28
Energy = -24.8886562 eV
Mg 5.960339616313515 6.078534520460645 9.565574962155328
Mg 5.661957431944056 10.007459887580591 5.193251809350673
Mg 10.655596470759285 5.2148465471077 8.607131940069618
Mg 4.869526526574425 3.8867103866851203 7.855492775936867
Mg 10.523522876537927 8.476832627145875 4.565817120748702
Mg 4.949263438423242 6.831939922583817 6.493553018925275
Mg 9.278683185847013 3.4541118534127175 3.9463619188910943
Mg 2.0536505754780867 4.623033976082988 6.993195063842464
Mg 4.141865773858896 8.35963386604067 9.85330502325458
Mg 2.838605931608447 9.207037070855826 4.988101328747686
Mg 4.605945006631582 7.27921805383308 3.4445814933174272
Mg 4.004076971433767 10.171262674170478 7.594350215678266
Mg 9.805577142566758 2.985362849431943 6.811258164343931
Mg 6.743256430277184 5.1008745251770895 3.5808384628723693
Mg 6.911603883093689 3.0952538386026673 5.829965580875556
Mg 10.801722267904315 5.617809216069938 5.589589980992901
Mg 8.704718619330219 6.9426447524234165 9.909031456355912
Mg 7.480667432033688 7.87514218944256 4.385298836667975
Mg 7.873417077181615 3.8698896403789327 8.933699528044237
Mg 9.522095794472465 6.201811889000172 2.886028796072578
Mg 7.824069961209295 5.954462561439416 6.6866947314669085
Mg 1.9834419303901758 6.394703656813547 4.680286326048787
Mg 8.590983810942024 10.172904213001098 6.084341509589756
Mg 3.014048902905613 5.591266426392043 9.616445308036457
Mg 10.151888740340933 8.049722175759447 7.541653086367036
Mg 2.0853318702795582 7.670855087256298 7.557774653642194
Mg 4.158575297624797 4.253694728558875 4.804478654403613
Mg 6.846941004567379 8.674354834822843 8.043272223830852
