23
Energy = -19.04349113 eV
Mg 6.134937367281718 8.542888607403183 12.901227574988186
Mg 12.475334583392469 10.645733879837426 10.011465814226174
Mg 9.80918891328421 9.963357028162472 8.504631274800486
Mg 9.267548956249872 12.113626085674168 6.371185168832541
Mg 8.037290104170404 12.901365170835403 9.145023197429715
Mg 11.16288112054766 9.159276203362129 12.71845367896954
Mg 8.39788560577266 10.451942852581658 13.55284180225254
Mg 6.716123920467784 10.52054240244489 7.923632890471539
Mg 10.26424008483012 6.192748305602464 12.111725381236594
Mg 10.44147180998874 9.516839077912653 5.5018550713455365
Mg 8.893962818455467 6.1108831338611465 9.316740035044592
Mg 10.710442784785803 6.876462222097543 7.1398071196237245
Mg 6.744480938094124 10.98618733096878 10.95246731580344
Mg 12.802680240221157 9.012965057801953 7.439273846783197
Mg 12.265061923347117 11.739998752192738 6.420006350165762
Mg 6.25407845177527 8.022976315658386 9.639778577674601
Mg 7.2505175239702 6.001234823473247 12.036157022528842
Mg 8.668720525838307 7.546773807992237 14.257229279744347
Mg 11.0101378461388 13.01980470802235 8.763756260278848
Mg 9.839704219251301 11.674033921256372 11.223343716378292
Mg 7.894436122884916 7.894214519096877 7.040905269476005
Mg 8.788301555979137 8.69558300489319 10.997449747441461
Mg 11.593917210191085 7.71180121376567 9.889281817789115
