21
Energy = -16.66763792 eV
Mg 6.9677186961573065 7.654568697349757 4.070624038826804
Mg 6.515192326613399 4.650625178918875 5.083271792279922
Mg 9.25773824623198 5.711789055656797 4.009945081955873
Mg 4.5977924324785375 9.252393784813593 4.875528662578828
Mg 9.720300962837506 8.531872795306901 5.3475715872339125
Mg 9.220953140696924 3.6051070779528036 6.281649851759181
Mg 7.303819437551037 10.201551197222626 5.8535535426387
Mg 4.221050196802165 6.3433826042266865 4.358201161348888
Mg 11.199589197111804 5.8985867101996545 6.432390054528339
Mg 4.0645772020512165 4.667524434915885 6.893397924413315
Mg 8.267827752357931 6.45183684603269 6.7790481869446575
Mg 4.865694865416643 10.318355144646903 7.64627160816301
Mg 5.800409077089991 7.3872471245321805 7.133807506816255
Mg 3.0833141257315457 7.8707217948203185 7.480905851412371
Mg 6.788851766355124 4.207619474471246 8.182910433545384
Mg 7.579163022344428 9.748104145267066 8.863819681583704
Mg 4.691458439270341 5.57378205989673 9.728505652204015
Mg 10.005868722298207 8.065118856319192 8.467996766720727
Mg 9.706368371478753 4.973520089516024 9.006971274633036
Mg 5.0702493495254455 8.508874915071406 10.017954153377982
Mg 7.490382218300236 6.795737561563619 9.90399473573576
