22
Energy = -17.55100436 eV
Mg 10.328164730634152 10.54835291776662 4.539817206362583
Mg 9.843973373412005 7.784359803223957 13.88778148194706
Mg 7.545663767059776 9.082734311163335 12.312039782580033
Mg 5.706880352287241 9.597077192635577 6.484007529283472
Mg 6.134203914894303 9.665470821303137 9.506901656032124
Mg 8.900654726782355 9.676022281418659 7.455644045671569
Mg 7.013304476202528 7.155192972212835 7.669948317879852
Mg 8.543555406479102 5.221116377283223 9.618087117817128
Mg 8.11565971534593 8.364776753688856 4.953761913769062
Mg 7.577017810268936 11.482007567713069 4.970740928557799
Mg 10.936140845746484 6.2197352492192 11.491324601491883
Mg 9.03563186616781 8.112941573342038 9.965013733473182
Mg 10.873296182579308 9.682624626616601 11.706513743911287
Mg 12.217316008988451 8.029518507164207 9.33057758957504
Mg 9.744354625706057 12.425448211313906 7.044840310637429
Mg 6.119493997746134 6.91138606435279 10.634561194432326
Mg 6.759067943172974 12.07261221399975 7.783835891686725
Mg 12.019789461455272 9.22507351605417 6.63208781976503
Mg 10.134541709269653 6.9179077452457545 7.360279013367646
Mg 8.127052587430093 5.832292965454313 12.605385826210718
Mg 11.69273769536158 10.975835086120426 9.08876823849802
Mg 8.81881603453521 11.286429116667666 10.032682820244348
