26
Energy = -22.24717708 eV
Mg 8.229555067393793 3.3992015995178213 8.741363332232785
Mg 8.843666856841041 7.1106816392108865 5.341600906706079
Mg 7.0745716163356995 5.836535423088933 7.3941316166921345
Mg 6.91183206570675 12.092685856333246 6.40439564832901
Mg 9.610539272258839 6.970387382881891 12.182088259400372
Mg 12.584373269895709 6.122276294784087 8.516183609089989
Mg 4.664787159787233 10.65108859853709 7.813467610542255
Mg 12.367537954074615 7.098969576714909 11.297955712697481
Mg 10.341367482497903 9.758690845949456 10.963080409338636
Mg 7.436823961165314 8.80437320763953 11.592109463387507
Mg 9.226533124816774 10.096735094468926 5.5593958406588095
Mg 5.157187964701274 10.513615798603949 10.76494692308622
Mg 7.9081224972517195 11.824662757756963 11.335561431009188
Mg 10.445025450084117 4.824265586686005 10.249736228048164
Mg 12.825957700417412 9.079143069802981 9.217991922994035
Mg 5.975116030608523 12.953815315130147 9.224390683992068
Mg 7.412959449064859 5.713475959795543 10.517706204243778
Mg 11.336532841086273 8.19869541116816 6.641681362929536
Mg 6.6276469778494365 8.762865453759073 6.399321045947482
Mg 10.874510155390313 10.952736396985642 8.043350891851212
Mg 9.758272391194753 13.02491714735974 6.014425947214123
Mg 7.930872004842006 10.231290080048591 8.727368788075818
Mg 9.363659673849199 7.6001226547033545 8.913168513057508
Mg 10.159438604707397 5.086022036117316 7.125364092783177
Mg 8.899505866326196 13.273094189408157 8.824148629376538
Mg 5.7350850419552355 7.946227646333781 9.21247707931531
