21
Energy = -16.74185251 eV
Mg 7.9750232663203535 8.187650309162409 3.6600238037041852
Mg 7.5798716415053775 5.242735037164549 4.073570517493057
Mg 5.173592983249608 7.127521015057228 3.863063688054755
Mg 6.117893769781941 9.96885038536192 5.205485557926971
Mg 9.49517006903378 6.6611438472713775 5.826198824802225
Mg 5.0053308195495445 4.303930471710362 5.155497789219374
Mg 9.013883986890649 9.563013353591233 6.112648133671436
Mg 6.573774424244912 7.175153390271118 6.788302729317927
Mg 3.4943034596026883 6.481040895067629 6.671131154459676
Mg 3.217160768126531 9.070647030114396 5.138272902754335
Mg 4.862649640600566 4.176041058227874 8.131772709017666
Mg 10.77464623688859 4.054690559531723 6.75539107513316
Mg 7.713553763501915 4.357131631344422 7.040646197279648
Mg 4.380657296425893 9.141084235969046 7.925473608055382
Mg 7.083505994737192 10.552054767301966 8.103636967110122
Mg 8.873232387725842 7.834829485717736 8.681381939047714
Mg 4.100480600674208 6.643683880784935 9.656319647767294
Mg 11.644396765492727 6.64827043423969 7.991330627044877
Mg 6.96141710641459 5.666217419724837 9.709016855621448
Mg 9.851350297883334 4.786177595614565 9.521067040058458
Mg 6.3279130497648515 8.577941525185489 10.209576560875673
