20
Energy = -15.97802914 eV
Mg 8.472586962441223 3.874560232655195 3.5052323269897943
Mg 4.787358788025381 7.396547883888888 3.7006866038947734
Mg 7.6209737605316645 6.750398619230725 3.2999520167185006
Mg 5.601590919574576 4.4248230121405046 4.359311319371154
Mg 6.810488131605177 9.30338334717795 5.164586024270763
Mg 9.590642436429492 5.900587850280302 5.498827283381643
Mg 3.9672409193183933 8.877206617645353 6.115718922319246
Mg 9.677043302449617 8.709617784859384 4.296441937135135
Mg 3.209882990841842 5.785387276968166 5.598849461460977
Mg 7.82104940736629 3.4985395481776997 6.403562705705823
Mg 6.543676875487389 6.505550205866273 6.441387321612998
Mg 1.0963778884412754 7.754316919365889 6.7961667190541535
Mg 9.049065889286108 8.443841303801337 7.215594755487388
Mg 7.230237692073655 3.243074204579623 9.314415249201032
Mg 6.138992601822009 8.950295499600932 8.267226449945246
Mg 8.993912985602282 5.563108296033818 8.441268049401726
Mg 4.927613421670279 4.086602661807065 7.461232829116337
Mg 3.808996340375976 6.869961099690269 8.318595436949924
Mg 6.2460081943922985 6.0428821468414 9.720946102785456
Mg 8.436572975161248 8.049627972285709 10.110310968095018
