28
Energy = -22.5740706 eV
Mg 5.790851170097179 11.495007401412566 10.052867853840391
Mg 8.064777123697613 9.747224677171484 10.821505025490271
Mg 10.23359052227253 7.946685580850863 11.439275578114996
Mg 5.505278578534291 8.399290299928559 9.677174274277581
Mg 7.760959965241399 6.484031697461887 10.46990046179372
Mg 11.174537671821241 3.3419706667186038 7.809306932211833
Mg 4.409239589787861 10.426399206038415 7.577851009729816
Mg 5.287512950897995 5.380043664863975 8.925283855007631
Mg 8.174450092014602 4.005354263446521 8.48175174091898
Mg 7.522365951582956 10.222518889313275 7.789496944203396
Mg 3.6361414994487014 7.462315928675595 7.428707243887495
Mg 9.934712956539999 8.479311877847199 8.456377558912212
Mg 5.413452790250791 2.5014122660565983 8.117155159280545
Mg 10.533307825793171 5.6805407617173245 9.489158229464211
Mg 6.109607115303223 9.657044071570391 5.133831222422282
Mg 3.4569001203417287 4.430937641129992 6.561426972385724
Mg 7.299017269109037 6.963800817819884 7.317358837680125
Mg 3.0967207814567073 9.266716338280837 5.058558074757853
Mg 8.991704552827628 8.714039217883393 5.477905293811308
Mg 2.1373541403930436 6.47924376563712 4.816052385392329
Mg 6.361226154336525 3.9066568515041387 5.8264793109369375
Mg 10.515014728627454 6.089980117606321 6.44632285641371
Mg 9.372257819514275 3.2357725280525496 5.6109254711073
Mg 4.578704388541916 8.640100196784132 2.562575747101571
Mg 5.222285531141615 6.61367141993818 4.815035824421562
Mg 10.446427065238783 7.0420334339313815 3.3627441817811334
Mg 8.128784855587385 5.755165996531449 4.419415455494044
Mg 7.528867316326399 8.205172067303963 2.7412315515884624
