38
Energy = -35.7373383 eV
Mg 4.862866346825834 6.817684154447599 2.070871576106517
Mg 4.7842111353423 3.9412195127224803 2.6365931411780674
Mg 7.610579336816337 5.097540466857234 2.9060540640142816
Mg 5.296244551490608 9.945605572631342 2.011388189268431
Mg 7.360643421186651 8.135936741855046 3.055799326198608
Mg 7.243575870319275 11.338092249027703 3.8919683941261582
Mg 6.981249470732016 2.401828382326098 4.070832182880533
Mg 9.572956888942795 9.523484077045762 4.505647393729293
Mg 2.8910666483642875 5.558315205322359 4.420291610629331
Mg 3.69398026874949 8.607053819024319 4.19388842192523
Mg 5.701821821314589 6.066687346618583 5.199179043773219
Mg 8.714138622502016 6.693973362729827 5.316573770333196
Mg 9.528291910615701 3.8201290499417837 5.138228161844432
Mg 4.179145112277453 2.827528703609039 5.307873764015326
Mg 4.32310746037154 11.735985428049398 4.150031091430041
Mg 6.414433758529241 9.039175577754715 5.984353836712384
Mg 8.771424268589918 11.568201615033379 6.495177812609816
Mg 3.4322873653807697 7.5429783657021705 6.995868851063243
Mg 5.928861383907452 0.38697304653105885 6.11440867852802
Mg 6.972559908311927 3.8546475632569606 6.968279715938588
Mg 8.768085784778373 0.9839141376244332 6.058088606091975
Mg 5.820282592558357 11.97769638278053 6.922246265364181
Mg 3.1464587484499984 10.544631021601019 6.481482478857792
Mg 10.097124265079207 2.6822165777252813 8.012700983509765
Mg 4.430499408786349 1.775045569571564 8.150276582767347
Mg 9.662077610577093 8.695493616249667 7.397407619005373
Mg 10.040389448608428 5.656396998619863 7.767751095519383
Mg 3.874673172821232 4.74783794136677 7.581211126344626
Mg 6.780849870027322 6.779998420191782 8.090018916996842
Mg 7.387254443456359 1.4397879009098806 8.846990911400995
Mg 4.790448060191155 9.572549489194543 8.728736886247265
Mg 5.5980085056140965 3.824761807239744 9.918125686683755
Mg 8.52402346261985 4.323382321137022 9.932200287995581
Mg 7.651725794862206 10.220137266041252 8.925767842484998
Mg 8.953679162854655 7.506367154642711 10.147719295177762
Mg 4.244031384034402 6.71775192270298 9.910889773583254
Mg 6.723158495914325 5.951378532883373 11.60368142543762
Mg 6.293999675202309 8.747828136037006 11.141610627233401
