34
Energy = -32.12236422 eV
Mg 5.8141937878619 7.498421332464838 5.015749598244171
Mg 2.7050731091365217 7.617409755071156 7.845502722731402
Mg 5.334718205396464 10.851582137338719 4.779818592002262
Mg 7.466901109596005 9.397548007375239 9.56583767390256
Mg 8.756595478104382 4.8524957803264686 8.42891763928645
Mg 7.770426854661974 10.679088778676372 6.556448203381569
Mg 5.141596962425846 9.436233825492266 7.5018165958308245
Mg 3.1428899020222523 8.782501095360283 5.0655503661600205
Mg 7.193794109860543 6.402018547158941 10.5440334431041
Mg 9.851049957151853 7.448467274551873 9.79514247833154
Mg 6.914270396080599 4.843596607261947 5.800996145553258
Mg 9.236168617026921 1.5800758722965027 4.470726715240257
Mg 6.598182053838501 6.672230818299988 2.178416493533693
Mg 3.032491813881878 4.424787146590405 8.551824195133534
Mg 3.561011777595535 6.716963006357157 2.7376135045248757
Mg 9.9003374259036 4.238758114894123 5.628455033591264
Mg 10.778401888895957 6.895129220874544 6.840510310316318
Mg 7.762595159400002 2.189336970156685 7.082867473091019
Mg 4.547549206014677 5.169471727138559 11.170236320519232
Mg 7.925764073934612 7.628659338097465 7.1101787046863985
Mg 6.3519961547766295 1.7428098546473063 4.344723282578645
Mg 4.639431623909417 2.9039439706281964 6.512921718862618
Mg 5.430564981789979 6.244593604653289 7.984629131629556
Mg 4.990274375709909 4.231373118967535 3.4103076760189435
Mg 8.03650048674145 4.049720011015317 3.0355396337600844
Mg 6.085050578505762 3.5158187896046282 9.195818974298422
Mg 2.0744872056965584 6.527869446809267 10.548148684761259
Mg 10.280195828578593 9.848010283167351 8.156236663680119
Mg 4.851916866625647 9.313886181153272 2.3129017935017524
Mg 8.972935930255268 6.76922243287606 4.189797725851103
Mg 7.693381979791564 9.466374586112792 3.5214790153359274
Mg 4.7018062954089626 8.169571780820975 10.294572268537035
Mg 3.3695660437170147 5.567873422051097 5.631128289487674
Mg 10.155906577991091 9.392183979997574 5.259179750819019
