36
Energy = -32.53189242 eV
Mg 7.339160661371121 4.645842805910068 11.060351307058747
Mg 7.166803710613551 7.6382743139686315 11.616653953697321
Mg 9.46890049059287 3.5305095804419406 9.30533803914929
Mg 6.8972428125875105 10.624957179593487 11.702295416289507
Mg 9.338090718104292 6.5169142944626115 9.646909761037524
Mg 6.3063557967464785 3.3894586029188027 8.492098213344251
Mg 5.880393644777604 6.517779079245476 9.042583312833974
Mg 9.156539241678301 9.4955182017762 10.095194416523317
Mg 11.254516692837935 5.331225588642901 7.478988596036993
Mg 4.765486801689786 9.144492888407862 10.40031386053122
Mg 8.241278550235513 0.9308591235185771 8.169480280152818
Mg 3.6447763490506047 4.835325160160037 7.55607186298386
Mg 2.7890118945248545 7.320964189917858 9.101836342453497
Mg 10.956323500094294 8.365964990036774 7.730179855838357
Mg 8.09135658214051 5.367423141539742 6.976888267362789
Mg 10.64270382619011 2.447039396945345 6.8191738216530835
Mg 6.780705950021407 11.10493183451425 8.565173674816066
Mg 7.869342706938833 2.421581040309336 5.703313713753672
Mg 9.841509496645418 11.193750548413721 7.797437461603243
Mg 4.928461986340393 2.651745574419926 5.894140512345757
Mg 7.788592429685422 8.43831995615646 7.450753648172696
Mg 4.572122937185659 9.29188280210452 7.3713907798272755
Mg 5.497174261268474 6.827525778648516 5.985912359951012
Mg 7.859317846185838 12.26260214323713 5.884969868488359
Mg 2.391336093552055 7.284510309577943 6.132033197817888
Mg 9.951112564218901 4.477750404475841 4.661852369585126
Mg 9.716925237172182 9.78010737386131 5.211642027058032
Mg 11.378516741849575 7.091326206297391 5.031959225679442
Mg 6.6483334945946835 4.671405145201674 4.14223662972151
Mg 4.929494664871755 12.062598737388166 5.7919837289605125
Mg 6.67592795000858 9.640409079334512 4.797446264292778
Mg 3.581621328189732 4.905374208326429 4.4750898724839345
Mg 8.386573878989866 7.140369538552639 4.3412115227320225
Mg 3.687665530062386 9.603734364647622 4.501695050122415
Mg 5.480957302884886 7.3516047110400065 2.997692821497637
Mg 2.488574175402654 7.27365029660106 3.1009740836651933
