36
Energy = -33.51171983 eV
Mg 4.084708106193888 1.5186254435589785 8.230228900968012
Mg 3.181873891619412 4.409718961490919 7.272981087584342
Mg 3.922220456459072 3.7573077060025937 10.083670191220067
Mg 5.821998844850545 2.9180857002190863 6.293758056114149
Mg 6.794213747306731 2.77133454152195 9.259531470908502
Mg 4.78205100434712 5.5897925591708 5.061422552807318
Mg 2.7737375078528093 7.457801522198139 6.467906475419786
Mg 3.573489356211469 6.723148659827654 9.28512428411488
Mg 7.608491251558559 3.653483051730658 4.078918666447581
Mg 6.1329041384075555 5.497284419186559 7.936900253076159
Mg 6.20674726761033 5.382082226236305 10.955634690106606
Mg 8.753006688928128 3.9661469571503125 6.926092472501087
Mg 6.436416457578758 6.052131829619522 2.614636989012325
Mg 9.228338944265362 4.747441530019196 1.886819605566955
Mg 4.582462451617404 8.536432998793567 4.156167055290252
Mg 3.5901724601681284 9.76754753335259 8.43840276160777
Mg 9.043158324172156 4.921700622867473 9.781738134005087
Mg 2.631127824967898 10.438446750748104 5.6861905691572225
Mg 10.441243863524907 5.283810539566586 4.596455796864185
Mg 7.689548762195668 6.490954911237317 5.414647594001985
Mg 5.447480759321916 11.232122924796112 6.034003968255084
Mg 11.031795328259694 7.355127922918415 10.382770869793914
Mg 9.207997222964641 7.552992700281561 2.8362016168956163
Mg 8.389012531054505 7.296510794259141 11.558855839682039
Mg 6.0413142248029095 8.313365671304426 9.979516354519708
Mg 6.549256304872716 8.924062463084146 1.889744127037175
Mg 11.054138331299018 6.0542461125873865 7.519468156413907
Mg 8.466294662463799 7.526621981441653 8.211285569387998
Mg 5.808129851793867 8.304132229086244 6.9228423692283245
Mg 10.240569749923253 8.289712128222128 5.561895149895842
Mg 7.557026107554697 9.512158457856112 4.597126409969586
Mg 8.990440095153303 9.897676072631644 10.151403400927132
Mg 6.323266923421469 11.144048048206592 8.948954743518271
Mg 11.33244741425041 9.170582868038288 8.182959184986967
Mg 8.600570004957723 10.470204837627536 7.1484091799238865
Mg 10.90942263565347 12.164412121268857 8.760175388894401
