31
Energy = -27.54490801 eV
Mg 4.0524602355892165 4.103837683651594 8.46861396662999
Mg 8.61619638051451 1.4136661113485611 8.246655776581543
Mg 8.4370657865783 6.254814473884797 9.77439699328386
Mg 9.109952233569055 5.612128695766391 5.219018192717859
Mg 4.139644022805296 4.9745675095903925 2.649094287143243
Mg 2.5858206970540323 5.6871032967710855 6.306043658359016
Mg 9.481457882208124 9.068573535311563 9.6470846496431
Mg 5.563087500680326 5.936970293268226 10.397081012282776
Mg 1.8254303005544377 6.823135949641321 3.5480937399302577
Mg 5.314417381453518 6.606117803469077 5.144887908700689
Mg 7.086456192798995 3.357090868611094 9.939593421031153
Mg 10.523892252342977 7.044320296069024 7.578808345831271
Mg 6.76420607618444 5.086534485755879 7.328853390472316
Mg 7.585138044805613 7.750009742145636 3.571111413417514
Mg 4.495004629244902 7.321650266033479 8.027265599652386
Mg 4.740475471462431 3.4882281062165252 5.326085860329016
Mg 9.727443722515469 4.120258224217227 7.8911463112798526
Mg 8.202578207157373 10.56061816299146 5.247472856191241
Mg 3.065322616884863 8.700007753969025 5.578959640593308
Mg 5.247872019449774 10.215275780332979 7.2428133256567
Mg 4.36854164784705 7.935850368304578 2.4498279591728385
Mg 5.503416288530378 9.9391936018258 4.276367442957059
Mg 10.48949049689709 10.176166640508256 7.124977141219798
Mg 10.275715108500611 8.394011296727765 4.803261438895009
Mg 7.856223436287937 11.154428705381532 8.320167856795159
Mg 5.782563115828004 1.8320988463449146 7.639756026895833
Mg 6.467985144060086 8.765953063106965 9.78841474200646
Mg 1.7193360369178412 3.7837764278674433 4.049189005270942
Mg 7.004318388407293 4.65217664932734 3.411533018968199
Mg 7.900209314043909 2.757427253386923 5.592058675495551
Mg 7.568279368826279 7.9840081081734375 6.911366342595873
