39
Energy = -36.27769538 eV
Mg 7.808255901274973 5.169285289908316 1.8495773666925366
Mg 5.450804119614717 6.991688144803808 1.6543247308248028
Mg 7.9875306296399495 8.09170044660429 2.7931768845706677
Mg 5.2717407760806845 4.107389652376497 2.933676734189782
Mg 10.832602176014595 8.747513007071401 3.360087132137262
Mg 2.5451620896876412 3.7019135028101178 4.462165392169568
Mg 3.607033877652376 6.491219793533207 3.902147464420947
Mg 9.953250643303338 5.879022486807631 3.776243123965046
Mg 5.434373781725341 9.084584892385998 4.07922682388321
Mg 8.299020954850624 10.461062630517926 4.636655819938602
Mg 8.058055624294528 3.4387436802776565 4.338378312830431
Mg 6.687556987006198 6.18927047099968 4.966823616190083
Mg 5.353095091494267 2.258802002056735 5.265609319535203
Mg 11.213011812252928 10.53005539605317 5.572111648606093
Mg 1.9347537314891492 8.928959950530704 4.787833912999711
Mg 11.932667040966223 7.179089964070338 5.758470275948038
Mg 8.966745400570565 7.944975256413341 6.186356368823779
Mg 1.2328967455536994 6.188121755898447 5.8040142688220335
Mg 2.689260166827892 1.2139410248701257 6.069246694361131
Mg 4.114257191229757 7.948347164900449 6.571722671772803
Mg 11.758205736025928 9.097796934060192 8.093209158519473
Mg 4.3829397100960295 4.965047571876441 6.769169118456842
Mg 1.5550872541419714 3.7254229123621108 7.4212210482749486
Mg 11.500551605692992 6.186060716384599 8.612226953437311
Mg 6.392376111948492 9.808934528937122 6.961002091349651
Mg 9.697167557464457 4.943115447537569 6.595296961126375
Mg 6.713271472221399 6.8024509278113445 7.9482511516189716
Mg 7.18495500083497 3.5767970138178202 7.311990405828832
Mg 4.449916357985077 2.2477628292164016 8.241924156815122
Mg 9.166380459149906 10.733161738542728 7.720257734647683
Mg 2.288084130571374 6.569503411299347 8.627298467127929
Mg 9.232919572572678 8.0879602862086 9.411140894654233
Mg 8.859174195386611 5.088117388512342 9.593011182312232
Mg 4.483620481562606 8.858121585091666 9.41152114994186
Mg 5.820767868627436 4.468234917108341 9.922276490639598
Mg 2.82404866824666 3.927673967254641 10.102157385811147
Mg 7.084329432084245 10.135156368185092 9.91572604143283
Mg 6.832335420396701 7.2716444685423 11.010609152254071
Mg 3.9484890681171967 6.5080453190175165 11.11055673772484
