32
Energy = -29.18576824 eV
Mg 1.6191065331477938 7.904465937992856 4.173121541908619
Mg 8.034389914651145 9.217957434710556 10.09264882570484
Mg 5.188956908281668 3.1346787878628195 4.3946316831049685
Mg 3.3199959004356256 5.435891234431774 4.080937532561249
Mg 9.212501353279174 2.4764087180487615 6.972315344973094
Mg 8.557050779744413 4.425013251404399 9.008494705505314
Mg 5.469005172032691 7.615136082898838 10.945991293710113
Mg 10.487855989263519 10.107514612088064 8.502727813598726
Mg 5.705847402437989 5.092974776961178 9.109419915969436
Mg 6.195226621817987 5.883004513854464 3.027485781877752
Mg 9.288579761046321 6.157949534481003 3.645488708794701
Mg 5.35160928892046 10.282075409995644 5.6124422272871355
Mg 10.080164595587458 3.339788365226369 4.247984419239534
Mg 3.3411089443393465 6.893646038527606 8.973128449274927
Mg 7.270934195614798 4.923400649793775 5.812687182263008
Mg 10.238397129311217 5.366108351199416 6.574361617105045
Mg 8.084604510073667 6.393618955470118 11.178197311810111
Mg 7.7541594451998614 3.4947296492812585 2.5598935772524802
Mg 5.329928028228868 9.36077606159549 8.494608858920525
Mg 3.7604355446846407 4.164479416356263 6.96969794038055
Mg 7.942083764509017 10.350266932272621 7.049804966696196
Mg 7.427444860749711 8.25632088773882 4.666768773476061
Mg 10.235078436125198 7.166060652836824 9.081053905857809
Mg 6.252927660977368 2.455341200515959 7.4317662544706256
Mg 7.576259443194696 1.4697851023504167 4.772429504348441
Mg 2.7444490496590492 9.060303748333409 6.809163954278726
Mg 4.985826075323459 6.9977247122952395 6.188380792975177
Mg 4.527885641990668 8.260536620159296 3.309420810157595
Mg 1.5577729131604503 6.2273361635547655 6.619641725876645
Mg 2.831058516463508 10.594687826048535 4.0179842418581035
Mg 7.548701285479318 7.238372978255982 7.720560677462357
Mg 10.129032583381596 8.302023642569063 6.005137910411723
