36
Energy = -33.51268892 eV
Mg 8.165395183149913 12.658455519204624 8.521049417750005
Mg 10.527790419454991 13.068624933433702 6.5080381040422495
Mg 10.316588509233998 9.122769318458458 5.651587473077938
Mg 8.014837905562871 10.870193872945586 6.039366700983889
Mg 10.228163474487108 10.473125471012425 8.342738145642791
Mg 7.500152838816926 7.404377957886435 5.959704879751347
Mg 5.695197907732504 12.17923091528768 10.036559764441561
Mg 9.528916861583404 7.426983032491421 8.211238670578728
Mg 6.99651000043694 9.297466705826151 8.366514772143962
Mg 7.614318605241348 9.269061175797123 3.597441558173034
Mg 12.128471452485261 6.766852432423956 5.824482604977098
Mg 12.678858094054378 8.669094775511576 8.097968238733138
Mg 5.519979702111395 12.184593753009757 6.978054274674491
Mg 9.762048452074064 6.861238586290492 3.714413033137264
Mg 11.042670563115763 8.715939356993218 10.628058436579098
Mg 8.381441102239418 10.673869493374085 10.793220120612428
Mg 7.523191261948628 6.93327879514992 1.6703956044292996
Mg 12.055737229027972 5.7919547314576665 8.685854051464892
Mg 3.791960539337116 10.439480389354202 8.510213715451943
Mg 7.169436264284575 5.077727448101555 3.949716966703302
Mg 10.366558802134472 5.8122518058793124 11.121729946959439
Mg 5.089481911591315 9.327661193826742 5.792752698010238
Mg 9.646886097956093 5.081217549463216 6.1305998372696715
Mg 5.143183569411488 7.4815415545682225 3.3249377813799863
Mg 7.990093610016945 7.7110145668904755 11.005279032215194
Mg 9.296785452408905 4.112017756668456 8.896612912025127
Mg 6.889924770645985 6.084184741424833 8.627707262495978
Mg 5.346833554583858 9.354155100712287 10.934443824953682
Mg 6.925498906047268 3.8149248749672764 6.611547625585024
Mg 7.537677870998605 4.686943450012247 11.42088173005709
Mg 4.248965973394061 7.548748985298223 8.286782459443819
Mg 4.746012784209941 5.874185514537761 5.792464050699089
Mg 6.593095472761729 2.711584238068034 9.351859126022072
Mg 4.996505957329801 6.410007664706367 11.068718401227793
Mg 4.190208248218474 4.451639082147434 8.435963973007063
Mg 4.554673234244793 3.499247372244994 11.24603029868614
