49
Energy = -48.51862128 eV
Mg 8.103165569548018 4.7785572220862 11.913480248711606
Mg 8.122740013454 9.389217434763715 9.682930836550101
Mg 11.073042573032966 9.160509392432925 8.93741751661331
Mg 9.617944686153358 6.931198509982007 10.40670445571042
Mg 6.61664006024472 7.5139048713526195 11.572087734078588
Mg 10.833532531705178 4.196326088778344 9.796567869780636
Mg 9.501135377734233 2.131721087123653 11.494980201700997
Mg 11.842421101881436 6.458962319658813 7.886360323439377
Mg 6.966015686680776 12.041721879091616 8.82468060349867
Mg 5.120632418922396 9.77035139219225 9.932496255129136
Mg 5.080782845774899 4.959879828556165 11.351505797295237
Mg 9.295267554354965 10.90445718217137 7.256326225103946
Mg 11.269969308534076 9.052521530032642 5.936565785725615
Mg 7.907046410138192 4.678325891745457 8.877658171501297
Mg 6.059013575547737 7.0613395784409 8.610768733378778
Mg 8.88232819643954 7.321380461272809 7.3496377562796
Mg 10.086178711822356 4.215437629512298 6.762995356101157
Mg 9.195034314281767 1.8170870507248493 8.57165006056317
Mg 3.3086062398856524 7.072943682902203 10.033885345391234
Mg 4.280749773653812 11.930957626725851 7.764662880101099
Mg 6.697846624621731 12.25113718182701 5.76309159728926
Mg 6.664455342901991 2.394995352937701 10.387639219019587
Mg 6.552464579486814 9.441490864899487 6.856873466597378
Mg 3.194454249931348 9.127242969272302 7.7559084188491525
Mg 9.21277909591352 10.775549376908659 4.292337954722961
Mg 10.939803126176027 6.289077819514769 4.791610685632713
Mg 8.217010366186521 7.766600896429132 4.488484412056165
Mg 6.316672073775758 10.212606887604494 3.4555628601563346
Mg 8.897239864532352 1.6767981373807117 5.543768113461035
Mg 6.4237949417805575 2.0296041942159357 7.222958814365367
Mg 3.8761744225050365 10.503341094592013 5.167380775251862
Mg 5.287208411761205 7.63023075068538 4.8744398651373855
Mg 0.8986272799463543 7.158312791021537 7.979712888231124
Mg 6.774223059942064 5.179385198648752 6.087793277658485
Mg 11.075852620280823 8.638999205893684 2.93521793828121
Mg 1.9067247085982715 4.520199785818059 8.749631395729356
Mg 8.944019546591807 4.1860201254794855 3.877587085076039
Mg 3.7254738162213235 6.2512689982661325 6.898677811625354
Mg 1.8183598363431124 8.053703823552082 5.153197442568991
Mg 6.339421166814213 2.511066848560291 4.223605389305653
Mg 4.820086829931706 4.057632963975863 8.594192475737632
Mg 8.645446754928377 9.469200716516104 1.5977024342236326
Mg 6.176458968304456 7.7595879239449745 1.5974337664717284
Mg 3.5054481404014597 8.645926109997083 2.693905210786542
Mg 9.029128240399091 6.480833646592664 1.9105320238689523
Mg 1.1100796636326964 5.074642291251968 5.808466724987124
Mg 6.249893704127813 5.210217583779352 2.9954610804731576
Mg 3.296350512605596 5.634629645417907 3.6613191078450336
Mg 3.8924454965692465 3.447863991723541 5.72754729647355
