40
Energy = -38.10805859 eV
Mg 8.044385805312764 2.5237416856108155 4.865974701097896
Mg 6.13821711925476 7.5137626777238635 3.1114354899076107
Mg 0.8475737405517892 7.272133556854902 4.734340837927208
Mg 9.034449455722912 10.486559198122412 6.317109362368907
Mg 8.406242560489508 5.2372197052512774 9.464949416277447
Mg 3.0083113818010547 3.1965137504503187 4.889288226380143
Mg 0.6129484904366445 4.599706915919535 6.371724162385953
Mg 4.154532339208062 11.139252907284154 6.33835359286347
Mg 5.416558422866692 2.101484233396995 3.2183091940766833
Mg 6.5030240259982826 10.180588450540212 4.727663564221785
Mg 3.7415770172202394 8.595571963664483 8.078065009737278
Mg 7.982243274137988 2.791567345309163 1.768032857188972
Mg 6.149191971189849 7.485136470062265 6.2814635878004275
Mg 3.0530486086608986 3.2937755095351813 7.943425484125249
Mg 3.3398265566174925 6.1327771655940495 3.064055624185076
Mg 1.3926655430771486 9.7412890037249 6.354418447390795
Mg 6.150971077812106 7.39811667054313 9.542773516477933
Mg 10.737704746878563 3.248106259451721 6.322716412996231
Mg 8.832425333004911 8.06282021685925 4.586045875034897
Mg 11.080363002071838 5.78626656312051 7.82740704613282
Mg 5.800502980000346 4.822216481027457 7.747059341118166
Mg 3.4002074090294823 6.040032388763024 6.234432496920168
Mg 8.422530697047428 5.3692496226917035 6.2114193038895875
Mg 6.50168095542784 10.066746441574457 7.922856592981004
Mg 5.419447736700402 2.008626554178697 6.359984687660718
Mg 3.69676696766201 8.748610280733875 4.609643705129344
Mg 0.956787678889952 7.140088023393821 7.872704672085857
Mg 8.77844386783914 7.9220648771654005 8.056601377807871
Mg 5.781653082902633 4.784126679885031 4.6863338272139385
Mg 8.055030505667737 2.6271191598113535 7.920063933691147
Mg 11.330540146644053 8.412914164718865 6.31099566177075
Mg 5.770459423258639 4.81350770228831 1.554258074688182
Mg 8.475386933640044 5.447634641091042 3.040514424747027
Mg 3.4071648940368364 5.90495500924873 9.485536288698114
Mg 3.107977023554932 3.4426252672996545 1.7901982110691403
Mg 0.6966459334453707 4.621541231697273 3.329911733840266
Mg 10.632042753410015 3.2979240504101868 3.2826472355219316
Mg 11.194447196901129 5.891455585396488 4.68729922921304
Mg 5.792982582365316 4.676866599419416 10.911452120014754
Mg 5.454352298179376 2.160722082979327 9.423298581834606
