41
Energy = -38.22867373 eV
Mg 12.12796101294914 4.934324006734408 7.974025121573779
Mg 9.786754468990384 6.14575478762066 9.500838947016787
Mg 12.309064515652658 7.9663175848493895 9.123400436720424
Mg 10.377274822230788 8.442510181140777 11.375250777989132
Mg 7.654388416161475 6.920324754490839 11.5409170175148
Mg 10.971059931052885 2.623238983359819 6.192388271504316
Mg 8.657021400838424 4.586160030723566 7.048818119764341
Mg 7.076857827413689 4.5330850827351234 9.642142164404119
Mg 13.45425407126233 7.324003000985475 6.5463016091075765
Mg 12.147010898863925 5.135335799704088 4.993980615063957
Mg 8.256466132152429 1.819704334023797 5.293432942333387
Mg 7.860811974840822 9.933557291307007 11.261257517103664
Mg 4.9090116158517985 5.533852736929867 11.370189267916711
Mg 10.205361231737902 7.436732695239339 6.655132524377975
Mg 6.349568954093959 2.426127643657152 7.452372967303027
Mg 7.284236867490244 7.517014906666902 8.412411747925276
Mg 9.542663864925581 9.644200149981504 8.702897775120805
Mg 4.023989867000992 3.506503761612513 9.193867803663343
Mg 9.449651837836113 4.275111645220765 4.037448531826869
Mg 5.235080287738457 8.555800869860661 10.695432266852038
Mg 3.5009442986326555 6.757775878587658 9.044613364389216
Mg 10.449205661270193 7.194621072662667 3.627853126127589
Mg 7.564782806134568 6.822849039435557 5.263505978705281
Mg 5.50623126981388 5.417978397368348 7.126693240478668
Mg 3.8206934661223344 2.9607211788942895 6.084949582909374
Mg 6.506346796872836 10.548993165689483 8.702863253199093
Mg 1.9196135122247033 4.7814630208290465 7.442172248867436
Mg 6.223383794932533 4.1197725154350175 4.377688068597827
Mg 3.3698895393630033 9.883279356310414 8.67191099997383
Mg 7.909300253046528 6.021105861628817 2.2649823947511014
Mg 7.880266903232247 9.80335927764444 6.040504089565803
Mg 5.004150942116776 8.356332821402303 6.40589892406261
Mg 1.7791378718130835 7.771325215315356 6.816756414504476
Mg 8.213436035003797 8.975893696040133 2.9903096457068505
Mg 5.368484217557098 7.261741281348796 3.14210677035689
Mg 3.4311354478921174 5.77750916978803 4.930276144656304
Mg 4.900276146583867 11.528947521378418 6.41852670985252
Mg 1.8165633847247764 10.702644135436351 6.302771400305346
Mg 5.721765196122883 10.306331203044813 3.773622852671905
Mg 2.9460844943250386 8.774765360049239 4.136731450040371
Mg 3.197831922557744 11.832381119479214 3.9808656286315003
