49
Energy = -47.27897352 eV
Mg 9.084160569269397 3.3299251391021834 3.8854192894047586
Mg 10.653078572923825 5.206367159445381 5.7925375907700705
Mg 10.364890380524692 5.889519031065384 2.871062718623927
Mg 12.006574510753296 7.7724945317448215 4.592124991220306
Mg 9.020885077296942 3.9116345101772354 0.8617510668693573
Mg 12.547082474141655 7.229455711740158 7.533576031097894
Mg 9.284184054435674 2.715537457966001 6.781211506874019
Mg 6.452098952449038 3.543842539351861 5.5391771739513755
Mg 9.168712678308134 8.627883353510404 3.5621004298580563
Mg 7.765491279374269 6.709510367228616 1.5540801685144625
Mg 11.034513416547714 5.060110967371571 8.860630706903846
Mg 10.949999216762837 10.489981580155648 5.321305441141141
Mg 7.638534505356176 6.191265350669269 4.583736514604141
Mg 9.592911607536971 7.92000037713609 6.691459712050012
Mg 11.577115403732082 10.014619815050434 8.241656043853688
Mg 6.446499729694439 4.099799606793485 2.497375615004389
Mg 10.473133381561555 7.831255605825566 9.973730453443938
Mg 9.374537227526263 2.828510440045 9.73957226632026
Mg 6.530044440420956 2.702633610256227 8.341647605019325
Mg 8.145301171059613 11.312200915420393 4.500581425719815
Mg 6.368539437255692 9.174590926797046 2.6620998874818174
Mg 8.113321346078138 5.388346422349023 7.626964094936262
Mg 4.8357565107984515 6.692390743370915 2.011612439120406
Mg 5.288510926156591 6.412500176727163 6.522027612603858
Mg 4.06209464367558 4.74635912661742 4.145541771653248
Mg 8.72835506151126 10.733931257304373 7.4325434015385765
Mg 5.302434059455183 11.638158626993391 3.8189537678625456
Mg 3.7634818602843123 3.8042019680670967 7.155762026230879
Mg 8.635157343249935 5.702817280211763 10.698081166701984
Mg 5.704208117141597 5.632075328161839 9.500896837120223
Mg 6.908452727681028 3.2790184584091446 11.284337391334084
Mg 3.8854770268752348 8.142473998103558 4.384038268985686
Mg 9.347208736283292 10.654916932286186 10.360110184238868
Mg 7.418633965818067 8.122069668177591 8.818463194477038
Mg 4.002811862106105 3.184715409567227 10.035087089983813
Mg 6.661003823348367 8.93326491522387 5.722540264922924
Mg 3.3916403818341423 10.834446100819118 5.816718618227089
Mg 7.678280299931091 12.91784601928733 9.196198203126952
Mg 5.966705360753344 11.752102517324746 6.999659749117212
Mg 6.214102720404636 6.056657886418972 12.516370491013745
Mg 2.032730427000178 5.89654130403461 5.826740836972827
Mg 7.851082235482121 8.511988305233869 11.825093211617027
Mg 2.882482716811542 6.539776439848584 8.684499629130023
Mg 4.460643323022322 3.556343143480487 13.028284816541342
Mg 3.206140325221731 5.850741227185213 11.533613927174223
Mg 1.7553493708691037 8.667277166435161 6.746370320111558
Mg 4.7542058049767135 8.294905284222418 10.99618614995309
Mg 6.17865653558866 10.618849736155086 10.150910960011219
Mg 4.502710926047763 9.119422470569212 8.062355551359715
