41
Energy = -38.66731834 eV
Mg 7.694227349341299 7.390274359828809 10.222659721417402
Mg 6.650042002106908 2.2358249099788723 6.853152584250355
Mg 10.82382083289344 7.761384270571619 9.414013551328964
Mg 6.728459744630515 8.005245704014449 7.211985274342328
Mg 7.261767710312388 8.484301793542949 1.1302384307342008
Mg 7.023675734610129 2.7795850399431288 3.7919278470152142
Mg 4.120110538710794 3.88625104060293 10.864848505930235
Mg 5.485651527516193 6.4600887409542045 12.134367106100084
Mg 3.8504999526025885 2.82573584991521 7.865358622645132
Mg 9.695568808629707 4.0844145446148 3.012709565434361
Mg 7.2282789236327085 4.177964460053017 11.429545798648201
Mg 8.69839119120097 3.091150718311082 8.956811156374638
Mg 6.390035965792635 11.281263199972043 7.005500688246739
Mg 4.494498678202659 9.57404776332839 1.9857847624795444
Mg 3.197708929395423 7.207497604036727 3.6147055310195753
Mg 6.212203062975779 7.8583561745050075 4.109771909319709
Mg 10.784426210521808 8.32640250248948 6.467955491716045
Mg 9.599638599196142 9.275585405220129 2.925319024696209
Mg 2.8809644996640267 4.723648882215417 5.586144291178735
Mg 3.933138995190848 7.375259228107095 6.547960424138631
Mg 9.88480321504979 5.229210206897449 10.729880137935934
Mg 6.254803337702492 10.090772845748003 9.824432826776947
Mg 5.986690292751725 5.128144884630887 8.608759557125387
Mg 3.831009218818922 10.155823930984461 7.947177204082305
Mg 9.109048570823433 3.602118461530305 5.886948764497444
Mg 9.79105580939191 6.707177350392485 1.5574737949671336
Mg 8.936609278424621 5.995702131914182 7.734335468513323
Mg 6.161295441802557 5.188763948972254 5.575730498221233
Mg 8.449764891998774 9.855218888782227 5.4980909676347025
Mg 8.924325729490144 6.643423198594338 4.7297764045856585
Mg 6.853230219821013 10.872381681709745 3.2104563130502726
Mg 4.740521158804851 6.8146555103006765 1.035110556871418
Mg 6.049808157128752 1.9083542766045325 9.811576163621583
Mg 4.513056009335237 7.713407394649645 9.56583303851103
Mg 2.5345227316677668 6.338532996026166 11.493891625447977
Mg 2.64302763251051 5.430248362147031 8.61547124054505
Mg 4.335084988608848 2.1903348996219534 4.949530639672382
Mg 4.411204822849635 4.433315306611432 2.9524054920651626
Mg 7.123560121933743 5.498588286052506 2.2814383405470102
Mg 8.89979468008657 9.837557039947392 8.449453665882785
Mg 4.3810764229296915 10.12938819473407 4.9788690014860615
