49
Energy = -47.73095586 eV
Mg 6.862554570359969 10.332755314268143 11.976156300907759
Mg 7.552912326306453 7.422142244493813 11.889476327554213
Mg 10.592247583167685 6.953517693244522 11.898622865104103
Mg 4.708901555298877 8.374722688451012 11.0317019607128
Mg 13.344944557950006 6.629060301237076 10.8068816555888
Mg 9.469367767194862 9.528373197406506 10.68148562761619
Mg 11.890223723092229 8.629297546558181 9.117015026159768
Mg 7.548620008496791 11.649278379381995 9.399908728739428
Mg 8.462052924329008 4.526285499837002 11.421290053202881
Mg 5.887637765859523 5.67194516474008 10.133929732549
Mg 2.812616788568888 6.340070588791605 9.874931185866927
Mg 2.4794103999159205 9.485740331722036 9.079797050907347
Mg 4.500929973490416 11.364697018512224 10.566937700919375
Mg 11.44049990694152 4.322548113215565 10.583993901447085
Mg 4.412232764010865 7.524370836923533 7.6470792286268585
Mg 9.333614253903956 6.415073428313038 9.156795052308055
Mg 4.22162037146117 3.9774347296983854 8.347977124293068
Mg 7.321746839675577 3.220458747192324 8.546685578638492
Mg 12.385321133979085 5.929666064720284 7.9733388042479465
Mg 1.2299757557205904 4.606911789522275 8.061384737956145
Mg 9.590216363147407 9.928493852824998 7.635020847626218
Mg 5.139084235384512 10.63880814529051 7.7962870094842875
Mg 7.060373137585115 8.476429653520627 8.851621555783872
Mg 9.497255335912811 1.9802394212971577 10.21296263545623
Mg 10.349729761907907 3.7275974627712007 7.835079038156949
Mg 11.865963250897925 8.242234673767843 5.980181060065071
Mg 9.051192067304422 7.1461370080077495 6.264713680589197
Mg 7.655311323789761 11.797293204964769 6.362260340956726
Mg 3.011091767915999 4.763772915496375 5.738522050491536
Mg 4.865349259721603 12.109219323321424 5.162085226587175
Mg 3.0047991754435763 9.826382395141321 5.847543905011857
Mg 9.426555673041525 9.823627437838608 4.599257628812041
Mg 6.534571737232864 8.88692915694156 5.655160806950905
Mg 1.507615847395083 7.361193434299666 6.963191122291965
Mg 6.5651154655415365 5.738548400781108 7.083323885446561
Mg 5.559153947652635 3.1571583129298446 5.628122084260966
Mg 11.305305762239064 5.190646123154053 5.253678336407669
Mg 8.511524221750472 3.7278294195008126 5.554571637056191
Mg 7.172511431075436 11.50022379783597 3.43141974548
Mg 7.0393848534771175 6.132251623892549 4.159868908470789
Mg 4.516710315330643 4.527852228086518 2.9801018346042705
Mg 4.724258660250759 9.796969015321887 3.1609706210819684
Mg 4.045675548770728 7.227642940520121 4.541077603903604
Mg 7.577563482715809 8.675120431176394 2.430461152737916
Mg 7.043326207671984 3.048666822828413 2.9430084269845773
Mg 10.085148187882938 7.211194787270803 3.26586280772228
Mg 5.075590752764381 7.146048045928086 1.6180329955123927
Mg 9.732134080553852 4.296109878872956 2.8172190025271937
Mg 7.6143090666068565 5.675138531520659 1.221339722973355
