52
Energy = -52.20784688 eV
Mg 8.35541847685864 3.8980238641192635 10.535119145865796
Mg 5.915793797551074 2.2189938714090784 10.211874271268663
Mg 4.804439469659861 2.103713810641492 7.427779666337273
Mg 7.981156278883495 1.8951970548021877 8.05444649721127
Mg 5.803804683050731 5.011200559735144 11.514755900611329
Mg 6.844689948480769 1.095676614601936 5.349737159337862
Mg 3.593419991035038 4.031213189105478 9.5997115289523
Mg 3.1860606369107707 4.723083770798644 6.760294887236651
Mg 2.960794946344706 6.050851969749175 11.69379487599617
Mg 8.352760905912362 6.676632572205059 12.136055363822981
Mg 10.781182117056238 5.585135152533236 10.69749055905907
Mg 9.833658868784505 4.360972054426264 7.966484200796179
Mg 1.7815830379737416 6.510978180943561 8.790122484844407
Mg 5.22904136657231 3.6284317073362655 4.777864938448394
Mg 6.526529412675536 4.654399695749328 7.661780451146828
Mg 8.090844946291758 6.846046075838608 9.094151912469304
Mg 8.534635960480134 3.583570825566016 5.39064861993432
Mg 5.441229458269169 7.9483381120171135 11.892974729375085
Mg 2.847122158685397 5.107703676193287 3.7239593211701987
Mg 7.224548822010455 2.6089113101393964 2.674960182913863
Mg 4.8934193940299755 6.928582342256384 8.981409717329022
Mg 5.274700961312156 6.763990384069497 5.8028820736605145
Mg 2.450542116024794 8.731288475993654 10.72273315603805
Mg 10.660003204415425 8.531212336545302 10.666141840878225
Mg 11.313520586641161 6.847335540595694 8.006684047906816
Mg 11.061358347196249 5.399496321243084 5.20573522089679
Mg 9.766331023831627 4.365895254740976 2.609804314529356
Mg 7.8170661982362155 9.412316124245462 10.687088231000294
Mg 2.9833037579391637 9.203111746149487 7.7638298673069555
Mg 4.941855437641665 10.177788936103074 9.961838731150399
Mg 7.166112754061409 5.641144254943568 3.717824518388453
Mg 5.05722275519067 4.699676369499378 1.7148003346862546
Mg 2.2106460284483065 7.397772038269094 5.517428740606221
Mg 12.645075870162367 9.521151846649229 8.531799542790774
Mg 8.49042755023312 6.914312450491367 6.0949891611594404
Mg 6.441170410232593 9.072183240152995 7.3579256220806695
Mg 4.32507547686517 7.526840848202355 2.8308496018542915
Mg 7.755136253649227 4.407450271028857 0.3888443986005126
Mg 9.443834215408248 9.326145467689269 7.6801049630386595
Mg 11.729708022866836 8.359620570725234 5.484135706503169
Mg 10.463125270924634 11.41389285962617 9.486329681983781
Mg 7.354592880465481 11.716117811249594 8.887473574449173
Mg 4.190614576133993 9.723169653379117 5.024599479806631
Mg 6.914592813550361 8.710083849729898 3.915412048389458
Mg 4.527163079164716 11.731909615889569 7.360663369248477
Mg 9.66571063389439 7.381425247531621 3.1798026263594203
Mg 7.02013934004389 7.164548093645052 1.2248581981739595
Mg 11.971909854309045 11.256438492810803 6.372353603788174
Mg 9.50116380665328 10.10823551375613 4.662657650224348
Mg 6.800782221995519 11.37823479642636 5.259737182941323
Mg 9.290082680991432 12.42171909132794 6.743859347142382
Mg 6.564412332486251 13.880800366348932 6.951631745548578
