50
Energy = -49.21485758 eV
Mg 2.1036367335339254 9.320401028678642 3.72933344812953
Mg 6.731436757142426 8.595349235254131 7.378707267403623
Mg 10.730518944444306 7.244206061324617 8.912500569274574
Mg 4.281874264759266 9.918003516200008 9.127225086507357
Mg 6.031477988712426 9.970099039020727 11.59891729684176
Mg 10.97043213370152 10.952001271785365 5.177918278496076
Mg 1.4224635617989978 7.076508840136107 5.868180387154419
Mg 3.511610795494729 6.60038760254268 3.6492315646157336
Mg 4.096644169027086 3.8967094290093214 2.531463365201195
Mg 7.295861353895781 8.873817450601695 2.4602178381743363
Mg 4.758390471083869 3.5399143868897083 8.804711033796798
Mg 7.869052577467585 2.884446839728489 9.52887875831776
Mg 2.113970958543334 7.691223082456279 8.922184201865479
Mg 11.865828638511207 8.295582526594751 6.2027335458541515
Mg 7.1154150234392075 5.369972996997345 7.764465542302281
Mg 5.589497081856599 7.058647067208906 9.670902130999336
Mg 7.9150966419088755 10.303499207482686 5.108079373999591
Mg 4.3777407222861875 8.985271114177586 1.7669536168237268
Mg 10.139680026399919 3.3202401326052295 2.8332297206761767
Mg 6.684201054177697 7.213147474661015 12.48283129346005
Mg 8.860512311060917 6.066743845178608 2.40919937854017
Mg 5.116514795454194 8.946306745231537 4.794450137933879
Mg 8.371120627989438 8.625539133168767 10.235174675758918
Mg 10.093670699639508 8.509548985782265 3.653140067920162
Mg 9.482015646880376 1.4991281468708648 7.422289314275971
Mg 4.28857860949572 11.497497505410031 3.5885346571771533
Mg 8.749612439465597 5.628167031859042 10.521074229311662
Mg 8.419228168887685 4.1431064280909125 5.402790499028723
Mg 10.21947870966567 4.4428288190228775 7.850235031249985
Mg 3.1468379299092675 5.34050835202167 10.557647054325749
Mg 5.33691225234672 11.429593390274992 6.5340142630378235
Mg 5.814279908779767 6.2942360708314755 1.5518503781527906
Mg 7.07680963443078 3.6316216366983602 2.687010233700433
Mg 2.7102950467334375 9.7443996123302 6.606894215186367
Mg 5.073844939908877 4.247000419892468 5.5594384351287776
Mg 11.265757034410672 2.5929351209398237 5.430282884115012
Mg 4.2999382460347 6.781921272734837 6.886693852499332
Mg 7.120581129046744 11.216369865724312 9.019502589393497
Mg 3.2902044398787913 2.0375959272095368 6.567306200510527
Mg 3.6628348690094703 8.142059850701147 11.703421410002868
Mg 9.122391244174993 7.121058408803407 6.258384181663411
Mg 9.648807277439776 9.911314242438703 7.715018409061287
Mg 6.06353145647611 4.467876512851464 11.366455028694647
Mg 6.556787420457846 1.9657549783621693 6.945832989641562
Mg 2.0949016678968615 4.668197976347772 7.756315715945791
Mg 8.50810122427017 1.2801104141534432 4.491046019078051
Mg 6.698547147155105 6.505584090691958 4.582456147101971
Mg 11.144736562617599 5.577704294418704 4.642061345067894
Mg 2.0228014483656676 4.209128050052964 4.8026849879172735
Mg 5.341838617542737 1.573035972161375 4.146432752295863
