8
Energy = -3.084801 eV
Mg 4.493393023548295 9.7048077238271 7.712581315492022
Mg 5.935373466497599 7.581881168365681 6.259853889362915
Mg 7.513887986733062 10.07827573274159 7.152378097017138
Mg 6.649064975453697 8.028343386006839 9.25050589450163
Mg 8.976026020340415 7.346633050532155 7.348877057275374
Mg 9.657602168683185 9.312936509151974 9.533739248082268
Mg 11.543165724245933 6.983350748562009 8.81820976567224
Mg 12.28957743260566 8.77910927185577 11.103642962628236
