8
Energy = -3.07975039 eV
Mg 9.689538493774885 7.41556790540842 8.527265845730419
Mg 7.798558456099609 5.118684682433263 8.774561875580815
Mg 8.511988598594609 9.955177433979458 7.557588806072632
Mg 4.753771749316074 5.618048501745295 8.989986793632939
Mg 6.04848201224633 4.761196580741643 6.325353747852876
Mg 6.92498069733872 9.571469576780508 5.093519381302266
Mg 6.458508327185612 7.676250411065747 7.463418294130678
Mg 6.710467849451176 6.754983939750523 4.203195215111057
