9
Energy = -3.97800067 eV
Mg 11.899483916375212 11.86057671792902 6.577662755199624
Mg 9.989768516697147 9.476479290311913 6.428946003454708
Mg 7.990470491081077 7.171697983111309 7.076350318697673
Mg 7.555598903714411 7.922290115690488 10.976630894561676
Mg 10.123009553597624 8.140367331688248 9.208293806287147
Mg 10.561006172017773 11.126354232692458 9.179992043433522
Mg 7.848346434362143 9.934791554910976 8.612312315758407
Mg 5.519264534783923 7.1046192317770505 8.913524855075638
Mg 7.813176602001807 5.300626029231136 9.514176745288857
