13
Energy = -93.13677382 eV
Mn 2.9257204643541503 8.585919776362463 5.0142307536779
Mn 5.7674474459724046 8.738971598634818 5.203328574734819
Mn 4.272570078621343 7.558364933782189 6.404859523220583
Mn 6.191619412633741 7.532659080496196 7.861137516141478
Mn 6.531562673458162 6.4365486995760115 5.842388603768348
Mn 4.427947071865041 6.4445834734196525 4.413229824409275
Mn 4.660085023670466 5.158527602708476 6.951033795723196
Mn 6.061493620369817 4.354896267766764 4.873810788512731
Mn 7.35948672036414 5.085268902455619 7.325394093184427
Mn 3.3981810123918126 4.297435746402802 5.016926417384816
Mn 8.23102707281257 7.920644153560481 6.003939970403722
Mn 7.17793778733746 6.825421437886367 3.7413862760432055
Mn 2.258413676715269 6.270182135780467 6.1401985151311385
