11
Energy = -77.13944041 eV
Mn 7.648908198333254 6.6404598297339446 7.601594004904189
Mn 8.036570207838073 10.42126544567285 8.73697224861194
Mn 7.695120211753829 8.335612031152516 6.109355798451429
Mn 9.608524671361677 9.87650545983575 6.886760720646037
Mn 9.56419855148453 7.392190054756442 6.780875896152891
Mn 7.0077927585789235 6.725423850761181 9.5423066161839
Mn 8.02154911126682 8.407680096406697 10.33288195305296
Mn 9.910999987869802 9.052458481346612 9.411372575632202
Mn 6.458685204635351 8.185729491680776 8.191429126490776
Mn 8.38095842771894 8.443141202537173 8.191429126490775
Mn 8.888984055906505 6.913365895873001 9.02308454663534
