13
Energy = -93.83546556 eV
Mn 4.672977968748252 2.6915397990732393 7.456144224719276
Mn 4.328613482788824 6.7794891286500905 4.931973095444977
Mn 5.106217545556809 3.5180436092486445 4.982768605219846
Mn 5.817924127965618 4.793425159412875 8.15183728414096
Mn 7.780914724241109 6.077420980704464 7.205654268808201
Mn 6.932939137394551 7.749289301379641 5.369354642414484
Mn 5.294083321595643 7.072326134777704 7.292659326069619
Mn 6.342659216970162 6.032761915564139 3.36734429540058
Mn 7.137541943713172 3.53675408598089 6.569553819058769
Mn 3.7339717298081294 5.026858165855685 8.979753749103748
Mn 8.441156438637679 5.097901365527597 4.883949158060816
Mn 6.218757094390644 5.521956128427315 5.544872739255774
Mn 3.9548522543243614 4.993232967013833 6.53111253096074
