17
Energy = -121.92214115 eV
Mn 8.220901515394779 4.184690885594911 4.561065796744825
Mn 7.379638836436433 2.864479245274574 6.626201330853065
Mn 7.950123921622026 5.337477127458378 7.038472627714608
Mn 5.597340489324005 2.8974594640768063 4.516075128984577
Mn 6.959407722438001 7.162193392092725 5.356103254353188
Mn 6.503657604394286 4.116931637193209 8.95317850660809
Mn 6.182958540198839 4.947621377588512 5.317122241781823
Mn 6.602345749247059 7.4113127995783294 8.024222489388661
Mn 5.09288051717406 3.2073516997026665 7.041305642000286
Mn 5.463897665847701 5.547210200766888 7.377840471803446
Mn 5.008205951281165 6.072816081992632 3.7889637429057137
Mn 3.7207287482359495 4.728487115919958 5.639325871851461
Mn 3.4112425920382807 1.9455983484045782 6.020527952175224
Mn 4.525207079706667 7.184142927605775 6.137458323462191
Mn 2.7442583341052957 7.071990913245694 4.336507793861628
Mn 3.657477853879327 7.444008764951682 1.9987239372045733
Mn 4.880105281791534 8.562128879740735 4.0128412995779374
