22
Energy = -164.88619389 eV
Mn 2.8778025249050447 3.937933942047501 7.2970270507661334
Mn 6.889290911948464 4.662013961689143 6.595498817610607
Mn 7.296247945893751 3.0595370977875556 8.23833851756621
Mn 6.831760544471747 2.5895477326706 5.503026027231701
Mn 8.189013422561372 5.119181461158759 4.576568403174763
Mn 8.146221705527667 6.881838994099365 6.355780518938322
Mn 3.4891378970550377 6.320034437638011 8.079030797194747
Mn 4.110399076773556 3.1350714813020617 5.037791861947969
Mn 7.674317901979 5.807428571203387 8.602825037586332
Mn 5.2263258957766165 4.744634866021677 8.747815055740043
Mn 5.077158630018163 2.767436309780721 7.257169953397835
Mn 5.927000529357067 4.2882545972661195 3.8521130324965855
Mn 6.4130183450086164 6.4351098827554045 2.7403475325529287
Mn 7.855172416205029 8.141961673520036 4.205274785146745
Mn 3.9987413585934894 7.598857352053507 6.047821863216479
Mn 4.817771176198295 8.583716618856624 8.396755120590177
Mn 5.8939063486952135 6.719515958839131 7.563905868659231
Mn 4.0188342261596155 5.9624031356820755 3.8771801675974795
Mn 4.585900558125681 5.138072675753527 6.11162929432788
Mn 6.251070152626619 6.576598908166701 5.007091982552547
Mn 5.175729837855503 8.405933277479141 3.8451714866506657
Mn 6.2391606094766265 8.751173255536424 6.128942138652311
