27
Energy = -180.34635627 eV
Mn 5.017332599430585 5.012405529099575 5.003760510628663
Mn 8.131079894504891 4.389829287462015 1.9703643009652427
Mn 6.5127649219832735 3.51687641050427 3.634857578809739
Mn 10.077312269083878 3.0028690907998916 1.2141144771502235
Mn 4.638380308160246 6.529981505493548 6.962034619806887
Mn 6.900848904009978 1.1066345415644114 4.486138956996387
Mn 8.524907332525112 6.969201375558654 2.029191661869675
Mn 7.075554266772857 8.465440287808129 3.3133698928995226
Mn 9.984291023399026 5.459552567977636 0.7181805387465806
Mn 8.676355024013754 2.1926026336435296 3.12004351944071
Mn 5.305625047828611 7.556384490133354 4.796460807237582
Mn 5.136771177551289 2.5009540348599835 5.553189003410758
Mn 9.021535873958626 11.506156131092066 3.861511454680115
Mn 12.322299343911574 4.093372050280649 0.2971376648157312
Mn 10.580238928592145 7.963497151148461 0.8087728391276633
Mn 9.048565129292902 9.479038678173442 2.0870794403638366
Mn 7.800266715132769 10.81667748894025 3.6113188504032476
Mn 6.141209793600014 10.023732676798316 5.084904748280828
Mn 5.878023667210344 0.21401222279037213 6.704997592179144
Mn 4.491387461525548 1.6860571923998942 8.053938564546904
Mn 3.600288679611211 3.3169719253549514 9.489340317939734
Mn 3.6789800918534974 8.023725498538997 8.722396956720447
Mn 4.766764807238102 9.059844087578195 6.876860617243533
Mn 3.4551007074984854 5.688762692476452 9.222823713499093
Mn 12.211989845308509 6.441565316352496 0.10899206680042821
Mn 7.660495455923506 10.81667748894025 5.664578023278179
Mn 10.626936785394884 0.6545235695773794 2.2614966644249885
