24
Energy = -179.53831874 eV
Mn 8.147236711546068 5.635153662121494 7.7869534289145355
Mn 6.019124895456275 3.5205752108140813 8.3907360954538
Mn 5.894994319610293 6.132372150273873 9.01420557033619
Mn 7.135218914953439 8.189269723149263 7.948522413368581
Mn 6.316958794256591 5.031822311667161 6.538990446137827
Mn 6.415930010180808 3.0887594913008742 4.885568345881237
Mn 3.9200207863626386 5.221205488210851 7.582939063001957
Mn 8.623424716720717 4.880374818544763 5.240350651189743
Mn 3.2847720215054785 2.74431057572129 8.379793484007772
Mn 4.619054928584798 3.202399848995973 6.559422585783633
Mn 5.226000661469424 7.1301326450109 6.91399920181724
Mn 7.578647128670724 7.159992091496031 5.798121752874348
Mn 2.386988129862196 3.983218448140909 6.027847117052977
Mn 5.667120692700048 9.179279049358517 5.8036076865106825
Mn 3.9240071804990366 2.658911677770611 4.36242715470095
Mn 5.477300714128303 7.210991204546653 4.508001525525715
Mn 7.832924335256058 4.1616864056775915 2.6269149532757186
Mn 6.65981660024561 5.377967117693837 4.1327781242760055
Mn 4.358714842295927 4.947769607630028 4.887100150589689
Mn 3.1684525248248177 6.945973019427946 5.531180695543607
Mn 5.037343997442482 4.094312890695529 2.567871016644388
Mn 2.56524054396345 4.633308446969948 3.4537046794510364
Mn 6.356749310351472 6.391750192866806 2.089538506492545
Mn 3.9978007066222907 6.5680572092448495 2.871604600838267
