20
Energy = -141.90104102 eV
Mn 0.898809021030362 4.591407959530627 3.878609662503918
Mn 6.089436602205472 5.145882091114833 4.451506049747347
Mn 3.208078116952721 5.106726032845819 4.445779020108503
Mn 9.390103038215562 8.610860335894452 6.011357656594639
Mn 9.38664240988908 6.40448658006716 4.716241829871596
Mn 7.365856074880602 7.868877819673634 4.303796428090419
Mn 4.866277079133228 7.257573917164414 3.791339053706985
Mn 5.94032504494478 6.956734719716316 5.860892733332436
Mn 7.999331998051106 6.369372132501096 6.597107701696247
Mn 2.0490941951188093 3.5209957974679598 5.907587161867341
Mn 3.4678750822644915 2.8345549928172136 3.9613176758547106
Mn 3.3185243663313644 4.417527846916001 7.871110688538324
Mn 1.5091808917264575 5.7538133743465245 6.444474531336791
Mn 2.382988529761809 7.236955694932467 4.40983033171467
Mn 6.854506166559871 8.844691692336472 6.801643663033739
Mn 10.548532198057 6.617980307915263 7.129657591791239
Mn 3.678466423943974 5.595068376684624 2.303786553567922
Mn 4.667676674066215 3.851625640252178 5.86434286831643
Mn 3.9105770562279023 6.226805600970533 6.292389190437753
Mn 3.6113460063970995 1.8199717317781485 6.646705599473864
