4
Energy = -24.0498626 eV
Mn 5.459368262007126 6.674505268968159 5.1432445732452186
Mn 4.780847282663808 5.5905222242000105 4.179038660787289
Mn 5.844315240668505 3.545802915894571 4.615553180025883
Mn 3.8237490511972836 4.0224213378289475 5.912847547249899
