4
Energy = -24.94237999 eV
Mn 3.7239770589064567 3.5264945498361993 6.640278066735345
Mn 5.919131699587744 4.524259199530175 6.988876767142025
Mn 6.471397430174585 6.473505450163874 5.533938961411455
Mn 4.21050777048374 5.451282959237106 5.225469043306527
