5
Energy = -29.90517903 eV
Mn 5.273792434842516 5.33173608739613 6.192316249032914
Mn 4.058022901197547 1.3341560506042385 12.328075870548318
Mn 4.743494756763926 3.1973276246335054 10.760297441496801
Mn 5.757002412793192 7.207047677506258 8.056157563147611
Mn 5.180419101757061 4.771198492658936 8.675657795060975
