6
Energy = -37.2393306 eV
Mn 4.347180861952184 3.773342631403671 2.3859270062651903
Mn 3.3816004557490573 4.624156357962944 7.444719408237965
Mn 5.315550459312296 5.83569337177561 7.081893853840731
Mn 6.529311899089246 6.0847243021423605 5.129936277409559
Mn 4.355865914711405 4.548848032721775 4.9598658547831125
Mn 6.1045578868281485 5.165960661297147 3.02556567176171
