9
Energy = -61.62079403 eV
Mn 3.3484527707707294 5.55155674896136 2.8399960863782288
Mn 5.393268856500954 4.612633759725249 4.2078511007842545
Mn 7.24310016044309 3.9983376300977462 5.6082544868197814
Mn 3.235859206840135 5.282901798614031 5.432174928645002
Mn 7.516589881362824 5.728901667871971 7.480813144496629
Mn 5.469834876695197 6.026713927679519 6.323498476530719
Mn 7.3782034277881525 6.376185031976441 4.893603667694477
Mn 4.860759446076218 6.949296107359813 4.1739213690829295
Mn 3.6053220011769422 7.706725730275966 5.888131013792727
