15
Energy = -128.62017359 eV
Mo 7.565766664742265 5.803257918148752 3.57170343403596
Mo 5.534147513513066 5.2211391425376545 1.835407475392327
Mo 7.753103254931531 3.903015787119873 2.466380621613771
Mo 4.910931051586618 6.044930634565603 4.057806064901318
Mo 4.95791241549823 3.1536071856125156 2.6345086246955667
Mo 7.12478501258724 3.1563293576425058 4.383503410460487
Mo 3.2804534437890323 4.24246329436023 3.6065743975126034
Mo 2.7697350953500894 6.61626684508655 5.564823089283813
Mo 2.797903438943041 4.311147962760552 6.929624604420431
Mo 4.7290237486551545 3.5610695128147842 5.41811965933783
Mo 6.414245330669142 5.3097055582377 5.836729100734889
Mo 4.729910784158702 7.6747610514311715 6.091637561365275
Mo 4.771850840598003 4.2895172079193005 8.005833757512153
Mo 3.182434955748896 6.473510099598634 7.866391252626936
Mo 5.710924169043072 6.472406161977672 7.964084665920423
