10
Energy = -84.91662404 eV
Mo 6.561872478652254 8.806442952207831 6.049695891049971
Mo 6.01143333404155 6.900439312342105 8.06028039857195
Mo 6.025739653918453 8.575688083194784 8.912158100663733
Mo 9.888648877869475 6.84697831751762 10.36697352481695
Mo 8.55580818839816 7.7550970080234665 7.9181666033275055
Mo 11.26978139411467 8.549525937589365 8.332808203812577
Mo 7.568250206496832 10.122725352213108 6.78670136971224
Mo 10.594815457489311 9.583648157015796 7.069336281780933
Mo 8.109527352949378 6.806206714006978 10.47076988498508
Mo 8.562209539732796 9.345975775289734 9.290727467989578
