13
Energy = -111.27930867 eV
Mo 5.374031428652313 4.403299090990869 3.6154261569204977
Mo 3.9001220197025805 6.136462983252982 6.206604090585522
Mo 5.163839751788911 4.8732107305349475 8.531967529103062
Mo 7.021214956600483 3.9468167434247694 4.126480014062761
Mo 6.324826532907121 5.815697169718685 5.958854514248094
Mo 7.962481865443577 4.5901095974495805 7.435575785504061
Mo 5.231539473288951 7.476468111191464 3.7604704908687414
Mo 4.590046591863643 8.003889949482438 6.572356801865791
Mo 4.476923696565147 6.489109291308674 9.038470375838045
Mo 6.943123530585195 7.009628285944806 3.4601523625346604
Mo 7.123411362524504 8.109379591922378 6.2279873559917345
Mo 7.105231343843638 7.112765260316351 8.23873199589376
Mo 9.009853877163623 6.259809616690652 7.053568940111277
