11
Energy = -92.55247648 eV
Mo 8.916602324242577 8.001585401291894 6.563292539755979
Mo 8.76194458073336 6.346080214377098 5.230572649737803
Mo 7.897347721292041 5.352033397249662 7.26929140188348
Mo 6.821741745055339 7.479672444229104 8.232794636974688
Mo 6.359847767649489 6.5946130037075275 4.077391697521633
Mo 6.855012365162299 8.42794923581041 5.650063421112248
Mo 5.485072153745645 5.09658018954277 8.574178470075221
Mo 6.364381286359896 4.656521637862693 5.8390143658813125
Mo 4.92556869977306 7.621239366253074 7.498859757647076
Mo 4.5750221561946125 6.741018217032487 5.162749330308022
Mo 4.205674046397482 4.848431700236345 7.1062982720806005
