15
Energy = -128.71726807 eV
Mo 7.54069512538236 9.238791548810186 5.325804111689132
Mo 10.108894891111168 8.519930315721714 6.308462795165852
Mo 8.396539946492648 6.834327191028079 6.0541221332507495
Mo 6.313972489975846 7.865905003684177 6.925628073475525
Mo 6.426832213261303 10.367376651614231 7.715699493069009
Mo 9.058829556967272 10.654489431424917 6.2565505353625115
Mo 6.420111306311608 5.265388743027726 7.056375428684341
Mo 9.221896952633774 5.191317983927048 7.708192290409873
Mo 9.182526442062892 10.115713774352608 8.468948478186652
Mo 5.02199346804321 9.355555202494202 8.739482890271473
Mo 9.654614522665502 7.5064599500827835 8.453915983624304
Mo 7.5129593329922475 8.508023474964071 9.219786024254175
Mo 5.888484029564268 6.514658420303642 9.06925733755634
Mo 7.5267475397798345 4.256094738799198 8.867807531959086
Mo 8.051000628913316 6.132066015922438 10.156065339198387
