12
Energy = -101.0532059 eV
Mo 5.950603784382702 9.464396340394158 8.31273643958148
Mo 10.536480612239345 6.819381657820666 8.582420626100042
Mo 7.569746452627723 10.151991876037568 7.052807608034463
Mo 8.52725587038139 5.954024829853254 10.152276809287418
Mo 9.535639711669104 7.776505139080075 6.923054159974628
Mo 6.733814475582374 6.586525863473402 9.10761958399542
Mo 4.958797541210236 7.3902308268616785 7.290673292139731
Mo 8.308406143673903 8.459211146371922 8.937013088721978
Mo 7.773014177577357 8.590575238932965 5.088074106712007
Mo 8.964555171951263 5.182345055716958 7.997402448558953
Mo 7.320118325004402 6.657579250754647 6.689925626295707
Mo 5.639947230544502 8.785612271546775 5.684375707442481
