15
Energy = -130.35490068 eV
Mo 5.521846377178801 9.274821128174208 6.3220333050698105
Mo 5.764490662954617 6.900688029616815 8.609329319447259
Mo 3.7935214738822083 4.800689165230911 4.719425599957485
Mo 4.6798210750136855 4.401697291210539 7.612304402133822
Mo 5.95580571926736 7.987978573518098 3.7032881313195323
Mo 9.324434380846833 6.38904591260939 6.6932862933726405
Mo 7.150736923584347 8.474203045851198 6.550673810011008
Mo 7.414912737459618 5.992424946448686 5.081161608841875
Mo 6.332969388460936 4.079091127837658 8.55674773456405
Mo 5.254352416770759 6.532892568758137 6.063392812879743
Mo 5.236577669991153 5.004238048365126 3.484117277979244
Mo 6.437853607565708 3.9965969158619776 5.715582522879715
Mo 7.640964968806171 6.553908162524443 8.8185951720408
Mo 4.12636020232634 7.812305541563944 4.079008443421545
Mo 8.694679045245225 4.582682747668267 7.080262345900859
