12
Energy = -102.37501506 eV
Mo 7.509207750915718 9.427838743622356 5.222422421314092
Mo 5.873442806242834 9.443862709821733 6.019793480113003
Mo 7.0881403261420886 7.228600803357446 7.273546195056046
Mo 8.297740654117886 6.782812849337172 5.104747081284098
Mo 6.322943785235141 6.8994608040697125 4.554941510376369
Mo 5.017554167065452 6.833800721289256 6.87726306647284
Mo 5.70073806080915 5.066227272760613 8.777157298130932
Mo 6.845157959315058 4.5315657652382715 6.065811071936403
Mo 4.252711900444494 4.311905390565535 8.009192960490758
Mo 4.100757262300995 4.7909542865068016 4.998528036526948
Mo 7.023449842986807 4.165172835022782 4.246309376541175
Mo 4.500274495650314 3.0630912762005376 5.273811797113453
