16
Energy = -139.13048833 eV
Mo 8.921123376247628 6.284708157241489 6.51317474549352
Mo 5.352806705900691 9.38255861431814 5.288064941372479
Mo 5.676204391651621 3.3148509273046654 5.289951813418074
Mo 4.604397076904199 4.745237327157779 5.220564509722251
Mo 8.019110511701982 10.359794417316236 7.130231589711605
Mo 5.956655485479426 8.83215390804845 7.62646412054582
Mo 7.545098330027802 3.83156437595005 7.357808096042314
Mo 7.699497578620029 5.37101653822494 4.8493680074528935
Mo 6.232892181683174 6.436247764344628 6.932152064319426
Mo 6.684939865014101 7.053648659910718 9.617902547332907
Mo 7.837503700042664 8.155430041417132 5.626448523909086
Mo 4.188933399971678 7.738378621799232 5.955429122618872
Mo 8.564749961638901 8.867102621619885 8.235596189552309
Mo 5.9229203543533115 4.072909228039327 8.263764709581892
Mo 8.027662805440343 5.874007715881042 9.300255402698575
Mo 6.138180865272999 7.093381494638012 4.278747245771538
