21
Energy = -186.88975821 eV
Mo 3.2672969846609643 4.2153331281649375 7.745855938919563
Mo 6.175240058686118 4.885055726714472 7.862183219567033
Mo 4.018701550873234 4.111234519523233 6.125868618865715
Mo 8.066262404846308 6.276344689231958 8.456218729912528
Mo 4.838088619147718 7.457400214720013 4.492271085576447
Mo 9.791231647941602 6.000772200674426 6.75109155319108
Mo 4.457363194085453 6.812735010853412 6.912354792826026
Mo 6.279233948520822 10.25709953624116 6.971630017044248
Mo 8.394416155943254 3.768567854426121 7.238028458861332
Mo 8.52168112132977 8.64820171999142 6.7493709252108625
Mo 5.987513269480787 6.142467367390276 10.422771219020174
Mo 8.933397426669336 5.087597390131357 4.899982424668217
Mo 6.933763198396215 3.807148088913486 5.549339549684944
Mo 6.103686118656414 7.954412209801963 8.155022315556463
Mo 6.790877276038181 8.844926303064204 4.610998297274506
Mo 9.37286692557412 7.932650717426555 5.02432805856296
Mo 4.326797341830817 6.25394597628726 9.696956967053358
Mo 4.595598589422371 9.509917207654995 6.314236683008661
Mo 7.357192584578204 6.784942191110139 3.34455122069094
Mo 6.9961034578318735 6.5510906047022575 5.96509020356209
Mo 5.569509551314797 5.431441388341404 3.775959541157905
