26
Energy = -232.77166453 eV
Mo 11.135568142250662 9.513948893096446 8.83138915995454
Mo 10.905665329798605 6.864905972873474 8.524828635823548
Mo 9.706719390912381 7.596677917448386 10.642945020876317
Mo 9.531297294174164 10.469638701263014 9.699925168028539
Mo 9.726665036812363 9.62399994600201 6.801096200178661
Mo 9.21666927310296 5.229549174828832 8.897089521024686
Mo 9.595492215072358 6.76798233648444 6.5912285372158586
Mo 8.42983666503998 8.34344191491301 8.662413319098391
Mo 7.466257347253951 9.12911112462128 11.2105831829153
Mo 7.729458010476768 10.743039129964364 7.536369601651458
Mo 7.8187446591160175 6.2141772518032665 10.57868488492034
Mo 9.4773182446185 3.9827697482019393 6.256949092057714
Mo 7.237576832159844 3.4802997341309645 8.301369350844185
Mo 7.436410006493863 5.712763049342597 5.270605493129345
Mo 7.668635636569663 8.377451272519266 5.815736906795592
Mo 5.769369512832787 4.1181701215986655 7.251018103537711
Mo 6.538837184952565 10.190200836520377 9.919280581481075
Mo 7.078476822196108 6.169159429104598 7.714655126639295
Mo 6.221225386929648 10.55157295619767 5.114176288471732
Mo 5.907174191683236 7.4538562910203705 9.53633382580633
Mo 7.961981107752031 3.1486211630685705 5.586202393750747
Mo 6.061972027322165 7.814071727988987 3.903348936406198
Mo 5.236425209016392 11.224324429919436 7.077727405194539
Mo 5.169698422744815 6.860514816541204 5.540033799550852
Mo 5.786950465328854 8.854956788675812 7.463222037131622
Mo 4.340278716451829 9.42573810982346 5.173043381479539
