25
Energy = -224.66864443 eV
Mo 4.922378171545827 4.062692887076795 4.188635953873909
Mo 7.749934142078238 8.020148715735425 3.4143109715530464
Mo 6.003505043654362 5.492355579080526 3.5013693799912473
Mo 4.240885126414838 6.25415465315554 5.501082951678585
Mo 6.066962985055424 9.969752699486914 4.612063748707806
Mo 4.919526072266499 8.58026156651577 4.056265417907688
Mo 8.57595060340545 5.795702349905112 4.609896441512132
Mo 9.886961610534147 7.902759130826555 4.054062171120944
Mo 6.779368253315838 7.438322504196859 5.70670951376804
Mo 3.987904139246865 4.127199280280055 7.152981399412244
Mo 8.729498908321466 9.273122237830435 5.667929054959255
Mo 6.678296174187477 4.614067679899651 6.143822572908819
Mo 9.468152725877383 7.237765366866341 6.568629857591139
Mo 5.009121595442823 2.5389656748541745 6.64065929623311
Mo 6.489243306855551 9.443707278531624 7.482468486255481
Mo 5.714164917331533 6.3038243638108815 7.812805768866334
Mo 7.7766979538844225 8.190807830157466 8.369000182205653
Mo 9.192589835662227 4.5682278366958 6.776556264462443
Mo 4.0266349302257565 8.581569707057028 6.833931302614174
Mo 3.1078058181789565 6.938410792383082 7.660122754421937
Mo 8.258033721109632 5.45450301939138 8.566949719400606
Mo 7.477358823593322 2.8117830054266895 8.012047453269567
Mo 6.117997251399512 3.896742337852388 8.993821885651505
Mo 5.074613834635777 8.12628322250536 9.726404678925615
Mo 6.23337808002065 6.863834304722852 10.434436796952692
