27
Energy = -242.34527064 eV
Mo 7.12718240508109 3.1715006326585384 3.7583095625741354
Mo 8.95426443148287 5.142223261674812 3.8788233862731785
Mo 5.4435027255873845 2.2171902612832333 5.156983178958233
Mo 4.303607017369715 3.4643878653489195 3.8524528587840265
Mo 7.274437223376451 4.181861072963452 5.997188355405602
Mo 9.801913060379666 4.576797226675448 6.989845248288944
Mo 6.1683784959240695 5.381877663765222 3.790183313181303
Mo 5.833128358421267 3.23062346516204 8.158456427376676
Mo 7.373616125407905 7.5781128617715 3.4122146687815116
Mo 9.830411288857473 6.074071674404106 8.27976829546651
Mo 4.562147799853621 4.586260079274602 6.126386664701289
Mo 3.435347604889241 6.356103043621783 4.094593607966149
Mo 8.76420938708001 6.430898226614729 5.550684208977764
Mo 7.395343913926523 5.626933169918349 8.094574428127551
Mo 6.000247950756209 6.864268053057318 5.9631421164743745
Mo 5.462165697497517 8.28724977374872 3.5060635257176354
Mo 2.7092876747552683 8.052789679851216 4.377582690752773
Mo 5.999783651881278 4.362770376822138 9.759039601751114
Mo 7.972779038009793 8.25269639556927 7.506618615562588
Mo 4.416328545539591 5.829518370085352 8.337361458765644
Mo 3.3743980027008544 6.990498511838122 6.7984833371521285
Mo 7.331934210431735 9.282031514936197 5.423968485002689
Mo 7.282014533683967 7.524186536161985 10.154714113614828
Mo 5.409607005375857 8.212524241411646 8.2902317459304
Mo 4.766923317532203 9.187940371268926 5.9846838070581105
Mo 7.179829106728184 9.362311877952772 10.07960369116323
Mo 6.342592430510776 10.360014253344774 7.327042194585409
