20
Energy = -177.50347335 eV
Mo 6.965148683654736 5.889658496836661 3.111282686161032
Mo 6.537475117227901 8.842847372216262 3.671925867102238
Mo 6.449183553837386 4.557815600369048 4.2985972619767
Mo 4.943477808312167 9.36769430574082 4.525359684482967
Mo 5.312679404068659 6.823880943684934 5.114226642337495
Mo 8.818247127962222 7.521399753030797 5.137808604419947
Mo 2.840712099801507 6.437053661324703 5.828170578652966
Mo 3.6481398332305446 4.720001813357111 5.581198630065432
Mo 8.994959174278456 5.653092895287829 5.151575017259343
Mo 6.934396766260369 8.746505855686616 6.354185431304459
Mo 4.611882686792236 6.022513455975468 7.7555375323051825
Mo 7.740286636944371 3.69098587376741 6.923240112336328
Mo 6.970590898716382 6.3817728054816225 7.0447824793921425
Mo 9.844787142813209 6.406346472654109 7.813183958380283
Mo 5.7278539757718665 8.345568090698025 8.763059606610042
Mo 4.3985878537266965 8.647333396009113 7.351307031067914
Mo 5.992771948864852 3.6937502848373036 7.466727926884259
Mo 8.830411332166696 7.647685653929612 8.6290639625545
Mo 7.981130219960357 4.870160008531217 9.576296856239113
Mo 6.454971572285606 5.731627097257416 9.90016396714345
