22
Energy = -193.71588873 eV
Mo 4.569445831074835 5.414303621505004 6.273667177901363
Mo 3.8694031607711605 2.831161253548781 7.129774114655604
Mo 8.675912869497955 6.841583159979999 5.3217955762844005
Mo 5.5017099355545875 4.675893659260017 8.71168256563377
Mo 3.0686089725483217 4.465374477726885 8.409996811274244
Mo 6.747493956646516 6.572678260157233 7.113903959561371
Mo 2.3395842968886926 6.651693567288461 6.648354396384639
Mo 4.897569483769313 7.912993399358808 5.464040733700537
Mo 9.585542220963527 9.677166219565233 4.92442019496211
Mo 9.263809091793489 6.513812650168491 8.13441683870074
Mo 6.618534029041978 5.619326837262287 4.490941301156188
Mo 9.990301597670332 9.099301033528151 6.566994435061866
Mo 8.689823848336145 4.668199190293195 6.056153138279184
Mo 7.132542355141237 8.811036761914664 6.303547223108484
Mo 2.6531832472689065 6.823745843797168 4.700820749977721
Mo 4.144577026862949 4.72199795089787 3.6068218231803626
Mo 7.131816021150565 8.38839334377544 3.801305530615938
Mo 5.164111101282086 3.2752663646709834 4.492618625683593
Mo 8.295956272696213 5.15530377632252 8.914132119542309
Mo 5.345010171871007 7.419598292767919 3.1570120602348304
Mo 2.506958878120476 4.014799849525612 5.755975669496109
Mo 6.58653577915919 3.7282365271738906 6.869570816617968
