20
Energy = -177.37987162 eV
Mo 8.01381810786315 6.7600812930075245 4.066809054362757
Mo 5.081934875812008 6.709660051101803 3.8478361602675406
Mo 6.393217682328442 4.273222814456039 4.269293922419023
Mo 6.364356617196801 9.246236245024885 4.931623492782874
Mo 7.807291531512642 3.9894384803732277 5.426238417929259
Mo 9.170523387181618 6.703297180214856 5.685027504725239
Mo 4.053412188927856 6.002389548863459 5.223864794070687
Mo 4.784784189539079 8.785488342207332 5.770632630718985
Mo 9.281218908740186 9.320877681449243 4.570285175623619
Mo 8.912780114954375 9.827053782127066 6.254463933409201
Mo 2.883822263195631 4.4397149715605435 7.468609415319713
Mo 6.57300997674081 6.663563369347462 6.3600226304592775
Mo 5.6691203164282955 4.473576212277647 7.075186886427306
Mo 4.389101848449517 6.954395471983349 7.953181228388641
Mo 7.642080940477923 3.482641136560608 8.566588913335421
Mo 6.5762680312618444 8.937782376386757 8.048856177881477
Mo 8.556314985778801 4.985287631225805 8.082131705824162
Mo 6.04916745881001 6.10268195435875 9.021518495399807
Mo 8.132781467985525 7.886184931580787 8.268203925595103
Mo 3.6702410376323127 4.461672456710234 9.114871465876599
