29
Energy = -263.02568841 eV
Mo 10.943465087541576 6.649911918448903 8.894702086751009
Mo 9.557970338451343 6.873752709061655 10.940633799758443
Mo 10.182102054553926 5.782616881829917 6.466480624630676
Mo 9.696951996121687 4.658323848664543 9.091181172987708
Mo 8.218207361649702 5.245171238347876 4.458074010253464
Mo 10.01584211487541 9.583702684567589 9.393207446661874
Mo 8.304785844782428 4.851453328243069 11.17453986723368
Mo 9.743722807317427 6.7108441636071525 4.277228362513407
Mo 10.012251610416898 8.260615922646362 7.258292128557753
Mo 8.192604748235922 4.53745393439486 7.126141453303671
Mo 7.671039496199032 8.851498795051247 10.789898191729309
Mo 7.964269396836416 6.640256494326548 8.993496552099417
Mo 6.675858739372573 4.489772147454054 9.23649379375216
Mo 7.7263044912891345 7.119792279361133 6.243987037377974
Mo 6.65483352795753 6.7102018075196055 11.26879680439796
Mo 7.604910441288657 9.200711653024632 7.988871730195043
Mo 8.945527245965856 9.707047146354313 5.427679286697619
Mo 9.653095953956793 11.059646735536692 8.097272666419135
Mo 5.580208368807977 5.311846217747287 6.494365736589133
Mo 7.0101039782548655 11.237397470380037 9.583213022281473
Mo 7.475488049006022 8.093622518945766 3.9976918817900144
Mo 5.496209866303823 8.864710697365544 9.790158509748451
Mo 5.0607093983354865 6.282634504503737 9.433149692760717
Mo 5.496510200810393 6.365661492414328 4.780414587691715
Mo 5.387458086736183 7.630082206610848 7.439527102366912
Mo 7.317768377605898 11.246999146136249 6.654211451333087
Mo 7.203982144839011 10.680503969412285 4.144467925136838
Mo 5.32945379932666 10.869045463753922 8.367022802751734
Mo 5.918499621085221 9.331447947159678 5.556850884608566
