22
Energy = -194.4047155 eV
Mo 6.751875245894562 3.3231099606050796 4.384997705806445
Mo 7.16755339170456 6.476267043541402 7.890026617871736
Mo 8.519292300959544 8.271162933977118 9.19653771898391
Mo 5.337990393671789 5.1886612483979615 6.3038787592318
Mo 8.78074395402113 7.986968923074061 6.263552263115413
Mo 6.550432074974092 8.883893249999401 5.2049983090078
Mo 4.697762337007036 7.881824487761089 7.4308055206305035
Mo 6.064665061515428 5.60879489330717 3.006187885007922
Mo 4.33464386407374 5.7554654888705965 8.356219852861535
Mo 9.137400604892985 4.0734459740252005 5.537993144860082
Mo 2.943015254099503 5.693671613150805 3.156608061182738
Mo 5.464423055926292 2.6339035977002045 5.8515151516638895
Mo 7.596552712617157 3.79682839377646 7.005982624413471
Mo 3.929465626594283 4.23714947995869 4.0079350034951355
Mo 4.833477764632258 6.895866552054 4.38135626343759
Mo 2.5906459933243826 5.792460009090116 6.139496051341957
Mo 9.368749735806738 5.973044621120604 7.341764968704196
Mo 7.185899243357853 8.179390168730905 3.5284393582572315
Mo 5.560448951862056 8.06230036293682 9.330392418847865
Mo 7.578207332629253 6.033778656705248 5.165394432900639
Mo 7.383255891028208 9.41683300559223 8.046520078293145
Mo 2.818281796901069 4.001966758935408 6.72696057531918
