20
Energy = -177.89322874 eV
Mo 5.323724850641641 6.237149893945546 3.1567286492274955
Mo 8.326194899190348 7.595533539640343 3.4618023054610263
Mo 5.473776296203238 7.881550197310879 4.319229203383413
Mo 7.143948644629453 5.52203483197966 4.768153536467461
Mo 3.4108474044175576 5.747533736508208 4.908190615547497
Mo 9.627234258970816 6.963929070532343 4.555591231053674
Mo 7.902810114048577 3.4817538407955086 6.288578503177454
Mo 4.834449295470088 4.477668874039769 5.5695409884844445
Mo 7.357124247528117 7.564901948528426 6.246067196648799
Mo 9.36844499939657 4.029723449989918 5.181809454514118
Mo 4.523782952936292 7.158413879886207 6.696052834768494
Mo 9.018901760006793 5.819406072489258 7.153416109478988
Mo 3.4902554661636653 5.111414828241958 8.165860745901497
Mo 5.450640589419373 9.603368168021872 7.132017310343809
Mo 9.019431445060235 7.927759914540777 8.534573138763687
Mo 6.326005901077895 5.600367436788682 7.54592642463041
Mo 6.584778222593444 7.803604058122079 8.84921914208295
Mo 4.258051522568601 9.114065942384196 8.5516602117131
Mo 4.199542965293591 6.231067216632143 9.405300086386047
Mo 8.342787177078325 6.111486112317667 9.493015324660792
