22
Energy = -196.13260453 eV
Mo 4.875069274611238 5.01132140558132 8.444761325801668
Mo 7.433654885296281 4.510976922498706 7.616303232368406
Mo 5.0449094525598515 2.3586009254442146 7.16531124455522
Mo 7.985422137589904 7.394113398320296 7.589127257677677
Mo 3.248212895704276 4.6598374497380135 7.086681624105061
Mo 7.941665193196104 3.5794993950513643 5.991011076862781
Mo 6.677894116337944 7.326585614664388 8.949227731756194
Mo 5.465388219093567 4.636562989104751 5.586099857633168
Mo 7.507811426977511 6.136320808161865 5.259034474485509
Mo 3.312944703987687 3.3562918187921347 4.806534306556135
Mo 5.479583778045489 1.8420371567071294 5.4395351585052945
Mo 2.512067252486388 7.17061196935226 6.292737995541543
Mo 5.165536584835837 6.843335428221691 6.793727867585375
Mo 5.958227329160581 9.44799997129175 6.978398883046098
Mo 6.815775897846502 3.3215990592353273 3.398012646325147
Mo 3.1321204508418723 5.638774072136763 4.369729106571188
Mo 5.10796332541322 4.050185929147564 2.9060530361923433
Mo 6.719602376845365 8.905454520093222 5.3782323735989275
Mo 7.529172319184497 5.926792221094293 2.4378370722178246
Mo 5.289978508316843 6.736260123894758 3.8825546022501327
Mo 3.780411588600574 8.389667897943141 5.22627146644399
Mo 7.7884111560953535 7.663164111444106 2.972086121248545
