21
Energy = -185.68340914 eV
Mo 9.096032223889084 7.868206830612775 4.669831067593779
Mo 4.100237117891121 6.66039742015986 7.000370322540307
Mo 4.59818857400288 9.12704259960781 4.750348698432328
Mo 6.117137628083656 5.503694010192183 4.865288760944534
Mo 7.646541579430307 3.2053832849411594 4.708539550982256
Mo 8.049039178762957 7.130415596394441 10.069364862943171
Mo 6.758672227169743 5.990171430361747 7.521759963803031
Mo 6.4143091378116175 4.417005174459052 9.798503870169817
Mo 7.619628549499078 9.07622106172397 9.477026547826238
Mo 8.825641662702788 5.888856197252645 5.4657873121405185
Mo 8.625385705499411 7.965571990247957 7.379355639538308
Mo 4.132851099484558 7.311796534014356 4.196176138272647
Mo 5.558511926306003 7.161780938349746 9.396696235751369
Mo 6.6731969075290305 7.412841581387751 2.8171827659588926
Mo 3.103878226842391 8.281232066436042 6.926151356253945
Mo 4.824563865408812 4.408819953004555 8.955019501256144
Mo 9.034197495795716 5.7441615461999245 8.153631867320204
Mo 7.81433419295007 5.8310010409946385 2.9261950507834515
Mo 7.392942016171095 3.4305794863133365 6.46528833008074
Mo 6.674583050682755 7.775744041491689 5.46247599331076
Mo 5.77550131735152 8.714333372629248 7.7191285293125445
