29
Energy = -260.94805457 eV
Mo 11.731742462598802 8.219286677087048 7.047085483297102
Mo 10.705174680052963 10.264859905464874 9.757748258331999
Mo 8.405505595240486 7.027685762501043 3.917081724650624
Mo 9.82735535249439 10.562565722637977 7.06541088523199
Mo 11.750087317476277 7.886952485396453 9.778849549009522
Mo 7.424746425468495 5.085125597687483 2.9016771679485798
Mo 9.509381698746166 8.858668859326146 5.81077653806597
Mo 10.74019970877241 6.5732268612314435 7.252247626309842
Mo 8.0099005698873 6.760288526877239 6.3793525719134845
Mo 10.413212659864499 6.57125414596126 10.325398520432827
Mo 9.101082126202684 8.307986735616725 8.65743924640772
Mo 9.479981196136503 9.19898169118695 11.109953710388282
Mo 5.7928651904194135 6.43324659914144 3.3088526091561574
Mo 6.587324789018444 8.367173850029355 4.725641615947306
Mo 7.057383194125717 4.814663299593575 5.238468385909237
Mo 7.268911254187476 9.696540340009047 7.02000925637117
Mo 8.269748819119283 5.486935523720787 8.83048403945411
Mo 8.450050846716005 11.079713164971537 9.13643375171732
Mo 5.2983671862009984 6.45863319608016 5.916236982541855
Mo 6.304704186001462 7.281043573202511 8.330975450375673
Mo 5.980028704303765 4.5116312369736775 7.885938424918442
Mo 7.743101035785729 6.673318632563114 10.701446913625396
Mo 4.850153086147056 8.884408527831319 6.729903219647484
Mo 5.884231352790029 10.899381178922269 8.528865259178183
Mo 5.516834333451978 4.925954550584051 9.709746595119785
Mo 6.864383935382355 9.35263502355785 10.02384796434552
Mo 3.77844781004639 6.711469222736733 8.32984038146373
Mo 3.9352384119339203 8.804460407947012 8.901377766573924
Mo 5.388880462928531 7.404235563355674 10.69599732756499
