24
Energy = -213.17735955 eV
Mo 8.920673570898234 5.541552365918465 9.993797086513768
Mo 9.64064942123475 7.029704957142159 8.663081259881842
Mo 8.950515452269272 2.840802335502196 5.459379784544879
Mo 5.936415949403686 9.156693664129024 3.6781209990093404
Mo 5.158745042204541 8.0634379648529 10.396008263718679
Mo 6.276309829455478 6.493275066629822 2.41234231664154
Mo 4.410094763487333 4.509359875101703 6.818712236254819
Mo 9.157209911694538 5.962201785266872 6.058336092216456
Mo 7.505151020281643 5.30144011895145 3.2922834723409795
Mo 5.106776974959437 4.987509708313183 4.489703582208361
Mo 7.817450561506705 8.493127192658038 9.316038728273611
Mo 4.895713383811222 7.7382342666288535 5.366279813566865
Mo 7.67646263473001 7.768832618016371 4.41976055159575
Mo 3.67828562148426 6.583983569425349 3.6912771817853804
Mo 7.225505505557041 3.304038027926526 5.450528712721703
Mo 6.595832018582339 10.103876999602774 5.563687765657705
Mo 6.665269305765413 6.1588765352265185 6.346409639578821
Mo 6.8320448650398085 6.300069490179717 9.045527230852139
Mo 8.743661884405357 4.561751225436253 7.577093883316199
Mo 5.782646370815588 8.548733361261052 7.688603662938318
Mo 2.853931705428037 5.711375828698912 5.958279930162767
Mo 8.13483163540884 8.539776463719315 6.686816372115795
Mo 4.626435851012087 6.190436767117779 10.495308749037493
Mo 4.2153543720150095 6.732008607200855 8.043045059500708
