29
Energy = -261.57164122 eV
Mo 8.234407930740824 8.744614171199704 8.351765571350874
Mo 8.14310944893479 10.110312598870163 6.965018149002403
Mo 6.5428100776247575 7.076586352015534 9.79308313313814
Mo 9.331685960314012 7.357009181783758 6.093927710693417
Mo 5.454622527153788 9.606302315583559 8.224115309180487
Mo 8.710521434939523 8.670192957564636 4.599323723180338
Mo 7.394097063690646 6.1129880198282915 7.482771788314053
Mo 5.2735246549699974 10.527915032197653 6.481658622966778
Mo 6.105619684098599 4.860923247501751 9.704143216351767
Mo 6.561223226758891 8.219965034160664 6.072143435011344
Mo 8.981398234830634 4.132559585863627 6.191497639696344
Mo 4.88047336809886 6.8824126143634325 8.209822553152554
Mo 7.848895184426129 6.000752798446782 4.487801060933313
Mo 7.635336525584607 3.50814693559127 7.887814545230391
Mo 7.4172167110142695 3.4156390582000653 3.3202103579231617
Mo 2.4572616828417195 5.945893822580427 6.652327309646069
Mo 6.420360293828616 4.02228212392917 5.6341243232527525
Mo 6.453291993811204 7.616755420990095 3.549537089662818
Mo 8.038543334564427 1.9176737938407848 5.259440694552921
Mo 3.3684869621263225 8.441431641203469 6.504910936317127
Mo 4.9545011005367545 6.236807657498176 5.546859452861356
Mo 6.005678837708567 1.804393109099373 6.3364000227904045
Mo 4.193145417377262 8.710039514179106 4.5602298226471305
Mo 5.350899974907342 5.12813865241427 3.311899584513222
Mo 4.81935942022258 4.441335618567083 7.790956500079805
Mo 5.46639141167952 2.320184624952725 3.8089434926495978
Mo 3.6063382054857653 3.811493674612204 5.217050568197369
Mo 2.65517656065191 6.325826763243413 4.567757208439069
Mo 3.2812664040697097 3.776401870242969 3.101983780461467
