22
Energy = -195.58051831 eV
Mo 8.813511569899774 7.2397991285720265 5.239726650015911
Mo 6.854410827501842 7.919769842348507 2.8566096595945565
Mo 7.445993920357024 9.93551616226456 6.036002225933386
Mo 7.318268404442711 7.7184229413539285 7.7403319375704145
Mo 9.066548796194803 5.700719732917863 6.289264395858725
Mo 4.871294971455471 9.776293745304821 4.095023659963507
Mo 7.747047933812384 5.583885101278927 9.36924437046066
Mo 5.801623639790825 10.131214465466611 6.881209989976691
Mo 5.153168018836589 7.0660088729251935 2.9238971917328103
Mo 6.026076250467042 7.65366215706339 5.451827470934642
Mo 3.588418779240608 8.829529331562375 4.982149609620922
Mo 6.883855019873395 5.490873970010294 4.370077740171081
Mo 6.412155387699249 5.314650019383745 6.98259489414547
Mo 8.009436998051074 3.3176087941995167 7.850862167611195
Mo 4.945694586078227 7.542822716401731 7.702202012167775
Mo 5.815732461864671 3.429472510660249 8.531750633134742
Mo 3.9657800001877344 5.7080888896991855 5.667928352831119
Mo 5.826949244810856 6.056681478593156 9.667523275938665
Mo 5.274518782404457 3.175289323427327 5.836002028249242
Mo 7.550217400176199 3.3887288365024384 5.215911365129897
Mo 3.631638949515725 5.058443272872336 7.450860100173468
Mo 6.416500214945237 1.5955746774382924 6.950097844984047
