38
Energy = -348.3672977 eV
Mo 5.355473021463475 3.9021367868171897 8.397567381365434
Mo 6.1183855328154655 2.0210847860767123 1.6083011723844471
Mo 7.079680775534552 4.215868478699248 1.1441360722513159
Mo 2.2684661539976507 2.5410993654419785 0.9684444410381741
Mo 5.100852701866738 6.373566183458195 0.8970320719615537
Mo 2.2908820005904107 5.616881831180536 1.2897922913560098
Mo 4.279575319336726 4.135201692960426 2.0084568971826675
Mo 8.551356812065432 6.447938248201551 2.7437016333915674
Mo 3.452048071162333 7.906654474446945 1.0291329311567932
Mo 0.5458222501824622 3.1223545896941562 1.3387080384408978
Mo 6.510304061809487 3.035835573975158 3.6645840713150704
Mo 4.109771397406147 1.8102154145006244 3.429943393741465
Mo 8.684228724443086 4.691972926047122 3.580957913490641
Mo 6.089909116471009 5.98723897729009 3.183326915950986
Mo 1.8831497658871768 3.752023350253322 3.5406920914789954
Mo 3.130616984392756 6.454189738789081 3.482078223012874
Mo 1.6522209517565105 1.1014669773972299 3.809988140033778
Mo 4.7498565804243436 8.167407321693386 3.0432725875716966
Mo 0.6259534370000849 5.605526677182842 3.0581346354627676
Mo 4.407420647014652 4.378757028097953 4.764881623683111
Mo 0.11460538838314438 3.43182260220945 5.66243903388887
Mo 7.169910273092584 7.883890563921627 4.967541623906544
Mo 2.1552208293479693 5.4178184546049355 5.90791150998882
Mo 4.63570596702676 6.95978536556063 5.756639098188891
Mo 2.6910559970785144 2.564042238894078 5.884648675583714
Mo 7.842750663266651 2.6114599267971865 6.356647086551763
Mo 6.866036371920553 5.031381484341561 5.7157858433427835
Mo 3.9559816053842325 0.17122536265619132 5.174284259338178
Mo 5.284009621637323 2.2032946876788824 6.083628461301195
Mo 8.701681694530443 6.898635151464173 5.6363093006462925
Mo 0.2615399036833614 2.17902678324092 7.177712496979413
Mo 4.517706895850646 4.59409463132352 7.387242117868369
Mo 3.172498276688895 6.837338968438043 7.545187133764535
Mo 1.8645739267581543 4.018687067547257 7.924464943357897
Mo 6.335255573257084 6.660143417022652 7.402525713832814
Mo 7.003093259141885 3.5475959888960524 7.87621378066037
Mo 3.658002554342962 2.402434102682232 8.198383481745621
Mo 1.6851956993536945 0.12070158688358011 5.747178025296883
