31
Energy = -282.10134347 eV
Mo 2.302921248928524 5.515332034705487 7.864331993102025
Mo 3.5654316075314427 5.895937735333956 9.423260812307692
Mo 3.5729971383617496 4.335869556380246 5.763840944293569
Mo 3.04461487165047 5.7763115911212255 3.571214460332364
Mo 4.517350844488272 3.7458507120376674 8.078206847407131
Mo 3.569436627376536 8.731650429025812 3.5805285835712195
Mo 4.625177000153582 3.1896922556365475 3.4981857892737818
Mo 3.912014303128272 8.003876555951157 7.902742396098977
Mo 3.032062721823259 7.04618212576272 5.653533599411228
Mo 5.165276186555955 6.171690549269081 7.086630548415089
Mo 4.136958460255514 7.531854064440909 2.0419826319445487
Mo 5.907125508838529 7.619267490014083 9.626809443378352
Mo 5.998183536926219 4.525618978889492 10.353336700324244
Mo 4.941577669564941 2.297335105653956 6.250940781600465
Mo 6.492320051805591 4.090012318453654 6.0326800946573025
Mo 5.380069087402308 6.095142826378573 4.151309419838006
Mo 5.275524996547783 8.662127330114963 5.729308563374666
Mo 4.567958978144002 4.404660441327183 1.902389068868213
Mo 6.825566123948584 3.260940594967312 9.19565601432251
Mo 6.815465186079701 8.39847200118907 8.016485920727238
Mo 7.465312208249331 5.762228656584229 8.322279447888693
Mo 6.686205790206322 6.36724093231791 1.392536077685333
Mo 7.580673783118945 6.783472520438406 5.682302989327283
Mo 6.425706302854481 8.352581787517819 3.4212198493284465
Mo 7.815370573875463 2.5538689255541853 4.63295416927405
Mo 8.986091473117302 3.8837403936008426 7.135676879807886
Mo 7.605707423418938 9.175111348584597 5.288936095302779
Mo 6.944450544712666 4.316704639432569 3.24564282187275
Mo 9.45749905363977 6.222357821135847 7.1864476404155395
Mo 9.13629548390386 4.42633544777803 4.951484745175788
Mo 8.138314748790474 6.655710592996929 2.7813457259871184
