38
Energy = -348.67001987 eV
Mo 8.738158053862353 2.5316830177127505 6.0534827717717885
Mo 8.180822487233218 3.3345404110536276 8.528520892792546
Mo 9.968772985286241 4.188657630265787 6.732552041680262
Mo 5.043815209663336 2.84550650673694 6.338376724496262
Mo 8.864716822963056 6.1077542247729815 8.370791936608011
Mo 10.514828350367807 5.921227252276016 4.607270252026342
Mo 8.587095234171056 4.463778339096189 4.3442739351256705
Mo 7.331102738420472 5.056797490910307 10.258902439917307
Mo 10.28187985324896 7.342802539430226 6.945877449909314
Mo 6.976736486379898 4.365402699309272 6.591608974908403
Mo 9.280135875126591 7.14386133850489 3.178161605621781
Mo 9.644148870685644 8.965332345212996 8.699881676474995
Mo 5.607553427569495 3.7244320360185252 8.804413726810061
Mo 7.790124617802328 7.724777185421717 10.14616577809568
Mo 5.454351678733478 4.3359959319983155 4.338930632127681
Mo 6.787759735290165 6.212594328870743 3.284615863321849
Mo 5.275329306153327 4.396865606236556 11.248075791656525
Mo 9.295306989726189 8.773071065316548 4.853933622772529
Mo 8.079362727214958 6.563791153081328 5.7356934442413605
Mo 4.064514420992492 4.96291837423998 6.8519381264622
Mo 6.114280913116328 6.378642158481018 8.251294614807215
Mo 6.929597981772626 8.633889548758187 4.286490298995945
Mo 7.544896807165974 8.682785216691144 7.340914913406334
Mo 3.807722336495119 5.5813118892880285 9.567835360265233
Mo 4.448636435167116 6.698573051922769 3.0898711044102836
Mo 7.54752036093504 10.151795247235524 9.71696660209869
Mo 5.330585894202751 6.915459869766534 5.626232534445986
Mo 3.2804968618165975 5.24626924563536 4.418778557142457
Mo 5.35214406715967 6.8230341345185765 10.81667766593967
Mo 9.578440045427337 10.876695534152939 6.887099633319076
Mo 9.40920576882849 11.802465428539756 8.610253819587465
Mo 5.440618130954884 8.902397061430804 9.089937417333852
Mo 3.737487679138852 7.585422728324834 7.925292289163851
Mo 7.081539410504009 10.597032122184737 5.657187937439414
Mo 6.89404753025561 11.411795211317676 7.88864673907418
Mo 4.179781315015395 9.167215157262083 4.211319198851047
Mo 4.931255875519787 9.403004702389588 6.66515783121564
Mo 2.8990632574792365 7.995742002734335 5.250021172634118
