31
Energy = -281.30189847 eV
Mo 9.211858774527599 6.299332888404991 3.4973331837053214
Mo 8.19061106992029 3.2122179655709697 4.0043784555795625
Mo 6.71232695532713 5.4326170456423855 3.9954379430769604
Mo 6.186445107454079 2.8980841247830464 4.314199732419062
Mo 8.047620331013334 7.233073015056148 2.380661241420091
Mo 7.704337258834879 6.854384909652837 5.958488277113844
Mo 4.938751556147113 6.945162550214968 2.3804476365903082
Mo 9.067010168135399 4.669436373715312 5.95154688386704
Mo 7.678945091719492 2.6072615689014653 6.701359938238811
Mo 4.269910709015288 5.011982481479505 4.448673487223933
Mo 3.497916051156728 7.501048911859943 3.380524661241175
Mo 5.589348113191203 2.266418364267528 8.33569875263194
Mo 6.191525860451628 4.597011989918903 6.660109557020798
Mo 8.336813423686964 8.988732781543476 4.593486388995952
Mo 6.294625543791623 8.673282330099754 4.180080085181626
Mo 4.605433616411966 2.385767593010485 6.5882433954369946
Mo 7.4615285602590875 4.273355723741014 9.002793917732966
Mo 9.491030624733439 3.41664026885358 8.027880324896962
Mo 4.856298905903156 7.001436385410133 5.881787105465857
Mo 3.300923089217124 4.875750913208809 6.684429844094398
Mo 9.12054378336104 8.799442261848764 7.465238191813414
Mo 8.607261751689661 6.092942845485846 8.29042185109019
Mo 6.498138344421485 9.095026328996436 6.761657939887059
Mo 2.7012785603647864 8.011695590711525 6.038717632615978
Mo 4.1724799932932175 9.737513248875628 6.0479853053781385
Mo 4.493122579227732 4.6015688570151125 8.63952875736462
Mo 6.092390553393742 6.881669897150849 8.403304181515105
Mo 3.6284916610216524 6.9788528972928 8.359256925708221
Mo 8.11238029826173 8.795043557766093 9.074890813013376
Mo 5.012178067907302 9.367225138608251 8.835319428319956
Mo 3.0105984116163365 9.40993926150502 8.411451798557563
