37
Energy = -339.83446045 eV
Mo 5.462301400346636 1.8251606648866159 4.495885771904321
Mo 8.289328978224592 2.6790368132984925 5.133232715878539
Mo 6.432366451843812 2.229429806231122 6.9517392318096665
Mo 8.547711689834024 2.3522269541603436 8.105989907787901
Mo 9.946307117675389 3.5886693194447363 6.334361487684468
Mo 6.649687093298131 3.5937446997786306 2.5445792223905817
Mo 3.887500496199901 2.741922597078366 5.369192272987218
Mo 8.462224620333638 4.991789344895737 4.195909675149429
Mo 4.674786441276744 3.9343891713735206 2.672479256754973
Mo 6.403157343427019 3.6051187910036293 9.514885764093641
Mo 6.081177902852316 4.3949554664338875 5.117878238812656
Mo 10.189029523922377 5.59327452722218 8.208581204896385
Mo 7.810385441897254 4.637158075143513 7.225202825852558
Mo 6.1088684273257305 6.1635448197132225 2.9733523828345327
Mo 7.8937293415980685 7.856521879140876 3.5495800627272462
Mo 4.869347672099704 4.204602104154931 7.455855928611039
Mo 8.34435067386176 4.411428272573262 9.790748055807036
Mo 9.708250730272058 6.355417779447607 5.880104164947274
Mo 7.323034311103185 6.896123867370767 5.964583924938432
Mo 2.224331792647854 5.3044328832413115 6.918476166398156
Mo 5.183157479213148 8.652285586815594 2.2072754981598512
Mo 8.561308172178496 7.150617112508445 8.319927355941033
Mo 3.835047838410055 5.586448469093457 4.733544853887399
Mo 3.7342822822124364 7.163016418378204 2.6133576354383616
Mo 4.5880870186383325 6.726763391174931 6.988699460572152
Mo 5.342901159013368 8.164731961074345 4.781984145428904
Mo 6.348348298590824 6.169784305922713 9.064021853676088
Mo 7.72616306285455 9.315224315991868 5.940945181394315
Mo 3.774609733839726 5.691155839628302 9.525527714307033
Mo 7.069381470952459 9.970652626423242 3.6533494928642547
Mo 2.616925360963438 7.796442949043264 5.2218913279247845
Mo 2.0080406548303276 7.137845763782124 7.734843361606871
Mo 6.0775769549088405 8.735744665051367 7.743154294776296
Mo 3.4554282308936193 9.677734231058615 3.9473620024806464
Mo 4.189185040774948 7.653491080807059 9.549128951055135
Mo 5.20950679586237 10.572365817179675 5.593652558554482
Mo 3.818080667238558 9.422139344183947 6.910533012026505
