36
Energy = -329.49586021 eV
Mo 7.294898042594197 5.908870872282898 10.542790602105894
Mo 9.598185566598207 5.962865500301723 8.605700838375064
Mo 8.222902519276813 4.116082982719228 9.000199594465604
Mo 3.6765355630891148 2.8527904600815464 6.47032549527606
Mo 5.583662942436092 4.598196335899626 8.660824900991608
Mo 6.730003565166257 2.3957254581298466 6.960260509382811
Mo 8.070454516847477 8.407665233762565 10.00799660676273
Mo 5.295250319195291 6.567871747588882 9.939503440583843
Mo 5.010312646529496 2.207959117052058 4.973441430427969
Mo 3.0044593028123754 4.010023643359715 4.1851686896710945
Mo 7.186001860013519 6.699506542050861 7.90166852695543
Mo 3.414194942455858 5.27345693192736 7.7919125899256505
Mo 10.55123107242031 5.22814075258633 6.4972692447900435
Mo 8.232768209535896 2.049965044704791 5.601759978900625
Mo 9.053336712013756 8.8325791641376 8.332932690322425
Mo 5.3725409008313765 4.710254227029569 6.038895232214449
Mo 8.178686884343264 4.620758679344691 6.531008187212244
Mo 6.174054513435415 9.034242777612207 8.361895133326458
Mo 9.268247015133499 7.232037637194223 6.1026971471065385
Mo 1.425879140367929 5.296159945182004 5.845616472442365
Mo 2.3445495061714956 8.08332739284958 6.171231218177724
Mo 4.682004166184481 7.281293759584958 7.212232850576365
Mo 9.085588387241359 5.313471988977744 3.94964944477924
Mo 7.1185611407708596 3.793796376515614 4.21541505102813
Mo 5.132683860665132 4.690012017627515 2.8701844715797056
Mo 8.673806371961044 8.039866562421217 3.792661226641116
Mo 6.743128177035984 6.727634841110963 4.998096604631702
Mo 7.253442683292157 9.080985489736873 6.2745510068453125
Mo 3.8313660309831303 6.4108515781535695 4.769523744489756
Mo 3.1851928404894467 5.613093474088246 2.2501775179006644
Mo 7.544156076110898 6.091128201351435 2.5381338189690914
Mo 1.1635365328346263 6.1780884060961565 4.109217521715023
Mo 4.889367637789628 8.961760712038513 5.190168328424411
Mo 6.640602303707383 9.24967195413016 3.537563788406578
Mo 5.163295737749411 7.323194591279886 2.8230760385121076
Mo 2.5560798686435655 8.706006569241598 4.199690293939881
