35
Energy = -319.57974499 eV
Mo 11.26784150317776 10.488622626562467 4.112692482181585
Mo 11.057839058964824 7.053035406634603 8.146762540820859
Mo 4.298397397916118 9.040732891606602 5.045229462228548
Mo 8.961077134082604 10.383328502932544 6.011486700516364
Mo 7.488749977225344 8.747604515564694 10.226013770613363
Mo 7.925014758111923 4.795875370073084 6.7272493419844315
Mo 7.130849803876221 9.061951717723003 4.796053642287111
Mo 8.224365677420685 11.276750859260938 7.93256722393313
Mo 7.349470880769333 11.644275442718126 10.382240431902579
Mo 9.228524414686296 10.723141055180797 10.585062461193797
Mo 7.038789406974742 10.171265099555754 12.66520461234636
Mo 7.070960207753599 8.802538767625155 7.541619889120091
Mo 6.23235757084633 7.027504074768592 5.424493131189725
Mo 4.232003242307177 8.738378320818756 6.9141273681024975
Mo 9.481284328252476 8.378225231353062 3.826930129573362
Mo 9.980280643625038 4.89175372431 6.864277125670501
Mo 10.290915772408503 7.928321715230388 10.883988340398869
Mo 10.516465739150021 4.6746654797807885 9.645956577311523
Mo 8.873157169207808 7.362011180106293 6.223025949448524
Mo 6.305563859674424 5.99724879293842 10.562383689599642
Mo 11.159166057934971 8.523605205949162 6.099503120371659
Mo 5.1249136546272105 8.222935452674982 9.643058898692829
Mo 9.64929500469989 9.165789681541094 8.377859943711526
Mo 8.848963131817538 6.054901143228715 4.157266795277246
Mo 6.128041889354351 6.511179136702002 7.83788216575599
Mo 11.108958530394014 6.565432044808636 4.818440826529366
Mo 6.019219648912407 10.845177642023069 6.090896480985015
Mo 5.681330837118815 10.478998354579527 8.670394591838651
Mo 12.090181598517628 9.017543866946019 3.37199808698553
Mo 8.714619133359982 5.7965784747131694 11.249347348916777
Mo 5.4046943014648825 9.969311103814231 11.731229803090566
Mo 8.607453695670717 6.538144128783211 8.840069716523118
Mo 8.714388675391202 3.86198439778332 9.406273587200845
Mo 6.415063859485357 7.275864998774864 12.170813633964137
Mo 9.21255555718719 8.302650661267286 12.394997147839828
