36
Energy = -329.23626489 eV
Mo 10.209476865313093 9.253959117395075 7.528464285207686
Mo 11.080829359377903 8.09083422979682 6.274285256397274
Mo 8.607865307430353 9.095472602993471 5.310589158389142
Mo 9.24708165325594 7.359609246160447 4.326994021148044
Mo 7.53845101758847 8.758395398308682 7.834574664896707
Mo 9.364276948713504 6.744486987573149 8.204686252156437
Mo 5.707368752097488 8.967254512012222 6.026075378379371
Mo 6.632624518067624 7.874974721623289 3.8163072100717756
Mo 9.817814080123378 5.648786782239574 6.422286904219177
Mo 4.984206382852279 8.805827663810144 8.362074028096261
Mo 7.257897121590876 6.753517425568515 6.2566570585812835
Mo 2.742841302605335 8.690944554744656 6.788535202534157
Mo 3.8722066482829107 8.219573588425238 4.49998870177741
Mo 7.811836519431744 5.029346612956424 4.112344759347225
Mo 7.750399538978611 4.6632844665623825 8.072234961843147
Mo 6.404200795242154 6.789932191730707 8.863583252488977
Mo 3.3085614445071316 6.893478857575743 9.354713932663788
Mo 4.5145880575603154 6.61930908821231 6.869038832907666
Mo 5.070559648431272 4.793471900187758 9.064349967427217
Mo 8.458969927709095 3.390802968988901 5.911905522165755
Mo 1.793272798529683 7.115476246106748 5.991891018646582
Mo 4.89257285501553 7.417142342241294 1.951353833410637
Mo 5.151228188937593 5.7917094155456335 4.32617993778902
Mo 2.374570852930299 5.5109558659324485 8.402837126220481
Mo 5.967645035917833 4.228413298457168 6.316372765195289
Mo 6.227696987519504 5.88190443150851 1.9029437471199075
Mo 6.297755760932912 2.306755196510332 8.046092373042331
Mo 6.531714875481142 3.2143774485598016 3.698456623815933
Mo 2.720470217084598 6.2658788041423925 3.6023645989535145
Mo 6.815302595741639 1.638028114145144 5.800861065992896
Mo 3.073411589967509 4.609939025631834 5.436792468014376
Mo 3.841900381837798 3.3612997778423988 7.503768914562979
Mo 3.5526931452800308 5.1449096980118005 1.1221742286158245
Mo 3.870192404362995 3.938438438972236 2.4911600494375596
Mo 4.333780563711095 2.461095802930351 4.9095988643413015
Mo 4.510497926018638 1.086125400723487 6.909868940485315
