43
Energy = -397.75236111 eV
Mo 3.7353141350237737 3.048303291157751 9.935648544079537
Mo 5.630180722121202 4.891690103912367 9.242765276495557
Mo 5.443302279980928 2.304025931766528 10.02074442148474
Mo 2.8556574561797836 5.838059950488295 8.861625282071799
Mo 4.762788332659379 3.0317162708492686 7.368682486198023
Mo 2.339789425154482 4.046203636922293 7.613464552992563
Mo 7.7986531675033754 6.301545299923998 9.06873559495092
Mo 5.043885430413287 7.219762274563648 8.53373970944876
Mo 7.26227712941186 1.8831975911612535 7.332202070390216
Mo 7.980100790401494 3.3740901307901274 9.12996866839428
Mo 9.619467800149506 8.163644935124715 8.048596845291033
Mo 4.588520487440365 5.531089814062442 6.659610116098611
Mo 7.11913411034903 9.016113379217702 9.253129755522227
Mo 2.9245965205869027 7.822781054478464 6.98688274924836
Mo 9.716990534787318 4.780237388917924 8.516865309372827
Mo 8.295877800406654 1.5351595063884187 4.444242103894712
Mo 1.9006524052116949 5.765527391205782 6.1227604970808
Mo 7.240867677960667 4.69875642327824 7.047487265056661
Mo 3.3893097810824577 3.3644030529598274 5.010591325840093
Mo 6.212264871099419 3.1714688426763784 5.197546285930784
Mo 9.168371865784646 2.905078779224758 6.50541839458709
Mo 3.6350633789741913 6.009951358410034 3.995860521134696
Mo 7.128114434486849 7.5675653972514105 6.810243520022786
Mo 9.444373874449953 6.132014121291044 6.4627888939592815
Mo 5.094431350063892 9.563049117271841 7.250074677475617
Mo 4.498995713689904 3.6416633467407165 3.331227169955445
Mo 8.668029810669395 4.612622328599674 4.552348844530267
Mo 4.807550486223576 8.076629628207606 5.204434584637936
Mo 7.475094176654545 10.298427437711236 7.742003330619287
Mo 3.2308831740778174 10.294497157327697 5.2646692032167905
Mo 6.285643744994298 5.814750146164449 4.485661433457967
Mo 9.58101133284541 9.02008730513915 6.27597871987342
Mo 7.338691149346891 3.6330563241184066 2.7798086926124954
Mo 2.1288702200822174 8.225571681771395 4.624102644995759
Mo 9.624798154107964 2.474770334876464 3.287965316409185
Mo 5.634703372882221 11.413974246587951 5.484450399217445
Mo 8.410899767227315 7.308221979031121 4.405155410979545
Mo 7.0864473029361665 9.711510242538619 5.035179650478844
Mo 3.532330443024672 8.034957080175175 2.6803141827482753
Mo 7.822859673423861 6.052500874731453 2.0945495526938753
Mo 5.6910728617175375 5.923916691754084 1.8873033493114535
Mo 4.7504521912089315 10.353968286805953 3.4841713156163214
Mo 6.21578541146401 8.184561092245595 3.0998784436983593
