42
Energy = -387.11915304 eV
Mo 7.879458290302398 1.2483368810943172 5.02657722817283
Mo 7.486176017145511 2.364914135581226 3.35924393076014
Mo 6.275814211296784 4.826163234569212 1.605175669064084
Mo 5.754911887941864 2.3233188985054842 5.647678385147122
Mo 7.6532306358856275 7.164315517720511 1.4346579337393697
Mo 9.281669907933875 3.5432772055933124 5.287599071818602
Mo 5.565819417229037 4.061236819705581 3.764889883448955
Mo 8.395210199597578 4.861422773321526 3.5674181414519555
Mo 7.688293383006888 2.9894522370750733 7.174427853373916
Mo 3.9195482179470584 5.87036928395886 4.540064773750389
Mo 4.8483095156666725 6.350697842641065 2.1154050640861626
Mo 3.771371176475886 3.935873764884214 6.118568447677125
Mo 6.815130349536061 4.914448387170086 6.003106238571926
Mo 6.486777188085131 8.74015295415125 2.094392683247235
Mo 6.636129932260335 6.764280381280573 3.9881924332272924
Mo 5.316780587800591 3.9804350791173917 8.152427796530812
Mo 9.09175001920228 5.220789259736557 7.522840720003979
Mo 9.210750604623936 6.408144450071073 5.387255305804714
Mo 8.965909553508425 8.005967395418303 3.4259537333755583
Mo 1.9913483465030555 5.426999557135168 6.800264646228522
Mo 7.643763195661038 3.8790504725793133 9.679169474877897
Mo 5.1497472550937955 4.774119030717634 10.576077884767088
Mo 6.724456469877334 6.315977225642506 8.702999071642273
Mo 4.6702828356374955 6.547633736757333 6.92272190849267
Mo 7.1417628865823675 4.475321957243014 11.694845423080247
Mo 9.351497960634719 8.908934315540312 5.972055359778168
Mo 7.434886112028584 9.531198374276421 4.358693567090982
Mo 7.033739432862902 7.904928694538737 6.469915182545356
Mo 8.830272683354108 6.234841283609327 10.269439082169107
Mo 9.154189498201879 7.606601376061353 8.349732677188982
Mo 4.754430078542456 8.456691010625839 4.600785992205195
Mo 3.0835372451286776 5.207432516004986 8.654366218817604
Mo 2.530827394958499 8.056819268893431 5.676357774810496
Mo 4.820820948928876 7.270540597078117 9.935254800942714
Mo 6.901779992447075 7.136699164734836 11.47790769010364
Mo 5.378235440256249 9.00768813061718 8.208253544957419
Mo 8.298070433122707 11.467460834084612 6.197728433804404
Mo 7.407158459224611 8.699734733273235 9.919347653966671
Mo 7.941209152978955 10.527946468192807 7.786880902609123
Mo 5.666558749088199 10.29066507663437 6.085976927766331
Mo 2.9571498419851037 7.879662922586005 8.155199236589878
Mo 3.2606626908249385 9.9868844838649 6.46679126783385
