48
Energy = -446.11695236 eV
Mo 10.42075534374532 4.437874387844592 6.47230683301227
Mo 10.984268002942159 6.4744211135556995 4.788964187528807
Mo 10.011516600075712 6.2919494130351366 7.449032273499265
Mo 8.970541396846762 2.529845166226913 4.96136978065762
Mo 8.364491074178403 2.123061973638234 6.912343626674722
Mo 8.361191827660805 4.367661925378458 8.444887084966103
Mo 10.433948280590508 9.374051400011544 6.333180866623845
Mo 6.859980227437029 2.722020820271355 9.591819396258874
Mo 9.534258186542274 5.293695621476024 3.8160953897291496
Mo 7.842948219527087 4.7400113351436595 5.938192141427382
Mo 8.810859379695746 7.576292412577405 5.512745125203821
Mo 5.492638531949315 1.7111800666541932 7.897228003851272
Mo 6.256633129880796 2.5457189718612443 5.5875146743386335
Mo 8.406791555340897 8.670224143393716 8.069493653404352
Mo 7.478227909502435 6.232997858118503 1.447469610156484
Mo 6.85964923094016 6.557475368091928 4.132742245303165
Mo 6.964285738047282 3.757488627296683 3.4190772028777805
Mo 8.801769055767366 7.578358191002961 2.766264143230682
Mo 5.5368566595802555 4.294621990841838 7.789966704333032
Mo 8.810583807021905 10.347622845624649 5.951701743962666
Mo 4.574979372464028 2.0924498981738098 10.623958739634459
Mo 7.002224440329377 6.646417148183117 7.726546736722347
Mo 7.05891084558458 5.577636456569726 10.368511665692932
Mo 8.759136249072357 6.656028400098353 10.035275938372424
Mo 4.502212327925138 4.041308715110292 10.559115715923793
Mo 6.337173874143528 10.357465646399525 8.469075641087295
Mo 4.97577277344353 5.071346121788597 5.134842695210972
Mo 7.091561030451817 9.359638641982116 3.7192103731989308
Mo 3.2724943480445075 2.6259105526285142 8.411292015151842
Mo 6.638301496968664 8.465818234698029 9.929003125736816
Mo 4.7422767667357855 3.2553044683269037 3.3508849692779195
Mo 6.065124081851271 7.979611135665033 1.8514320614801105
Mo 6.343406687524667 8.87317340052252 6.279287505670085
Mo 4.533419320508008 7.832965569001214 4.290788834689411
Mo 4.858111482149478 6.791546530014473 9.46982604487927
Mo 5.065597100554893 5.543086594325838 2.4192858439224394
Mo 4.472458036631572 6.973631284864379 6.892751835191421
Mo 3.5522525814010404 3.236076102088972 6.050604305949232
Mo 5.934542874225726 11.251221680168628 5.5465765202112385
Mo 3.148781893589817 5.128423931227933 8.347506354340707
Mo 2.6527990353792776 5.858864060492812 3.3011504571784958
Mo 4.8946227165764915 10.375080569465597 3.7917434265456196
Mo 4.364975895145641 9.16059745138762 8.460259251067004
Mo 3.1379535906192997 7.4643474991715255 2.1865442474665837
Mo 3.8011185332456616 9.835244680427111 6.128426669758369
Mo 2.096342044924069 7.93168699342789 7.551854208741075
Mo 2.3977676361603253 5.51699717921848 6.034053072673392
Mo 2.131655181732804 8.10213797587075 5.400996693799538
