45
Energy = -415.80545995 eV
Mo 6.327296634579858 9.099200481642944 4.657082544155854
Mo 9.241271718187592 9.728771635797333 4.723605511131946
Mo 8.327414961508875 7.379611355940213 3.505854379171756
Mo 4.19236268856574 10.706441076974885 6.2145422314974645
Mo 6.685192726349203 10.551908483204578 6.816316410594765
Mo 3.903610564363555 9.173114308287943 3.775603876701109
Mo 6.067270251757231 7.306404211476706 2.8395748351453096
Mo 3.71882527406677 7.5876513146455 2.045001595021257
Mo 10.374819445910083 8.386769088972507 5.261317437884802
Mo 9.32333331508472 5.600368719661186 4.87457653593692
Mo 4.072718415001936 10.21409218993859 8.3149939885302
Mo 6.8004168650185 6.630813999008061 5.630401694461009
Mo 7.101561544180823 4.715930969332239 3.5470079642112324
Mo 8.119392859215706 8.523984204486018 6.913502115823961
Mo 5.278675339184499 8.233070947382819 7.095944368409815
Mo 2.6986441610212664 8.718216395831234 6.156965899038522
Mo 4.231814040880303 5.188894695423102 2.8178207082802618
Mo 4.214311420856462 6.933512328617737 4.826907084995866
Mo 1.507558102430505 7.341894455159672 3.945102144992037
Mo 6.506920633708862 9.29345452238467 9.044091643067233
Mo 1.4359135920450967 6.308219127543168 2.318854184049413
Mo 11.87541440136463 5.238024661905816 5.994948493394386
Mo 5.8682573119706545 3.0215751012850833 2.909088457190831
Mo 11.493403068676198 3.837777707066008 4.820810074504572
Mo 9.554665496537345 6.288222423650273 7.211415244493969
Mo 8.706323408782215 7.955004571107192 9.230219312603927
Mo 2.3342621464863718 4.772959060483272 4.253474806480962
Mo 8.574330305211282 2.931606242282718 4.832814461798699
Mo 2.445532976714633 5.80397435921121 6.530718047517931
Mo 4.812363547804909 4.289642778572185 5.200617474261649
Mo 4.742488701769897 5.6604356143924335 7.517699883707568
Mo 7.007192773535766 6.4422220881744074 8.7394451418108
Mo 7.388393662357806 4.332456634355241 6.65184943190567
Mo 2.8987566274129857 7.732950565681818 8.454678519552735
Mo 6.237867887569458 2.236425170566633 5.240373113747708
Mo 4.7689862470671684 7.410766670020973 9.75149683762782
Mo 9.902529522414165 3.476240457116128 6.9703293142934974
Mo 9.057657442930148 4.789733014339947 9.053525745636106
Mo 7.821028514995026 1.6060573024936275 7.467306269785456
Mo 7.1896038343733295 3.573285809489144 9.4111422491496
Mo 2.949707301677496 5.108197164336835 9.518596833804983
Mo 3.1334356140441932 3.43703381300334 6.829527080834811
Mo 4.694787823614953 4.709371273528592 10.167636142811558
Mo 5.212840386405328 3.079658273920077 7.836876667652207
Mo 9.133242474917289 1.8250734825817512 8.865381760189514
