44
Energy = -404.87681326 eV
Mo 9.431033203064606 5.650751886986093 7.755295686952909
Mo 8.833025065969062 3.458009645930623 9.728498387538258
Mo 7.961121305249865 7.78083478584399 7.806344712411356
Mo 7.45143439787083 5.762275631204561 9.390996501301975
Mo 6.718811795288726 10.095259095411038 7.955494449019261
Mo 6.3539208431390515 4.048758319740215 11.26191363533632
Mo 5.593208870929158 7.943171667790975 9.363841625146865
Mo 5.138688156535511 5.580232599175936 10.961921067581757
Mo 10.231293733200191 5.087477090091832 5.488057074733748
Mo 8.798233102351935 7.092191845807505 5.2853428461873975
Mo 8.464373861105209 9.843894777206264 5.718201488908539
Mo 5.602663436115056 10.644840585807433 5.522435581914969
Mo 9.085837766380767 3.0289284182025815 7.882647998627064
Mo 10.652253916696804 6.674865124027183 3.3483648481298474
Mo 9.367429187778932 9.452593001436483 4.107406844971129
Mo 7.409791479656781 4.999031773455948 6.501307767558156
Mo 6.378615680822768 3.3694070487206527 8.430582630620144
Mo 5.993058384387737 7.913625118062767 6.284108053687405
Mo 4.47599114976331 3.1817455895905744 9.75548796737375
Mo 5.10764725868762 5.617833679891802 8.117645824174051
Mo 3.4222529681192775 7.398441438553146 9.943680810631738
Mo 4.595925367544017 9.788018581645296 8.075292887460337
Mo 8.615956626745392 2.938547812128085 5.098463557163637
Mo 6.423881363353079 2.0830848618593842 6.3001700628138275
Mo 6.618920881905254 8.824323880776076 3.8584660491442175
Mo 8.663208808921752 7.462940489908475 2.4246239933466067
Mo 2.752269831418736 5.151748937594117 9.067145973455107
Mo 3.4668967013523906 7.467121982681116 7.407723777750708
Mo 4.053112193271722 9.513162336821567 5.1618486437745315
Mo 6.659473583642001 6.213131064308885 3.886958892980352
Mo 9.008685356005339 4.97539425844687 3.318299621908454
Mo 3.6028228439870325 3.5870618782509065 7.235917945419539
Mo 4.606330298894304 5.535390538959872 5.52301739489764
Mo 6.788278223844978 3.6439316220305464 3.9556096376616785
Mo 4.6881909362608765 2.7521501108868174 5.105968810433027
Mo 6.265322349082674 7.563843381898429 1.4285486478798228
Mo 4.364323644081222 7.373791411357233 3.3772873714170593
Mo 6.755606763926033 5.419705115876824 1.355534433146802
Mo 1.4059832125154255 5.724156626871417 7.127938093598627
Mo 2.417107832586699 7.048235588278818 5.206527739456597
Mo 4.428477589718818 4.588507301586357 2.8348136638300914
Mo 2.338279466339037 4.327998071613663 5.281231336141293
Mo 4.310218032225227 5.717450351463914 1.002300149591746
Mo 2.342696044284584 5.890149376310792 3.145975213135411
