44
Energy = -406.85010499 eV
Mo 1.4300663907323226 7.025924431331922 0.6542751213681144
Mo 3.06359926755301 4.217585830678911 0.3495619801348843
Mo 5.758243428485114 7.651431923244391 1.3227878893518905
Mo 2.750641459262846 1.301162548992223 1.1970096412176352
Mo 0.7828412624098187 8.650496951990897 1.415464357539125
Mo 6.683315201029359 2.427222926969496 1.317476135826855
Mo 1.4044407702950437 3.8056196103136206 1.6992561352308237
Mo 5.938498307703164 5.047919162039604 1.8803572640713075
Mo 2.9723984525893408 8.348589737876596 2.8107912200467524
Mo 3.383265879419861 5.938500083977429 2.2900342007437957
Mo 7.465664925346953 7.102178665099468 2.007273388661704
Mo 8.099971897934461 3.667571487828441 1.9990431625739373
Mo 0.8847208575925661 6.363973676748593 3.1115941519111145
Mo 4.129436444396962 3.1875184062145956 2.3269295233222533
Mo 4.860561793711765 0.5997363545898581 2.871227479583896
Mo 2.1323001305041034 1.4050182463132141 3.2424287886183145
Mo 0.16343899449334615 2.8331165094744497 4.79657706480214
Mo 7.519705843379265 0.6138005492762332 3.5913560559541655
Mo 5.4620657586164105 7.376208429657536 3.9651065928691587
Mo 7.42628043911886 5.21384793083125 4.309692330616139
Mo 2.1117583053807993 4.153755388036981 4.143817011770576
Mo 0.8901843790338855 8.298166481216438 4.25593929444727
Mo 6.551391568151172 8.890170640675265 4.689878416675418
Mo 4.053895527122082 2.2282594760513206 5.150274127134068
Mo 4.005969878089955 8.890170640675267 5.135250852113954
Mo 8.7455516381027 0.9443231013313658 6.335767519808389
Mo 6.373083284130545 2.8867791405939225 3.9498996923703333
Mo 4.746451211259561 4.992612028776912 4.44927208918158
Mo 8.511450442782163 2.6580039934949924 5.732770887353076
Mo 7.66187122654878 7.4785643412513325 5.567832187274873
Mo 1.5512787627224969 1.9946922412626236 6.030729597486146
Mo 6.1028901823289505 1.1671046672259497 6.08691778414186
Mo 2.8296567772996783 6.879825236652057 5.19522885808345
Mo 6.005665953320485 4.075895577819164 6.545478270180344
Mo 3.937166622988818 9.531162656922872 4.746763073862542
Mo 3.1332902608224393 4.38684113824867 6.7258008349951535
Mo 0.5165981072087458 5.54002293936314 5.990381164566597
Mo 4.455041018183081 2.3156960549938033 8.06141199503892
Mo 6.484161142235931 2.3849132717488293 8.34339738242853
Mo 5.152017453661876 6.6900406045923475 6.66871947744858
Mo 7.692314795110553 6.123193826581005 6.979327331198085
Mo 0.6182802303158041 4.299283033957547 7.513759116830012
Mo 4.722679355523166 5.196474325436803 8.495644402140652
Mo 2.5466007884734574 6.435487769480592 7.7582025643995065
