46
Energy = -427.80481588 eV
Mo 5.893498231397128 2.539121600232145 3.569681737796703
Mo 5.166295945641671 2.325298751857681 6.365904659672327
Mo 7.63294615539938 2.311474689434182 5.598495840784999
Mo 3.1640751803419365 2.535620638804829 4.217182568107893
Mo 8.545395746247634 3.6400649428799188 3.0370374973464713
Mo 6.731379358100521 2.3467977746677526 8.413814996993791
Mo 5.0188708768566554 3.716338999229977 2.2793508900619224
Mo 3.672284137208797 2.270758226121077 8.49064890937784
Mo 9.270277243723102 4.250607383967852 4.836952479788448
Mo 2.57184509081476 3.184624106766141 6.68117873852084
Mo 8.752159372078639 2.768551653016791 7.71281908654899
Mo 7.067253619359948 4.551738904197092 6.5240320521168655
Mo 2.308537827882777 4.520878630524053 2.97668696876925
Mo 4.302639934947896 4.55056548981049 5.028028963763934
Mo 6.720011354253182 5.252867665055084 3.874080011337947
Mo 1.4164646074592802 4.740172310983966 4.822242720565817
Mo 3.011079280886329 4.516518293492031 9.322883498147075
Mo 9.081734119898583 6.544582044690924 3.0420987156985797
Mo 6.786090855457734 6.549819338658682 1.8761882962118979
Mo 5.280877578761446 3.782697742275778 10.651253884198127
Mo 7.678208744320277 4.78468442185917 9.379747287867541
Mo 4.99739300672843 4.579889582031443 8.037540579671267
Mo 9.413254443055513 5.574398232714441 7.530161463121354
Mo 5.5310126187089805 5.784746747309577 10.484573810944426
Mo 4.343703308288459 6.444166307577153 2.4396394319544235
Mo 10.7865942500062 6.756223524952781 5.288778982731199
Mo 8.012988764202722 6.947222008920069 5.439890018655156
Mo 5.041700905587641 6.779671137163664 6.178850859100217
Mo 8.128551988552259 8.665048002253588 3.1725709168079304
Mo 5.477525047440758 9.028897890169723 1.601137230919608
Mo 2.6188017501758725 5.783343940448382 7.070524020891701
Mo 8.409514851964346 7.026315754281808 9.90410385086585
Mo 6.84209396184693 6.925847233425199 8.05875577541204
Mo 10.28378403472422 8.579975006541725 4.865890064513479
Mo 5.841729849199401 7.950343775896938 4.100460547554258
Mo 9.273888647872926 7.904281846807547 7.495454203232059
Mo 4.065666077564552 7.343001706148275 8.707890013994751
Mo 3.0646909108872555 6.9585648900546095 4.54139147431988
Mo 3.8041417586863795 9.084916813342016 2.507236426977918
Mo 6.271171422851996 8.713388982186348 10.022096143327742
Mo 7.590606560757783 9.593953826885487 5.763344496673224
Mo 5.990999447736912 10.389231724933182 4.521488308266644
Mo 2.5428785207545133 8.299295209456348 7.050414387828774
Mo 7.492633425993306 9.638506235917298 8.76088012501972
Mo 5.3501241710520855 9.090146537470819 7.180041321337602
Mo 3.6627214328793145 9.394635263354393 5.364679487531246
