54
Energy = -505.03060718 eV
Mo 9.797561645528988 6.085676146378932 9.245729250181276
Mo 10.993549518583272 4.327678903429228 7.349445018538283
Mo 10.333980244145316 4.333126880781104 4.993096286188513
Mo 11.110418673263045 7.042132904933464 6.687553223546902
Mo 10.916750236400711 8.562761458867994 7.972288709697514
Mo 8.104127938617813 7.535665479702808 10.126777906287561
Mo 9.225584326657017 2.952307582249576 8.498861053216634
Mo 6.204118187789866 9.362255535677688 10.791383237041488
Mo 8.348550093869376 9.876921944832793 8.85611655749904
Mo 9.368569580467142 9.28176971143862 5.848670146186677
Mo 9.266117110595035 6.890863515984099 4.694433205429773
Mo 7.767978046515588 4.6979796189917025 9.525139760594925
Mo 9.250329080667273 4.79334141308102 2.4740921674276817
Mo 8.710710902654036 5.24811880283604 6.990531746717771
Mo 9.039969730471523 2.5336001545870954 5.930346996972689
Mo 7.207709388984793 10.238279962131385 6.691664874432522
Mo 8.910497551971098 2.9022089575309926 3.0419235853951494
Mo 8.731640540486891 9.293394144946676 3.079895303620665
Mo 7.500631285927824 4.729062730623302 4.7157274673908125
Mo 8.41866123466012 7.686364718365338 7.525950561876737
Mo 5.940156466373292 8.347026468849775 8.246151285909008
Mo 3.9801867242812317 9.159823419308188 9.790232064256465
Mo 5.915247754011075 6.3847528901563875 10.165122357419369
Mo 7.773471553391821 0.7591627603910595 8.393016402298409
Mo 6.252601055010156 10.988153143286457 9.369739163715954
Mo 7.633944950289959 10.60066075568008 3.9881878021248656
Mo 6.03050669993257 5.756381237724444 7.242464360513044
Mo 6.886034229408461 3.15045916022039 7.230394025727281
Mo 6.848112066849691 7.722865579728145 5.370419251644131
Mo 6.8223571022632346 1.858194137476904 9.66320041179377
Mo 6.5394203981854755 2.3957773306827446 4.351846537456214
Mo 6.51082109081814 4.328709800291361 2.375398205281269
Mo 5.145117969359624 4.036549697021222 9.07227251118006
Mo 5.9794413427893565 8.550995726058948 3.1117879683019996
Mo 5.0519569530362425 9.831704853030281 5.155423661355628
Mo 4.314584077396038 10.19221197035236 7.411075531794063
Mo 5.133544042404074 6.023843638808405 4.206483396848526
Mo 7.583340108040953 6.838587099407965 2.684265606780418
Mo 5.6814360917839455 0.9994692448014082 6.422905646084124
Mo 3.723785473008247 6.835837775017308 8.974306545515773
Mo 4.336814658700249 2.0189833271818483 7.646994709441546
Mo 4.02160915954855 7.578482960012768 6.36135482315062
Mo 3.393064946378219 8.01415654887292 3.732956720132043
Mo 4.2945899861706325 3.7739791079497724 2.920396568208311
Mo 4.854451533711783 3.5821808554095735 5.5534219781715475
Mo 4.840700700136705 6.327210652408971 1.6100075686001354
Mo 3.4866407690490706 4.853236357723734 7.436491219251909
Mo 2.3480059285735955 9.620359898811836 5.274170350298691
Mo 2.2806355003385126 8.717965533942849 7.735459873661391
Mo 2.6891528724066296 5.485137086776806 4.963768513458458
Mo 2.931514753373433 5.744609117507399 2.2904067597792492
Mo 1.4722296124359586 6.364098587895303 6.906171662376214
Mo 0.9496004253427547 7.3517460447149405 4.261767318257479
Mo 0.2642565812352823 8.372661294608074 5.93137589841315
