52
Energy = -483.56872255 eV
Mo 12.061802302142693 6.125326786488741 8.275756831733048
Mo 10.068867234588204 7.555938773011629 8.211201717436037
Mo 10.036396008190211 5.177952843664565 9.311133210258214
Mo 11.27473137952901 6.485020903079426 5.962118371879309
Mo 11.291447181400684 4.30009421408605 6.777646061582624
Mo 7.860739036580874 9.069553788909023 8.4636937115819
Mo 7.7061010816072075 4.212039490544722 10.104803714509154
Mo 7.516769607468015 6.570366360880117 9.119689458673486
Mo 9.197252714560998 8.413093680583051 5.985321177431822
Mo 8.847979422076028 5.6723432062101145 6.811676456076392
Mo 9.141609604045374 3.4629063449998956 7.888048043267318
Mo 5.690791655354489 10.085282504578762 8.372684178027164
Mo 5.282148841123821 7.7602860044410935 8.596107270606852
Mo 9.392951248175196 6.251174796015678 4.147540287606458
Mo 5.5670398696953605 3.597333614234913 11.133264395096772
Mo 5.264023340169844 5.606926293198834 10.425716583510908
Mo 7.237499577749393 10.167042678953024 6.144277540701207
Mo 9.32373018127559 3.7608105686921256 4.871706458742626
Mo 6.482774871075431 2.551153296414087 8.634299382343338
Mo 6.837753839247596 7.3636402962668726 6.382953395709873
Mo 6.173764514715107 4.83685527592969 7.594217909737071
Mo 8.796523232220963 4.231358695524225 2.535391297162168
Mo 7.78314614835664 8.278898117285658 3.9459577887741735
Mo 7.258509183396653 2.6902382540094028 6.100217820467654
Mo 5.024878366816179 11.884435033345396 6.288624126067075
Mo 7.0207938489462505 5.305332546598748 4.7126669700301544
Mo 7.069199513270984 5.9944880254258495 2.295360274898979
Mo 4.829126624340601 1.3536503743066493 6.789604540687487
Mo 5.26262810486749 7.469034048133339 3.9080890911505897
Mo 6.852817044771353 3.1631078490999585 3.339555451306611
Mo 4.900917820897675 9.006126164762588 6.10373154926688
Mo 4.2073749565563965 3.347227118846849 9.071359091535276
Mo 5.828516441817598 10.114741002787362 3.890110924774286
Mo 5.608353908108853 0.9568425350786931 4.940516456697873
Mo 3.417834501794343 11.119280723860415 7.045486723231245
Mo 4.961890459759454 3.55560794221515 5.212206256231594
Mo 4.199344888897188 6.006787963654056 5.925785181124431
Mo 3.530556014512004 5.6991565705887 8.381716657962244
Mo 6.277456384705796 8.566403865348308 1.4655072961113595
Mo 2.837849621315842 3.472166838900373 6.641315135260952
Mo 3.333439765855001 10.451373525102802 4.415823603047885
Mo 2.8941067568148644 8.1375746880615 7.5843692949895685
Mo 4.8899115876450585 7.234538330940681 1.0556607882257152
Mo 3.675558715580689 9.107399451122035 2.589417894724901
Mo 4.804398760369529 4.903851539215861 2.800678798158767
Mo 2.816942853952165 1.6856354081419154 4.557809923045491
Mo 2.5217682433568185 8.199990872989941 5.147308330354823
Mo 2.877352749306702 6.659696920340466 3.2104877857451264
Mo 3.8534264293297986 2.2666585187959076 3.04579658444469
Mo 1.339703054595249 4.58363683578941 8.158169385652279
Mo 1.538814191018154 5.983464783681032 6.393645216962537
Mo 2.5443341376724047 4.535707058422362 4.316522667606746
