55
Energy = -512.47158265 eV
Mo 4.071663797096285 5.264290459670513 6.715443208735954
Mo 7.82424795303743 10.783944669600626 8.52974252942761
Mo 10.934215239937592 10.841748822846524 6.27614113320913
Mo 5.911479202134768 9.010760810718299 9.698672693733362
Mo 8.597472775987 10.994751431794446 5.8557894545895195
Mo 4.486413815828039 10.789731394997661 8.362590699800231
Mo 12.55798595303805 7.994351885609056 4.480286911243782
Mo 8.48687984347815 5.0253590899145655 8.534703871558643
Mo 6.557507946560872 7.27098414180377 11.873865701751303
Mo 11.251163080198465 6.091974422059228 3.727029204212412
Mo 7.903278354146615 4.145954312322257 6.303045825293995
Mo 4.109934092740502 7.3288313851765645 11.499790446646026
Mo 4.892058534232906 7.486095170278453 5.1885483807894985
Mo 10.425149209590518 3.5891447509115917 4.728159384449681
Mo 7.111011509375214 3.794280092524269 10.372207660974642
Mo 6.810429937386059 6.560439202972454 6.805721858002007
Mo 10.963368335492152 7.951282637856042 11.035689891680764
Mo 4.07154965059182 7.854699803150624 7.866862397666199
Mo 5.85235727212316 4.146995460020225 8.120710197343772
Mo 3.5827695942794135 6.127036465725506 9.365238950842727
Mo 8.698051710708613 6.126227796562624 10.892885475917465
Mo 10.368843334578573 8.683423662569162 4.455708540858961
Mo 5.303592301947915 4.73979427499175 11.44588692553936
Mo 5.978833817829859 11.002141427580895 4.713064276928357
Mo 5.606505533895853 8.7037497549433 3.366347446657888
Mo 8.26334185690321 7.923720269389396 9.017479799786017
Mo 9.139523462338238 8.657338339949744 6.788062170499396
Mo 8.951016642268657 4.185947387306511 3.711650666792998
Mo 10.716773403225798 4.332873705885193 7.427615576313322
Mo 7.265719847970316 5.030991491864362 12.679980883326346
Mo 11.150338254332047 5.706851189567982 10.751753694469983
Mo 6.02115708988983 6.285221128161345 9.47421159479715
Mo 3.4752174037809627 9.15127741925742 10.043325060192213
Mo 12.723392445145047 7.828294786916515 9.425348998176188
Mo 10.582698860717974 6.6009259438712204 8.50387222710066
Mo 12.054439292495205 5.688439388997982 6.121996083557794
Mo 11.848810467945528 8.193944227155528 6.876049283279728
Mo 10.094188150484955 11.905408813479548 8.157708354503274
Mo 7.559946109086445 8.628140342321782 4.5919248629605445
Mo 8.440759702621492 9.427795887522 11.21035370959036
Mo 9.466200870938662 11.187842208699468 10.899682595554566
Mo 10.413591893903805 9.620048289328176 8.91584838114033
Mo 7.079714946439716 6.168210774464394 4.134839697487453
Mo 9.470923306738515 6.2257912852673885 5.756461821259204
Mo 5.328995008740118 4.55769606626111 5.324903680859334
Mo 12.780871241291516 10.190054166223767 10.219983235529263
Mo 6.58314147947892 11.447439381694805 10.711199895871538
Mo 5.406744877758424 9.856876095486964 11.974687230219965
Mo 3.7469452146415225 11.76051402927059 10.918404967082944
Mo 4.7093856285606535 12.942222607147665 9.648872985168815
Mo 9.052206837849536 7.071786723057214 3.010188166272917
Mo 6.38550416430356 9.222401660973183 6.920236404675294
Mo 4.255113947855278 9.960428968057322 5.786874788389436
Mo 12.913229771251984 10.395517409676048 8.257075770046661
Mo 6.160597382978751 11.935259044300937 6.922526705398144
