50
Energy = -466.10496157 eV
Mo 10.821026935670181 4.763151450486958 7.717572222373102
Mo 11.261489060576602 7.413571636523245 7.322690142108838
Mo 9.867499240959008 5.7204218991741325 9.311882413567806
Mo 10.973994882425403 5.399861627350315 4.878527435240604
Mo 8.690079080161622 3.551794290557195 6.141897576265386
Mo 8.23493050994752 4.047604896122192 8.529417954568963
Mo 7.016516978996787 5.230658583304723 10.613397078935915
Mo 8.984286278839276 6.3850727863502446 6.62816809638989
Mo 6.314511563421426 2.3635239823680343 9.976642635790501
Mo 6.600043928784666 8.20940805099567 10.7291893721256
Mo 6.540587843507996 2.7357889292007926 6.820723241426879
Mo 9.761484694512378 8.35732396969598 8.519292071263989
Mo 8.494726409093305 5.14611930567211 4.023577521312793
Mo 10.499193832733006 7.325991420182868 4.600755718831215
Mo 6.361931174836417 3.4091171818303025 4.356829524213533
Mo 7.339614135331801 6.9343611078493375 8.767996500512151
Mo 5.602772595485473 4.673816932284269 8.662544420646737
Mo 4.925568605948263 3.2939263188800507 10.848173014150527
Mo 4.983202335330331 6.744796164635052 10.550931838217444
Mo 6.679374097841212 5.481053507808152 6.296267478188325
Mo 8.991648861605276 9.182224730636062 6.357083223358907
Mo 3.8916318538485024 2.44088959133344 8.075413481204402
Mo 8.194840877389092 6.382483185626809 2.090669394713253
Mo 7.41524097704896 10.250260725322498 7.870292948393173
Mo 5.350575829225581 8.944540854271509 8.659683822446105
Mo 4.2555295622337335 6.732289510400534 8.04385783015758
Mo 4.34695708575225 4.481816899877212 6.194194653543553
Mo 2.8919501087290866 4.045291179667907 8.498098844878474
Mo 7.848436756590267 7.851135656597453 4.228862488562345
Mo 4.089548434351827 2.2329155275154395 4.926410571037535
Mo 5.6496882547983 10.841624047705753 6.524278330769503
Mo 4.67012663970358 2.169376234222637 2.184861349558365
Mo 6.45055007218765 4.5397265298410545 2.0879844214420866
Mo 6.282364239742033 8.095982918332929 6.424913948532496
Mo 7.097584137490674 10.287372574825817 4.880731234711263
Mo 3.972673784679398 6.832419084711973 5.382430944789452
Mo 5.877978851508955 6.336445249002324 3.782182687367334
Mo 2.1586713335931287 3.486008756471993 5.4725892614433675
Mo 3.155495681400487 9.14939437107993 6.696426874733051
Mo 3.905571272834123 4.586885686787585 3.4887453947364184
Mo 2.0134114101808556 6.136210256109248 6.56733279846191
Mo 1.746408839562975 3.1813051350485035 2.780667345180946
Mo 6.190963197085333 8.513949144098676 2.242314657440248
Mo 4.983451930914183 9.094238458933646 4.061236457900994
Mo 4.108777006478371 3.444121284995131 0.9271199757306008
Mo 4.757716857253018 6.4091750619683605 1.3307049690651351
Mo 1.6131422365892578 5.730012136711904 4.180024551676753
Mo 3.364890486121395 7.313393301898296 2.766558131894403
Mo 2.161078316771071 8.837488963224287 5.157622784581099
Mo 1.8606081984956901 4.934543318052446 1.7531191352865203
