52
Energy = -484.23855244 eV
Mo 3.7690627291594336 4.501216759281377 10.213953626097783
Mo 7.024205790160392 5.396389718475786 9.947957308205526
Mo 4.381721289369477 7.751812236190346 10.232944363502567
Mo 1.8259762419723615 5.137585428411938 8.844642926441209
Mo 7.851321130146421 2.314327732244605 9.78625312538535
Mo 5.1871536483037275 3.246190512008191 8.916760299295424
Mo 2.263015728767002 7.564741274325457 8.967529880396937
Mo 3.2700411346289506 3.5226789366804527 7.524531951041883
Mo 6.889485702764348 8.155341448344242 8.799752728733703
Mo 8.764863056463076 5.662745978634577 9.333053810450075
Mo 4.671724555741398 6.1360170719083404 8.515639211234397
Mo 0.12443556981092313 6.983670498751204 7.324465500376288
Mo 0.3077551564888557 5.1301816430035645 6.603297170239941
Mo 7.166175345658285 1.1560225347586064 8.377906143338762
Mo 4.680511094433561 9.102462598282468 8.313317809561305
Mo 7.388291018461063 3.838895815027824 7.530218896343073
Mo 9.538242712153393 2.8714183832337286 7.796541452827934
Mo 5.626572841294018 2.309069308542084 5.985840932379788
Mo 2.731695774340066 6.152888343119921 6.578529354701852
Mo 5.120015041825912 4.707033693326092 6.178985214606689
Mo 2.5033655929617877 8.764463342118372 6.792175667679102
Mo 2.890721903300823 3.693302552485802 4.624722871535219
Mo 9.562020342070522 8.091151118085802 7.621913205609037
Mo 7.234865142288784 6.393982679254566 7.06484931692757
Mo 1.2991480805390776 7.377660438892419 4.79079927292443
Mo 8.33040522734906 1.8087716175716964 5.8555208803226755
Mo 9.767961789256933 5.30385664075885 6.63662884207388
Mo 10.47900027235511 3.0647241216111905 5.050746420155754
Mo 7.945589930735485 4.2544289035220855 5.017618472508008
Mo 1.4752140005814363 4.8887024528344005 3.941649703268156
Mo 6.852961056805034 2.00656986753339 3.8136426532969723
Mo 4.888518253553592 7.7081006590578856 6.182164724510309
Mo 5.408775203313166 3.9028962075688756 3.5163174656150686
Mo 3.85698573937714 6.385737869206508 4.069796561299597
Mo 9.603403259250712 2.745877649980672 3.306794225759615
Mo 11.157438497332501 6.94520696393549 5.177877604224346
Mo 1.9944658675924745 7.402491456198202 2.2126120882097746
Mo 7.131133102721707 9.149539984689264 6.425810089413811
Mo 6.464029074276986 6.257131881543543 4.351409087261617
Mo 8.623166489218404 7.3287170498310985 5.049142528944456
Mo 3.291909400052344 8.990392265199835 4.39659237211861
Mo 9.95701950481095 5.599716868578829 3.722089608004886
Mo 5.212450713231314 10.269948785165488 5.316898361495385
Mo 9.95879895913152 9.36124095378239 6.16318882981948
Mo 7.564265596895062 4.552986551967588 2.379935231712734
Mo 3.425341440259067 5.188933559906842 1.9932990987491779
Mo 6.087265947225895 8.661623180280504 3.6269934269297557
Mo 3.8853786677206275 8.1609074374928 1.873375184175838
Mo 10.02007365472007 8.540919333466341 3.041440603087562
Mo 5.7042849892965615 6.192064842441979 1.791747835350231
Mo 8.444892167744007 9.799709656843303 3.8602032404046662
Mo 8.065486121106696 7.30434236935041 2.3719290924295984
