50
Energy = -465.90413244 eV
Mo 5.988907614752714 3.3572823413133137 3.720506343397363
Mo 4.9604323833086506 4.557656516216031 1.9368429716604083
Mo 7.273191567235218 4.978973783599619 1.6592149470069513
Mo 4.757643568020422 2.1561252960739283 6.260441447759002
Mo 1.5288403425965227 4.650609165983241 3.3748997580705784
Mo 7.335723930713258 2.4085615081901572 5.861397417804428
Mo 3.4451281991735834 3.202672247699029 4.471208754959118
Mo 2.7813212569429364 6.300395686057981 1.7828146205339304
Mo 8.515413174318615 4.125024542439787 4.222984165175652
Mo 10.20828316067393 2.912413143037747 6.171487507319124
Mo 5.097476277887091 7.2614347838993165 1.8927826455636538
Mo 6.701357236343718 6.252860949473811 3.6981799442812133
Mo 5.996027850916622 4.798475539430558 5.967258341196256
Mo 9.229921586336944 6.10059053335055 3.103305116913188
Mo 4.118731337338727 5.565728726511836 4.163325787299769
Mo 6.072123345535412 2.9867096158457787 8.24557880749948
Mo 2.2451372746125853 7.383991969319179 3.826523248355248
Mo 7.605610381773377 7.926418817198654 1.6146508382265912
Mo 8.305272351574537 2.0258327501510576 8.077069501514739
Mo 3.664458365248372 4.3223297050273075 6.848829110357157
Mo 10.720058329120434 4.753975853532554 5.514607534913898
Mo 1.5533875628659581 5.34031754093996 5.314380406168773
Mo 8.339639862254552 4.6461216456821335 7.139449624442875
Mo 3.347380541384097 9.420192963050285 2.483554181274509
Mo 10.47629983952206 4.35706800167671 8.484733708084732
Mo 8.772585790859083 6.712499180838332 5.556971507505605
Mo 7.886220557989174 8.62550791670574 4.13370609582755
Mo 4.972422795547718 8.281099953450079 4.424840517900811
Mo 8.066376066538673 4.192356459567615 9.572345122652962
Mo 6.349284285805932 9.570440431817552 2.4284992285244487
Mo 3.737430810308759 7.0394272512493306 6.4917410669626525
Mo 5.568537966431052 5.544177337285506 8.579353388559394
Mo 2.7751850063135723 9.224281570303523 5.3727025426254205
Mo 3.7924232554511335 3.5174125247231665 9.689699195563673
Mo 2.8091187857319535 6.176495907803499 9.026695021664132
Mo 6.4897464162494325 7.562236402031471 6.480916262498065
Mo 9.868153407845798 6.405857514603869 10.416779800736911
Mo 4.24337813908669 10.765646059902855 3.6954028652793003
Mo 5.299042266594233 3.749414668629375 10.81070137099632
Mo 10.325405883842407 6.569014379032388 7.8107931736204455
Mo 7.837282168177153 6.8563498769945 8.601728273238981
Mo 6.543011863184057 10.316177173961037 5.580471114597473
Mo 8.83715903781472 9.080879299447316 7.227129816709773
Mo 4.8409270332923455 9.959907990805029 6.727468081652039
Mo 4.914347601762322 8.008065054796262 8.55968677631469
Mo 7.005741383405244 6.134472452726274 11.229858140030023
Mo 3.90337834443772 6.371369672340879 10.612014790407976
Mo 7.320585075772888 9.637489021229145 8.342691999136838
Mo 9.362124801523974 8.253270046317187 10.241600182323925
Mo 6.437539158568076 7.942722722710645 10.778824145452063
