50
Energy = -464.46045164 eV
Mo 9.869373135214875 6.016210311585664 2.771622469111439
Mo 10.833457357579869 5.952608526213838 7.5983744476144315
Mo 9.982899350196618 7.0380207520640505 5.637181831022541
Mo 10.79051498172219 4.402402911775122 10.053031572055305
Mo 8.958462528363631 8.18828312437699 3.260284035125903
Mo 9.557796748595514 4.672936758704823 5.251260815482813
Mo 8.69702715177215 8.027378470946282 7.856819063593749
Mo 10.560224917039154 3.6932870578021073 7.493617841562512
Mo 8.056090217472368 6.112081656211055 1.5794167138181627
Mo 8.140793134721106 9.260207758096792 5.6864598746314945
Mo 7.89625261649792 4.044184025690575 3.187184158718846
Mo 9.1802054579913 6.665061574872937 9.715277999227265
Mo 7.730944634767954 1.8304415146981279 4.856772712471278
Mo 7.519690962338932 10.497895631083612 3.4437899594642953
Mo 7.5747403384445215 6.54507084298661 4.500051583056522
Mo 8.17495471049547 5.251825603861472 7.3571707513175895
Mo 7.486126315833038 8.926623965231649 10.354682065710827
Mo 8.963518702863253 3.9635728070129357 10.003733679038552
Mo 6.737283498108345 6.170875201727141 9.355309652744054
Mo 6.582431178955507 8.14850660138881 2.3390373632707715
Mo 7.037201549279417 9.894880553511385 8.420137892559076
Mo 6.3680052462099095 7.462399340897199 7.079351686931567
Mo 6.616856975905536 4.13511580754191 5.438245165689404
Mo 5.961862088870888 11.891521509915666 3.794003058804322
Mo 8.184814330615485 2.7820747527357828 7.387177256917478
Mo 6.359445109474515 3.522575752971554 9.275786652775109
Mo 4.667891388382605 10.06107396093806 2.4528077084396203
Mo 5.704707629399493 8.69919136926387 4.686956104446137
Mo 5.7938415488327975 3.0762355741670793 2.8975399550166885
Mo 6.235545231135861 10.90548615556566 5.968560307713114
Mo 5.5325398648867745 5.6586343938302015 2.884336591226336
Mo 5.297005822225458 8.100400537034018 9.80476806405012
Mo 4.744872278095001 6.277084528244598 5.301730139197818
Mo 4.272988587075104 5.399657408435544 10.516804973705492
Mo 5.788878385145731 2.2414198355726063 7.057648251156561
Mo 4.9052131980161136 4.793931948544625 7.598111352854325
Mo 4.667813111764939 9.231379705164194 7.2947050479984
Mo 5.607542747099913 1.3943549839402427 4.7425678825188875
Mo 3.523354131402419 7.092506532947378 8.0155001033709
Mo 3.7399165869055238 7.630909696324711 2.8124452539514446
Mo 3.69309875350987 10.183036161603283 4.415945220162498
Mo 4.144314631547875 3.911758607117074 4.693314999874421
Mo 3.83489168096601 2.632477962153486 9.100373272281237
Mo 2.686100701006605 5.846787482141299 3.450373878931955
Mo 3.055535495151314 7.011193856144258 10.683333144051648
Mo 3.1667428333435996 2.6391981458235323 7.179606453954244
Mo 2.8300315333415966 7.837780298408068 5.342900972804075
Mo 2.474774328053343 4.914936286180762 8.730721249206765
Mo 2.272832667877014 5.170649744961191 6.1632788386582655
Mo 1.2493862694839846 6.917521947046069 7.159787022249351
