55
Energy = -513.78219802 eV
Mo 6.329507929860109 10.576385866026675 10.065080494331465
Mo 7.416123179617471 10.71505218593639 7.935217017955501
Mo 8.268660351958543 9.818830922204123 10.5739475894066
Mo 8.173999036510484 7.230556364587114 11.24926264713889
Mo 5.564701987333612 8.187250982292007 10.71717389374786
Mo 9.648632669839118 9.417683348314787 8.168276150522185
Mo 9.895328717542972 7.39048504712913 9.959554660702063
Mo 3.6373547320595123 9.295478009967445 9.793048617227928
Mo 4.97211035347774 9.756006169335098 7.616129977756035
Mo 6.2566682584178395 11.088853434708687 5.222312697815166
Mo 6.720750110469956 8.63093155204294 6.101760962342583
Mo 8.992973289847374 10.248831557975238 5.812611440444834
Mo 6.358737684813475 5.756968646685699 9.867486244819643
Mo 11.833167555461847 7.9235363703810995 7.4572976476775485
Mo 7.419318758186324 8.118219524454162 8.752626267402077
Mo 2.7024933712811503 8.720350750643563 6.916273173680463
Mo 1.999023403686833 7.610049974681362 9.250789190648883
Mo 8.72174550221161 5.497375155477612 9.009044182230047
Mo 3.4827077226095735 6.607526363322328 10.562786994524958
Mo 10.647038719923161 9.055215501293876 5.243891560143198
Mo 9.171533940851878 7.272277862600625 6.576799795715165
Mo 4.438240165662693 10.330385711749788 5.15474121123571
Mo 10.718394784254842 5.487245009983258 7.5710203383628665
Mo 8.056394458263783 8.760334782232402 3.928513821059233
Mo 4.481568416442585 7.175767668314247 8.152776969502815
Mo 4.785556183253677 7.267102989452214 5.079357692992439
Mo 5.633698835694692 8.935405481840156 3.2206424248769885
Mo 2.754066620756158 8.072618098494058 4.078557819094304
Mo 4.077509273970565 4.33065325832364 9.186160029514557
Mo 2.425948148992886 4.984705060399541 8.334038143725385
Mo 2.312422281007596 6.564932413514115 6.094298590335337
Mo 6.653539821100111 5.829526215310141 7.28153059100735
Mo 7.324051370188012 6.031242775545527 4.850199143855839
Mo 4.482810988409474 4.928167712002022 6.3886910640163315
Mo 11.948456907314085 6.790627685148461 5.7637943069889745
Mo 9.756488127180667 6.805982306013693 3.626378469639849
Mo 9.999673336128916 4.9731854390836805 4.408632236795997
Mo 4.299978728703614 2.4535443425797827 7.0527475023081125
Mo 8.802076994263064 4.245429959446154 6.584376469647096
Mo 6.57695506044533 3.3472429656294427 8.167873507113695
Mo 1.9298116052673626 5.312567128080554 3.602092801383809
Mo 6.5348712033723855 6.977814672854465 2.596788177137548
Mo 3.843779417477211 6.680284539370164 2.413847323315309
Mo 4.918880649102261 4.872052357049117 3.7853116841550825
Mo 2.3970294711774267 3.95525853004009 4.937984892558688
Mo 6.504046789262879 3.364372939664582 5.412172613656774
Mo 7.72335907422286 4.333912775473591 2.960229960213408
Mo 8.157725903992768 1.8516111724374986 7.084972238282945
Mo 5.978074664335737 0.8638132188271508 6.828621067686746
Mo 8.550206053645299 2.433796635731932 4.368052669129259
Mo 5.143755124682587 4.439088768102844 1.1644926009175554
Mo 3.561767189319039 3.559896196699826 1.9640108606990785
Mo 4.470547706344172 2.111518818853481 4.542217096335916
Mo 6.2293749123323945 2.468019845840808 2.5757692903543536
Mo 6.62517279895442 0.852837277333252 4.296545527349391
