52
Energy = -484.65567687 eV
Mo 6.404031382979797 4.614555681786194 0.37416639802016605
Mo 8.83807290969118 4.7834604669134455 1.7772975048768294
Mo 7.464463968814257 7.132784511624695 1.6466927591448086
Mo 6.834647803422272 3.019010364114854 1.5415796105230866
Mo 10.87327194217519 5.515180148914264 3.874364050921461
Mo 11.000708975320217 7.494697248662251 5.255767983556718
Mo 4.441125302566343 6.815567382066928 1.8566001808396748
Mo 8.597664451143986 6.529703560813471 3.939082371411194
Mo 4.145193491923388 4.207935278459177 1.4907524517927333
Mo 11.01585581943893 3.7275513830930542 5.582153757486128
Mo 6.235442307453432 5.128739351945099 3.0849598368602256
Mo 8.786456945874145 3.7420357460527245 3.7963488942382924
Mo 11.751961053259182 5.981379365902741 6.7214398927261145
Mo 6.582357067811977 2.49517429555887 4.460963098161811
Mo 4.41678086220203 2.891189519719671 3.2152617686633427
Mo 6.459075867621005 8.188024337339023 3.099826504758082
Mo 8.392741562723007 8.286865443459792 5.654872074805781
Mo 9.312590893714534 5.410951034716932 6.302783342432931
Mo 8.569346516045375 2.571523507618846 6.303208996045694
Mo 3.6446296730739736 7.992388260861967 3.9254356802121104
Mo 10.006426174568617 7.9231127359011575 7.910561926835787
Mo 4.196499133431576 3.2153129168334886 5.977928121639327
Mo 2.3056863625916093 6.030322770929419 2.331863768365829
Mo 4.069287769589305 5.525197750366564 4.505674853055406
Mo 10.026910605610846 3.1743292645417083 7.816292141977388
Mo 2.1869982189800257 4.071164319422168 3.7920073546491815
Mo 6.004007673608505 7.181170727831826 5.466419334391501
Mo 6.757015989568607 4.647955640703363 5.661797257435779
Mo 7.4501177212834016 6.800674291544252 7.615939226379105
Mo 1.2538859515698226 6.857669259467317 4.85157814753736
Mo 7.3188461609116375 9.661716666209466 7.688501380161623
Mo 6.0526713151951155 2.595889130160217 7.453891425051773
Mo 7.652032223314012 4.214693145253376 8.37662772812422
Mo 5.037846818439854 9.558839437892148 6.15909680830753
Mo 9.89100153449191 6.018513776222668 8.87287167165123
Mo 3.1884539506408225 3.313978260918837 8.201509107340318
Mo 8.011602068392179 8.21043747736285 9.625439143136342
Mo 3.455039436715248 7.252815840967019 6.616633972456344
Mo 2.0275093112741804 4.81264558685663 6.330272288076937
Mo 2.6493899733195403 9.37195392676785 5.999938527465702
Mo 4.924376729323679 5.298327048377414 7.6868212772482405
Mo 5.269175750632648 7.969652805901452 8.49506467739594
Mo 6.779298985331376 5.78044124352234 10.047957228439614
Mo 5.15147471136451 3.944265293075068 9.727928288062405
Mo 4.247518757577339 10.451695835422253 8.169250861408552
Mo 0.7160762825203744 7.288645067022064 6.709821557031636
Mo 6.22975647592744 10.25856843917314 9.619805688129246
Mo 2.6143967939600543 8.307041322396246 8.769767101398621
Mo 2.253389017117299 5.6290853607718825 8.610108318915975
Mo 5.712609800430669 8.00228287719766 11.275148144037418
Mo 3.972148409618553 6.360498700288235 10.134344967533133
Mo 4.071539289428417 9.104379732337556 10.84489014836211
