9
Energy = -73.58381259 eV
Mo 5.764983505264009 7.903627157087636 4.121788099899817
Mo 7.447163211882705 5.729560853647662 4.783123931670215
Mo 9.140738533770227 5.346560021963933 6.592179836304489
Mo 7.670395599311046 3.9122481528341018 6.5208773855802455
Mo 6.493945091715471 6.578591600275912 6.68164378818088
Mo 7.5095767370595325 5.534054899675911 8.434650626389095
Mo 4.675090241077474 8.465805164042285 5.363547714063714
Mo 5.118203717650858 8.710722188138867 8.242576302008086
Mo 6.239430957782819 7.932049460239198 9.322653163332797
