16
Energy = -15.45299919 eV
Na 6.911753256997959 6.105308313650896 3.4451322462004965
Na 5.888753260930159 2.7982879434372983 3.078582108974123
Na 7.719602903632583 9.66685921996394 4.757723524694165
Na 8.655157269375184 3.661971816613281 5.199209536805673
Na 4.554742798154262 8.102736408597448 5.507226558949035
Na 10.460309730244502 6.840932650987162 4.927318971588036
Na 4.757492911869142 4.451044641771579 5.92615355578128
Na 6.315498888827049 1.316912228901376 6.43154879750198
Na 6.257973691384567 10.186121875203726 7.901970008116771
Na 7.240884088472244 3.902931945167489 8.527031415917076
Na 10.044174730980467 9.56956466909016 7.381433240662827
Na 7.693539167967666 6.877641285388154 6.781699584694932
Na 1.8701807918590336 6.146910392052394 7.129291769003956
Na 2.7256392071766555 9.550787579193686 8.239797002373036
Na 4.867595094888676 6.849464897074443 8.816151540877101
Na 8.088450778257611 8.024272703924565 10.001478708877114
