11
Energy = -10.03961518 eV
Na 4.594121272908539 4.699823341734521 2.679512231564682
Na 6.465767727613283 3.726659324270656 5.572317532370413
Na 4.418096912386745 4.79803526381201 8.309691306436038
Na 1.356671687766862 5.789489893150476 3.7266426142901126
Na 8.044142095652388 3.795020101154417 2.493082057524196
Na 1.204892830500982 5.791503247216475 7.207958985262021
Na 7.256296888401174 6.647732239535737 7.246066545916998
Na 3.0111648867048206 3.3496539816651363 5.498522190069417
Na 7.130168703305294 6.846174598146232 3.790546940398395
Na 9.720525655668576 5.0521676878794155 5.274889515454724
Na 4.122931234968228 6.828520217312088 5.525549107992312
