10
Energy = -8.86600005 eV
Na 9.328565016783486 5.838221704978183 4.69619874422778
Na 5.994942457944031 5.910978385460177 5.254163530388915
Na 7.692998717436726 2.7255692385682226 5.603006763578915
Na 8.31662222463273 8.416549108206839 7.09384154837731
Na 6.653176563860013 9.018092396027837 4.0961189672884695
Na 3.2082147416282436 7.2327825973071445 6.658641956462865
Na 8.349890133938908 5.095000537301538 8.097612232931885
Na 5.164048521846767 10.118985644896323 7.0720008612462895
Na 4.987387220187377 3.8562979811999942 7.752265739994695
Na 5.730306409276036 7.195468980434941 9.066442071296265
