16
Energy = -15.45176531 eV
Na 6.199457247210993 4.954821782976929 2.3020404912458283
Na 5.498275483065536 8.28427623134347 3.7538940882541865
Na 9.239597388554424 3.3013242246176264 3.5273544054454984
Na 4.1974043824446365 5.148896562137122 5.133926892240059
Na 6.081217003993498 2.335155170521315 4.766525828460753
Na 8.445564007680542 6.472943305131278 4.631894857215176
Na 4.995288092127596 11.624613964714175 4.6374455486380555
Na 7.440787303388138 9.972153232040759 6.649203206510151
Na 8.590084042809957 3.892549517828073 6.984784992874803
Na 4.125253307791039 9.32974942148814 7.345510783672158
Na 6.762065787396354 9.020420912773629 10.044037122764346
Na 9.394049838179786 7.489201470068072 8.402896594904089
Na 5.348681797209942 3.4226841003850765 8.112877630811674
Na 4.074422750223896 6.740743401111566 9.836665128815664
Na 6.325392003193822 6.671989421778424 7.324889910743663
Na 7.344514378046575 5.400532094400596 10.608107330720461
