11
Energy = -9.78779442 eV
Na 6.512112085958296 6.195466449904967 5.093706019543064
Na 9.235636848031378 6.624371329816028 7.605971213705426
Na 2.8486991465584217 4.995766927777758 3.838740568828307
Na 3.893953922047382 8.344466620255698 4.452071749650888
Na 4.645470164396322 3.1122755672015248 6.3491288989985515
Na 5.973709160911062 3.4847702310584245 3.029896618538737
Na 8.220078457435728 3.473052844187092 6.356476547617256
Na 6.3095913968340875 4.97991725741881 8.96061976950403
Na 6.138476286563137 8.334945294869652 7.77527483109283
Na 3.3489365026241944 6.141420332804203 7.231906686396375
Na 5.199481916479313 6.639693203376073 1.6323533256259406
