12
Energy = -10.27519543 eV
Na 10.88603018444127 10.579852275590177 8.893565138896946
Na 7.658237794730627 10.995167443393525 9.17311589578975
Na 12.288321661995104 7.907889136127395 7.6318298642786075
Na 9.029447560756903 7.321974528111054 9.30345149685628
Na 8.88244599006902 9.138204841325384 6.3460795128138825
Na 6.3147474172035745 8.75704339546091 11.16615418115879
Na 5.219929049329034 11.109288493251285 6.886794464677861
Na 10.20280831023074 5.789159218636236 6.335461304291686
Na 5.781095427832769 5.534410376459032 10.57110040986607
Na 7.270391886792357 6.403875567346713 4.828918262543481
Na 5.952202549117722 7.871160576819146 7.688011581346952
Na 7.440957859476061 4.6011172748638005 7.8320262973254495
