28
Energy = -15.59586535 eV
Na 9.99386481888525 12.18889729328068 4.384492826201468
Na 9.369019984907185 12.346455886079246 7.7523841303864405
Na 6.613165613451633 11.533063575864288 4.091183588083248
Na 7.697594625630041 8.567636230068764 2.8950709752845967
Na 11.050843333633791 10.904875142681606 10.580195690371307
Na 11.326242486669615 9.069558552887463 4.037798163127952
Na 11.85667258840986 9.863906917128094 7.293309907080878
Na 5.791825500506361 11.64317726764917 7.362301724353902
Na 7.806199950050622 10.06503518249727 9.768182237468944
Na 4.7956396590743795 12.021720072495478 10.562628683176113
Na 5.101976018302778 8.546057329659751 5.4993529156854395
Na 10.168552793579147 6.015159476880986 2.964032243848925
Na 7.25412399325452 5.923813623952375 5.035351702741017
Na 8.453961320431647 9.289072115074076 6.311579583314592
Na 4.5874680068570335 8.794763677679505 9.057097227263407
Na 4.252658298375685 5.697715400446731 7.478439793728053
Na 10.721685756065563 6.6060521913832 6.408918789645824
Na 7.4190636072923635 6.679579802649653 8.522898502243134
Na 10.579413851848413 7.60243133707873 9.68300961008029
Na 9.262613311354416 8.846757749344448 12.670579927177982
Na 9.858129939979671 3.3892502464785297 5.2491837047068906
Na 5.617013124809091 9.329174817572005 12.383752084042342
Na 6.871014871815214 3.381937847155336 7.133380090065104
Na 5.185028593297732 6.067081203932046 11.166007776624278
Na 9.94320230173969 4.2316834991295496 8.784099007509537
Na 8.87251144494586 5.442157961448182 11.83296341538503
Na 6.755113472436081 3.142460256500162 10.463601358335765
Na 6.918897195278435 6.827536906943554 14.368271318035832
