29
Energy = -29.48832665 eV
Na 5.488073914911837 11.26952149944822 11.391218278883947
Na 9.07320957142035 5.4236423486866014 11.518195844807746
Na 3.8694722223613827 8.60691193348419 10.054510871788905
Na 7.279582899389401 8.309320497231965 11.761933002749398
Na 5.959528402500239 5.862401093760892 9.738733779347958
Na 8.100481117446465 3.1083163519755663 9.2458468988552
Na 4.9732343295486166 3.3115616289337964 7.669370968882529
Na 3.860283079249674 11.74045929820495 8.24103700334058
Na 2.8635128746899112 5.991289574287586 7.931398031266756
Na 6.92010618691811 9.389284523385284 8.440091589581126
Na 8.931240810522443 11.33046366824598 11.002447950860851
Na 3.9229712171515234 9.006251149563195 6.3132333485970005
Na 10.746625076151659 8.34725988342783 10.818918803739203
Na 6.0347336217947225 6.377811015394472 6.1908182640414555
Na 8.971275362638169 6.4543432058698 8.14573483583562
Na 7.672142582677494 3.4102091397954957 5.581937902840604
Na 6.979119059767452 13.122993258518266 8.608245786079108
Na 12.051789564422368 5.436851541711776 9.268422308895724
Na 10.778791653198148 3.084416148303341 7.112409578523146
Na 10.208481860022443 14.051677782339796 9.372183188480927
Na 6.641695097623911 11.425817569231278 5.571530804718696
Na 12.33349329817771 11.299369457727678 9.840174274971064
Na 6.040140217043621 8.678538690086569 3.482950772095845
Na 9.802730302997372 11.479733853901529 7.248134476961792
Na 8.933913538870232 8.763305862220705 5.502996598279168
Na 11.904551542457355 8.679541655280536 7.498262174536237
Na 8.24535786697376 6.091539310781972 3.4156661569301625
Na 11.2463069578722 6.109768921936689 5.399373060947538
Na 10.458321951740563 3.315857980608869 3.580837079766249
