23
Energy = -23.2477803 eV
Na 10.998515015208884 8.830748271744541 11.612488457440218
Na 8.02076815951123 7.1982705711411485 10.381640939579713
Na 11.141589191642556 5.769194034238656 9.61937844053568
Na 8.294002146606212 10.750682868453769 10.012980510510802
Na 9.416809322357505 11.937863309743296 6.614064068492962
Na 11.07863489553701 9.107225403257361 8.125233665933742
Na 7.553094464433994 9.002185507415465 7.143921020212306
Na 4.934068444841124 8.95001061905473 9.598518617773939
Na 7.713386329329839 3.845455064562948 9.1850813102006
Na 9.96628753817864 8.765628665290514 4.600340008711495
Na 5.737560938113057 11.890519177471944 7.490050206615732
Na 4.788958473637952 5.430046758644478 10.781476285430966
Na 9.175252448960574 5.989020212456576 6.840376679986531
Na 9.769640334829319 5.24517395706162 3.57164922533396
Na 5.68012362608449 6.158897028821763 7.543609646920409
Na 6.7857514949225815 10.678780299771004 4.208827278088724
Na 12.500294814458396 6.611731480786267 6.0265547101530546
Na 4.075616515814701 8.879761115833656 5.982205464292563
Na 2.2323980639689123 6.320396156818923 8.242420392593964
Na 6.848546187108574 3.6582942210631337 5.439317723182193
Na 3.944092339759397 3.1495843185466246 7.913453231814336
Na 6.7098395198093135 7.043517562754302 4.121397094319468
Na 3.404738874301769 5.241929621729967 4.977568684524704
