26
Energy = -26.76995537 eV
Na 5.030670899350042 7.840608181124249 1.3641583646836821
Na 6.8581262803101275 5.354902715475585 3.009577334899114
Na 8.588218781206614 7.408186054525261 0.6839881051023509
Na 7.179784390847317 10.710450059229295 0.854655328812906
Na 3.1785628026301023 4.825367348372802 3.3531729378806445
Na 10.125670625107322 6.774606034160055 3.745711624919376
Na 4.263668312616042 7.522889689023977 5.118448497556483
Na 10.265348411872917 10.159241537900801 2.5840939034647668
Na 7.1903873471295405 9.208904189047043 3.8501622242467777
Na 7.602835236053329 6.693761273798154 6.292067666653011
Na 8.895209573041473 3.486797280996423 5.7468104348471005
Na 5.328716865566683 3.778502179806134 5.999505590225569
Na 2.274935875370316 5.208613295199204 7.071652562444273
Na 6.847028356327314 1.2145144109703265 7.883032416662552
Na 9.688715312036141 9.545964021553617 6.406019664936548
Na 2.585277221984537 8.729882891243593 8.093897853469109
Na 6.087401077645273 9.754082215966852 7.460487331912903
Na 10.755156554292276 6.22402250891903 7.6140963676279085
Na 5.133854536948144 6.440641134363488 8.581856967116842
Na 4.212296787842071 3.1279215620892282 9.476812016152556
Na 8.030906089499586 4.372067030067136 9.072899452732205
Na 2.5914765678009744 6.071195746086898 10.892857271660986
Na 8.291571071707676 8.020890212472821 9.615508165987226
Na 4.926658673368043 8.929999584955542 10.958640875472144
Na 7.04628047285226 2.0549638622687683 11.40817735862782
Na 6.038393155174479 5.558176258964324 11.878860960486099
