24
Energy = -24.25300915 eV
Na 7.416703889103996 9.683891044091572 10.103764773160453
Na 9.314736628551252 6.981082402873116 11.34747464276157
Na 5.842197264002075 6.601349545855292 10.688046959956392
Na 8.411210718069228 11.303500792239785 7.245824107551385
Na 3.914310987550913 9.354954094362917 9.602012480274853
Na 10.670811033858675 9.001656620409866 8.673101073917454
Na 9.356527847348788 3.547106981001438 10.060780888760139
Na 4.666175448091808 11.605242074032056 6.80415371678953
Na 5.94802082006988 8.3573086013838 6.7435990591244
Na 12.18516516194889 5.5674990206837585 9.758482025559434
Na 3.382487514062375 6.122395575120165 8.076430715639717
Na 6.951969738903438 10.89284437157913 4.008759359562563
Na 8.519692550056385 6.1494060907663854 7.889426596506333
Na 3.5388268444135607 10.24344943731647 3.6137959155317185
Na 12.032633314738243 6.52236241117282 6.355925384678316
Na 5.743050111151078 3.649306122427582 8.938683788205081
Na 9.347899707219868 8.556499738980865 5.257706457764594
Na 11.655032180175 3.181815505040924 7.250051677764842
Na 1.9364547837709774 9.447901157334847 6.625201992061678
Na 6.537329202834733 7.445412491562671 3.2788454268414764
Na 5.850783486519922 4.867329368157672 5.639893056306226
Na 8.273096731147605 2.4751895433552105 6.709373949216371
Na 3.1774260996318024 6.90216035071613 4.507335348144413
Na 9.275525955704277 5.076299224835265 4.510125611366766
