27
Energy = -27.61120419 eV
Na 9.226757345524483 8.302251946127674 3.108163375099526
Na 9.581784156901316 4.659368929479559 3.9223333136680183
Na 5.822672166317323 6.528296465421879 3.6181907868031464
Na 11.819258633234858 7.066399071370387 5.563059393266962
Na 2.829007249914964 8.690793436835811 4.544032503750664
Na 6.2311183209011505 9.875496802766387 4.826457501032456
Na 6.687950225314945 3.9224459291996934 6.272731265857422
Na 8.317749713319596 7.012120249815208 6.075355357627986
Na 10.435125355237924 4.277260613357166 7.489629747305848
Na 9.689340294149744 10.317580502773893 6.1446133148406
Na 2.9277899295659364 5.038197177141912 5.18058181455481
Na 4.798599577355072 7.100869044072119 7.014929333212368
Na 13.362224391013777 5.9259556473086095 8.993758016922802
Na 3.674476127030374 12.258957414540918 4.939548900958456
Na 4.42308829470711 4.183422102250921 8.963242191572137
Na 8.065610202021706 2.542720365104596 9.606349848329653
Na 10.512767885361317 7.827299280239313 8.728683441591054
Na 6.642283137288635 12.487595566929507 7.2868048076783944
Na 9.683278327463032 11.104807532130504 9.909813246296812
Na 10.54666703018922 5.034857437533294 11.074652735711224
Na 7.156312790232797 9.265169826929869 8.416625181493258
Na 4.7645948418797515 7.777522299205609 10.506855308165926
Na 3.694239060559385 10.42677592602977 7.875020055722
Na 7.500807412649033 5.81884448862542 9.340061094655892
Na 12.174332900414026 8.335766722866623 11.574506764540581
Na 8.430576741320444 8.272581314372175 11.700370648318033
Na 5.83996599333871 11.27652416659532 10.79828213339358
