20
Energy = -19.17616466 eV
Na 4.703168714943126 9.503226003459975 7.6391838539707555
Na 7.646703376504408 10.62980908269167 10.06391861062673
Na 5.088922432749601 8.651295959080079 11.068223090928692
Na 10.219111277112669 11.75674801090357 8.045490607688263
Na 9.730627243041791 7.716618054051573 3.733728630920518
Na 2.5066313192851237 7.20680952823927 8.984135541437487
Na 7.942747984442528 5.250119742720059 5.489354759029453
Na 7.964290256307076 6.909893097470238 10.622663768366952
Na 4.933069407234345 5.253798012254517 10.585782364298
Na 7.4564256298948575 3.7787995144198887 8.777293334008858
Na 9.867796434886644 2.5992991244693977 6.680722780727472
Na 11.76258848520582 8.536395569798703 6.806841081104307
Na 10.359722257060719 5.664926576964006 8.55437772846301
Na 8.314175699906718 8.482096792512879 7.336610872436821
Na 10.64893023482195 8.772831141865872 9.96362097099958
Na 5.31196490046419 6.166592381979986 7.299910794224474
Na 11.470874306936972 5.274193497168785 5.380544175945405
Na 9.757656765479307 10.855763637657715 4.795126519706074
Na 6.311601261701287 8.218672100399163 4.626155828626736
Na 6.733497193564656 11.593140092508813 6.070556672253004
