20
Energy = -19.87746815 eV
Na 8.111556968451582 6.441432127020725 4.195432028158913
Na 7.891064981140373 3.0580984263472293 5.027506224275413
Na 10.361484173633343 8.883135171944188 5.3750587312576235
Na 6.383346068626052 9.054980001632257 5.568306417569434
Na 10.61635992894203 5.2203015132697965 6.400966661261539
Na 5.6648183673096995 5.53474078825496 6.737346190191652
Na 12.303784512896335 7.778937933505479 8.21630133257435
Na 11.4616817089312 11.177797860393463 7.76752941480677
Na 8.491040352253624 11.857702195450017 5.552222169375112
Na 8.258974723075555 3.6246206806986483 8.479876118375621
Na 10.138195208392126 5.889993974955999 10.657552633741156
Na 6.211932664442131 5.580837720936036 10.445538276744573
Na 4.95000380814706 8.423129541505835 8.816702217850604
Na 5.081824903477574 11.73057377035605 7.372772086744034
Na 8.467562618291058 7.3722149056594715 8.082908945882807
Na 8.100713628729533 10.721965438559428 8.823722603402182
Na 7.643201717798225 8.442096196248205 11.692924558586988
Na 10.943518200945226 9.4053994916487 10.882105856075315
Na 5.283436358608242 11.042493117193725 11.054518166822017
Na 8.608854082523388 11.898412033347164 12.12171295778626
