25
Energy = -24.92228816 eV
Na 11.208122338236342 5.598908840933007 6.704640631062651
Na 13.184006141184202 8.639783645399367 7.135506670053882
Na 13.078257399922522 10.518974966301926 10.025794973846487
Na 9.176364342753388 2.742531004684014 6.461772069994477
Na 10.991733344363801 7.4993529595176405 9.75552776631227
Na 8.53481650884728 5.54796222239485 4.284431260666364
Na 8.888301465380948 4.614044851290322 9.457406720249876
Na 10.516460083047072 8.50164351449502 4.684634032796145
Na 10.304305070793037 10.559534516181415 7.765905282564151
Na 8.187659061033656 7.566926124454146 7.444202935832316
Na 7.676584364678635 8.60201343560088 2.5401690677665716
Na 9.556659382950796 10.27479901817408 11.285448899062917
Na 7.547381248860599 10.640213527739503 5.4082035236418315
Na 5.454785859161377 7.582607338866418 5.200768426515683
Na 7.270616362987874 7.470311975004064 10.942520491691742
Na 6.175830974037283 4.606238259909844 6.956905532633504
Na 4.421898392491093 10.463627120708308 3.269921749767167
Na 5.05095261654692 4.708242732446207 10.163505534325802
Na 6.924508175740845 1.6400114367080783 9.141988210753599
Na 6.8574001353236 10.52793067325024 9.040888791437414
Na 4.225432739064303 10.77370378452397 6.723722849484475
Na 4.476269785909485 7.8504732196325415 8.667832068246149
Na 2.05615987911541 8.406802167337425 5.30305417190017
Na 2.593278295901397 5.336176795660728 7.099391826789602
Na 3.6532847693670845 2.1172771793754386 7.961940669405686
