21
Energy = -20.4457036 eV
Na 4.723313521808003 11.962165940644274 4.94445916442514
Na 3.807787585216307 8.685241351339341 5.439024181277828
Na 4.377694360992434 10.318991117457331 8.426296923699612
Na 7.016110659652481 12.408170858058195 7.395877363200769
Na 7.342066604686002 9.557049031319966 5.46442638449133
Na 6.034825796632176 6.180578373467525 4.919777121711
Na 5.473792721910289 7.004495273654175 8.136439854991243
Na 9.15335047509797 6.453402536404126 3.8956976009107596
Na 4.726322511509721 8.313208347764757 11.367242978401388
Na 7.473875669260592 9.727178036437394 9.749775900928727
Na 8.951428674584937 7.39857057674449 7.486318471983543
Na 10.010091068506778 10.672636367797804 7.781035955211355
Na 7.702429113315262 4.2091050617511 7.4475853455321355
Na 10.553178946777239 8.390940044588252 10.606076102392686
Na 7.3630757617487665 5.947038613404512 10.585877185259204
Na 11.016986798023625 9.061979784371365 4.941785731430615
Na 7.950424983402131 8.375677115681016 12.935818492599482
Na 11.231312642875707 5.012633342654104 6.171713273758417
Na 12.513858435321504 7.821021805495558 7.8529679678812645
Na 10.514273918092472 4.978970851713206 9.554068421114343
Na 9.968208877801617 5.559974174883445 12.97385238050002
