28
Energy = -29.0205834 eV
Na 5.786432584878577 1.9719609217311385 3.829030269012734
Na 7.754844359062403 4.1002559195110395 1.520103507482377
Na 4.176965952884461 4.788685252407275 1.8570449140579126
Na 6.856407529260069 7.662591470963257 1.7804326173586287
Na 2.3774193494014018 1.933806691839998 3.115375705950253
Na 9.76609656852738 6.965565486497781 3.7324414761612292
Na 9.682149916697588 10.871590887121057 3.913528181478903
Na 3.3063673492483527 1.3177353778298193 6.597877064266898
Na 8.140449631847178 11.882371323573336 7.255825007781814
Na 6.504083239604449 5.448270982385749 4.391666383591556
Na 9.03423416973018 3.1548982792577256 4.9502244287880695
Na 3.916532750541485 7.986718655922698 4.337238256666892
Na 3.131551007371575 4.566911926380444 5.340219808843717
Na 7.220185335405152 8.962500479811148 5.243550847064685
Na 4.670633990743328 10.264606138530299 7.366702625524657
Na 8.86112453339887 6.070549203933873 7.069998054639134
Na 5.369433203390762 6.7308506459151545 7.358892386838896
Na 7.685784724150207 8.904121908814245 8.965588078474592
Na 10.51234728850734 9.179107905136966 6.866324441886542
Na 2.1012625736677095 7.540781557205501 7.454696468920936
Na 6.362598637832172 3.212704773881337 7.322429926234897
Na 6.250105891536265 11.518212543877267 10.54410707505619
Na 10.277712092237737 7.066976574294592 10.273202616857038
Na 9.688983928585987 3.3744476982418075 8.849021173140638
Na 4.513453295414782 8.166244494066257 10.485870513184755
Na 7.023496714589203 5.483519220844611 10.27615663916596
Na 3.422515049077769 4.3217465859729955 8.94205006130292
Na 7.631511721168832 8.576950482814196 12.38508485902941
