27
Energy = -27.2745702 eV
Na 9.516750483397965 12.442922846852992 9.12259237863654
Na 10.163071728424276 12.052357541432855 5.523246398429717
Na 10.19303619884915 9.445583335628982 10.652065825387277
Na 12.335653574500977 10.109704262809014 7.715875982963849
Na 6.777698696755204 12.02891341399035 6.970438777026363
Na 4.31770331941248 9.129758828469692 3.8224946801545947
Na 7.645796322058622 9.749657661688993 4.127306527442526
Na 6.834183724218607 10.153304442005615 10.09839896342842
Na 9.054169474161354 9.413086555033784 7.2982661095040475
Na 10.94593439327398 8.64895540197805 4.391256660655589
Na 3.530635227583634 11.203523601003695 6.394412695130528
Na 3.404194803276895 9.86709941231842 9.467805423199154
Na 13.119836885230168 7.510215717421492 10.020963137504301
Na 5.734577012148765 8.432350193301891 7.068564419262611
Na 11.475053103013542 7.499944362244581 13.208840909162305
Na 11.245769690832793 6.6183087467150346 7.136990590710642
Na 12.741797908754751 4.095311276029455 8.967897565580111
Na 8.139146670896215 6.849719748069283 9.065205149385225
Na 2.416017812374373 7.7108177746024245 6.627852884588019
Na 4.905878893207607 5.913275005572557 4.567268789955904
Na 4.828990195636564 7.000250898148173 10.33282433766789
Na 7.8692687599495095 7.395927640294497 12.52231007550172
Na 8.250645253450761 6.380391207392853 5.406096161393202
Na 9.234114556097223 3.7154522671155576 7.926387394878361
Na 10.315752421952869 5.160902402089077 11.065563211036718
Na 5.637291459583446 4.808585818519683 7.607080427152236
Na 6.930120925454963 4.161139565098129 10.873634623448293
