31
Energy = -31.66933997 eV
Na 5.314076647936038 3.0528103333246706 9.726995571874284
Na 8.845663050320217 2.9150590522439352 9.315833421401914
Na 12.263053814022713 3.666354497630133 9.877040743715673
Na 9.82614135874912 5.658910510221614 11.436619064639759
Na 6.328388749517711 5.360425361793556 12.243983800832323
Na 4.155269464647753 5.039148638298556 7.074986986876195
Na 8.519068397524219 7.323082586935634 14.25534062180066
Na 7.500156124877658 4.278667453412329 5.960521536377413
Na 10.472928046291964 5.425227157937229 7.522492910742851
Na 4.244964058216414 7.438842903378141 9.779938263360766
Na 12.56418806240987 7.112577732885846 9.69719609234599
Na 6.155485737267633 6.164499197416681 3.2739672954922896
Na 7.207559697209465 8.610964977906878 11.352624744303103
Na 7.251974461854123 6.0015612227302 8.926928430790356
Na 10.559580887621975 9.075505976793597 12.054562099754364
Na 5.946332794167641 10.366745969753024 8.797726577088376
Na 9.190216874259667 7.208263558063675 4.984877107058653
Na 8.89806820963871 11.589243895942648 10.31752497701745
Na 12.161402201019266 8.400775535261953 6.482661134474969
Na 12.399838350638914 10.589231384164954 9.498960774508497
Na 9.3188260070588 8.76570928528168 8.39206852233829
Na 5.990156544371592 7.821852622801261 6.3486338486219
Na 2.9787674401802438 7.061287014003576 4.426512590731845
Na 2.917216218191987 9.319330516274784 7.0914655833999785
Na 7.952138869229154 9.061234074512532 2.4152534941567945
Na 4.715242861847826 12.21253694406876 6.2187091504591105
Na 7.555814916991229 13.408264947009776 7.726455229024912
Na 10.853012961427574 10.190916418865466 3.852762874947447
Na 10.745320483790092 12.036319484687956 6.901192684704706
Na 7.815191444677982 10.62440927585859 5.58740775242054
Na 4.807866143901047 9.89205772020798 3.6324403994374475
