33
Energy = -34.82962858 eV
Na 8.534438253249442 5.100270194908465 0.9910653807141335
Na 5.350774034071518 7.027434757059125 1.479554255373363
Na 1.9505611579213602 5.278151470247693 2.4493568140343505
Na 5.156861031793428 3.5118440339058443 2.758910718146415
Na 9.094543338452787 8.496125181991783 2.3156554951399655
Na 8.801555425813776 2.7725283656072586 3.884512628518082
Na 2.528176695772969 8.756531552873732 3.4035141585839024
Na 7.535745335379844 5.861497318674215 4.148635253397067
Na 11.084747001222565 5.718772852691762 3.9627174561275633
Na 2.5900540738693456 3.144722332000864 5.5851206128531
Na 4.235584900018995 6.237524410301943 4.8239924188609145
Na 6.098142613414763 9.318573845283744 4.434839822660199
Na 1.0190770338609183 6.564445758543641 6.094665588311965
Na 12.215645388164612 9.170107656923769 4.741924531779769
Na 6.160536966567512 3.320973000837124 6.350839029736092
Na 9.187937003646763 11.318633793339524 4.796848438577515
Na 10.994422593433326 10.45434532136252 7.9413354541781365
Na 9.439280212145198 4.5616586258069605 7.1571160204791
Na 12.12450694508944 6.86574998208526 7.755880545448392
Na 3.8152283925229735 5.533235787170033 8.193839164799424
Na 9.347289110775723 8.151699822218944 6.030569442176171
Na 3.7088798685318785 9.086485557540566 7.103364705625819
Na 6.618588069911319 6.938120601472885 7.3372726138824245
Na 6.975835820987277 4.4025379538711595 9.786632550395874
Na 1.7322521990568962 7.645406711535003 9.913154850009725
Na 7.0886320083350105 10.412770577096573 7.804962195108595
Na 3.972255225413638 2.2212200420880146 9.005947776396383
Na 10.48448481493481 4.892739009272697 10.599869336639783
Na 0.954053670683751 4.189274285039316 9.102395640334844
Na 9.013728590620495 7.908037719804711 9.796196959764881
Na 3.9113663170090573 5.0763560546245765 11.66632636396062
Na 7.468625279476372 6.317856984147979 12.6942166668797
Na 5.330894580586968 8.269072392408098 10.413471063840468
