32
Energy = -32.74842838 eV
Na 12.126622092737641 10.16244943264242 6.345726505790373
Na 9.445971795162283 11.06471147215864 4.22721491831581
Na 14.156572400367905 8.93349831252119 8.880404343019126
Na 12.951645119459037 6.620426767381566 6.637651985988891
Na 11.635059388151282 10.991370572662762 9.973123331801325
Na 9.089960906016067 11.295039813961722 7.689546889589985
Na 10.646631202340421 7.534395036086788 4.211482489485753
Na 7.910217653898889 8.671287447346131 2.4182213249483864
Na 12.284679091082259 7.371325281894585 11.384191989070473
Na 11.716185113226246 4.6749098835040845 9.31423444557197
Na 9.810404365230301 4.989542208273432 6.386662309741491
Na 10.135256988758378 7.912223646591346 8.496163281387275
Na 6.295239860394939 11.730034476057073 5.550930207415299
Na 9.329040637456337 9.027835146370213 11.826215986445815
Na 7.588943580926726 5.486389437902541 3.8542974735104902
Na 5.198006329619094 6.643643452784716 1.5471545274517708
Na 7.449451733869399 8.366175972908124 6.163314996200212
Na 9.082700827933914 5.658524486816989 11.377990259677397
Na 8.613176489137842 12.26891305703068 10.930789539615668
Na 8.652620626983413 3.14563364780812 9.056677716311905
Na 4.6773890008526715 9.500333826949953 3.5720780314312903
Na 6.483761984533879 4.926122667873262 7.171878735055615
Na 6.626865792671931 7.70929444996093 9.597486274114809
Na 3.8556366152718375 9.367407221768046 6.9393807031282435
Na 4.309299008603881 6.385770049159717 4.992825839624593
Na 5.932805422036309 11.206030969994316 8.945229149539564
Na 3.453920728578139 6.123891137572082 8.49023451926158
Na 6.544644195173935 6.952572651460202 13.22038932429294
Na 5.837893240481544 4.305224468680693 10.538240431262802
Na 3.38985046896238 9.217772279183125 10.354984514359257
Na 6.134848334430835 10.260547571267471 12.266054487485373
Na 3.3692212190035096 6.205910182562346 11.999681310219806
