38
Energy = -39.74654 eV
Na 7.998440131539066 15.212128214112036 6.598164191727866
Na 6.286235380892884 13.004813667626099 8.919001236165967
Na 4.912086484806292 10.290672740471171 10.466369226257859
Na 8.373704022254984 10.737817064948047 10.651679909477844
Na 3.628711493930453 7.527711577121799 11.857513437385029
Na 9.88686081279808 12.782281358321182 8.1364356821652
Na 7.091208997889465 7.625628630223717 11.974303668054468
Na 2.479907469172293 7.991490242142728 8.48582204502395
Na 10.321283634291325 8.637815937287453 12.422135516941244
Na 4.039997273967353 10.539238766595377 6.999020255353225
Na 5.627782364589974 13.04162973327445 5.413117782570346
Na 11.907957113416924 10.592050745289002 9.627800305242275
Na 9.014461858858425 12.254092884434664 4.662984711476742
Na 7.629153585149469 10.158363190072944 7.15394952913482
Na 5.950233124148614 7.378913747441278 8.614796032127702
Na 1.7250963837163154 5.069035101615125 10.375717167201982
Na 12.686737326876555 6.905349590898402 14.24895635256532
Na 9.612674024776165 5.277171168050204 13.970650010575891
Na 5.247131534955075 4.610849292371996 10.751939689501326
Na 4.282839532648179 7.428875836320605 5.402069355522285
Na 6.0994324212826 10.050452818559807 3.919158536917117
Na 3.7227106099030167 4.681183601224633 7.528717367952881
Na 9.453556077048944 7.621652857533164 8.934578729577805
Na 8.596924584396504 4.477318318522851 10.84207954278399
Na 11.090250787747683 9.893341589263066 6.347818232159611
Na 11.88738859652448 5.530676655384382 11.04451820961813
Na 7.934540257116062 6.934319861354004 5.655424265956286
Na 7.222032956762038 4.112036905197781 7.803052589866865
Na 13.661828911686836 8.511340964626596 11.44813277582876
Na 9.480114940220732 9.16664566388118 3.319777284852204
Na 5.639699543581624 4.211260590810737 4.713501556366136
Na 6.253013846807942 7.016400427802577 2.4314740166898936
Na 12.88039833854503 7.401227770732918 8.14456200882937
Na 10.71231803857211 4.451466944849983 7.964247911600591
Na 11.415999776363108 6.598901996348758 5.195534236314582
Na 9.18564253647094 3.6671775141972813 4.9250433428412554
Na 9.722986800224666 5.956210838796316 2.3415134362466965
Na 7.212062409318145 3.744075021195129 1.7019699541266986
