32
Energy = -33.62156097 eV
Na 5.132895016901844 6.2511371271716065 0.5034877409223586
Na 8.806095965883143 6.914711062811126 1.3787920011187629
Na 7.295644578714042 3.248181254690857 1.2615892947981893
Na 6.084564805685563 9.047755366483088 2.763587716054468
Na 9.56619066276539 10.191926595277748 3.0103125991035258
Na 3.633245534235067 3.409428877505778 2.5486778380979582
Na 2.974161595589533 6.877802010549719 3.5226206958639916
Na 6.2987717121757125 5.460652729755918 3.5634574367182394
Na 11.852511985659508 7.403278199404815 3.7611030568972117
Na 9.78291832393956 4.240075828511649 3.837410310782024
Na 8.643972484471407 7.556384499383398 4.89890655678689
Na 6.697907640244244 2.0768356665364 4.702584694241077
Na 7.229776880297404 10.672560788120387 6.157331546414632
Na 0.8746371313838304 4.0752129635034455 5.261505043036219
Na 5.257660028580303 7.76196798724062 5.965384351351212
Na 4.159722404958253 4.277552688230068 6.116187538641588
Na 10.865417331796825 5.84498809065909 7.1594936235638915
Na 10.920935807157885 9.506635320029686 6.707107343154995
Na 2.063527844504499 7.078767392674796 7.140190460254233
Na 7.597678410793634 4.695878020021573 6.753735054165794
Na 7.994375101637257 7.8209476271912735 8.301376682383074
Na 4.328319596156947 9.74866005199449 8.611587731213707
Na 7.54963304298589 10.578966532198251 10.15435137869861
Na 5.1339286045622154 6.196763605451798 9.117758664307901
Na 5.747932844322183 2.593437342882499 8.889841351582348
Na 10.76035507102203 8.22554974953531 10.212102212477562
Na 2.3228206424164344 3.896783128663969 9.120943663587017
Na 7.811768310274646 7.210506525750002 11.95924523173019
Na 2.107085120175122 7.137874720196187 10.719219192918594
Na 4.815099859664716 8.81008629765085 11.925419066442245
Na 8.672681876578421 4.5958423183120045 9.999854793292425
Na 5.061590878520902 4.6366767256663755 12.018662223453505
