38
Energy = -40.34169113 eV
Na 1.0373746533003163 6.0777738767141125 9.129615092310292
Na 9.600691127446298 10.011105090803648 2.40049499541259
Na 8.63222164865767 1.6708264662448948 5.528042289956934
Na 0.9953051166363805 9.068590257866084 6.157933274169567
Na 6.2945414489107 4.115721069794868 11.629720120848523
Na 8.69149445344106 6.326987353107485 1.5896982555250962
Na 10.422341695646958 5.745303940108647 10.28692957222389
Na 5.311156620408963 1.601120969900224 8.96414041200473
Na 5.396271997336818 6.068510393008019 3.42365395548424
Na 6.7655453543306585 11.685642373379647 4.508547284630306
Na 2.5145694810771135 5.856161435257614 5.70218218125426
Na 5.509309467512561 10.337267245053345 10.87031919536481
Na 6.993369626652985 3.0894514394833696 2.2440925938684986
Na 9.366719390864533 7.175569186115057 7.410748676334252
Na 5.2225284482960275 0.7825649602499594 12.34985644927152
Na 7.827054738364156 8.386510627030543 4.5388057450742405
Na 10.796997266124318 3.4767183081563005 3.028660954785904
Na 4.192347916777931 9.255752779076905 4.8406714896882095
Na 9.751126212324523 9.481468879646245 9.926085865242117
Na 5.904749372937267 6.735846820072896 6.770878160572591
Na 5.091413655202795 5.63598998091357 0.08522630254538373
Na 10.511289387336339 10.170988470207627 6.117781154804596
Na 5.921065952818692 8.966053517972814 1.5622151949554146
Na 3.752386150672599 6.88165086011045 11.695690258507735
Na 11.31729781283747 7.03297186303743 4.289686124219876
Na 5.2229333016125805 3.2514450777923605 5.676602490048549
Na 6.927189928965683 10.074705961854864 7.685647548000759
Na 6.94444575316858 7.2201918645408805 10.177904033185388
Na 7.863143877929648 3.997135349132594 8.306832310788518
Na 4.213159941882497 4.877468237742074 8.790634756528556
Na 2.6990260667341 3.331615703318748 11.312679390374226
Na 12.65378908828291 7.703566290998257 7.871338130878802
Na 2.4232334798056985 7.482702088598305 2.31510737063609
Na 3.841545398844284 11.883630316088572 7.084715792406717
Na 3.545367988930369 8.573075382368598 8.516873206708256
Na 8.42459879469466 4.94868419526611 4.877178343153674
Na 11.367769732351151 4.243127367587056 6.790975383568851
Na 3.0961097850726804 3.8175861355917617 2.583317778857273
