30
Energy = -31.0582198 eV
Na 8.462760051496614 9.096319049329711 1.8425404826701484
Na 2.402768696737812 5.833996598779379 2.6927178481867076
Na 6.087976753148103 5.292702600399427 1.9171076167069163
Na 10.446246247840264 5.947880652258348 2.4124236055294292
Na 3.839310331031899 2.427177372655518 3.522252542726192
Na 7.881167741601267 7.006905310400795 4.510689884875972
Na 8.101510824099437 3.36776856173051 4.171981604767251
Na 4.88476710966598 8.630890733331105 3.3857243193235855
Na 2.1846671207547486 7.721088060875915 5.888979055471624
Na 4.9021782902907844 5.234314947367214 5.021858916431198
Na 7.776748384037607 10.607811492805519 5.0858482439525154
Na 7.6141437804454615 4.872608412805175 7.350596879717122
Na 11.039920063307697 8.963249552968396 4.524521158854154
Na 5.712009376577844 2.0602660514315643 6.590492427966348
Na 10.970224426357024 5.477147456452376 5.849006906436592
Na 1.4983019624417533 4.214037769637776 5.6963709218115035
Na 10.442080624825198 11.204097466963537 7.467918095419848
Na 5.576337151283902 8.333437037283735 6.784912796078693
Na 9.044034068291543 8.144890578744567 7.465085702081227
Na 12.46760379035292 8.11878517296455 7.929824139965423
Na 2.743340874276729 2.1853424648306463 8.332744097594187
Na 6.058145649245822 3.2175019521077934 10.068037883002754
Na 6.986834960831094 10.638929592337416 8.897991617451892
Na 4.03604075886856 5.434097755350412 8.1412029159641
Na 3.27647327750591 8.522475749114648 9.51798520680343
Na 10.21317461470776 5.642489204969476 9.641330539022864
Na 0.7271119929114058 6.017261685196854 8.687986386860095
Na 10.078725050990828 9.262569699449394 10.404008044839491
Na 6.687012733660954 7.030016365065398 10.05423867300096
Na 2.892005384893416 4.527562744872106 11.177243578967746
