34
Energy = -36.14921435 eV
Na 7.883902690777566 9.962602168455348 1.963614353105827
Na 2.385532507989336 5.083877521749727 2.35753520838548
Na 8.970294486661887 6.395543778610875 3.1079641007233043
Na 5.3156417621241125 7.45628425143164 2.8130832923185007
Na 6.0766813447608445 3.8430812445704228 3.2247945740692696
Na 10.986941095910591 9.467685616920026 4.119754666594696
Na 4.88899254724926 10.938862668900915 4.030134458075857
Na 8.582974086963581 12.360824897149952 4.715849988589344
Na 1.845917647023365 8.157092080061572 4.224274345836171
Na 2.6941863875627963 2.127408720883257 4.505161406386232
Na 7.774331297729671 9.128516895752549 5.22920805032877
Na 9.28453738600851 3.3987065567144157 5.299781149885025
Na 3.5982152962812757 5.216357932964954 5.480335161188993
Na 6.923592591837871 5.877489177963893 5.836730430826861
Na 0.19783706435233897 4.71896909971601 5.282140941837231
Na 12.24940976038006 5.330162766618418 4.694829024110555
Na 4.63439920744259 8.344830105316479 6.4801868103487905
Na 5.776289548080255 2.5196290348117185 6.755634802444873
Na 8.267970185256905 4.608672973952576 8.643396285826345
Na 2.3093717793839628 10.663626161026926 6.866977321238118
Na 10.304052390147712 7.066216433293714 6.745785536129442
Na 11.648667834847503 3.87409866552196 8.137388419828978
Na 6.278275347095997 11.39777551339166 7.433671812567359
Na 9.938244602398852 10.5077246438512 7.749392137716687
Na 2.2812376593310137 3.1897593260639603 8.038125211154426
Na 1.501594045473562 7.013809709477438 7.770899045183364
Na 8.925900334166498 1.2872190971581592 8.497916050315823
Na 6.019165968105671 2.495346694365999 10.383714247018604
Na 7.4703736144210335 8.17245034378251 8.794713076190611
Na 4.771559154109834 5.590664590039807 8.880325829215076
Na 7.083343944544489 5.823566808058966 11.627141606941889
Na 4.13123410451795 8.986965593112533 9.812996115596373
Na 10.505256055467601 6.8752868057555565 10.253292731588733
Na 9.695357680480898 3.3201735314393686 11.44453321731636
