34
Energy = -36.04150224 eV
Na 4.522717569423422 6.131677376482292 1.3488179824711015
Na 3.6502999534925697 9.91810217972197 2.2147908178750964
Na 1.6853876652856392 7.0083741056239095 3.5988428588580006
Na 3.807430532974665 4.094642819298156 4.517957473567099
Na 7.08030058026196 8.747022310190953 1.9063599263967355
Na 6.04647857506437 2.6341563860735526 2.104807017060173
Na 8.078352543371091 5.571827924988472 0.23262632583542167
Na 5.842917941896464 11.24387380682998 5.04960297191102
Na 7.361565654312432 2.519822257851481 5.560578800768762
Na 2.648216558134492 9.815914011821416 6.146933890348198
Na 10.305071735004036 7.029338120207828 2.847540969572595
Na 9.61547628982233 3.410835971133454 2.6782900348625454
Na 4.851735736299151 7.730820713097571 4.512437124705492
Na 4.295755189041468 3.059102082103811 8.076275186605605
Na 7.2491610377696185 5.539123171215434 3.57427988604796
Na 8.295612578763931 8.501165586035453 5.49439411807473
Na 4.555790080972647 0.6335729446630037 5.163586034045827
Na 8.013722029267655 5.964189128356549 12.168615706143607
Na 6.423641052567082 9.417249059999854 11.204985145293316
Na 4.942390601472702 6.012223756563177 10.292913752269262
Na 5.80340469496164 2.7407835759209798 11.52868793577741
Na 10.187219961810982 9.20323736299501 11.155122899106294
Na 8.069761027446589 3.7241433813114613 9.202840546148325
Na 11.060480007983637 5.867763139055662 10.078713503309821
Na 4.922210235748952 12.05493824102343 8.676699484791571
Na 6.222341049853189 5.570385763632856 6.860859908313118
Na 2.9230092172912334 9.142378215878116 9.995765241232986
Na 11.230325301459054 8.608549112753206 7.630459446565707
Na 9.847550112360066 5.346189514636369 6.240929433549116
Na 5.49640693722623 8.834262151315158 7.823398429110411
Na 2.8249502444654975 6.327400037312121 7.289156594016985
Na 8.287366948636265 7.325365941024744 8.992641569948134
Na 8.34858146179859 10.898239061210917 8.40677183666797
Na 6.5542423426738345 0.4232042385860108 8.47319059766291
