42
Energy = -45.05121945 eV
Na 6.727559387825593 9.418357560439349 0.8166779226516798
Na 7.849345926383169 5.6932101948730915 1.2060049889243492
Na 5.2570145659348775 2.7543765891871064 1.3970172729178942
Na 4.24905846815067 6.5162689262505085 1.743228196147941
Na 8.688663247802703 2.2260949887887285 3.337963457157116
Na 10.145970555423945 8.750088381524995 2.7848864659883734
Na 6.863471735767387 7.933709869852517 3.7715171256260844
Na 3.912254017423163 9.946475776460579 3.5372898140583864
Na 6.137257561482062 4.507207803717847 4.076514833300473
Na 2.656784800085548 3.8862100367909744 4.068980051948201
Na 9.54412381440942 5.56201985903791 4.406327260511809
Na 7.861231298519918 11.312217429239176 4.095117232858301
Na 0.8017570718267174 7.394226142471111 4.394856363463429
Na 5.600141243776347 1.1281314359304395 5.020704428748674
Na 3.924986461383624 6.908413195559159 5.4055328545184365
Na 11.441422583914564 11.10582225784499 5.6934444751150695
Na 12.95205934062625 10.411640878343139 5.0799473290467345
Na 12.295825523539612 7.2374845373546925 5.975764449701066
Na 9.15816212785938 8.77364693432152 6.24758687692928
Na 11.480657659782578 3.1202768599245116 6.377914564534627
Na 7.96432228416715 3.1935947920838013 6.739658847077626
Na 8.980015238584931 0.0491917127088472 6.680501824104327
Na 2.257361308697678 9.600857053392549 7.139081470205231
Na 4.461778375279249 3.752052762295763 7.318285912433017
Na 1.4214562006212055 5.561869722591723 7.634912927193308
Na 5.766581170009447 9.854665065495453 6.721881148996647
Na 12.918765936623073 5.024351349242962 9.245060887993313
Na 12.918765936623073 8.294343781911117 7.7575416701966535
Na 6.2866087012652825 1.215317076419107 9.056962866756288
Na 4.356657650772263 7.172618317214708 8.83910800488305
Na 9.882247090485313 5.812324442843571 8.112369070057738
Na 11.306228615553236 8.980499531880515 9.064985772682208
Na 8.54021331434026 11.652546305696328 8.08024549549031
Na 6.877541795657004 6.390273209401759 6.866089479414937
Na 4.6458004732934475 10.448968393874674 10.053555882246686
Na 9.893186267446067 2.56861940193228 9.648985155910635
Na 3.3667586379294288 4.331312981421633 10.707104156720156
Na 1.5989274169751457 7.993641797837649 10.57846994056975
Na 7.685422246944455 8.44453044437519 9.694505583323032
Na 10.057756512028307 6.066012482634461 11.476470390760484
Na 6.901929884872454 4.734055379227298 10.038251112329764
Na 5.056722943936068 7.328317542739928 12.164539641641547
