43
Energy = -45.56813202 eV
Na 13.017731213507819 9.511982650102604 6.7704769181921325
Na 14.69838377981883 6.889061984871105 8.462620311784427
Na 14.221255790416837 12.640827792722993 7.735639543365801
Na 13.432697323185181 10.034807097689582 10.11739485703978
Na 12.213135510521331 3.6566972659427615 8.714157060313802
Na 11.782530542518248 6.266638819721653 6.313088502998025
Na 10.398083051991241 8.989443877568709 4.316446253602808
Na 11.673277529064734 12.350365695404303 5.075218191620615
Na 10.703877139659356 2.8690616757808223 5.64701843964912
Na 9.476603584141106 8.884522533768028 7.998042255689853
Na 10.825627430061497 12.165828811230833 8.628107328508374
Na 11.533531780406234 6.872974290633878 10.0253512569028
Na 10.064120141481471 10.073705799072865 11.444354896783844
Na 9.735251162348346 3.8032792015996177 11.222510990408047
Na 9.085996424928899 5.665355483396881 4.0086240599176
Na 8.670410159793173 5.385817059455559 7.829166136305072
Na 9.10212457941641 11.680749459105947 2.39252187289443
Na 7.006585405648029 8.184834947245273 5.479152752992271
Na 7.82976657681683 8.297082640887814 1.8819934945783248
Na 8.190170031178914 11.6895398407517 5.925855115170773
Na 7.181566764690071 2.936547596144504 5.27294283024547
Na 8.58933745397306 1.8684428379852036 8.454871480549345
Na 4.504088684840825 8.563389715199323 0.9850876132529404
Na 5.742709485741902 10.98433383130094 3.3344424258375986
Na 8.285707718870453 6.991741956872423 11.465131683443355
Na 7.257593871696911 11.409165072518494 9.449922246088947
Na 5.989491557804065 7.908780891990716 9.01258801256749
Na 6.320205679199679 4.215077457601593 10.27083504392017
Na 4.80800867049331 10.744957227823425 6.879217199208529
Na 4.859829999604871 2.0300895562667454 7.932316427758279
Na 3.648702320261667 2.684979629345836 4.584623590493429
Na 5.0196225202410245 5.414149862398704 6.700782482832444
Na 5.477011059700215 5.665095074054907 3.1084057195931054
Na 6.58621761158548 9.868721893103185 12.5509367359076
Na 3.5432216723848673 8.475480335694938 4.42062629418802
Na 4.638182673169445 6.831073879001009 12.166704523674657
Na 3.7447283095612796 10.26280820170175 10.40116330689865
Na 2.9365614683756993 4.958896983758593 9.560014653159461
Na 2.51379080122327 8.108647802692932 7.797341900469815
Na 1.3747838056809598 2.7401000381936047 7.282609504962659
Na 1.6653795579181172 5.605545745628476 5.305726893975828
Na 1.2847141702580183 7.70597703310766 11.101259639339453
Na 14.69838377981883 5.812416100785962 8.321179981195963
