46
Energy = -49.44966956 eV
Na 6.20668722475614 6.783754419642562 2.1663525277285
Na 9.04445611718903 9.228587865307986 1.5209991502464542
Na 4.266666301471635 3.5812197016546055 0.9964646518812189
Na 2.4562413277309 6.9141747615280815 1.702832740415112
Na 1.3702057778761694 3.0089981125170193 3.0139935057598435
Na 9.503436071841547 5.939301097174921 3.081631276129042
Na 5.962563203063555 10.582626149372606 2.3792858027801564
Na 0.1212909195796574 9.151708280850388 3.5450437287572156
Na 9.111345725576033 11.930527826404608 4.257580410641448
Na 11.771794000933491 8.739085831580365 3.826765221131949
Na 7.050013259520574 5.792349531527581 5.897341087224473
Na 12.795141725583525 4.9326306297061615 4.056532919726177
Na 4.204726474956082 1.1522600256161597 4.095963432284949
Na 0.8841746854962064 6.156725825781605 5.049620452189238
Na 2.59580368391091 11.354368665218466 2.968620277104724
Na 8.009160296107053 8.888593794173005 4.963389609639659
Na 7.0661222478243975 3.074893119722909 3.3323272260064405
Na 4.100821890045534 4.732822617412387 4.213694674171911
Na 9.815386405665146 2.974763779317077 5.504399015166111
Na 3.9570461052354404 8.396592681017022 4.422156952402907
Na 7.3820679485126455 0.10545465094498967 5.49282723623369
Na 5.165856529522153 11.74181643031246 5.597751197614999
Na 10.843920641587534 6.497668932026994 6.302151369888629
Na 2.104665545845812 2.923758797101085 6.655852391128748
Na 9.110477367011066 4.45750685971583 8.605123875619343
Na 3.5866815417231797 6.033453692179619 7.273458361829827
Na 5.460972074821355 8.873849612316402 7.5640768617840255
Na 1.85596636679678 9.452418169357355 6.946707233326842
Na 7.826195446889089 11.434249316722145 8.049368413439819
Na 12.486284823025548 3.473372436840992 7.899439728107401
Na 5.907052058463823 2.764912414608551 7.315615207425331
Na 9.29680098824909 1.0454859224784052 8.627478457793922
Na 11.822702036106374 6.650459018390881 9.674191403462823
Na 11.105600247628152 10.061861068609373 7.0853268681849695
Na 0.582570510069157 5.555541898613237 8.757893732251903
Na 6.105651377018263 5.898867046478743 9.509339334899702
Na 8.666669180857694 7.986267430309061 8.490202972687953
Na 4.161213970868139 11.52595772738166 9.27897532143106
Na 3.149964060237524 7.991885264791288 10.351510598742198
Na 3.482513656734839 3.7543017901529505 10.157607618335922
Na 8.806456403269689 6.263355640242701 11.781825270574089
Na 10.948579236243877 3.0988610784880453 11.107621736327124
Na 6.459720180160062 9.233075032546541 11.093014354093379
Na 6.994662623620993 2.923534408147211 11.074953163576284
Na 10.286228489488575 10.096277273478288 10.586223759834787
Na 5.142036182372547 5.874416303728114 12.761061801506113
