47
Energy = -49.32869347 eV
Na 6.038452643222633 3.664584247182739 11.410089291200181
Na 7.445724904788766 3.1029703208640655 8.194961210913297
Na 4.005584160921078 3.134738834134777 8.490787614069516
Na 10.794703597211857 3.8777045142040625 7.971114051915245
Na 12.850275753317598 3.0369100671660565 10.62616037231937
Na 11.037928511717775 4.654675649105597 13.064913403697535
Na 7.926922474327056 5.779368949896643 14.062249495314328
Na 9.34098127279351 2.2145217803521375 10.952945326142476
Na 2.7744555785181557 5.464915158319025 10.699439515802945
Na 5.511298685160187 4.452579684201511 5.6590629408377815
Na 5.509888049751747 7.1906025998110845 11.908369021885667
Na 8.941303522365153 4.462452158756306 5.0774831108855665
Na 6.049846535601608 6.528716465599064 8.467211532628689
Na 12.158634416507326 5.927465278574289 5.256087714911775
Na 2.772252895619989 6.272457909958494 7.190020328157241
Na 14.111326961493823 5.006802118678343 7.881743933075173
Na 7.3861481437451015 9.233582303007532 14.005111603225465
Na 12.123692779691057 6.53224939435126 10.258187062428243
Na 9.63179304564754 7.2089318036945675 7.580179723372263
Na 10.544362415656918 8.151140460315279 12.96734001238607
Na 8.672018245688582 5.840552812906004 10.578056128443325
Na 3.4530615494956773 8.772625167304891 9.5824287335992
Na 6.775546030172562 5.19757738961723 2.4628200664382307
Na 11.117654570724788 9.779841842146627 9.82353880316392
Na 7.658694394642123 9.536317781603957 10.364162136284358
Na 3.7238236207001525 6.928612721533099 3.998519868242062
Na 4.781895211897462 10.769660926853206 12.015525513501293
Na 10.191210236498895 6.995883571581829 2.69157300134886
Na 6.800880847918472 12.61060300605136 14.291331146888753
Na 7.374759606497133 7.711185439426539 4.899453566604751
Na 13.45036768406677 8.461474759930164 7.548316529493688
Na 4.701647276088607 9.29672875432483 6.3731967597359205
Na 4.373109363247931 7.328335369348476 0.6904734984945022
Na 9.785254272030528 11.525761167657555 12.670454566044706
Na 8.322754208210938 10.325571141151991 7.125340285489341
Na 5.358165620718998 11.733330890395274 8.587914764445342
Na 11.22624478606149 9.444014874052945 5.056876479652389
Na 7.598285739811126 8.290664192176314 0.9852609271328459
Na 7.03054003513084 13.447927172587898 10.970140149194906
Na 10.103256704294754 12.977303191999233 9.471296022510138
Na 5.12159283177536 10.024427928687174 2.9866222786781633
Na 8.648943594219201 10.608145505829983 3.175587949729812
Na 6.204937226291233 12.509511327966266 5.190213352247409
Na 12.585319726391225 11.882946187413177 7.306251027957959
Na 7.601201275360297 14.642440263736058 7.61660100280588
Na 9.845897932300229 12.86456241885136 5.293790128088403
Na 11.216585591644252 15.287331190181547 7.20508469024603
