48
Energy = -50.55945039 eV
Na 3.183745464344512 8.853932219977533 4.325019183860532
Na 6.071206905475461 7.677346110425392 2.64189901417542
Na 1.0117022397262136 9.629421622281823 6.937279552239131
Na 6.3965593376807925 4.435704320028915 1.6037243122233584
Na 3.9126629995475706 5.354797860386365 4.176586452713304
Na 2.2101384395895325 6.238808893482877 7.105713601190945
Na 1.9079874551980225 12.05946772480496 9.347178795991047
Na 4.239218134613591 11.034065767166464 7.006539949954734
Na 8.968794742036875 9.517263881768326 2.1291983391403217
Na 6.3233778743811415 10.621770523949774 4.3931687410062334
Na 5.700892426407323 2.1574448764920704 4.168985263999025
Na 4.7006556311611245 3.663282784908603 7.135308902630111
Na 9.613704931379134 6.217868072935193 2.5437171879854232
Na 5.3001234287281305 13.108497933347554 9.61676163174201
Na 8.754996780403376 8.382913813642874 5.723924962769259
Na 7.797595525571161 11.601398227709012 7.6126795054185825
Na 5.446362627323017 7.6058619899425395 6.7428876762587375
Na 2.613511251558703 8.678894846492724 9.788868593325555
Na 9.620685422481547 11.737356695078427 4.525961697647166
Na 9.066892057565406 2.6784331347233854 2.9669166255124626
Na 8.300899733582222 14.609531677732422 9.578959146428613
Na 7.324901970934587 5.217450751902224 5.000072852060324
Na 10.326531289109585 13.917196487466379 6.996984153400259
Na 3.959054803260994 11.282030561758402 12.24204031923858
Na 12.010623316725496 8.365620093376792 4.4254008447534465
Na 10.791346699569958 4.571245233968907 5.456386750461334
Na 6.013861897825814 9.353595187111663 9.746545908270905
Na 8.18231462632309 2.413056353456622 6.810578119175385
Na 10.87524174763314 12.355996502872316 10.268213367678372
Na 4.398327518812737 5.695911647153701 9.842221713719493
Na 7.659216122999626 11.701657571038997 11.821450646954037
Na 11.249073861330437 7.237352256367727 7.814155847321702
Na 4.268828720295413 7.916560324502733 12.695671799142898
Na 11.682022434104681 10.76077461191169 7.1109596779940585
Na 7.946183200024482 6.201032474171682 8.755148097850249
Na 9.361031495989502 9.258711851649663 9.717106162299165
Na 14.433803454752493 8.809767784029605 7.0649452036633855
Na 6.7618345174053385 3.0526427682875528 9.901451017584712
Na 10.675595312362802 3.8651785696190983 8.921060559140084
Na 13.908610233239507 5.452532978506216 6.581928695041975
Na 10.477075400578645 10.14281140641903 13.07736733865788
Na 7.740606767545056 7.773647000472532 12.482770616350638
Na 5.623967485128642 4.8392589918552416 12.945182003096319
Na 12.959132632571581 9.482698338507916 10.281857706249939
Na 13.749105789227517 5.840484542057509 9.975494878935566
Na 12.140963772163722 3.6381996279701543 12.010074153787938
Na 8.883839996511549 4.334346521696921 12.248140902006014
Na 11.126623780661804 6.986563240258126 11.982718835763494
