44
Energy = -47.28488137 eV
Na 12.366975664845631 6.888104127176758 1.1506920639613303
Na 4.511466546964618 8.564570631512261 2.3450462964771557
Na 5.172984510383133 5.395177432013039 0.5581773598277755
Na 8.65085396042313 6.794344798429909 0.7117611690012678
Na 10.269904239581773 8.499526715815561 3.388471926690099
Na 2.5574950829467173 5.485770571795753 3.1382488471024206
Na 1.398216376874053 9.078915529839554 4.2132325295773185
Na 7.452702816185236 10.174285940996521 1.8476733948430424
Na 4.77424994195991 2.5182119623568098 3.0080544058959657
Na 10.482341808952409 4.703628967413572 3.1002795683337845
Na 7.859324404141503 3.2674055046029817 1.3807930495564964
Na 4.722276065254629 10.993440246510106 5.661834647654297
Na 4.09616483941889 7.457156210724269 5.632968817608367
Na 4.889002555544396 0.7177556330393393 6.420225805971979
Na 7.749684727615207 2.862614610317458 5.374610729530678
Na 6.725005263749321 5.796532870154171 3.668132042128893
Na 4.133509204184931 4.02181398409337 6.0020190506854885
Na 12.931194199253374 6.61339993839316 4.914531694070163
Na 9.651112187340743 6.111721227465953 6.066565896290689
Na 8.664862034582754 11.806676939979102 4.714029707710543
Na 1.5480052592461975 2.280997272253577 4.872108851269217
Na 7.395067015199161 8.722614084725638 5.4841619392896845
Na 0.8696327115614861 5.866799159462358 6.389275379318728
Na 10.864358508087003 9.449890635293139 6.768605121790437
Na 6.616135067096322 5.609283506169076 7.406451808246019
Na 1.885053518042343 9.18287412649398 7.9433153041828595
Na 11.19952407444455 3.0859883437883653 6.6471726851734285
Na 11.90513327071877 6.501025949759789 8.8206072586423
Na 7.872548851470133 11.248291378993773 8.282739919341282
Na 8.369368687867821 0.7703159167714886 8.201107155755386
Na 1.7589352117275612 2.985268028393416 8.581207920206992
Na 5.43114120982945 8.770830309715224 8.537156395323576
Na 3.453816001084153 5.95270985598412 8.856232451397375
Na 8.639454188888024 7.740805851323709 9.001640736300212
Na 5.4819904606280225 2.831255376987817 9.35668231546533
Na 9.070003949459851 4.090494590886166 9.47007625064329
Na 0.23828844553911938 6.226570729513567 10.008699925703096
Na 4.308599020245039 11.781373032175473 9.503889192030831
Na 10.872702706873945 9.763275891979355 10.391322345650723
Na 6.24402637715775 6.064025762369807 11.149538126170842
Na 3.3072549009281373 8.351184622347722 11.399565523662197
Na 7.104180500467468 9.55013181879303 11.591539873190028
Na 9.673522989811284 6.726238502837264 12.128001904945268
Na 2.8954826918336423 4.760253458762069 11.97510466179384
