44
Energy = -46.95405932 eV
Na 0.17646011858768684 7.73492335312277 9.280667899743225
Na 14.637228701511983 7.489989481466726 5.653025788552651
Na 3.244171155819021 6.397833801921941 10.569318024825305
Na 2.671975456413034 9.81872069936243 10.997651444356716
Na 2.9269767744966226 6.291291720540106 7.0723793032309725
Na 3.828903306175829 7.702555489251581 13.773047110593279
Na 2.294552777715403 9.84259393919909 7.424939661416404
Na 2.4884334447813097 5.283116067080472 3.73111119468089
Na 2.8979673447649605 8.81030478383973 4.0692176385289285
Na 6.1559959846919465 5.147627927905144 8.573425180054468
Na 5.490837847048242 8.686202810911853 8.628273359290194
Na 4.902089182524688 12.133193391254409 9.057812175454805
Na 5.361731049485457 3.8168232644721525 5.345564792958445
Na 6.4897981905983855 5.990010321847311 11.967118123207902
Na 6.143821654576615 9.701667895676428 11.938873873253504
Na 5.384193773322334 10.959790656974747 5.643107098576869
Na 5.851455224729064 7.316316767025316 5.2858995114690055
Na 7.911964620743436 2.1704677263877095 7.478818027513446
Na 5.3681095422907275 3.4044347602685234 1.898532508710086
Na 7.318968858108422 7.871416158698787 14.826350891795787
Na 4.912036137688665 6.991399879646598 1.7610568378720641
Na 8.675823136558416 5.473928220335521 6.0572547003572215
Na 9.760014460954759 9.34023001265762 12.587044922482836
Na 7.597597170204381 13.315084050390803 6.74612517185104
Na 8.411765105460185 2.405769293112876 3.8829502282020307
Na 7.304361609090779 9.46611292096207 2.9511634812595875
Na 11.345487775058254 6.927059322427773 7.546092739022858
Na 9.833734205960106 4.330444607930852 9.7475258325228
Na 9.761803320288926 5.747710124638133 13.192142228565425
Na 8.319809412280936 11.425309410891886 9.688724584849819
Na 11.358860533542497 3.0948926123092244 6.560787935270216
Na 9.822401549620903 11.752736862514022 4.1423466690521185
Na 8.68146653358594 7.6923956198202985 9.76269248193044
Na 8.716300846883446 9.54657924033845 6.615006498443229
Na 7.988339885540605 5.755546614201702 2.5219452230529744
Na 11.025336138166189 12.832650079221885 7.306059158454665
Na 11.605424144633181 10.01093863226544 9.411138234277367
Na 13.57030041346066 4.4954103648584125 8.906095022062596
Na 11.19759333270744 4.5862862898680605 3.4015656576168625
Na 12.263846406843603 6.958661452000705 11.088866508349525
Na 13.742406545692134 6.0896649755570555 5.405924226956551
Na 12.589829375605538 9.927930387081442 5.916272016881433
Na 10.466269459269576 8.006515089680098 3.86659236663834
Na 14.637228701511983 7.890799892613785 8.381611744122734
