45
Energy = -47.87166214 eV
Na 10.300312997834734 2.417912388058812 6.224019751134564
Na 2.5665704181912794 10.156294632863807 8.254974703497316
Na 3.201869229522855 10.323819677270878 4.740400710947952
Na 5.902321282922398 3.374114242675262 6.859242310217923
Na 9.885872827181654 11.535999629057958 6.7423560422253885
Na 4.539479813690618 1.5609844080526682 3.984864873160552
Na 5.981555920186266 11.030926997315644 6.959611420182602
Na 7.908462618993664 11.887330316446265 3.9617177170616107
Na 6.083047790341645 10.197038841450736 12.86193483644753
Na 9.763826496136335 5.494220336477343 8.981033725707732
Na 11.22518027441934 4.341253117893653 3.3326384313255613
Na 11.189064300662398 8.762756599900666 8.7440191914762
Na 8.02534034316879 2.55602810689018 3.574133963053983
Na 2.8415560801577886 4.236355693066668 8.72103445613301
Na 8.218473049182395 11.113317700831283 9.96035977144741
Na 2.168439878945501 9.277414528337774 1.1745563855635694
Na 2.789362911514216 4.282375848563177 1.7115846783464603
Na 11.372782426998716 11.353353750548399 3.250868583832967
Na 2.4333486542028524 7.247698262062484 10.47172267424774
Na 1.5254530440796432 1.3223386681912621 10.280262827747526
Na 1.0429523868376975 7.135797071411183 6.996247391920389
Na 6.41223691438587 8.478365154806976 4.258605023820361
Na 8.462569682280453 2.313184071024074 9.179728601205202
Na 5.456917562410465 5.028007665976452 3.8203783203969466
Na 2.591626754120136 4.052705160406053 12.257990731073923
Na 12.081855998496582 6.082769840133887 6.283511440832093
Na 5.388471165164364 8.926179751526242 9.85023389215269
Na 7.937171542739504 8.237924536999342 7.675087420408768
Na 5.145374783868101 7.299885866706462 1.0749471249803497
Na 8.712713014359375 9.56276790021453 1.4469692875110927
Na 2.2450691150537545 3.914254013510466 5.311504610880854
Na 6.271514545750374 5.390822224267393 9.643724896089868
Na 3.4503768681317455 0.7352903299997698 7.334117522567574
Na 7.158869557266922 0.2266753187029042 6.4314498553795865
Na 2.6503701303036302 7.092607250727415 3.7904126634513333
Na 11.788604470259717 7.8276981717075005 2.00768981427615
Na 5.246794733282806 10.864332582437232 1.8192450824959785
Na 4.549070547300441 7.044427774657963 6.910191304937396
Na 8.460852522439238 6.070615404335334 2.122574743648231
Na 12.472757284750115 3.42432968249134 8.745881569067784
Na 8.416360810177638 7.784311174830415 11.367125845689092
Na 9.967414774032374 8.571978325289866 4.802472004769914
Na 5.189046449834417 6.6042482948877765 12.715791898433915
Na 8.443931285599172 5.457142605197042 5.670082450423235
Na 5.066853176425138 1.934242515399011 10.224795883431389
