43
Energy = -46.23109003 eV
Na 5.270685280444222 4.489067019458291 0.33561071892105504
Na 8.189325293383995 3.8961405180070985 2.3511518917395167
Na 5.14167800179298 10.808742599617812 2.2431347801834636
Na 3.368637715602786 7.465173003514661 1.4311696897191892
Na 7.269610735800602 7.6938312754047935 1.946324837555062
Na 10.920356461415976 6.337011773234671 2.3261444065279724
Na 1.7600053485015654 10.236102696845176 3.2903295818411857
Na 2.30062401772952 3.849965723955934 2.293321713754209
Na 10.534263668829944 9.590734082996148 3.3648676025883213
Na 5.212820298726574 1.8260775343845337 3.2593543381515526
Na 5.162507673487063 5.325282436594425 3.636662176756296
Na 8.468199199755094 0.5141669937100375 4.463929803440629
Na 10.783773097479356 3.5438554694433884 4.868552712424436
Na 4.232267433385616 11.937719510649929 5.605710792761913
Na 7.453699958602013 10.060730106079037 5.066063484230753
Na 12.21728225060632 7.279553750215365 5.620061185526256
Na 4.482173544547781 8.486236100397058 4.671623638423035
Na 8.631718847069545 6.688761536293594 5.054082577544413
Na 7.323671482915888 3.453782940995662 5.741378719711853
Na 5.648798531389896 0.7332846324245279 7.0718217557319765
Na 1.604975573147435 6.612982283962393 4.592218690486706
Na 5.447287169471567 6.035455047727918 6.978401185239148
Na 2.210928404240752 6.349630096687587 8.190878943250102
Na 10.631733715777639 10.291069043546127 6.880271508716284
Na 4.772680255943489 9.261407386118718 7.973139818273103
Na 1.4725610121259753 9.832151371147186 6.932808352563767
Na 7.225332197617552 11.838975723650679 8.148197942868201
Na 9.281222641333816 1.3815660476630136 7.87583128647774
Na 3.6478960313163014 12.290775595621456 9.130093832629699
Na 3.203139540861634 3.426823240616259 5.925820484136783
Na 8.076703230357396 8.074757346027932 8.246456790066661
Na 7.158361038406937 4.02406057999198 9.174400090343147
Na 6.74724129281763 0.8072897433357628 10.54380431892167
Na 2.3919947066711034 9.168203328015908 10.551548146418536
Na 10.136101284389147 5.020515190849994 7.9758513666992785
Na 3.9126164582229928 3.119940657003836 9.536236457584135
Na 5.052778081341322 6.569312897390487 10.515416710095362
Na 11.741981534167499 7.754279691596668 9.233230921416464
Na 9.596657402599767 10.25964451410844 10.497981746611629
Na 6.070442858502171 9.929144630121364 11.104774729823509
Na 9.746685891806047 2.928590595347346 11.12275083573135
Na 8.734087473716263 6.567389666244443 11.28906413156634
Na 6.328394606917681 3.8037168622211883 12.503426545766299
