45
Energy = -48.16695632 eV
Na 3.9103929650001468 9.253240002178874 4.384516960014512
Na 2.5305264451608833 12.042737696461758 6.15432050939212
Na 2.0029887196071305 8.661968782045461 7.608735385880512
Na 3.167448351786006 5.9835885037195276 5.669396298743481
Na 5.521692068233613 6.109714241611364 2.914218805939074
Na 2.8725834549261005 5.153365049927173 9.244545365122447
Na 5.955328611150012 12.141346732078334 5.029678126622675
Na 2.0723127002671435 11.815695653319676 9.53114150995574
Na 7.190912247639083 9.495343692017252 2.619898798089663
Na 3.124481179523601 8.613378190681162 10.95600186642897
Na 5.637292294451634 3.807660880215088 6.615840101132041
Na 4.9795415272763455 13.837318150811177 8.350574991687763
Na 6.87484039527368 3.440190634422947 9.82339079238029
Na 5.28243750154486 10.356000417418178 8.094181234443186
Na 6.669959590538124 7.591488535639998 5.693593608351979
Na 5.648850226251299 6.82879972909598 8.826247284392334
Na 9.065931464856 12.763403348662921 3.1879852521674823
Na 7.80775425084177 3.5525902404476732 4.022305143998239
Na 4.785987543833894 12.157705271525302 11.623732869613516
Na 8.782881808456601 13.530889302417826 6.867135201430161
Na 8.887107204453729 10.276295237786313 5.52572555927204
Na 6.526577446382824 9.121516963833065 11.4687331626257
Na 5.319494756429001 5.791108001230457 12.22740311957622
Na 8.917294972174826 1.8789435115027204 7.079259165861883
Na 8.016628169054608 12.137482558215664 10.155845817376767
Na 7.679216410782698 11.295739713924421 13.805946712324705
Na 11.127161401592726 9.64321935544869 2.758933046466891
Na 8.65680512744773 8.831988985967872 8.534445623554483
Na 9.413072873277521 6.677541931835146 3.6761889534724252
Na 8.640957533774365 6.342531399223627 10.809719321443348
Na 9.214654474058582 5.49397211830274 7.167498829243295
Na 8.478138192789348 3.9373821891012057 13.177671115285069
Na 10.581243225062567 3.5681737636023128 9.932754612833456
Na 11.246373234552246 3.4097596514720796 4.75543007564255
Na 8.313485071824948 7.53100012112102 14.181736339639071
Na 11.929822441720425 12.122201386803189 5.2692993227359795
Na 10.172567886940621 9.511349982023123 11.865674676231883
Na 11.231749076071194 11.110898235951522 8.619886414527235
Na 12.637385256018264 1.774929977126901 7.679070203558006
Na 11.684580081906192 8.363486376177313 6.172730844927502
Na 11.885211099665137 7.286237142814826 9.56916590950309
Na 13.015071687208428 6.483801936959683 3.6121585078472496
Na 11.523876600813976 5.975176415592492 12.83114597438959
Na 13.160252510015379 5.127450629751071 7.038447045109488
Na 13.89328026357806 4.173928012263411 10.426882816207561
