49
Energy = -52.30643383 eV
Na 6.843445289723295 11.377575407178366 13.202021244497475
Na 8.026504173856294 7.982044549189968 12.74053177797306
Na 11.6686873969584 7.321743747775022 11.596654372868398
Na 4.440674923224479 9.142394802818016 11.80112435168532
Na 15.298709379428782 6.407395544286313 10.897914072868371
Na 10.42997683953881 10.696944795515693 11.796758974720232
Na 13.969068034987716 9.512025408551528 9.725496605410063
Na 8.37491351207944 13.548634674605328 10.925189467061255
Na 9.290126347836503 4.495759685586751 11.871852124209019
Na 5.705799288087075 5.668363850572059 10.95878153539254
Na 2.1922987877014593 6.520812206806192 10.186041763999853
Na 2.2367679509016076 10.092704123108435 8.80348424476064
Na 4.8917936568743 12.513178020480899 10.19091044760811
Na 12.830111246087181 3.7645383960862255 10.979097891251365
Na 5.001762409359023 8.102179508921912 8.501933741901016
Na 8.784982416604244 7.007403417245874 9.496394287273601
Na 3.451938126163941 2.9290614317625834 10.042356695468076
Na 7.146899206916755 2.766029574044444 9.579679627073174
Na 12.898849334871581 6.2807155724960735 8.494353377112066
Na 0.32058301432252534 4.142727775670672 8.157427114368339
Na 10.741713360107006 9.829814274046642 8.433052694459763
Na 4.90773198213664 11.38558312736983 6.8034819044856745
Na 7.398513407017641 10.203621450557819 9.886525936525077
Na 10.318837708504454 1.2581330398616284 10.641950950855877
Na 10.290271765582501 3.8758312945382305 8.280126194584444
Na 13.381153280928933 8.586631554063551 5.981700623521981
Na 10.17842248322682 6.929396445623814 6.2549719756239375
Na 8.370510343808053 12.600565057869236 7.5518087898679624
Na 3.5017958976983814 5.026037086292253 7.318150572544584
Na 3.603704419276562 13.695642293369737 4.582570663178935
Na 1.7324244461872018 10.574846707612203 5.168757794623542
Na 10.364442481680255 10.723082651380459 4.969089036034065
Na 7.549041541827874 9.182733669051212 6.224024797317312
Na 1.01994154695612 7.362309404540444 6.625475329606832
Na 6.871024514372336 5.429034445579921 7.084564828013994
Na 5.185827989236913 2.0028027619187463 6.814602897735761
Na 12.458232704862798 4.677079189316475 5.250504707064368
Na 8.535556901935006 3.052514452274767 5.049183634182289
Na 7.151277546744956 12.65711359525114 4.284347841824914
Na 7.888910305243541 6.37314455873761 3.768251923276688
Na 4.917164575678399 4.4076826541880845 4.154947385093101
Na 4.531796541235975 10.694870219392856 2.9544699985829923
Na 4.355371590262355 7.849110458169727 5.0629218212832345
Na 7.9518692999852885 9.629911280032234 2.4387013302929748
Na 7.202360358671814 3.709903227921364 1.518907184561127
Na 11.242922624456659 7.6937028784646975 2.975179295949432
Na 5.338986789015024 7.232097539672042 1.626913350429373
Na 10.568345792801047 4.236051451930582 2.260161240607954
Na 8.826542589978938 6.749208418223811 0.31789029271458646
