41
Energy = -43.42245915 eV
Na 13.683695741605009 6.406141217314281 9.003405411995962
Na 11.573916773886959 7.615689711846762 11.62746082428927
Na 14.256708082728348 9.795768526455593 10.548452649033534
Na 12.875183778268346 10.194169985976279 13.974049431486998
Na 9.453235103545433 8.725364375501233 14.13620077554502
Na 12.12746634367072 3.5273659735786738 7.944250210850929
Na 9.73357729209073 6.116507588466044 8.63196558249717
Na 8.4291350418214 6.079145471282731 11.827011062569968
Na 14.63266789902597 8.852599675112915 6.7282972033923025
Na 14.626850738485876 5.229650928772922 5.800690331607679
Na 9.195790715514601 3.238849302425418 6.1830387794773625
Na 9.657554687470402 12.251132869353722 14.389971900668877
Na 6.329846573607686 6.714848288566455 14.350730128180603
Na 11.547882816830237 9.197843225745578 8.46308251347722
Na 8.631890320768974 3.0158225304960076 9.732299552130774
Na 8.229590877841162 9.406802826515664 10.262927157497293
Na 11.018030007949234 11.347639500277449 11.327125838801875
Na 5.5694092096420125 4.284724863907888 11.292968040791596
Na 11.360184848908682 6.491425040670107 5.663809120265396
Na 6.607015322039438 10.478741932773435 13.308498213981519
Na 4.832237573862239 7.8975590505647135 11.412363522693665
Na 13.504059765112872 8.009726415870979 3.465069136027148
Na 8.781880302534443 8.937023688562196 6.4676904221510085
Na 6.317873832866913 6.96986368709765 8.476097367023211
Na 5.834136836067543 3.702332702386911 7.453000979209074
Na 7.948010157087667 13.141628001450155 11.138921407099215
Na 3.0803337755008324 5.4602187595436105 9.027953560219702
Na 7.597683290460956 6.08801188450362 5.004992835261504
Na 5.0683180961120895 11.356962123406413 10.149344267224818
Na 9.70643966178322 8.60704344435809 3.09414171436174
Na 9.557553541958146 12.118762411414242 8.04230727594586
Na 5.74957061159582 10.315866931508014 6.896916980162261
Na 2.882225589730874 8.962810914324692 8.40746638521212
Na 11.722351238054701 10.689872556098486 5.226107379421285
Na 6.141862547636629 9.240306539396629 3.6333642860091007
Na 4.117809642853734 6.758977841122236 5.7328744758733094
Na 6.4299125125340755 13.704674794060278 7.603209515940456
Na 2.9242476211504638 12.538607136871471 7.322610979416404
Na 8.358900884734314 11.950744490668106 4.585477351785815
Na 2.7782880237044174 9.982979827757594 4.8103558296397155
Na 4.921797556717327 12.767458822007884 4.275891803373985
