49
Energy = -52.61925368 eV
Na 10.27723333157998 2.5551009978311003 3.339626238903589
Na 11.582885316085479 5.962238820935499 2.613986031493976
Na 6.751588224203956 2.02839662730245 1.8149218374734235
Na 4.337274468625427 6.189556694776145 2.6133038534143513
Na 10.737462187534957 9.572718834689839 2.7468511008968712
Na 3.107700032172949 2.846015940534817 1.780470215413688
Na 7.191221703223784 8.866635182282291 3.019332008516574
Na 0.8286602696958523 5.181332420857415 3.216160645005369
Na 4.965200320103287 11.637678810661656 2.608624552069224
Na 0.5745398036140766 8.27431753613156 5.417769558175524
Na 1.7645939579828016 11.705425593550137 4.551609316723588
Na 8.03265134541678 5.25760469067703 2.7296718251096035
Na 9.7968430234195 7.334257211104013 5.311780121636357
Na 5.196257164593383 3.27685596252798 4.643153365620814
Na 4.0138108513236865 9.083181064434473 4.948672070731608
Na 2.858911988799065 5.6121323463521176 6.05193350932393
Na 12.130846887551314 4.749367071309011 5.9686588817474
Na 7.605798187104597 0.6500832067489244 5.169235563112926
Na 13.245321621722638 8.211938744642454 5.074466195971644
Na 4.1932663760253 0.007405334281338472 3.709046163820198
Na 10.888212336118803 10.712974389254024 6.078432709277346
Na 6.3082626741029895 6.535733192348909 5.553618979102316
Na 1.6004819712015115 2.190619054720659 5.12789493521634
Na 8.25936860365523 12.151433674813882 4.069549155939832
Na 13.24532162172264 4.771422631576214 6.532854974732662
Na 8.604619856817187 3.92699771973417 6.134468227937204
Na 5.1214347975335075 12.398470320613184 6.106131758619862
Na 10.87058985621779 1.3428882731295773 6.794776294958881
Na 4.451085189154489 0.973670399314486 7.217296185760757
Na 12.328312235269937 11.44212158933258 9.03654311055577
Na 7.376815611781092 9.769135321747383 6.616117874473038
Na 2.421960078058329 10.459286131212277 7.839951976054321
Na 5.511490210440029 4.2838891000376735 8.229803726111562
Na 8.679751688728873 12.893025945734871 7.83754745098795
Na 1.9604650827625043 3.348763352367456 8.690597524449897
Na 11.799542194272705 7.812487289834013 8.340625309606084
Na 4.727144506038645 7.863732990420943 8.403328192108805
Na 7.823258997137059 1.6628961591451168 8.774277045703366
Na 8.250606713148 6.755875099348852 8.5952259483721
Na 1.2758127636740588 6.929585265431014 8.933983320574269
Na 10.556947929222702 4.0981326050822995 9.225654931175397
Na 5.807849619901471 11.07357138812466 9.518826234444854
Na 9.249634809288512 10.00662773814995 9.801999358571218
Na 4.69819080045067 1.980966448260878 10.6907845011563
Na 3.876778793424143 5.554026578908137 11.252160580047141
Na 7.471545624826436 4.44583312540807 11.412553774572194
Na 3.149039592416745 9.185785954632566 11.207320962686138
Na 6.603467901395402 8.005336618348576 11.598068427517191
Na 10.201730336353373 6.931671721871728 11.559536644660367
