50
Energy = -54.36612636 eV
Na 4.736788851631091 4.102305303269198 0.009398575724028845
Na 7.857931493157212 5.99947847800875 0.22522562637141405
Na 7.6628074540552165 2.729463989672199 1.5329327756827416
Na 4.560037309157224 7.8060941288551655 0.4956353260775478
Na 5.68117056101499 9.408876248029397 3.5239068422931457
Na 6.527722635685474 13.330299128641101 2.299169784276319
Na 10.712778311139791 4.55854989144239 2.2309068440027127
Na 2.319601284641894 5.720644029393565 2.3488651924932986
Na 2.2292010819683057 9.58242075449984 2.829812280767668
Na 5.7859787316172016 5.660073817688416 3.0269132937625858
Na 8.441518542429181 10.327800976660937 5.972557375631547
Na 9.90799856592959 1.1302031828488668 3.7870701984993516
Na 13.588031522926926 7.314224467012608 4.730721991829353
Na 8.983711717972517 7.600295565822013 3.3688128109392435
Na 3.3372026585957957 7.273363378875302 5.392614764176431
Na 12.466904127143982 7.319133640181708 4.115800094758608
Na 3.9526170126284352 12.254695807352288 4.768042711334572
Na 6.771305236935615 0.9295538095272906 5.450228881816572
Na 4.249784723464667 2.377153445156437 3.163320274410337
Na 1.5621613627167126 4.093970673963521 5.629439484265957
Na 8.443833241867187 4.203298763921043 4.9450784207604
Na 1.1434693840870853 6.762720199536737 8.123193384186722
Na 11.953219484139849 4.092120718830528 5.6183874605280515
Na 6.766578816733978 7.192101538799819 6.0980354698703785
Na 1.5540143301797018 10.10376655687966 6.531943402608613
Na 11.96112738663339 10.022785876844171 6.643107454046701
Na 5.003174919153488 4.0517940643471455 6.3208215348099905
Na 6.6867539364013675 13.222840453768294 7.357201940265083
Na 10.14746582001147 7.032964892650315 6.793009984140583
Na 3.404601746540829 0.9187270565936583 6.408198722878855
Na 13.588031522926922 6.8698036989276545 7.549647798723106
Na 5.044292092412289 10.079270687383994 7.292803867128678
Na 9.527001477312936 1.9729616698816668 7.524613897331394
Na 3.269772014928279 12.89104468736578 8.448756500412234
Na 9.400204793851504 11.765401235613554 9.189115797550992
Na 7.76140666218389 4.8962786134326475 8.597250450669764
Na 7.666491198931566 8.666982547708818 9.254332826976796
Na 5.879760032939669 1.6374097505429492 9.047274365354012
Na 4.592292186298172 6.727462826452922 8.889387054550864
Na 11.240765566523185 4.777453605768053 9.340168175390202
Na 11.174052018264673 8.510286677338714 9.883090860380516
Na 2.742080285495136 3.4884246716530614 9.12533295754666
Na 5.930498361917957 11.651385380694204 10.63656035054595
Na 2.8664812981349197 9.670858215588273 10.080132891013188
Na 8.82891282589927 2.6753842462075372 11.05294759468157
Na 8.684280743950247 6.378051088625981 11.75247457525564
Na 5.480436432826441 4.29655999502963 11.515999603900793
Na 8.652472870783468 10.038265879163061 12.369289004405486
Na 5.524127389039703 8.281786575755264 12.142154136801528
Na 2.4735913141814807 6.329650447155148 11.596733552445306
