50
Energy = -53.98490562 eV
Na 12.61567876679512 8.338990708341314 4.098812111827289
Na 14.09087549456886 7.795555556524967 9.242509900914035
Na 11.959547514822951 10.576440771520836 6.862975678582624
Na 13.978079903970848 4.473994593182967 10.797103926321899
Na 10.140421378672531 11.1671484640158 3.6802979825707784
Na 11.540602919130414 7.0955491830163835 7.23365318470512
Na 11.068007103795901 9.66669497361838 10.072468242871564
Na 12.32017388910503 3.70878155477279 7.527556649300862
Na 9.865841979320638 7.9423279595622045 1.7716424857987103
Na 8.263345240179655 10.822204072111184 7.27604051408899
Na 10.840942128090852 5.090436221400716 4.213665861018746
Na 12.983677650622534 7.818819933634152 12.686363524154999
Na 9.832571323094129 1.0418343222828454 7.368620947839561
Na 10.268932053501757 13.755516828199447 6.262858869434198
Na 9.224325701486922 8.116011940610074 5.218865293152618
Na 10.99769207665911 5.903733931273293 10.310291695273888
Na 10.78437519843278 11.195834067972767 13.111416821699486
Na 11.478457392408828 4.6127051782157045 13.484112395154817
Na 9.435670074065396 7.846447626038263 13.026391847217171
Na 6.771157144761301 9.681990569698375 3.2554199138095434
Na 9.502694701037406 13.064031759802695 9.86128415949529
Na 8.372106226768992 7.714689045966568 9.091896637331299
Na 8.724268145944775 4.620681493151597 7.17462205259342
Na 7.3430357155226575 15.14262402139171 7.618110836231978
Na 10.830046185965127 2.3781203254068344 10.597947404187268
Na 8.153627519592956 4.674114407516733 11.88975575112606
Na 7.191472851408475 13.196365521542273 4.478025273683709
Na 4.842870990681879 11.112497444563996 6.2114203708058815
Na 8.4395118786705 2.467446085471958 4.255032398821749
Na 5.736880440701209 12.68361222422363 9.3737610618116
Na 7.343311411863191 5.83126909272248 3.18968248035934
Na 7.567591786647174 10.453102455364412 11.449675774077205
Na 6.1176897454529096 7.470217052123669 6.1310316285197315
Na 5.819737835763397 7.463841816600124 12.247049276893952
Na 7.212741729295852 2.0492266029675514 9.76504147623063
Na 5.817468063717925 5.380752647649837 9.11535675157474
Na 2.424914088523284 12.750476568921261 8.579018518360005
Na 6.358809734626362 0.7900108915004308 6.6985126794771
Na 5.157712129818061 9.046071819590573 9.019745450581127
Na 4.087956479088754 12.161912462524002 2.913025821727806
Na 4.126151681026827 14.532297472491207 5.959093139592844
Na 5.385840949848008 4.002969363845395 5.6111786750309784
Na 4.6022673448363784 3.9723143281143005 11.962416350059874
Na 3.3195463155263734 8.64121059967091 4.26974137880587
Na 3.475712764864947 10.447587590740026 11.474381371773541
Na 3.6636499531780933 2.7307054937387827 8.622074963416328
Na 1.4840909858766596 11.810187105519233 5.261961839009004
Na 2.683384425799375 6.806742969903456 10.562155283543857
Na 2.944780975331857 6.078669078471464 7.118250354014067
Na 1.884003171673555 9.361873749191048 7.963414679482014
