50
Energy = -54.37714854 eV
Na 4.334888260894725 5.706600923917456 14.246975575467626
Na 6.976988804408626 8.249126829553322 14.639630122840765
Na 5.898062165431454 11.776107858384101 1.0264694924686484
Na 7.843923396161484 4.510130646724569 0.3903945997830582
Na 2.293078978549597 5.586152845620687 2.5690436530227267
Na 5.032453879956457 2.7668076286496115 2.399563464271269
Na 3.4858948303101864 8.827999331505643 1.290548383025551
Na 5.683446996171808 6.22532573652795 2.515072108752711
Na 6.565576143216724 9.410682434846155 3.329891583304862
Na 8.728593590837768 1.1879577335874696 2.671344972630229
Na 7.256518572126062 12.523019998793114 4.527446017557659
Na 9.25832980435922 7.097144110098499 2.5029855043751517
Na 11.241292123838473 4.038854420674346 3.108548777790515
Na 9.341078388557392 10.635680808703572 1.6375373808114917
Na 3.767755840837155 11.38544292903222 3.896091244768159
Na 10.12331587081 2.0898874377319343 6.264553754373411
Na 7.946618375345511 4.066792573511678 4.06946885298819
Na 1.1671452658398553 5.488766412951279 5.918473570806462
Na 0.8346721886843179 8.901459842307508 4.46120866586964
Na 4.63724515562392 4.460625911260853 5.575668693555002
Na 6.452883687322733 1.2095961618486646 5.560198045980556
Na 3.8990268833397153 7.907656079080792 5.14932087862058
Na 12.427130085114861 7.67566688395564 4.033785236382071
Na 9.634795252324485 9.575060175438388 5.149977629666282
Na 7.268558197028035 6.92863860943706 5.69787084351688
Na 7.5052967683912515 3.989583803783066 7.635014538848101
Na 2.465648677136397 1.9709814928586336 5.727211503046767
Na 10.415222428773795 5.7956837936983705 6.189579487789836
Na 8.730460923344028 1.5121427822579607 9.730937698359499
Na 3.1464217149751366 10.58833341626554 7.320052837826184
Na 9.398241597032222 12.081712725421784 7.7079876240333585
Na 6.611725680932861 9.86724000974353 7.096188538203276
Na 6.128441346690713 4.343584975226345 10.77717432933185
Na 5.0504822733472325 1.466346960054122 8.979498594491368
Na 1.5613108747199493 7.723386587986703 8.70449686770154
Na 5.9681389506060905 12.72897564098239 8.728306075793604
Na 4.8360784212868895 6.699848053098904 8.331755454956847
Na 11.027409457966202 8.752930278996148 8.352371694866134
Na 8.150037444038615 7.0485204146253695 9.28503616064077
Na 2.600415950875549 4.057407346570285 8.89230295703235
Na 10.658313578775847 4.520633967143477 9.525444243162685
Na 4.8436377920933325 9.499660766627079 10.37797946747273
Na 6.616619939240348 1.341662359557534 12.542291203757005
Na 8.40446755365528 10.272715094525699 10.619526975773562
Na 3.325100131199756 2.6412960817267455 12.106253695111588
Na 3.4488923417829427 6.350755119073551 11.783972605576754
Na 10.448840319073494 7.436013529221279 11.934332057597409
Na 6.953111029101929 7.41758540460414 12.686379394091064
Na 8.999748617753975 4.2063692475423355 12.689134543303473
Na 5.616849282167594 4.465631656319449 14.246975575467626
