50
Energy = -54.18937961 eV
Na 7.456956272439139 2.514878960217586 5.118760713125522
Na 4.043934546475675 2.185949870539577 4.459771700676672
Na 9.541827414082446 3.9606548820780225 2.8246134992878127
Na 8.234175616641554 6.543309158481955 0.8145042199593636
Na 2.8699083736671143 4.513763571770032 1.9133107835609073
Na 6.393655713177735 1.5132511192459137 8.43836314656737
Na 2.5573598284758594 2.2117967754571968 8.00965535454724
Na 4.11362601520466 10.953006273308665 1.9889483283192237
Na 5.838518307533922 5.462483140466092 3.8403927762861905
Na 6.872458043401374 9.928372229008295 0.024337573594077153
Na 6.462672028170364 8.907200239924817 3.384799315761188
Na 11.91599611301283 10.93010094559986 7.895367033015651
Na 10.023592087138251 2.305106458308248 7.640916083335347
Na 2.0284170893848676 4.997203261581824 5.485457022094067
Na 11.646091820189858 5.011302426890037 9.539683310983053
Na 11.774083546096278 5.146447378940878 5.809581567557677
Na 8.312941431164798 3.687634252179714 10.70371974930295
Na 5.002553751444651 4.254892620117997 7.186005181225741
Na 2.3695258216180934 5.830335863511487 9.07502330078124
Na 8.191015100690896 5.363558077616648 7.319273748914877
Na 6.276507971292046 3.2696932857580343 1.301711510015282
Na 10.60952067535771 5.5883846861340505 13.172662786742142
Na 6.910921869016201 5.812923323933352 13.348592847642593
Na 11.764750538065584 6.605713699587051 1.944812775372628
Na 3.583029484643508 7.072968791672958 12.555814888105012
Na 4.5567316255981964 3.532721913353013 11.053534300039308
Na 5.773282366661399 8.86546281181587 15.141696415174962
Na 9.124250349230074 7.052284043929359 4.448725146924241
Na 9.004244667658401 7.20942109365414 10.694780652266083
Na 9.343327012015722 8.88370235130995 13.855778496886064
Na 2.991966716378381 7.8811336758551 3.4106394948103818
Na 5.803773164708723 6.372333956307917 9.789504562379232
Na 12.115928069947447 8.520706505406926 11.157456804493055
Na 6.381494675631315 9.15395218684787 11.808665019178092
Na 13.878212585594813 7.558074709361286 7.943846910859411
Na 4.79230108386997 7.105287186501373 0.4377328015197219
Na 7.268047235162293 9.297046241083118 8.14067346027559
Na 3.6401410702909334 9.362818132244001 9.40483021465728
Na 3.6563254792919495 10.821576599604523 12.868345492783547
Na 12.411316884908471 8.792046959679574 4.819845325678218
Na 4.689831424658525 7.581668652492074 6.472828372729392
Na 10.524226501441794 7.960411812238369 7.728901904510183
Na 7.175622272761837 11.904154340071472 13.533657729040803
Na 9.300761497095 10.970166791556867 10.559839227468162
Na 7.313309296437866 12.356900395470923 3.2567729411853037
Na 5.154884816523884 11.127502961210304 5.93884317766886
Na 5.812380290491954 12.188461765177205 10.068953380452676
Na 9.841939635522941 9.643475462333864 2.0280060932982473
Na 8.101851811647466 12.913206675067489 7.451955353768773
Na 9.312207108826284 10.489868806757455 5.418444369923149
