8
Energy = -7.12820518 eV
Na 6.8477369258478475 6.253971047386752 3.6198418827523784
Na 3.3591692955283428 5.854908574654114 5.09208974620272
Na 3.6195234444948636 6.75365728679662 1.972193695219792
Na 6.312425270659374 6.74657169996908 6.941251903266527
Na 3.3990826914367482 2.2646834279224697 5.33947269155975
Na 3.896523185931459 4.447083286239041 8.037570004440516
Na 6.759146766123663 3.456503846216155 5.610341161417466
Na 5.063521937225957 3.473080115228053 2.635821248957162
