9
Energy = -7.96952943 eV
Na 8.743164512696275 4.182153099512353 8.482664566380393
Na 6.5554858118159895 6.4580106029759525 9.818312876023109
Na 9.297668157297762 6.139477592312919 5.28903434768727
Na 6.130303678250629 5.038563042749462 6.444431551617389
Na 9.360447839968158 7.7984147801194 8.278175277043694
Na 4.118674162768548 7.615095085677834 7.552857386076579
Na 6.704442850610034 9.859054443659897 8.813824574779858
Na 6.804840492372735 8.428031556297535 5.51262691578748
Na 8.907638467038408 11.103799518704053 6.430334606492524
