11
Energy = -84.18966305 eV
Nb 7.719701301368081 7.9971828894061145 8.982624973706004
Nb 5.86602296447725 6.345741530758769 9.44722946944631
Nb 4.7550798812707935 8.18044875388312 8.084535221162584
Nb 8.615776835027642 5.650606486111018 8.270338223112798
Nb 9.570959959967762 7.261817937649524 6.558564975567189
Nb 6.784459715478344 6.902979754519038 6.7581551015252135
Nb 4.866848758047934 7.878328844679356 5.155785034884337
Nb 4.3754253626415665 5.887734519606772 7.043888420369548
Nb 7.656614241399007 7.379678509262426 4.224745354946024
Nb 8.47891609596403 5.247995266293238 5.428677594153296
Nb 5.722824884577838 5.698031723080568 4.40739340444123
