15
Energy = -120.53682262 eV
Nb 6.6094553955575694 4.844559319334169 6.615383181111333
Nb 7.793575739922061 7.88062903779614 3.473607868260279
Nb 4.152721133729186 6.246858551683752 6.13248532663772
Nb 6.9604678923663705 4.885173214410485 9.388208844213892
Nb 9.697250515523068 8.167430156204096 5.591210137519879
Nb 8.172952230795941 9.96980717401184 4.869084517344879
Nb 7.314785059012015 7.312349441874166 10.10644081241569
Nb 4.91936291322584 6.053988673718268 10.360663270945103
Nb 4.431361694986424 4.728390251662624 8.128695834500986
Nb 5.954658545607831 5.757515099094704 4.272171166695795
Nb 8.343707124787993 6.708385247030215 7.699355531175889
Nb 5.4438435413900175 7.3751704985148825 8.20425381386087
Nb 8.63278123660552 5.905865231307446 4.929339090283585
Nb 6.543618459940288 7.843474690928522 5.864144506850183
Nb 8.077958731165277 9.285357571273455 7.488490819093212
