14
Energy = -111.09495514 eV
Nb 13.399270401558997 9.85765366403331 11.650550454690451
Nb 8.800296371543942 6.450583010917125 9.174171532551963
Nb 11.956935659607828 9.56158328073179 9.271851579243199
Nb 9.57417282795119 8.761238028215892 10.217711495818207
Nb 8.130013579730736 11.102810865059379 11.558484474161652
Nb 12.84148747604924 11.765726216980655 10.529270080448397
Nb 7.3769686881527985 8.746413344827534 11.511123131172154
Nb 10.845627254293467 10.300301607205615 12.020484228380957
Nb 6.737182587158509 8.015938693980589 9.081777698011413
Nb 10.709339010267957 7.515829399208352 7.917445668957088
Nb 10.010730914082306 10.405505367405913 7.727990268767833
Nb 8.418974690485395 8.35800818548972 7.21933529241351
Nb 10.141509887338591 11.778302284106678 10.003337770741531
Nb 7.630636772222911 10.510216673682924 9.056489941382052
