11
Energy = -86.07575643 eV
Nb 9.339924067217426 10.421153405486386 10.499054188120331
Nb 8.169192768865488 8.838674504003112 6.678349487261799
Nb 9.771769771930273 10.67287305140734 7.8289069449783435
Nb 7.281755337418709 10.182882766256029 8.810024159240696
Nb 11.472215614361147 9.44424629463064 9.458828293077914
Nb 11.012464682273906 8.502937321187572 7.093819075657182
Nb 9.508074302469346 7.747717081883023 9.402340772565056
Nb 9.42407918545228 6.585044306715096 7.034036043491953
Nb 7.534446941835724 8.549142099263367 11.117682723460666
Nb 5.506116947514376 8.73557907184585 9.894222531132074
Nb 7.055001897980699 7.271873249776396 8.435993919582858
