11
Energy = -85.34855738 eV
Nb 4.595051637620864 5.129574309534232 5.065112060549547
Nb 5.722615717202012 8.288333583514309 7.640014044999592
Nb 7.159952541630622 4.914230924349042 4.174727434175568
Nb 6.1290185565714035 5.819605008731793 7.014482558566921
Nb 6.730732458435013 7.391382169266066 4.829295229503167
Nb 7.847005656723719 6.81233131630162 8.805754598494486
Nb 6.6778491781940845 3.39698273867638 6.008852736524408
Nb 4.225762341546369 7.772030006584524 5.432942580153754
Nb 8.599990074989963 5.445581963354773 6.396760799883324
Nb 3.5515568129847894 6.435617604792929 7.356891298739249
Nb 8.279138083072842 8.113003520839952 6.793839717381902
