8
Energy = -59.34699974 eV
Nb 5.111933683390602 5.622770901740106 8.372712253175967
Nb 7.345530847909119 6.805501094097587 4.867630567735004
Nb 6.6736886375702325 8.851437616246324 6.349786647809378
Nb 6.256085429206094 4.551231130894873 6.282929630237988
Nb 5.125207462864 5.726621928025839 4.358689490229913
Nb 4.747434154244627 7.226041733058601 6.4607537083977435
Nb 7.201885839857854 6.9641727415170385 7.937780121662354
Nb 8.639640003551667 5.35362891301372 6.471123639345979
