9
Energy = -68.67683866 eV
Nb 6.918065175913043 7.881019630717753 9.757912469579308
Nb 7.991943398043226 10.208011187294028 10.100543045466555
Nb 10.683932487169992 9.17063316997463 9.877713745454319
Nb 9.244030721666343 6.814331930665245 9.85698464554059
Nb 8.874151706761422 10.759156333229605 7.681860584450123
Nb 8.846562027300477 8.217288110972989 7.797397788616727
Nb 11.21988144477294 9.751377109025842 7.500069484440662
Nb 8.635826168620815 8.487794604459834 11.727152806598394
Nb 10.560133861897118 11.599979003760543 9.375970086121251
