18
Energy = -71.35188812 eV
Ni 7.304277170760671 9.797141664513822 4.238823198881953
Ni 7.219156398148414 4.820681581197818 8.687814403757923
Ni 5.7589542837715815 3.747882186934224 4.53911519136128
Ni 5.867905688636606 6.1705903915223 9.937484752009224
Ni 6.048242169956356 7.5328172603579775 8.021943852488235
Ni 7.853555429411228 6.408523317344963 7.003473007535263
Ni 6.720473455333976 4.493742639498456 6.447307130351131
Ni 6.22908682964997 8.869115337876023 6.069621788551151
Ni 8.0981111872428 8.711845444355589 7.4915373924033455
Ni 7.9529909819037155 7.086950940943167 9.22495995458663
Ni 7.224031427244893 5.780704026875727 4.597721034413753
Ni 6.15975488093367 7.826102585512897 3.9176105908312193
Ni 5.052123281358772 5.349507468686608 7.897935456846133
Ni 8.134439174572508 7.896511339872431 5.22315584461198
Ni 4.976014434025573 5.822969587793376 3.7483776875707258
Ni 5.468365865679671 6.647849347584405 5.908253431067184
Ni 4.115470732726416 4.8107115440143495 5.737474993176699
Ni 5.0302645237421375 3.094184128210104 6.933175849769156
