15
Energy = -58.16688113 eV
Ni 7.35377040101991 7.862012263952069 7.954340832365471
Ni 6.7348916026672105 5.744104092562665 8.75839444785678
Ni 5.723157110578912 8.6974809206365 6.583557841662411
Ni 5.048433860465678 7.259103270517379 8.371689107791312
Ni 8.660623350923135 6.117385756843523 7.25700644246159
Ni 6.326080428155869 6.319265872440173 6.325103698779563
Ni 7.8342140559558775 7.601335743186996 5.375451461421532
Ni 4.829650037967984 5.028696809110981 7.275739779582148
Ni 7.316118892063438 4.199126768652943 7.167257016206772
Ni 3.92344415922767 7.188003812366189 6.364135472979317
Ni 8.335906749946611 5.165397742292651 5.191297670941365
Ni 5.418975434455948 7.76976111131676 4.50924849032828
Ni 6.701945812164882 6.000329354660867 3.7977114618084733
Ni 6.182301175546633 4.149490012938472 5.1817421119774725
Ni 4.492928559948048 5.636238103504381 4.767839361621541
