18
Energy = -72.59009257 eV
Ni 6.541012721970415 6.02149412071815 7.888358172702508
Ni 4.395612416781475 5.024306688327598 8.356392073037608
Ni 4.844575344261312 7.377618632975231 8.591457177327756
Ni 7.055267987951833 8.264905081024235 8.479807137444418
Ni 5.816290384465558 4.1480827456630225 6.6129691521170875
Ni 4.2342828653592735 6.350673101877705 6.497471123440148
Ni 5.80772696030664 8.221670123808147 6.549461064267483
Ni 8.130489726002601 7.342533916925214 6.5806748247876
Ni 8.115725067215859 4.899006821379375 6.414125474427002
Ni 6.3864897788854105 6.177275875312247 5.5273062219499165
Ni 6.376794244933051 6.230077321403593 3.1943272510900576
Ni 4.598818450880369 5.100271878702181 4.42698863939642
Ni 6.897739486345628 4.171781713045616 4.418628298210599
Ni 4.766174543177409 7.518446681582243 4.477986907046446
Ni 7.118112799493163 8.137510879308765 4.496700289829723
Ni 8.442012895523037 6.149243092883396 4.395883499879491
Ni 3.554653809992737 4.045480652919689 6.325318403320877
Ni 4.960064226444481 2.8614643821343315 4.807987999715482
