16
Energy = -56.4066518 eV
Ni 7.32574269039173 8.384979613210191 5.4802876531376
Ni 9.0355921908431 6.886959702077495 5.921694917177438
Ni 5.675061454435604 9.112255062496244 6.971029705269658
Ni 7.633625550912417 7.9670053656213 7.690018759937363
Ni 8.59682698655457 4.584607174049193 6.708926378907762
Ni 4.896229993696553 7.5312733067373285 5.101320173455471
Ni 4.969366060694214 4.794912487735246 5.25537713511964
Ni 9.272769805255185 4.8779683359774095 4.7259323411683205
Ni 3.4099297361012795 8.626756516965337 6.851022236610259
Ni 4.490477409162949 4.6790728767419525 7.82306591516051
Ni 7.085550146652603 6.028807748746619 4.227497617464986
Ni 6.273129672585438 3.404112026784996 7.0568252135036635
Ni 4.667853805166934 7.504776700312221 8.189676883719162
Ni 7.2946094669381285 3.7059666994629485 5.030680914152785
Ni 3.3651925871089277 6.305482967586774 6.666273106556911
Ni 6.336955817084799 6.09195898102842 6.512956673005535
