10
Energy = -36.85762492 eV
Ni 6.266684831266689 6.101145217063964 6.892183131225283
Ni 6.737972319393302 6.269269681389715 4.6498635650278395
Ni 8.03090499683603 4.8265597560321085 5.953811082892141
Ni 6.095205833556932 8.19744822408538 5.811121150495151
Ni 6.641970609022474 3.9455692425161195 4.343671173466367
Ni 4.710466357273926 7.337316062163533 4.181213939688091
Ni 5.975785044459021 3.8520456168862003 6.603982600774221
Ni 4.185566599800166 6.96206720531024 6.450930569383384
Ni 4.78006153181051 5.169474640869626 5.149321668810397
Ni 4.163093572576724 4.926816049679008 7.551612814233029
