12
Energy = -44.87368626 eV
Ni 5.992481917778364 8.343842355716586 6.579737759064291
Ni 5.992481917778364 5.924084424167524 6.579737759064291
Ni 5.483626765497448 7.133963389942053 8.550150364491248
Ni 7.133963389942053 5.5410848278866025 8.652736947342722
Ni 8.275444862105745 5.924084424167524 6.579737759064291
Ni 8.275444862105745 8.343842355716586 6.579737759064291
Ni 8.78430001438666 7.133963389942053 8.550150364491248
Ni 7.133963389942053 8.726841951997498 8.652736947342722
Ni 7.133963389942053 9.393063226210716 4.868774959154135
Ni 7.133963389942053 7.133963389942053 10.32514158557918
Ni 7.133963389942053 7.133963389942053 4.8201433654632835
Ni 7.133963389942053 4.874863553673397 4.868774959154135
