16
Energy = -63.44873771 eV
Ni 6.343261206865639 5.725836566406023 7.816978905114736
Ni 4.419051899379311 4.5334399259699945 8.394860693924908
Ni 4.458652125793987 6.884659317443582 8.52826139051673
Ni 6.561791814721602 7.943073729880996 8.522881903844258
Ni 5.650535817100595 3.8602933809568243 6.454714426620763
Ni 4.0817450528887855 5.7486265532115315 6.439612372394663
Ni 5.389813816236334 7.824419305382783 6.516412753036453
Ni 7.768621552853286 7.225641875848437 6.5780594414406295
Ni 7.976300780069311 4.748893823919046 6.386051153893979
Ni 6.212719154084455 5.896715914400209 5.432537540106923
Ni 6.2399565004867785 5.962105745341155 3.0760058490425557
Ni 4.627445902919845 4.6292115562907705 4.329772506224976
Ni 6.941626125780903 4.0125002396397385 4.318687882691278
Ni 4.441616486039197 7.04382187935805 4.432284735459087
Ni 6.698510471665215 7.925463884426241 4.449171400263116
Ni 8.260466961321242 6.107411969731844 4.395822713631671
