15
Energy = -58.32960195 eV
Ni 8.935152734641653 6.458469582645566 6.099664215716213
Ni 11.003660675950487 6.248605452914143 7.150923220008501
Ni 5.076744613596941 5.557388223040203 6.475571949511942
Ni 6.695824337985778 6.941348348832014 5.530424217685011
Ni 7.201650389483396 5.686428288833007 7.531612030040785
Ni 10.065522634655334 8.30677619001079 6.896855794252311
Ni 8.360035637451308 8.666901228483594 5.310441182988367
Ni 6.1277632277908065 9.127805938927985 5.988892772559979
Ni 5.2106147981911315 5.612755752842988 8.847581736595236
Ni 3.3967376449515583 6.595748522489004 7.667626501841683
Ni 4.327840214711132 7.64899611726493 5.722814047842207
Ni 7.747438466522909 8.159084751681245 7.4771371436167335
Ni 9.1839252307481 6.601367364160438 8.488342738598282
Ni 7.074089841934213 6.989649036035198 9.452693040810239
Ni 5.513318872893404 7.600071062404042 7.732757997282085
