19
Energy = -77.09194715 eV
Ni 5.293768405899328 4.217443435459707 8.256852078794571
Ni 7.682334527619584 4.682341187523122 8.06090106982722
Ni 4.108760356386238 6.353873334823421 8.255295959253116
Ni 7.969294219270201 7.101387306567836 7.938879934490038
Ni 5.761789974690835 8.13184798394981 8.059771325592354
Ni 8.109436272529212 5.748527409844507 5.860514127134106
Ni 6.895440323715017 7.9278076544577365 5.861581997607241
Ni 6.415851140793033 3.919833642301731 6.061968819213863
Ni 4.45343127549679 7.452736234176566 6.0604902333570205
Ni 4.152850943366614 4.976854215900693 6.186622323389412
Ni 5.452817862771258 7.932288706352649 3.8418936353954956
Ni 3.8145332217033032 6.164760551904963 4.032034790192385
Ni 7.639521775231527 6.912984576342353 3.7224769829849795
Ni 4.9897179091033195 4.052734103468318 4.030924948022998
Ni 7.351972481412548 4.515740509440716 3.83882792103456
Ni 6.258986203905353 6.147529771953651 9.423900531069066
Ni 6.092839197192358 6.053209550868938 7.1560590544651905
Ni 5.922014182888717 5.956284290313371 4.90950715675303
Ni 5.752097077392502 5.869272885718447 2.5589544627920273
