19
Energy = -65.55104653 eV
Ni 6.160484854662753 5.772069567159574 2.6306394792804375
Ni 5.365681967487049 8.066619421865564 3.0528196496468962
Ni 7.93381800041006 6.14494238321446 4.515742720865652
Ni 4.042213799834815 6.256368603189666 3.2670610846919197
Ni 7.418172501525125 3.9561897771413714 3.5614338384523334
Ni 4.937973908694502 3.9394576951136284 3.058726776500912
Ni 3.5108791207081484 7.974437666134789 4.900285169518202
Ni 5.606546963897774 7.570723192039588 5.322183072459897
Ni 5.983033864026032 4.332545520607726 5.153975457680084
Ni 3.536604521875878 5.720021235304599 5.749176237701182
Ni 6.326019042139226 5.902813913390907 7.339501578393172
Ni 8.369698498180501 7.282087389272764 6.853190920881578
Ni 8.56112849475746 5.0335901716854865 6.61877350821125
Ni 4.368902401060046 4.548733189755849 8.020606460066832
Ni 4.032550444036127 6.800029098744428 7.863298538812858
Ni 6.427831794772344 7.981975030104225 8.426665245201649
Ni 6.8475929866398015 3.9596140875674424 8.430309963907096
Ni 8.004943582890306 6.022511742861893 8.824726715564243
Ni 5.663366267532032 5.8327133299765235 9.50832659729361
