27
Energy = -114.3579433 eV
Ni 7.843622392616456 8.186949677604195 6.136267283953386
Ni 6.9599209380113685 8.415982388467564 3.7385906344038995
Ni 5.715958792656411 9.485966209075066 5.619538810698207
Ni 4.479256619488953 8.237532273168455 3.7716599203590677
Ni 3.751691473427532 8.013983000046844 6.1817644331350365
Ni 5.842972682314815 8.04734538949871 7.610242063959132
Ni 5.820882341077792 7.279026616380045 5.29357718565277
Ni 8.037645459925743 7.259549027803489 8.457570500517555
Ni 7.90847912303905 6.331078539031804 4.500447127476084
Ni 9.292223737215828 6.063714578735436 6.532598379836896
Ni 9.479817829487928 4.692977339196998 4.5345730187917175
Ni 7.072714240119161 6.0529777050384785 6.846476548984004
Ni 5.834731367404663 6.200047090556658 3.1645908975219417
Ni 5.920189662819912 5.934336745748439 8.949338892203487
Ni 4.714848574381663 5.964908753844666 6.898483266715292
Ni 3.808777712777176 6.03486375269028 4.608214597980882
Ni 3.7550181499989455 7.137987848643592 8.542886612825743
Ni 2.4956611306629797 5.9038545793822 6.701630002281375
Ni 3.768551929321218 4.649078475302049 8.452529433809662
Ni 3.9004475163967545 3.9400673917803823 5.988060359507441
Ni 5.9103191219567215 3.938217868896513 7.470983374742982
Ni 4.715760565730049 3.9826101312070055 3.560480289462518
Ni 5.928629914076506 4.918741888296329 5.170614049385169
Ni 8.050085844869674 4.766684942377631 8.41235280688688
Ni 7.9162695975791735 3.9591628618129135 6.094477841780186
Ni 7.311905256869173 4.094535662016876 3.618989617333294
Ni 5.943617591638065 2.6878188292605585 5.323061615658978
