28
Energy = -117.73011772 eV
Ni 8.426627302731369 9.687941017761517 5.069263595482737
Ni 4.145676612054174 6.64649986162281 8.236962851301008
Ni 5.1390388811835495 4.4428975664268275 8.404529569634294
Ni 4.405899144391444 5.800245393713543 10.31023422590297
Ni 7.726794667053028 5.495092395122365 5.506779443470572
Ni 7.446040980632794 11.680665388477173 7.377172121310631
Ni 9.202175818567984 7.4151256846191895 5.532706328094453
Ni 6.363981548193629 6.290449940505615 9.227208196763318
Ni 8.585596064731586 3.4673101395531507 6.282540371762409
Ni 7.498390330355621 8.354399818929235 9.458395613857103
Ni 6.8658464487004895 7.816482082795374 5.412145178930535
Ni 5.72852632402943 5.960753668245438 6.656878139367017
Ni 6.201139989642399 10.159824722309379 8.673107506807142
Ni 10.549031812076942 9.253037187236174 6.058036831736148
Ni 5.108130863530338 8.255806288873094 9.725962237634075
Ni 10.059476705235006 7.697445056911898 7.786146450543719
Ni 9.589464392231685 11.20722837274542 6.830109981405732
Ni 6.235862526334436 10.05096090053873 6.169685193457195
Ni 8.188813332468786 9.295169462339079 7.282831257140353
Ni 5.727453239163584 8.19765566160051 7.471053135312067
Ni 8.854554194452218 6.3052017772778495 9.342429230420128
Ni 7.788571841084846 6.959689401900707 7.417985812106103
Ni 7.561289691689897 4.645044936224106 8.037894537094836
Ni 6.247204376983459 3.6881048402179046 6.391538091082384
Ni 9.593629731504167 5.484612763171447 7.060104332019967
Ni 8.607311763148472 10.533270740602264 9.144275560516588
Ni 10.76972256311116 9.892107661347445 8.339295292558663
Ni 9.746416621139032 8.533268071338899 9.94357770978957
