25
Energy = -103.52457806 eV
Ni 6.215903131236658 2.7545891415550985 7.0086262314043255
Ni 8.61788832405497 4.867858520349786 4.705992844485559
Ni 2.778949331771618 8.097910936494152 8.101286309773059
Ni 7.184164262184941 6.524186550673658 8.087746571217705
Ni 7.758641747909036 6.853498057852041 3.449946699015124
Ni 6.484446840566139 8.474378455600965 6.750087146490128
Ni 5.744346517999959 7.830065014403023 4.4375706980588525
Ni 5.2647929265638975 6.408174720620328 6.18531346347982
Ni 3.3231093492444255 5.923761353495182 7.225679575094331
Ni 5.3422840656788155 4.860415878220584 8.108594135733302
Ni 6.946632036590901 4.862589255384295 6.352918150826546
Ni 7.548383795303206 4.490162102708902 2.727004903091202
Ni 6.795953165162463 3.219768559785148 4.65249151092889
Ni 4.712343757892486 4.158761010766021 5.831847150370427
Ni 6.05805973135986 5.459118667192721 4.194392063734208
Ni 3.9070162285628314 8.279015338063756 6.088274444250454
Ni 7.625594871451298 9.039233955930234 4.707490834822524
Ni 6.5408966789639225 8.6652896881894 9.032187489028754
Ni 7.603686077394419 4.107827858200513 8.464089378289287
Ni 5.421575801308831 9.964101612727264 5.396917741038472
Ni 7.94582300220701 6.943747396090702 5.7684338256748235
Ni 4.893842506977409 7.199672327047312 8.424312982893412
Ni 4.655774175498423 9.55060530732074 7.847279433996295
Ni 9.11956880432321 5.3479343141051405 7.055182554597328
Ni 8.525572865006605 3.1325839724362488 6.411583856918221
