28
Energy = -118.04016023 eV
Ni 6.2497450641719166 4.74656548685569 0.7377570611204565
Ni 3.9202246034762718 4.183016048334647 1.0390173699547025
Ni 2.6647778439655903 6.235332881679201 0.900670223032516
Ni 2.9418638499305962 1.741990977310883 1.6245056464779348
Ni 5.292986208130677 2.3187321983941236 1.918566560362537
Ni 4.866962018607903 6.382066834869374 1.6362448841322257
Ni 1.7176949565204418 3.787793862782028 2.100970838621336
Ni 6.985182104366116 6.310229478105359 2.603053421169457
Ni 5.726968606125189 4.460711508666243 2.9139447265145098
Ni 3.6443107325913084 3.2476845624349537 3.1665421049516906
Ni 4.069273305471739 0.9360520438591101 3.7176910218870165
Ni 3.010650055585138 5.576972935797493 3.035923881675617
Ni 3.396143622713939 7.782288162169137 2.777636944071565
Ni 1.7702781012549516 1.887571236698233 3.8269460887490463
Ni 5.692682989333041 2.649588597888141 4.430500155514926
Ni 5.116198557239669 6.710868306046865 4.068669567492197
Ni 3.466842801324707 2.5538293233218865 5.388230154283046
Ni 2.9712679339310744 6.448593469269948 5.274760746003856
Ni 1.3910505490208238 2.495845054441995 6.259634882753898
Ni 1.879575886981753 4.229352798619933 4.614925620450387
Ni 2.610466346914744 0.45370552173875833 5.688836900855044
Ni 4.305141749820874 4.660411976543464 4.867635553909347
Ni 4.9570144415591875 1.0219771909970885 6.092656260482602
Ni 6.536207029539044 4.978476885718625 5.114086935881297
Ni 4.904282275722096 5.9334507395672995 6.646565911344723
Ni 3.363453390563261 2.0551311260199303 7.6229031408668035
Ni 2.9356812229366067 4.3952321534315075 6.8350006545722675
Ni 5.2465099212942805 3.449964807531719 6.729558911961947
