36
Energy = -154.71111757 eV
Ni 5.171168012782222 4.48370909810928 0.5795181063609927
Ni 4.17868901257068 6.6719388549814855 0.6040638598932926
Ni 3.5303184935801593 2.700253698585677 1.077092196434473
Ni 2.806386311375366 5.07164799100103 1.5100893754990463
Ni 5.814868306750507 2.175483430796101 1.7170288804071947
Ni 4.152404809382591 0.3360168018882831 1.7274259284090558
Ni 1.2621068767144157 3.2330839402133043 1.205208787896977
Ni 6.959306212707741 4.190266673097783 2.430200359555309
Ni 5.4090309770770215 6.28609940878811 2.508788513159161
Ni 4.722441378976095 4.034463954334166 2.710812780802679
Ni 1.9937511410704991 1.2923974110483136 2.4318149835440113
Ni 3.1903328096731762 7.448583245215667 2.6842738430900672
Ni 7.703337551552781 1.6929615656179202 3.095487745541365
Ni 2.1769936744022016 3.559799210367459 3.272963380312014
Ni 3.99140284952653 1.920939723723949 3.315567548749407
Ni 1.2684904724643626 5.896623170652762 3.407944890773978
Ni 5.743354237252897 0.44753545053690236 3.597069242131924
Ni 3.4672321641167283 5.567568380708514 3.8236656365774833
Ni 3.991062163565752 3.5416856411873585 4.927888398624789
Ni 5.917146308482687 5.1829283891842515 4.565658811639132
Ni 4.8272563442570675 7.354048012299641 4.702747083462703
Ni 3.3693298579298676 7.617356250778091 4.1123822579886715
Ni 2.4342731305551566 7.206114659812316 5.145774703350395
Ni 0.40241836731449754 6.232202604884362 5.672314321013382
Ni 6.192759199349519 2.8637436829486367 4.31028996642483
Ni 4.698202659509607 1.44654772338734 5.686543515149948
Ni 1.826494238576962 4.4459571685004775 5.437162882953239
Ni 7.067162132192779 1.0837054822550087 5.402421297946545
Ni 2.3341636643980586 1.9577741922634377 5.1586843991813796
Ni 3.9652092227550617 7.532255095816888 7.076380710327064
Ni 4.029046387801129 5.525249061106395 6.072684699034287
Ni 6.046698589964123 6.300710392640227 6.6873599855765296
Ni 2.1235923306866704 5.897860052257206 7.317727153376684
Ni 5.623299655387889 3.732228236459945 6.611664650208743
Ni 3.2209552963813484 3.418401572484951 7.119336076335677
Ni 4.357969124814135 5.303612625769932 8.262616994166041
