3
Energy = -7.6106249 eV
Ni 5.528960015879632 6.981760405577822 6.132216400222094
Ni 6.666546933644562 5.98585233501487 7.730491982789372
Ni 7.730906430492842 6.958800639424352 6.063704995068721
