34
Energy = -146.70711909 eV
Ni 9.12336281343783 4.95716170066701 4.599976777292735
Ni 7.893903618000198 7.915568633998741 5.805378125633733
Ni 8.607164509496771 5.790782326436416 6.65626390665787
Ni 8.52643341468737 7.166330325929223 3.682076084917584
Ni 8.529327109654522 3.3852373225081336 6.476928024899459
Ni 5.757037387443499 6.37962756053575 9.426488759933171
Ni 6.7856749530171765 8.861163644736147 3.8494654390973086
Ni 7.2729207319132785 3.6230909627971744 4.151415580382873
Ni 7.520410181068182 4.756451695310895 8.500657343808903
Ni 7.983178020461086 5.171901954564536 2.523195065239981
Ni 6.914442789167159 5.970399946194628 4.813923125114724
Ni 5.549428854787058 7.870894230797692 5.532209346736002
Ni 6.473251428686986 4.286649445096607 6.411910858253825
Ni 6.368824029104838 6.921258371641786 2.643840243113138
Ni 6.528017724445145 2.0584385211737293 5.6879381391180965
Ni 6.514768214387656 6.589615092222525 7.2940850322282085
Ni 6.656507281533262 2.5888083555883594 8.007933401064983
Ni 4.540108786821508 2.761178568899117 6.793362556899407
Ni 5.109697899247967 4.374978996989767 8.447650473007268
Ni 4.450295600633873 8.305916591242193 3.3607256033778645
Ni 4.44840624701574 5.61553096073239 6.451187629602333
Ni 5.668184645368898 4.621203333123204 2.6421114798955116
Ni 4.560614560518452 6.119976239203702 4.133643957274604
Ni 4.335477746930308 7.595474884475128 7.6682497824802
Ni 3.229053358891732 7.682975834334496 5.434043732362207
Ni 2.7691058822387187 3.1055400578628047 5.204715771568877
Ni 3.466518806740205 5.883289980621105 9.004359084095782
Ni 4.187408602831165 6.334463983959916 1.8255098005055914
Ni 4.912394241042619 3.7709366339094856 4.712009049486802
Ni 2.795697187810151 4.2793957643133105 7.336866210615385
Ni 2.463593153429665 6.88275084934153 3.3220824032441554
Ni 2.1591256997821318 6.625861874905172 7.230679500658883
Ni 3.2326169034363743 4.496568506791989 3.1357767306621422
Ni 2.4065258577168867 5.404531921407615 5.221452296359564
