39
Energy = -170.79283624 eV
Ni 5.3114290871455045 6.788046171345734 8.734730200755397
Ni 5.06389080066174 4.2040050897656025 8.722099576533196
Ni 5.301816515731164 5.1058916870405 6.694180401608927
Ni 7.249083858890244 5.512025671786319 8.268910254043544
Ni 6.865810786113608 3.353356030465547 7.28036596669885
Ni 7.310609728044288 8.04963632798456 8.083047434541198
Ni 8.81303425217754 4.607795763679721 6.56174128841548
Ni 4.8968331801537035 2.110817845195582 7.314592238494741
Ni 9.167524493253204 6.747092981204152 7.378972515821468
Ni 5.287297465709883 9.186616365201086 8.107390771583882
Ni 3.287313824730864 5.864457941061737 7.915522625539595
Ni 3.3544257582046773 3.711375706897666 6.842032933373453
Ni 3.2728923666716043 8.190198095928785 8.441562269817188
Ni 8.585879223116194 8.532452241410818 5.947091336386232
Ni 4.705972299720999 7.440710825516252 6.5515438462769975
Ni 3.7138716949791104 1.8972405405805102 5.162426027803233
Ni 3.1712894549756454 5.731885402265619 5.5589850831086896
Ni 7.000789203985425 4.4626306410150365 5.106482170146081
Ni 6.111444320233537 2.1234453129377413 5.30939868217953
Ni 5.1855866198741145 2.127009250671152 3.1413138290464118
Ni 4.624108443192148 3.914601140487942 4.6639733688991605
Ni 7.282328388978537 3.1153587107901046 3.277540638593809
Ni 2.238897961735623 3.807652482035284 4.66922627962979
Ni 2.3389393336544253 7.716433970113277 6.407506756452065
Ni 9.179956706493664 4.272404401602983 4.106398509468312
Ni 8.378783901206978 2.5409001660337647 5.4992027460612
Ni 8.939714606247831 6.435802370073357 4.906632015999695
Ni 7.055374720337464 6.711969943786313 6.242545119591437
Ni 3.9699850146488376 9.516440857127776 5.996795007948251
Ni 3.2654564656914182 3.2532930169899186 2.695390497935483
Ni 5.4069319510756335 6.199011296958176 4.562487949927978
Ni 6.350825019184377 9.123379451569997 6.000113765297473
Ni 7.421245797661503 5.650637552993489 3.1102697084966033
Ni 3.415557705124116 5.578074890359647 3.2173565572880305
Ni 5.4212582421948925 4.515789178467013 2.52782783290432
Ni 7.131972760310693 7.831266821004805 4.076979295692235
Ni 5.263330845870987 9.207065284317903 3.9252621914043515
Ni 3.5779466817078895 7.7273549596538045 4.301099848317805
Ni 5.362012597704494 7.102679836719904 2.523665736317507
