39
Energy = -169.64610206 eV
Ni 7.881858246883596 3.2914540074041585 9.993823668472853
Ni 9.137165910556641 4.870594476575332 8.866443609588785
Ni 10.524579573240676 6.292458502099732 7.604321750755199
Ni 8.3513157789464 6.9680918369622376 8.150722917362279
Ni 6.880893420973505 5.421705053220238 9.649749526328147
Ni 7.449293403997811 9.114593003927686 7.565152077968633
Ni 5.965996675646289 7.283509737687135 8.33261776885486
Ni 8.915116834279548 5.052190108405479 6.506798011009039
Ni 8.08659583706729 3.108626294996219 7.638695063332997
Ni 5.951810885897151 3.2898678558202157 8.731881937105538
Ni 9.416533528778952 7.166584641765651 5.682678114751746
Ni 8.960343410842544 5.308828924084373 4.158664597291854
Ni 6.706516959989538 5.173546245591219 7.402207995290913
Ni 5.286468232624801 8.916644484245973 6.624017675356264
Ni 4.637061548195731 5.258475432147036 8.620528058980124
Ni 8.206700891586332 9.115783249050754 5.311007607496785
Ni 6.621227004426026 10.718730039988131 5.916433016174241
Ni 8.238922584532904 3.229922098191757 5.217296561358945
Ni 7.0881965762027095 7.2247748428756156 6.171332502936324
Ni 4.446225254906805 10.509705088473172 4.994937981987913
Ni 5.023378857081376 7.014084285319691 5.029019915993253
Ni 6.131005139291075 3.046185787756051 6.30633246579133
Ni 3.250390406647273 8.571539424752048 5.395145576095151
Ni 2.5702617639687864 5.02899426597762 7.345046598047884
Ni 6.111115078106052 9.04109543597151 4.250960584768328
Ni 3.9909686467695393 3.111560379293292 7.4251642822961434
Ni 6.764593112073412 5.146644419434339 5.0164246795797425
Ni 3.8851566077463136 7.042886271854256 7.1758420295347625
Ni 7.601709756798529 7.216005236663048 3.86733018062836
Ni 4.5823734131325295 4.983147651111333 6.170310177696601
Ni 6.947907520049189 5.226466196977571 2.707814590328469
Ni 3.9905488553746307 8.923201183295673 3.2278120718480148
Ni 6.291648241965546 3.156090639694267 3.8741781442217245
Ni 5.442188268811422 7.096816595009477 2.7722864946843573
Ni 4.193659693184405 2.935465731432039 4.973141826306464
Ni 1.9397894939636953 6.718675943880055 5.831690920519187
Ni 4.705261367908184 4.951176772012419 3.6648532330075607
Ni 3.1114255055890423 6.742205005171063 3.727218518056627
Ni 2.646013787131019 4.70252533209809 4.918882436641035
