35
Energy = -150.86834324 eV
Ni 9.13926138783391 3.9083273536419134 7.751763237397935
Ni 8.118260001176509 5.914451214271198 8.460349745726292
Ni 6.713242149502883 7.764605382360736 8.884625138506667
Ni 9.229459244775088 5.724014708127287 6.2420114422447295
Ni 10.29904895267035 3.6664753120638194 5.72672027748396
Ni 7.727700120009566 7.64682124871586 6.668245566950291
Ni 3.8941030547450137 9.103267731048836 7.867017502549284
Ni 6.8143396110890375 3.5515010346884455 7.903967731110273
Ni 5.733897758272191 5.493569323864104 8.763007568606994
Ni 6.138361398839308 9.388343780036516 7.015734611597558
Ni 4.449129237265963 7.400293045937485 9.511811438767726
Ni 7.98172769896563 3.3583740533828292 5.785854254932444
Ni 4.442939272758219 3.630383898140067 7.927737064857577
Ni 6.8905705700222715 5.479577544724276 6.59769894157416
Ni 5.158672309376527 7.278322787174174 7.252307272918175
Ni 8.974468817333891 4.642667365194646 4.09617188894698
Ni 8.015765912821996 6.743464959708754 4.476548398443598
Ni 5.727735878101971 6.89276263184298 4.946118342390796
Ni 3.3594816629317843 5.73646889528442 8.218924112503984
Ni 4.60341178174264 5.142039456814129 6.227983627469504
Ni 6.87335362190461 7.485520984422551 2.630901383473017
Ni 7.415168124960966 5.165626662720978 2.4098545334799253
Ni 6.412746759091498 4.679463741151717 4.417386162578308
Ni 7.5187342749862 2.867525044092971 3.493745862803468
Ni 5.607991675996495 3.0441568332016704 5.859611421257358
Ni 2.2449302380818943 7.709989323896265 8.880410167841143
Ni 6.779842488150816 8.87978114250942 4.729990710528788
Ni 5.507088137953552 3.613276624982359 2.543412073311197
Ni 2.7865742216519243 7.364672997703466 6.6353259821262975
Ni 4.372104139159496 8.7861827660926 5.494831310794172
Ni 4.760851398952254 8.239190430947087 3.2686050276049947
Ni 3.433975515498368 6.618711296875881 4.494148284909607
Ni 5.077570694757084 5.906470931740222 2.811012665331977
Ni 2.3625703456020655 5.104816871503799 5.986173690249955
Ni 3.930263664007971 4.261355183793998 4.209778324809306
