40
Energy = -163.03068457 eV
Ni 12.845183157376626 8.926399564089213 6.362587557934661
Ni 8.816860667501413 12.345106487663122 5.731960670446093
Ni 11.154620879262431 9.637743288989702 7.67882315320569
Ni 4.788538177626326 8.926399564089213 11.271133777068295
Ni 5.731960670446093 5.288614847339704 8.816860667501413
Ni 8.816860667501413 6.096658408480171 5.686494719478279
Ni 7.685567312528558 10.285237110491805 11.882712379878859
Ni 9.954898181797265 7.995978046013253 11.154620879262431
Ni 12.845183157376626 8.926399564089213 11.271133777068295
Ni 8.816860667501413 12.345106487663122 11.901760664556862
Ni 11.154620879262431 9.637743288989702 9.954898181797265
Ni 6.362587557934661 8.70732177091361 4.788538177626326
Ni 6.479100455740394 9.637743288989702 7.67882315320569
Ni 6.479100455740394 9.637743288989702 9.954898181797265
Ni 5.751008955124097 7.348484224511019 9.948154022474396
Ni 11.882712379878859 7.348484224511019 7.685567312528558
Ni 9.948154022474396 10.285237110491805 11.882712379878859
Ni 5.751008955124097 7.348484224511019 7.685567312528558
Ni 5.686494719478279 11.537062926522651 8.816860667501413
Ni 11.271133777068295 8.70732177091361 4.788538177626326
Ni 9.948154022474396 10.285237110491805 5.751008955124097
Ni 7.685567312528558 10.285237110491805 5.751008955124097
Ni 7.67882315320569 7.995978046013253 11.154620879262431
Ni 9.954898181797265 7.995978046013253 6.479100455740394
Ni 7.67882315320569 7.995978046013253 6.479100455740394
Ni 7.659019994744175 11.69719677275811 10.00502119954509
Ni 7.659019994744177 11.69719677275811 7.628700135457866
Ni 4.788538177626326 8.926399564089213 6.362587557934661
Ni 7.628700135457866 5.9365245622447125 7.659019994744175
Ni 8.816860667501413 6.096658408480171 11.947226615524672
Ni 11.882712379878859 7.348484224511019 9.948154022474396
Ni 9.97470134025878 11.69719677275811 10.00502119954509
Ni 9.974701340258779 11.69719677275811 7.628700135457866
Ni 10.00502119954509 5.9365245622447125 7.659019994744175
Ni 6.362587557934661 8.70732177091361 12.845183157376626
Ni 11.947226615524672 11.537062926522651 8.816860667501413
Ni 7.628700135457866 5.9365245622447125 9.974701340258779
Ni 11.901760664556862 5.288614847339704 8.816860667501413
Ni 11.271133777068295 8.70732177091361 12.845183157376626
Ni 10.00502119954509 5.9365245622447125 9.97470134025878
