46
Energy = -203.08371131 eV
Ni 9.037410789272249 8.291426208477574 4.684767660478501
Ni 9.071310562422738 8.495011893693865 7.057008944733728
Ni 8.834748832753723 6.342949244608911 6.096016661455295
Ni 8.408144366948948 6.1398103806955175 3.735946166627066
Ni 8.18822643161371 10.255552487760504 3.732552134287153
Ni 7.51339941060033 8.203568448673003 2.805861341919028
Ni 6.841064133244695 6.134931580991026 1.8683322301938876
Ni 7.580977356401045 4.0087786281341575 2.8558535326330627
Ni 7.991319151643998 4.285475785310365 5.214331739876571
Ni 6.118640302432291 4.090205334584075 0.9793739483343827
Ni 8.351657217515838 4.429104025385174 7.578653073234928
Ni 6.830549530742451 7.644177631960593 5.029961936875856
Ni 8.36066850481957 6.658242561046862 8.419920016094594
Ni 7.395564838865318 9.771521006923244 5.873181782751924
Ni 5.9152305530544185 9.592826910783806 4.017004299448849
Ni 6.126594511286629 5.41909033595801 4.05110938019636
Ni 5.879554771594922 0.762503685493953 5.861838075212389
Ni 5.22496718596748 7.512521290705876 3.0061186418695853
Ni 7.21282693901465 2.4827325609137665 6.774905628341153
Ni 6.5901392007469175 5.8470702035816045 6.5794718210316425
Ni 7.7355774459456175 2.683520431070417 9.060493107044197
Ni 4.54996072522713 5.406670592392237 2.153900473314352
Ni 6.812324226810365 2.330709482970925 4.428641309257745
Ni 5.2757991953686965 3.2839472495474613 2.9668909605295775
Ni 5.523781599737965 3.8767950230138055 5.756282262316354
Ni 7.548155722675066 4.904915405036806 9.798311597932564
Ni 3.7078688180271624 8.826341899720706 4.241545772397323
Ni 6.83932944773909 8.153840963805385 7.4830706909322835
Ni 4.5165117031621875 6.795046042044469 5.221223094745875
Ni 4.2932202112956555 2.182413128699149 4.8317437266828795
Ni 6.011392487579239 4.0019072619320175 8.26664028339112
Ni 3.744808009238144 4.515472846914484 4.247221392232953
Ni 5.007023397880395 8.934456402500736 6.226647553836992
Ni 2.9606077539836693 6.680395801243968 3.4616577496697527
Ni 5.995230216265793 6.443478798285855 8.888907975763203
Ni 4.310465756782486 5.409880850467366 7.1740765582385775
Ni 1.832023300396691 7.994022711575692 5.236517774455753
Ni 4.765603446337621 2.236946207707663 7.287710058645265
Ni 2.9935222643286394 3.576512422300975 6.351722988338767
Ni 5.149440433407022 4.777082363663442 10.295456705068204
Ni 3.163376261244511 7.539335131433913 7.1063069762557
Ni 4.772887923974122 8.413345033671748 8.542965074612898
Ni 2.3278359710836276 5.773442865780811 5.599784592258431
Ni 3.6267582884914713 3.8267728654710256 8.722846087843456
Ni 3.654503287766492 6.355415493161404 9.209997264790104
Ni 2.0201792588393115 5.321014264434372 7.828410698378762
