47
Energy = -208.83237077 eV
Ni 9.169084472650509 7.858721691336123 6.13027037483603
Ni 7.346376193910102 6.823994470363446 2.5000946377463436
Ni 9.109917692609717 6.448204599629909 4.238351544475942
Ni 8.210325836836152 7.676156224585574 8.353923096586461
Ni 5.1141388421505045 6.445286505994509 1.7830358771400097
Ni 5.4733967146106055 5.488567750176891 7.663895894377202
Ni 5.136874397101396 10.043975485905984 7.2215453767574544
Ni 4.998894395168437 6.770004470259311 4.155101084182071
Ni 4.866851426625768 3.107087614873778 7.810525263772097
Ni 9.799207028288023 5.489598483329389 6.289009113059762
Ni 5.764912020793557 8.554640162419135 2.8153298115832897
Ni 2.0539317463920654 7.089401826421172 5.048133109205018
Ni 7.224535030433643 9.082530343868031 6.716697992376669
Ni 2.4249832447439617 7.0460881571783975 7.605635739086535
Ni 8.880839196331113 4.054623664186678 4.659035428184503
Ni 8.720245658782748 3.3975362022090025 6.948607199293681
Ni 5.130908001918294 2.118664884468314 5.6380567414399705
Ni 3.7460980383637463 5.911157087615863 6.056467192298944
Ni 3.4518367577493128 8.659828176179628 6.177327191207828
Ni 3.4350342057166556 2.5655765368650862 4.004957900505568
Ni 3.1746282838114945 4.804231222496043 8.183749380504075
Ni 6.615889906917309 3.9728711621689645 6.227703534786914
Ni 7.980190082996967 2.8453711121979035 2.8373126394252344
Ni 4.950523723890568 4.484042078393222 9.76046619663798
Ni 3.064839103074533 6.524521187678297 2.8937381141934946
Ni 2.4868227667572316 4.779370749214248 4.288351609799205
Ni 5.43173000237894 9.402919578492318 4.987127080566232
Ni 1.5308558616335841 5.162889123340436 6.473432707540961
Ni 7.533434967165947 6.2199440392652825 6.564560008603959
Ni 6.7030421572554015 6.1580196110088155 9.494259111946851
Ni 6.456800038631711 4.563596947822983 2.2348784514520976
Ni 5.932717747997416 8.238291952156263 8.601935667650558
Ni 6.840448676793352 1.8576284891048744 7.302132611754302
Ni 7.235433667598017 7.877369072944926 4.648576970544415
Ni 8.736007784178293 5.395601591068294 8.365808935180148
Ni 8.816458825010752 4.986433525396873 2.4338806436831737
Ni 3.2073151799690556 3.4730153721984958 6.196159246812051
Ni 4.23962704455623 6.69090803328276 9.253208124576787
Ni 4.871215917284787 4.368162309504794 4.624976807888509
Ni 5.478098833765511 7.529508198962114 6.436327770730948
Ni 7.477852487267651 2.1679619099099288 5.033573490571778
Ni 3.6377531608951164 8.834372368141086 8.53618698395039
Ni 6.9990351551824475 5.393181531217319 4.334161648271104
Ni 7.0114678430961535 3.8725540552013076 8.638678762385547
Ni 4.0834644381845795 4.340791805534456 2.464261730815521
Ni 5.708860733271229 2.5901854034586775 3.3395419142444718
Ni 3.5216960320151576 8.619214554729474 3.8136106101228724
