4
Energy = -10.93108569 eV
Ni 7.749981180000111 7.749981180000111 6.664083803882668
Ni 5.578186427765447 5.578186427765447 6.664083803882668
Ni 7.749981180000111 5.578186427765447 6.664083803882668
Ni 5.578186427765447 7.749981180000111 6.664083803882668
