44
Energy = -194.47211768 eV
Ni 1.6268334488552576 6.2297103738220665 6.485022451029511
Ni 2.575706258978322 4.674097263551745 4.91197556969009
Ni 2.8709096125429348 8.334141809216542 6.465693827851269
Ni 3.203747981937339 6.665396665865863 8.149550843290072
Ni 4.538619754483644 8.686197218090049 8.211642882989052
Ni 2.984923289041448 4.426528671482172 7.243932958338006
Ni 4.661146858463593 6.974856838748627 9.921566643873184
Ni 4.6547408157514 4.89162694376867 8.89435876786705
Ni 4.5046265503791005 2.740358280504285 7.951913492647313
Ni 6.7528010292760365 5.818800205080518 9.606400428815746
Ni 2.287847966684614 7.072677409849121 4.378976188484908
Ni 6.660849257369523 3.677182331021359 8.530904619420866
Ni 4.037418414420726 2.9181192359273482 5.600163813105592
Ni 8.794748911441037 4.8151468855193045 8.801710159662276
Ni 3.9752572650393034 6.350761037953077 5.839181839715136
Ni 3.434835742903416 9.102190006561246 4.290144418219868
Ni 5.178067465910491 8.555389143949768 5.8000584651011255
Ni 6.802245169239946 9.034206466715823 7.515214981065533
Ni 5.7707016171773216 6.793123985256783 7.623319982676707
Ni 3.0397060585008253 5.523340424777263 2.7750394178467195
Ni 6.551490618943423 8.255487565326634 9.653835028266693
Ni 5.354249910104573 4.581418541874951 6.567719803888999
Ni 8.221400067883577 7.170197771149174 8.369822091145522
Ni 4.59080910011168 7.1249917577427 3.53061588480452
Ni 4.863239262000252 4.6339583321907005 3.999798439257784
Ni 6.31436978418642 2.349177794495895 6.480374609039118
Ni 7.140538371893207 9.73355165728251 5.308975512138273
Ni 6.329866118171324 6.461869786262615 5.198778895660382
Ni 7.637875148412357 5.279954839912859 6.9067963680078055
Ni 8.172307873866647 7.760659398536876 6.0961014263011055
Ni 5.634996853060283 9.279293267686148 3.522872470283499
Ni 9.77844208316603 6.118413232520976 6.845738215370624
Ni 5.121514323285174 5.43339202512142 1.7464475207282055
Ni 5.792392494792524 2.292862223290323 4.1814617924149795
Ni 7.067600966128244 4.145748305074473 4.858174274772941
Ni 7.538364288576405 7.951736012622467 3.79400562873248
Ni 8.716247730796555 6.0153898576853 4.635769083394425
Ni 6.126901950763877 7.629793602770289 1.8693741924409824
Ni 8.453261706378791 3.0020234956786798 7.188853132657544
Ni 6.530458746453538 3.5905925065577966 2.443461587460913
Ni 9.563100544449902 4.0774516482925796 5.5300195184952345
Ni 7.066500322392626 5.79766097294304 2.965945832565627
Ni 8.16518569525792 2.156009230235081 4.9309002955422425
Ni 8.736508903476302 3.9938891136136947 3.286944740463178
