48
Energy = -212.8406394 eV
Ni 9.447974434177176 3.1396570371790014 8.332491882117058
Ni 8.760092567522591 4.570634061540565 10.010643602606223
Ni 9.427329071098086 5.662234256631542 7.9219461740339545
Ni 9.030836326222515 4.125643200247479 6.199129299164087
Ni 7.252651059862925 2.624408596826471 9.500987927138917
Ni 7.755887442744154 2.1735603070582576 6.996757630816925
Ni 9.590175598696806 6.522956831148031 5.5657941707492595
Ni 7.384258281787793 4.298705530906472 8.014347556075503
Ni 7.426492527268131 6.359222298511683 9.099250690566778
Ni 6.49549409522709 4.753436221032435 10.507397169116517
Ni 8.52493632946731 7.820591541477088 7.491300001496206
Ni 5.676342736398553 1.7749605212222535 7.8790127751003105
Ni 7.500154692353585 6.083547173867404 6.272987157227408
Ni 8.103808104572469 2.527958084280537 4.696078554304743
Ni 8.211105189754418 4.914865902634023 4.170072112453614
Ni 5.1039638332658885 3.8216457745629 8.940892355124328
Ni 7.826619243370381 8.257453853287238 5.2249902384680915
Ni 5.849800944628374 1.796396934544663 5.4387611472259145
Ni 8.559760774160601 7.033813888534741 3.386013839723306
Ni 6.46372993259891 3.943510285358474 5.800684529500896
Ni 6.124232856045323 7.902241209275415 8.013033688144592
Ni 5.521223218371004 5.5962174849975295 7.388442402080597
Ni 5.563145549488323 7.485601708842038 5.715523760819168
Ni 7.1467683125088 9.696338851849502 6.922462373456075
Ni 6.354644632796552 7.84605829570371 3.352869548945167
Ni 6.454515992971517 3.49363141755767 3.343902515432094
Ni 4.313394648094852 3.241064772909176 6.774691261398441
Ni 4.903040214815725 6.266540187383142 9.447496991235722
Ni 5.924219950033184 5.67838542735283 4.2339277428186906
Ni 5.794319048123803 9.649969603406312 4.9213673357822
Ni 4.022810283144452 5.526881133164853 5.652536713585142
Ni 3.2485755644856225 5.0720949733965695 7.921069217461768
Ni 3.538483718211162 8.676424007480888 5.397197364715658
Ni 4.351349809323257 3.4756105310812986 4.424425235153736
Ni 4.788933779103315 9.551249449916462 7.092309565933686
Ni 6.911396743539786 5.727013483838139 2.1731451126441947
Ni 3.7641322770123735 7.321324861461859 7.363970922722708
Ni 4.690224974655153 4.745895764112435 2.4124526450187758
Ni 2.287163976426237 4.0711617394575095 5.878408308983437
Ni 4.340715901341846 9.096031866705603 3.111292728717349
Ni 3.759800171926901 6.898998148258741 3.6292502181546995
Ni 4.916391530114336 7.033161163663636 1.6344457354607458
Ni 2.004192006043127 8.69295499080504 3.7401471885702153
Ni 2.5806340844400135 4.849512880911979 3.6933484782123056
Ni 2.0496562915049097 6.721380561121023 5.308408834974515
Ni 2.82646801885629 5.777865176973658 1.5161625636308989
Ni 2.7460492433518273 8.087497173741392 1.6235078044998679
Ni 1.2552572999621396 6.660518456944226 2.9953648657894427
