46
Energy = -202.17119069 eV
Ni 6.932211214998714 5.333474334217698 3.8460160246993165
Ni 5.040376544872658 5.2799583729897765 2.4420681900632255
Ni 3.0633027778114 2.6351179212828617 4.079992648772487
Ni 8.271288900662357 5.200866746660294 5.9315551546881125
Ni 6.815727895827839 3.040120010876792 3.140951395262773
Ni 6.27813092411325 1.2287837313461012 1.6061694482086313
Ni 2.8938584917972325 4.064242255802527 8.192371709120447
Ni 4.878579475046404 7.20249604327425 6.761293981464992
Ni 3.5896937609748947 4.969754834461212 6.212732408831614
Ni 7.127010884628562 4.1119481567403575 7.771947426748522
Ni 4.91667529846962 1.7143749562274684 5.292091637849933
Ni 2.9280366114524816 2.3541891188706114 6.483748803506663
Ni 0.7132939605181563 5.970397737209472 4.594878046180207
Ni 0.9874152069232157 5.583072508280287 2.182189567373057
Ni 2.171624705647377 7.429512047287364 3.427926814862858
Ni 4.923019982852664 3.9388364222113976 4.396922812140304
Ni 5.036230441413371 5.284780383656051 8.304675061481003
Ni 4.455116939435331 4.723063209343641 0.24424976585746822
Ni 5.0233912311466336 3.2124864535909343 7.104558975389103
Ni 6.958295177186383 3.0142442256000113 5.552623908826894
Ni 6.621342012720672 4.107603407950758 1.1186641212526742
Ni 6.705034888113872 0.9475808443262186 3.9953835725124582
Ni 2.2875721801421705 1.6715954410238263 2.153907927884041
Ni 2.0575938140390058 5.0848766129379985 8.511894919979753
Ni 7.071081473049583 6.49228699555656 7.686872595384517
Ni 5.438060825327783 2.5613269796007554 8.304675061481001
Ni 4.696049096386604 2.846384110822639 2.068519231428512
Ni 1.2073144250074819 5.4915987886471465 7.020196448290157
Ni 3.065448840914418 2.856479135318084 8.439081402796639
Ni 1.655306433440152 1.057779483498874 0.043130823985990385
Ni 4.024959877938269 0.8568527254734167 0.7348437657788898
Ni 4.459463663190388 0.8302341981087342 3.136840573107639
Ni 3.0334527631297936 6.499808632700068 8.035801921430709
Ni 2.840965750361855 5.254080234888456 3.8989987569803133
Ni 8.730633904063136 3.804381748829093 4.161698287941977
Ni 0.8526344234537605 3.2017666795062385 0.8562177287718452
Ni 2.7764905740887 4.086510974809573 1.922064523495332
Ni 4.756236251859316 6.527457911023984 4.465987921899892
Ni 5.95810086391926 5.196119663827297 6.077495002930198
Ni 1.1367962520160317 1.6820205366216685 4.970409960848409
Ni 3.2032951421404676 6.410472356182107 1.6000640977353808
Ni 0.8744960238944357 3.0430820103256364 7.395056166373926
Ni 2.6234860505809716 7.042068204303325 5.7169141459348864
Ni 0.9008559327221 3.4121821360096036 3.251631768303536
Ni 1.4708962433510684 3.9138474780095116 5.415105570888084
Ni 6.916647275229701 7.197378646628603 5.411361265388891
