41
Energy = -179.78211962 eV
Ni 3.9160926927813597 8.238136038961496 4.159935458679715
Ni 4.35822642887733 6.528861417341788 2.6424980196878303
Ni 5.784157625462749 9.625493662130317 4.6395720219058125
Ni 2.7936089900170686 7.259817305453295 5.950902213567748
Ni 4.739110179144458 8.595839945127345 6.419878165808091
Ni 6.542225404973243 5.824762044992981 2.078850438424838
Ni 2.9859930111647093 5.407213101790553 4.3874981182584065
Ni 6.275863893180966 7.687199145111607 3.501468474996091
Ni 8.082648518668707 8.890376889423372 4.645444565892396
Ni 5.029421538525967 4.457668268591671 3.5128877109446215
Ni 6.769975631145352 9.718342615077628 6.775451321627494
Ni 5.081172564128737 9.427721281586017 8.579373986086365
Ni 3.157070783033677 8.136124195323402 8.169458262749249
Ni 4.982523226347814 6.303195076613642 5.037780797795263
Ni 1.2999449643926306 6.823663859403955 7.694186994109768
Ni 6.892207053825753 3.4941706227205254 2.5602060450761868
Ni 7.368988690498431 5.359277307431136 4.247066063299214
Ni 2.6651884775941497 5.107363050997377 6.8098769346246515
Ni 8.53238860163928 7.038559153280123 3.0959945476893096
Ni 6.883142534306305 7.368757058568595 5.899814693895722
Ni 8.707899632449285 4.837040457730769 2.105377801406493
Ni 4.663826314316558 6.393711826986604 7.413875993901228
Ni 4.42758689245742 3.9959939380756406 5.773474988036087
Ni 2.928793648819448 5.8837803647575 9.067092814960906
Ni 8.698023318460113 8.454550151778864 7.029273618213057
Ni 9.956723450069186 5.261631581256947 3.9861792226093384
Ni 9.170132322733402 6.847473028981946 5.4203583610748876
Ni 6.663606222408596 7.769771917157981 8.226826099408466
Ni 6.473646730750556 5.044443841018176 6.548644868141289
Ni 6.524085484302676 3.176807983956349 4.880111805787327
Ni 4.869046565506965 7.254850841878894 9.648949484195079
Ni 4.375340332749365 4.12409929961575 8.190048456499873
Ni 8.7544504217921 3.232315508182839 3.9865072692810206
Ni 8.863741208094025 4.5194496169669724 5.982415254498859
Ni 8.334718647821242 6.180726863281869 7.610981327729144
Ni 6.436733396788349 5.507689214398149 8.955121760613984
Ni 6.030350748078186 2.7655404396087566 7.150988716694512
Ni 4.6563173770522095 4.988784599209682 10.380920454573793
Ni 8.215439188711011 2.2875287668405213 6.198380549135739
Ni 7.921796613886194 3.8386396595416667 8.04675459288283
Ni 6.098041293393211 3.252878679194576 9.49982234558473
