52
Energy = -232.08404092 eV
Ni 6.644162325384663 6.5451343088456335 8.993846076559405
Ni 4.129157428960145 7.025106859342628 7.958033863910832
Ni 10.197148886230803 9.325751603383438 6.798622748132803
Ni 5.510774507843391 8.229937389859339 2.543126794870973
Ni 9.753340055394519 6.027849283786971 4.862183315492238
Ni 5.900393758733369 10.950000325253903 7.891102394297282
Ni 5.586722981308747 8.741579345013214 8.82978576251625
Ni 7.338096271660191 5.88011858629139 5.157262363480696
Ni 7.888633171057816 8.435153311758253 8.123956863244802
Ni 8.520546774970128 3.754360325972558 8.007987189233381
Ni 8.68658144991347 10.178539899867635 5.08270628407806
Ni 8.554819686741064 7.9165675691238615 5.922781421739524
Ni 4.377923164114726 5.328512389706819 6.2630010711645685
Ni 6.460627668198297 4.877596248048759 7.224212489102482
Ni 10.979390006262182 7.115454114662677 6.388717619263933
Ni 4.681223510194799 4.8819518544970935 8.802056977467835
Ni 5.013848942975346 6.632842256500356 4.380228870079639
Ni 8.347385163187703 10.72588396477644 7.481869539255869
Ni 4.321464939329317 9.255259383972444 6.967787172813897
Ni 6.525145610078537 10.411936055450392 3.9113741136393685
Ni 6.566585375623155 6.011211376310783 2.7589619301311097
Ni 8.411092403310068 9.250160575283148 2.9195138476945695
Ni 5.107987238215766 2.8722176794009164 10.086140818815815
Ni 8.65012682439051 6.920676666324524 3.125850596314251
Ni 10.097477491602895 7.463981184532023 8.486707973519529
Ni 4.903952483621179 11.139148234988903 5.633014855505301
Ni 4.649662951849212 6.931771705924606 10.221119287364596
Ni 6.9667472455561255 4.2656703309989155 9.71847648905074
Ni 6.6315731630222015 9.533145073455337 6.2222312273227045
Ni 8.272023707044356 4.397307717140089 3.7398933147156925
Ni 7.103842911122994 11.823961311101835 5.844742902217097
Ni 10.1950772102504 8.425290152359905 4.413436153864149
Ni 7.386885031380461 3.2840234147217195 5.800079308693436
Ni 7.379296101010227 10.103297212179639 9.683143889747006
Ni 8.598392177082504 7.910834421902813 10.302884408853746
Ni 6.083828053882386 7.282398157820151 6.6636791194580445
Ni 4.752282540232953 8.975290024590924 4.658002448117788
Ni 6.3929602702930275 8.33813922961944 10.988054089286699
Ni 3.92545747938477 2.8198058976488762 8.119223540749196
Ni 6.953517394364772 8.092224055205467 4.2587208405146555
Ni 8.935559479435812 5.621153482323077 9.586855678527407
Ni 6.34494521382798 2.682442677703841 8.022836178769886
Ni 8.543224994095162 6.030899254386336 7.2679336786206195
Ni 3.356057274511404 7.440388780544451 5.797557169762519
Ni 7.279823064463896 6.147264462804586 11.234473517851763
Ni 5.239119321863958 4.908907546548397 11.212436657237243
Ni 9.6737877152485 9.701257592288519 9.12237529114396
Ni 10.573032558271004 5.152418806621419 7.846305004777496
Ni 5.81511956364253 4.355039722556262 4.318661757243732
Ni 9.558148509528081 4.071243830019129 5.916615833551339
Ni 5.377558501685992 6.855182320537581 12.476284546861235
Ni 5.021027294927309 3.1172729015965963 6.126708617198763
