52
Energy = -232.13908663 eV
Ni 10.43862238585669 7.9523040498575135 6.225684030998322
Ni 7.49298435656496 2.078775366563689 8.789177356172033
Ni 9.227520584279697 8.0845723578268 8.304940848768991
Ni 8.424313482045113 4.013069913466599 7.899179604122518
Ni 7.939671638077212 6.146478500530688 9.041630377421749
Ni 9.410797023349202 5.989445001635806 7.096038818914302
Ni 7.703625323802114 2.3257397572138827 6.24083392354683
Ni 5.1539276678577775 2.245277101180057 9.347539298689195
Ni 6.550880028170291 4.244182727109742 9.551530217813724
Ni 5.481778266816642 6.2537150302190705 8.785023114797717
Ni 9.57312593738341 9.980759632368482 6.876969919835113
Ni 8.474869610987193 4.471477643712739 5.451885706021165
Ni 6.830426195258545 8.195221280487166 8.513752931134551
Ni 7.466907513587838 2.9558999207832253 3.846104262473272
Ni 9.256345821673058 6.645055061597658 4.742204842147538
Ni 7.882724714242906 7.781206992969013 6.429663841239258
Ni 8.811545606194942 9.093255485776174 4.764087682063422
Ni 6.059652297406609 3.404331580387561 7.476911130694177
Ni 5.884630841312248 1.0111565157677613 7.450083182406996
Ni 8.129884557740207 10.17471854338463 8.729835961450968
Ni 6.943496103997031 5.624516777582921 6.982851681472371
Ni 4.056604411221369 4.297026919526582 8.860673561774806
Ni 6.8277166567766105 6.398169655720027 4.686904044799921
Ni 7.895228914782585 7.670159300090502 3.030949308366229
Ni 5.102748180337091 2.722532187752912 3.21254811909843
Ni 5.513696577558764 1.885975741288667 5.336186931154119
Ni 7.271440429034104 10.015379307164014 6.540894559793275
Ni 6.07876057264946 4.155176187902764 5.177643829514741
Ni 3.952873309832477 2.496666152516564 7.187617765885885
Ni 8.28067468252806 5.2258412964968635 3.1416186203747363
Ni 6.855978405242323 6.329236977395808 1.357883310380751
Ni 4.573847430115337 5.125024984018056 6.732142962207156
Ni 4.478374707398904 5.849882579693811 4.480285214211833
Ni 6.020618228312492 4.833473112367257 2.8579788694151045
Ni 5.458982699513819 7.4461911312316 2.9182061924437823
Ni 3.1930529039353988 6.469366823116302 8.099214917467098
Ni 5.308953075194421 7.417136892124605 6.489016178787837
Ni 6.401554611661986 8.785882103241592 4.661358869443202
Ni 4.469954150455083 8.43093334821343 8.585656297580309
Ni 3.722966897711614 3.4845895226494594 5.039931661064942
Ni 3.5075303127396307 4.402270906966165 2.7781086289290537
Ni 5.815371692581245 10.36619310345879 8.400469152340746
Ni 5.0324796175125925 3.849659022912974 1.056670861002472
Ni 4.922331557196225 9.785354828326465 6.293024206408912
Ni 1.964140462338782 4.9062338379412695 4.4531379574736825
Ni 2.41509869894074 4.404042804319086 6.888788898898484
Ni 4.422447786615181 6.072483269673565 1.4040841933694237
Ni 2.8807413375694138 6.787658661520597 3.1682903700094927
Ni 2.689306127756686 6.595646617181379 5.776804637031402
Ni 4.016928112490718 8.298080115266183 4.641412936169628
Ni 2.946179926351957 8.602715562600336 6.839207668290753
Ni 3.5192253852446513 10.517436142162982 8.05345882192437
