50
Energy = -222.03602555 eV
Ni 4.032698389112753 3.9394943558246402 9.356833343577726
Ni 3.947523393576826 6.508384610955006 0.9422227962293342
Ni 7.817055090867477 1.7990553888356975 0.9863768090409946
Ni 6.9885424937521545 4.075893841022668 0.9927744427130987
Ni 5.287900310726109 2.169121462685504 0.6147982274784756
Ni 0.7786697382412803 3.1735207302797495 1.8322618607529817
Ni 2.19148196925938 4.896170497025901 0.6916833366602024
Ni 4.56919079811615 7.751964822398674 2.999410950021438
Ni 8.075909263281455 1.010122115722644 3.313178066317464
Ni 3.054401286626162 2.6098998118271948 1.313544598142946
Ni 0.43316142001526947 5.475112201096599 2.3101841162312264
Ni 6.120263301082355 6.319590587043401 1.7979169421517274
Ni 4.6706306364820644 4.42448516294712 1.6294175840908887
Ni 8.285472211369953 5.7457728330519044 2.622779133595839
Ni 6.22584345454514 0.16011491143999207 1.9566698445158714
Ni 8.528395251231188 3.3680031119685325 2.8231640469142265
Ni 2.3728963054580663 6.7192326130993 2.6337041982467473
Ni 6.347243292438852 2.308675766781739 2.6220291991369313
Ni 0.4130276076752118 3.9578291004494393 4.144195820956487
Ni 2.0899231876763498 2.152288409335197 3.5892316707965635
Ni 2.495617134987531 4.35812158946181 2.880022215822285
Ni 4.092620350257828 0.9683232546844261 2.726922327900407
Ni 6.467261715911162 4.512354827141621 3.2463393523281376
Ni 2.8621532410128308 7.54889387943223 4.772149366156615
Ni 4.3443413623915035 5.612117634082093 3.827708380708211
Ni 4.424337557936097 3.0780911002396683 3.5876924147273446
Ni 5.843246525884364 0.8855256792567759 4.390385888298502
Ni 5.1192754884336615 7.998789674546219 5.37049979882322
Ni 0.5396714793807273 6.602444713683687 4.45394875595151
Ni 7.363076261655933 2.7279728683633206 4.870850423357378
Ni 6.574585489862139 6.721693974248233 4.150955922057024
Ni 2.2197735274232855 5.255462643868223 4.989537743078604
Ni 3.613927156656143 1.319919772843443 5.22168591509481
Ni 8.114458518720573 5.010478832067797 4.954244153011195
Ni 5.808277320063351 4.502839946795531 5.432150167363949
Ni 3.726063688588283 3.607715320668136 5.632033845413102
Ni 1.5514358084563116 2.762199506704209 5.8837801962935625
Ni 4.140068721446734 6.123596955866447 6.264265192014686
Ni 5.557994708348637 2.274657525730644 6.377071091790671
Ni 0.32035572591385303 4.850390239242488 6.4013605425156435
Ni 1.765221359048827 6.82523816035384 6.777230221873904
Ni 7.309225249138383 3.9068914796444196 7.01033993585529
Ni 2.5267399757359574 4.630902995534297 7.266736529449324
Ni 6.520675520885442 6.2906848387317815 6.6115450965438685
Ni 3.3552586198927354 2.352858562967977 7.548321946232881
Ni 4.979045115731487 4.35339867697992 7.735000225308622
Ni 1.055226155583412 3.198997224891462 8.214367993940195
Ni 3.5151954478913177 6.247298084916601 8.572174700696081
Ni 1.1440010122076074 5.568537946772522 8.786294594112212
Ni 3.0861444839183805 4.004373881389343 9.356833343577726
