50
Energy = -223.10642917 eV
Ni 7.426224120387139 2.3142216042217325 7.3328346176035115
Ni 5.544742336833786 1.4974888038701184 6.140028383541361
Ni 7.048234102312653 3.8834657468007783 9.013168781383229
Ni 7.06627317044435 2.810547301993065 5.006494517870042
Ni 3.8223407520123223 2.986593533591864 6.124052720677253
Ni 5.0800034046590286 2.79240941821178 8.142716072781628
Ni 8.690284838323931 5.392699049842312 9.895811288689956
Ni 9.25220873869343 3.4972209767750435 8.480083067726508
Ni 4.888663245211823 2.6469190746277063 4.031660992007542
Ni 8.723357882284539 3.9982347889487793 6.258121992978059
Ni 5.0190085820574835 5.134833171028179 8.660659607407128
Ni 6.348831761329815 5.461112810977981 10.5868457806386
Ni 6.193394936689766 4.318392742098058 6.73648609803875
Ni 8.22938916824416 4.697945075757235 4.062482453976215
Ni 6.770357963544506 3.3489612334424077 2.7421769136777034
Ni 4.734606063992354 4.514318365189088 2.355163513399635
Ni 3.2551063577614134 4.36556112593096 4.154487941269853
Ni 3.7521176120683086 5.323831803559745 6.331436884677919
Ni 1.7405316605486134 4.040891953452148 5.960260170059195
Ni 5.747897450969696 4.875385580543349 4.477425656821017
Ni 7.194978763252261 6.245458060320838 8.291326193762979
Ni 2.955917530413682 4.129521707957914 8.113171825504061
Ni 9.48812744197634 5.705475221649562 7.631192834411826
Ni 7.562958053182175 7.4322638726495445 10.569516333385602
Ni 9.357827162540556 7.556870623130927 9.110848715887158
Ni 1.6193660559102168 6.028234250746348 7.190553859466575
Ni 7.669276990098322 6.14004277469176 5.915664445033654
Ni 9.063588125293954 7.869799123366546 6.814731040248072
Ni 9.82585087113139 6.070599246634442 5.187552187832897
Ni 4.173511895282023 6.667733354635339 4.339292601748778
Ni 5.465180859813394 7.38996981717204 9.47556746310912
Ni 9.047430043073279 6.511482048869639 2.8404176146140654
Ni 6.921107734361966 5.64515391566983 2.313170547751798
Ni 2.793535313827414 6.118008672560414 2.5428038327327167
Ni 3.510089839491577 6.843283080208444 8.313683847800522
Ni 5.499454915919661 6.790460816662848 6.550676392574194
Ni 7.2943307142208305 8.564914441102193 8.446732805769413
Ni 1.854794965932112 6.196297768626262 4.807761717029628
Ni 6.426021518259911 7.223551713607705 4.1726763367792055
Ni 4.910853069904433 8.749745398459028 7.604940323016951
Ni 8.593296051945867 8.067874370934918 4.483062709889561
Ni 3.1483835832056135 8.229695120402118 1.5458328660618286
Ni 7.234467357867512 8.04435850555913 2.2252324931406644
Ni 3.064210930743996 7.7449377140184765 6.2067707171292685
Ni 6.940313314442552 8.694138379165356 6.176421082890673
Ni 4.996582659130113 6.869778602881147 2.0488130122796133
Ni 2.7285545791812793 8.338869136612207 3.840526523038889
Ni 4.812051205072873 8.880384807809378 5.167997744641063
Ni 4.943996135130855 8.99447107976414 2.834108983532301
Ni 6.846135178530473 9.631359220774407 4.022322501218227
