14
Energy = -117.48910477 eV
Os 9.787708441608766 7.008084145323609 6.539468028321609
Os 9.006484110650417 9.288463161371578 6.175252424664235
Os 6.704413430415364 8.870926539424632 5.78621203433976
Os 6.6477256797729325 6.699960451925247 8.185815155498496
Os 7.366732541802623 6.458106537603475 5.79324942778956
Os 9.124327439001961 7.086140730892455 8.742917646746294
Os 7.707411774302933 9.023038644444028 8.20274697287053
Os 9.018407557142588 4.737471478011301 6.349088645643831
Os 5.530427565677989 8.842232334059338 9.03686565867652
Os 5.1488692023865585 7.198840924485349 4.992203960534214
Os 4.417638763274761 8.614186185040706 6.994412678467485
Os 8.192059103235373 4.752360051914963 8.53288972152179
Os 6.217350712740113 4.620017752590993 6.958475195146576
Os 4.3746032895043365 6.20059785197706 7.121107954752813
