15
Energy = -126.47386804 eV
Os 4.847446636247812 5.127954695265214 2.7466956213205873
Os 5.175307876561047 7.864055143791552 3.088182574436194
Os 6.897785383724801 6.2142603493357305 3.4353978258716227
Os 3.7969778900971387 6.2702865774648116 4.61333530767175
Os 6.864094933773823 3.7003798796671377 3.4881383251869145
Os 4.870453347813236 3.8592122307486707 5.0018072155074735
Os 5.054784466247144 8.221132047871617 5.447928970872579
Os 8.154862761899421 4.741908187277762 5.343253604983709
Os 6.798893987171833 2.7117060265333732 5.931841430802745
Os 4.772407687990666 3.4057933173753634 7.465560809793921
Os 6.1068427615542165 6.015365395561129 5.815824238217844
Os 4.591524803423507 5.875830523181156 7.8228950010741345
Os 2.9177668595820707 4.867236714753756 6.389668437676149
Os 3.1810963877128806 7.545775840167055 6.789016653426545
Os 6.962943258089504 4.572292112894323 7.613643025047067
