14
Energy = -116.42342873 eV
Os 3.838195148617263 5.567008554486909 3.7603441475849526
Os 4.61279009625999 7.502049067074189 2.638599224449956
Os 4.642230309447878 5.272568797420956 6.107885360509579
Os 4.361981870512322 7.549282491049497 5.31136525348594
Os 5.5667586207541655 4.861790034152805 8.574256423537467
Os 4.604452795243326 7.114030982701802 7.829076855165779
Os 6.222613248727804 4.914669428225166 4.217662107416942
Os 6.494868723709306 7.3763675434614955 4.009612550572999
Os 7.035406779024245 4.706838987112952 6.6250296477970565
Os 6.701653809566423 7.238139086578821 6.600965924580734
Os 8.059506552528731 4.694007288802353 9.007253819343825
Os 6.848001839099578 6.920765715566192 9.103261218249113
Os 8.832731931979989 6.35743449690669 7.488609385657174
Os 8.397857317935053 6.14409656986611 4.945127125054782
