13
Energy = -106.59138487 eV
Os 6.785781601628534 3.9570874294491967 6.890655270330268
Os 6.429081856878743 7.7062808438574235 9.231563383687122
Os 7.258426829535395 6.2575908129649545 7.48825221789818
Os 5.74536879340891 4.831600735342326 8.999388893187767
Os 6.29022759026118 8.571868699183565 6.878497045825878
Os 4.759692513598928 6.724816357298599 7.72902716861678
Os 4.418019000972952 4.531906069356973 6.791177393549209
Os 8.133480219857748 4.991159051363061 5.002442850556718
Os 6.14926687772092 8.968064112952382 4.4012845547507915
Os 5.310931583191418 6.858222500062769 5.216671028990662
Os 7.811462019192073 7.370441390997205 5.229390106012479
Os 5.767655482634412 4.55054619270475 4.632283830041889
Os 6.818635882292638 6.326099047662801 3.2065173679126078
