4
Energy = -26.01481764 eV
Os 7.488820697667856 7.918205693272264 10.069185443602843
Os 9.18662282142304 9.45250095710406 9.609614601480217
Os 10.010059606403443 9.600066223125387 7.432866654681976
Os 8.330187542588293 8.038012014330732 7.8910651717637075
