7
Energy = -53.01304711 eV
Os 7.501156521938006 6.29899973832128 7.590483502258857
Os 5.56009662316542 7.206916973139099 8.778412897395524
Os 7.123453320633469 4.756063108043313 5.637292817206936
Os 8.100168424940735 7.013648755092734 5.340017133625437
Os 5.199594360071482 5.723295419077823 6.909153205361147
Os 6.180321173667469 7.995062110703075 6.523430791288968
Os 5.759669528501326 6.43710776606064 4.616052576247755
