7
Energy = -51.79964897 eV
Os 4.534777814572612 7.779264853470397 8.139872461920394
Os 6.75741576286535 7.179208108414538 7.961524344007666
Os 8.587625911249326 7.211284058370692 6.227786769941176
Os 8.061043992497932 5.2724264188077195 7.463516947291782
Os 5.065850582865371 6.607371273286666 6.2062101288626055
Os 7.128772508950886 5.591197350646982 5.212365877329117
Os 5.155155393031196 5.643930659819483 4.068286724129122
