11
Energy = -55.85714604 eV
P 9.0359253952785 6.692555728406128 4.723827876487619
P 4.874714823803623 5.305049599437429 9.032111310988807
P 5.8803750874623155 7.277550240827559 9.187255132691439
P 6.405649770899359 7.292987948993875 4.610608462955145
P 4.67837794031206 6.705274937974064 5.942031110221645
P 7.3575722829342975 6.091690168556422 7.939737123332382
P 5.091654361009377 8.376642423668573 7.369414250779829
P 7.126786274248281 7.942265332775902 6.499070807952974
P 9.681401926843133 6.286385353431965 6.715002851557141
P 5.714296678359793 4.953757448532651 7.018779677616508
P 9.406844440883521 8.359023024147193 6.0911550367370015
