13
Energy = -65.52559306 eV
P 6.9793188573189955 3.921074271921677 5.457025485335362
P 4.907136301680055 4.638495280358479 5.6709233371930186
P 9.096372454751748 5.370255862062763 8.696326577034935
P 7.631781350276464 5.402519383998124 7.019743376418951
P 5.928081682742757 5.123921727505099 3.8374313918103056
P 6.911895517698558 4.892563724710508 9.040005691222348
P 6.14919251480991 7.206880936392253 3.208422914299763
P 7.72248479570019 6.830315654500744 9.682927787109525
P 7.294192513867944 7.428218303295367 6.226373708990515
P 6.900419449598623 8.332116654662913 8.199084805981915
P 4.905448455897992 8.740744992964126 3.9625010818868454
P 5.2433737366382696 7.2024513854973335 7.008689748281711
P 4.258406310374624 8.846811725222432 5.952588782818946
