13
Energy = -66.60961024 eV
P 8.168282852818049 6.0590630764401 4.464667739965233
P 7.3621601689968115 4.465336885984099 5.747248584594626
P 8.182009926118512 3.087252579785305 4.244795652280345
P 9.55200033825971 4.628821177906094 3.7194333344599264
P 2.6320685600476788 6.18847337074456 3.9092737362233105
P 1.9288801285763548 5.645833583125786 5.938174165517869
P 0.2759855618545695 4.546903497370516 4.871534667890592
P 1.8936461806681513 3.42403142096594 5.9673168417102795
P 2.587417541616455 2.8131767189209502 3.954531648476539
P 4.800800463764826 5.594463797416505 3.6996927130367303
P 5.082200241818351 4.496843981926219 5.6150320009426435
P 4.772154433899011 3.3533876717012023 3.7304472821842096
P 1.5672514023527813 4.501336358829602 2.9427757538344297
