14
Energy = -73.33323796 eV
P 4.677642500720999 4.059157582328377 7.3055144916662265
P 7.799649392101374 5.696527632358286 7.076822276302417
P 4.986382201787065 3.3302648433183077 5.208126673546967
P 7.920970041599304 4.720465845496467 5.065627211215972
P 5.711076604858371 5.961520286784582 7.793570596338448
P 2.7433007240776157 3.442656255139909 5.068113956819774
P 2.692485988355971 4.939975448699534 6.851845945686642
P 4.052018586270299 4.852392853430604 3.899661740356792
P 4.821988221613317 7.514192632315755 6.385884752629129
P 9.068775220504731 6.5653575287284545 4.477091271788373
P 8.133730186343463 7.737882219624288 6.259531419547137
P 3.236532996787782 6.41550298333059 5.279023956444712
P 7.015792781277252 6.160818947919616 3.6478037640408445
P 6.402867455981731 7.92750330583582 4.884330909933834
