14
Energy = -71.16209554 eV
P 4.5806865998276445 4.961499483588491 1.5233362474898926
P 5.002198004202663 2.9291786828216617 2.2751360607221276
P 6.3323885455299305 5.262866547171958 3.917070863630198
P 5.3017438394697 3.373897151017212 4.478269449612618
P 2.474776891639229 4.510049452721442 2.035581174542776
P 2.849223723920443 2.453060991591838 2.8332699677732354
P 2.428437195162684 5.474182918413349 4.014251218331419
P 3.0133758455483197 3.5450525179858783 4.834470774986247
P 5.599840612609583 6.982266242326605 5.14619126328257
P 4.195578751285511 6.185018380560997 6.673459625180833
P 7.515071463913072 6.055787845560876 5.6857990136821925
P 7.047138649141189 4.832444869150219 7.474442911547573
P 4.928684066060382 4.175186435393117 7.305883817944242
P 5.4491199357323135 5.97777260573902 8.521101735317318
