16
Energy = -83.82335086 eV
P 5.851350783797728 2.7708158123578266 6.974384945091739
P 7.227849690436239 3.3001504767950403 8.699188275213976
P 7.524004888587994 5.49500962868052 8.655066197538682
P 5.7064454870730685 6.205639223202008 7.615510916991714
P 6.8475854875543085 3.515887899057356 5.127168623216892
P 9.311723881884202 3.1797461907711866 7.773031418690891
P 9.309629039845582 5.422945455662394 7.283397784290736
P 5.2012019874493065 4.705881975928963 6.057056735795384
P 8.9700915619373 3.9107513596222048 5.729202711877793
P 6.775690915899699 7.785697598177147 6.403430581086474
P 3.7621391400414663 9.091163101527972 4.904605205386133
P 5.5250476721525885 7.8250242295074806 4.59860767312604
P 6.148155445213662 9.580968853954401 7.499940194762976
P 6.075970671715422 11.102252510002295 5.938251247040476
P 5.648577759327655 9.915279404722545 3.978762409330846
P 4.177859822814114 10.256110515761458 6.825719316289438
