16
Energy = -84.15163448 eV
P 7.99826213903459 2.4058212044506653 6.359175972948971
P 7.751738727087337 5.531066832636086 5.1283486335185815
P 7.861413128777518 2.437125932924811 4.133511241822985
P 6.643485917300706 4.2831474239013945 3.733464554739007
P 7.440714236916087 4.45323726038879 7.0610090563847026
P 6.290556536552735 7.256053265450605 4.961632359104596
P 6.136585789969104 1.6376657786445425 5.359706986756513
P 5.986480306878044 7.730666008129512 7.112576898458974
P 4.925332373789738 3.517345467973857 4.967600705537419
P 4.615374359675211 6.061097664152572 7.77130360703433
P 5.299718407110388 4.029796491739022 7.076551548078621
P 4.204368285580477 8.60099380457471 3.6222869715663735
P 3.9071187909636964 8.65871758474318 7.019709094889268
P 4.247231876835245 6.518020256515706 4.415809042939908
P 3.0721052831330544 6.710788099553192 6.297373290729116
P 4.044658611833867 9.90068725118656 5.216300657057448
