17
Energy = -87.85464653 eV
P 6.538290266377277 6.241385453577842 8.810220632210408
P 3.8302899646473594 6.032492149399273 6.026937251783692
P 7.507835125556578 9.240032830763054 5.356851313690287
P 6.080917369557236 3.2712757374629016 7.349794033488369
P 7.576016542072411 4.809637861234963 7.533549955796838
P 5.270350159191675 3.190443590621019 4.232557572789396
P 4.50450197433733 6.861675122921533 7.975043464584944
P 7.9664216696179455 7.709008694749947 8.028221436197587
P 8.433443311293235 7.2329502365638545 5.870511217367892
P 4.257439375346773 3.8428089017249696 6.157192297074374
P 7.299629613169577 4.059771237525268 3.9967856204327346
P 6.997790269614778 2.425468258537908 5.497616808077807
P 4.697638023574329 8.91036226652753 7.172473186712784
P 5.0422328534144425 6.796272558006398 4.332422834147257
P 7.166134325375071 6.24854957152322 4.395161309622202
P 5.292286216193103 8.876209438420709 4.996460260101679
P 6.848887773998377 9.561760791136209 7.5783057718994025
