18
Energy = -94.2532359 eV
P 7.389407104774978 10.115594046250527 9.280202347991839
P 7.627695475023995 11.341213204851746 7.4392078416891625
P 5.663247512399658 10.405468066268188 7.895341224092563
P 8.714192644798059 8.660822673631397 8.237005230412402
P 8.217909166202244 9.331624040514527 6.189563726434348
P 7.826742888112072 6.6130527993899335 8.193569885426921
P 6.006075939725505 8.925880439127152 6.249113628453544
P 8.935229612478219 6.5602242781259115 6.265591883823326
P 5.729241832356615 7.266661816035182 7.7035788255859705
P 5.398867931300919 5.507646381697225 6.402033419657664
P 5.825267762386603 5.963308116832006 4.327364918758432
P 6.543346906419836 3.7101730931931525 7.058852956142591
P 8.052855279049522 5.4987604197177165 4.6497384973830895
P 3.4171825449583317 4.455394615678286 6.497942097905539
P 4.590327602569224 2.553157515953118 6.91217051555445
P 7.45271780874713 3.2908312109797637 5.11539555704931
P 5.733764105423614 3.8064174829189152 3.76939344756523
P 3.9169456712950095 3.0347875868570906 4.854951784094688
