20
Energy = -104.40601358 eV
P 4.2048955078566905 8.921074562123255 7.739179271459769
P 6.345449219816387 9.044819669935235 8.424939195679734
P 3.2196969670709215 6.932117414204921 7.752277911171836
P 3.1272778124499214 6.558819323288776 5.528949144661261
P 6.81742277131026 9.929271275882536 6.34883567037234
P 4.761139682940504 9.27624762941068 5.593627364647769
P 4.36699623991869 5.008616791065021 8.18937180394021
P 7.727110740334532 8.051055734018652 7.023990129188775
P 3.106407127538201 4.4460402795979235 6.4123316008350795
P 5.083754226477596 7.269614894002081 4.742145138868927
P 5.872428607251467 4.6577044387563875 2.5742075641615867
P 4.387324655169282 2.8330609094817865 5.606295273507091
P 4.761290398592116 2.903442644294806 3.4371031688632145
P 6.48260066057611 5.102932957110843 7.511935343614453
P 6.878279915512644 6.437169099855048 5.793433051790191
P 6.3759052378341545 3.044194923241071 6.662659589248427
P 7.859810857703488 4.626442571622018 3.5436044796835264
P 7.363057484808798 3.0809876120774313 1.9617725791006329
P 6.580667628465613 1.6436954231153582 3.6063071838115275
P 7.831454751433272 2.8914373428617477 4.970623737772733
