20
Energy = -106.75895344 eV
P 4.045509499547403 4.823714519126099 1.4993172575511298
P 6.252940431930633 4.462497903565936 1.0551993154605896
P 4.579707934857694 6.725680159285349 2.5650787148941574
P 6.765826076870471 6.368243805812841 2.123292319631944
P 5.1971362142083315 3.2744674381194696 2.62564038586474
P 4.2556209066162785 5.855980202494002 4.555774151521145
P 7.540725486746294 5.321566183841167 3.8911898382507264
P 5.743623511085319 4.214433521247416 4.5687034476049515
P 5.307770486165351 7.366496735780469 5.772893554907976
P 7.544151592374912 7.015406355199997 5.305766796457561
P 7.732814989133572 5.76680912504972 7.159852095630177
P 5.491916553069201 6.086266116997681 7.60827413075807
P 8.759707703504528 7.250719559216406 8.429400503702446
P 7.248925854013936 8.870187473638385 8.518500279072846
P 5.463890944844689 7.700959911341147 9.111314466305089
P 8.438039116910419 6.250482043616947 10.358078468557434
P 6.242354875208748 6.544753479474529 10.809191363417677
P 7.769196127379721 9.68544270968175 10.526260392941799
P 8.93989022854729 8.082640394349534 11.552548699255519
P 6.725556689784982 8.378557584961788 12.009029041014303
