20
Energy = -104.22522235 eV
P 4.029001236201619 7.701630433721316 3.554921909639957
P 7.016801579731137 7.297739572128639 3.1753810524703594
P 4.4385466048186855 8.768079276110129 5.303943399267483
P 3.554498965681512 7.603059578389285 7.020623073625114
P 7.991442764100124 5.329339799280865 3.380931730554306
P 3.0307036413117747 5.7982858742723025 4.161504827048914
P 4.7244303323884775 5.65853360256981 7.024844069901044
P 8.358086796927697 4.7735133546091975 5.469582872667481
P 2.0070019617384944 6.365841851157901 6.095529239116146
P 2.8811377076661318 4.639651758708263 7.606477736872694
P 8.060002342338523 6.676464661766993 6.528601948922756
P 5.00099828339966 5.142248994902638 4.86637120800042
P 7.074273621686833 8.167667302364414 5.244824077472575
P 3.553427857066199 2.619396956251688 6.924996304436823
P 4.716624817076217 2.938790518378384 8.76459216501426
P 5.0009921918736815 2.983375930651729 5.220945600760938
P 6.235224510814279 4.36314379862516 8.173200954423402
P 9.377015522057484 7.963101579461963 5.32463121419196
P 9.31352800255919 7.087337842823332 3.2477395667132853
P 6.925189064420294 3.208608260050602 6.402937482693215
