21
Energy = -109.01558944 eV
P 9.501747889105843 3.787255231586656 7.648927751273634
P 9.132878933975437 4.31857937396676 9.810423264822994
P 9.948658670099947 5.854871615639636 8.408258059533647
P 7.480178540975929 3.8507346805818834 6.638116166969426
P 8.111089810488656 5.01551588899488 4.8357386255562105
P 6.9445650965727275 4.724993985468888 10.00554754366635
P 8.227613315336297 7.148654047152016 7.820962113576405
P 6.788993194238749 5.448209381026018 7.947114723142816
P 6.408013587895676 6.2065729296574546 4.595961798348202
P 7.665559914191731 8.135828474234698 9.678032958152276
P 6.899244918831621 6.67633501918902 11.017251985149942
P 4.670298813898155 5.9759739547128135 7.5168691342555745
P 7.149540832457723 8.854174579145795 2.922431330643957
P 4.52814297469874 5.24551655806024 5.407057161726371
P 4.854051519467731 8.186728266254637 7.26755389348971
P 6.070460887715679 8.417236442864896 5.300590842484175
P 6.74885822397345 6.716026266324361 2.453152207970968
P 5.289392933597593 8.372116352034359 2.05719906121133
P 3.0312469413397154 6.705914761314942 4.708072343484893
P 2.9247649175732984 8.317260162576819 6.272966483235477
P 4.165839616943785 8.58264356259124 4.228914084683982
