22
Energy = -114.72061812 eV
P 4.864491730649816 10.203882962116955 6.146377163526307
P 5.976531651303312 9.481796439391298 7.688703360449745
P 7.062401701557303 9.377728760666818 3.9872695146125934
P 4.989596389714005 8.724410181839735 4.458914988040342
P 8.31579144251367 8.555290713335758 5.69447689837952
P 6.848343189619517 7.524215035677443 7.015244385674026
P 3.719677756664106 5.961510844600331 6.277423195536371
P 5.5731137601845 6.818155177899815 5.373340310762034
P 4.864991611994462 5.143101345408758 8.012442037768997
P 3.853187813851688 4.356487947679936 4.745021437296278
P 9.282137282394157 6.783529112475299 4.7739256231791565
P 5.287105101759818 2.742961870500201 5.38567720223526
P 3.859379379550267 3.292689194316326 8.707118433670571
P 9.641833089022679 7.375343449319914 2.6533387778288295
P 6.582418670455408 3.951720747080625 7.224590817928563
P 7.516270812643506 7.9725499408940905 2.332112639488845
P 5.97501211453561 2.5429116970998256 8.764344068377149
P 7.993623909925781 5.963787318528168 3.156808804554226
P 4.362579505559625 1.7740840938827371 7.111029182542132
P 3.4651312278660225 1.4412288291687545 4.222586515830445
P 2.0332787110465107 3.085403542537521 4.745146253633001
P 2.3556126357841136 1.3006205488893114 6.056783104905661
