22
Energy = -114.90069952 eV
P 3.3513930740210185 10.130237096186892 7.0688787188627105
P 4.413070220544672 12.062924264945629 7.367049371767926
P 4.233775126211744 11.195423700824902 5.323857826941234
P 5.224364651686458 10.194343171194385 8.268127094804438
P 4.205797623521799 7.817001443662112 4.259922042411136
P 6.322454344216765 10.537122598378478 4.977396624350611
P 4.714935432230218 5.675569640210017 4.515767593498143
P 4.581453635747989 7.012442233837471 6.294236624698519
P 6.9204350373263 9.672396125394801 6.952446542277512
P 6.132875770357782 8.736226237905356 3.6269269584567607
P 6.9696510538381915 4.1123235042596535 9.048644767331238
P 6.718320940071225 7.4512816630053615 6.734274097435824
P 9.105497720345936 3.7630158190854637 8.679857762141316
P 7.620087119035576 7.530675327684194 4.725510509096422
P 6.047177742539368 2.795571969345833 5.843698545740989
P 8.112580297046284 2.7091175168197097 10.306529104702781
P 5.825964170239106 2.463383569082546 8.052234097951539
P 6.886589790031453 5.605979824757861 3.9260311867246926
P 9.314356970907237 2.235136570511701 7.082201223082065
P 7.561541475383657 4.461823970366863 5.731481415559541
P 9.450843233434346 3.5708590462137124 5.3233662312434245
P 7.279692924480112 1.2600030595441412 6.884420014138757
