23
Energy = -120.22323737 eV
P 10.418339147759403 7.691555147558393 6.568468075491138
P 9.901502729513558 6.4837410755662805 8.34797609514205
P 11.857422528296649 5.3896231257438645 7.754367609283885
P 8.301922236000427 6.075642218751823 4.2589236298200825
P 8.967519753421811 4.647195690667147 7.512641638576086
P 6.981003982285863 7.2816644755820965 6.80804259885193
P 11.610320802478267 6.072920476468758 5.6206944334031865
P 10.729164122309605 4.138249175027971 6.267264572768978
P 7.324904716946055 5.170916145077154 6.080875281035998
P 5.473459266644641 7.827952821016499 5.269056357614741
P 8.541728543297037 8.04082623258368 5.341396948306598
P 6.378051346641705 6.834964364184445 3.4397681781009646
P 2.5608047462646875 6.623175408891386 4.12138281426252
P 11.857422528296649 4.644131234316736 7.324127380636057
P 3.7329306099267767 6.648879957622513 5.975849182343729
P 5.5085972125922105 4.847083476890488 2.906479298401458
P 3.298011905913518 4.931084472816177 2.8406606876885325
P 0.10318199011337263 6.433751332312094 6.523333479507593
P 4.123930678350238 4.500440108668453 6.272747361618019
P 4.334040199823134 3.54090903501703 4.293226515535516
P 0.9571127855135028 5.259005661957732 4.770986503246516
P 1.1569099853488212 5.116670043657732 7.97936886134804
P 2.0057405358862983 3.8617898853823225 6.2743064978400955
