24
Energy = -125.08067921 eV
P 4.2175949864312745 4.171869769056357 1.8517227116608852
P 6.369806664286238 4.4816549931132625 2.243242758654679
P 4.938997333122894 6.148748417684271 2.6362900751957428
P 5.195477965751751 3.0221156918510714 3.4905743749960143
P 10.146889073130257 5.484627825088609 8.695688807153228
P 10.4864622989254 7.092708962614445 7.17581292283964
P 4.229502802166143 4.063254434238267 5.198855830559546
P 8.567068567448654 7.239644893886325 6.119000677316164
P 5.236655170102903 6.011922816394901 4.828715979925959
P 9.972016093383681 7.648185636903732 9.322885162708879
P 7.211247400492681 4.565545885495771 6.619689427607245
P 8.035727539551553 4.758406180345741 8.751615809616549
P 7.097709539353467 6.55132421273153 7.8189929165503465
P 8.706614936973281 9.430688700053087 6.163700235799306
P 5.395677717526483 3.4261255413719773 7.003618746053804
P 5.7445601567957105 8.379927805754397 6.471211211416127
P 7.803119691204067 8.10317193513999 9.368560689478691
P 3.8314621488258047 7.507299670357352 5.776303277080117
P 6.648632641355983 10.023892083876039 5.352171846336515
P 7.957387243370222 9.985908466289162 8.264833013885573
P 5.114029450730715 6.269825894920527 9.14436892453789
P 3.9367880359046454 4.60998625671042 8.372157407674342
P 5.829678829581245 10.326238776993575 7.469875712066811
P 3.3454669566664657 6.715498392210691 7.878684723967482
