24
Energy = -125.47258838 eV
P 10.02492159239317 4.472968474405076 3.6230108813315267
P 9.218532812528247 2.8066903867777744 4.917353387547201
P 8.413128396186394 3.9589987399056734 2.0279332168296813
P 8.90087088352775 4.9084287317584065 5.44465461399671
P 7.615510206759082 2.323436871086701 3.3619152159196646
P 7.369552525001133 6.081380166236272 8.647782138223135
P 7.079764527512267 4.382238482239479 9.997974758192523
P 6.929644572456399 6.50970596479672 10.739670180072741
P 6.509050888785422 4.19588737079467 3.062193146459003
P 6.975310064865382 5.622275342461534 4.671521510700603
P 5.535601383607134 4.754301102161842 6.193508036007893
P 5.498982263220508 6.533393052280868 7.5775296844599165
P 2.4286424381996694 4.529063877904802 0.9716272336479808
P 3.9629606377161966 5.717723990232801 8.926095009527858
P 2.0841579363628626 5.987289135649533 2.4314129562855626
P 2.236339431673638 8.018766725167685 1.950491281072749
P 4.811365399398838 4.143273149474219 10.191404695828382
P 3.083795148071627 5.781588216448331 10.929160151925615
P 2.9720202432997502 7.822011700763614 11.502354166096762
P 3.875578633310164 5.391801886310721 4.75777875364538
P 4.62905572966224 6.270024724157619 10.929160151925613
P 2.2633246243085976 3.949169415932008 5.28202039031611
P 0.9060220539166167 5.377878249117152 4.2309382915840485
P 2.1262787689957907 6.0343620446060795 5.989181127170666
