25
Energy = -128.36835935 eV
P 4.883285857474772 4.367228365310506 1.2394949749213657
P 6.632282368838128 5.7853642248060195 1.1583580852914814
P 6.951155757122661 3.566733927018506 1.2333326140831078
P 7.020267898024825 6.649165947972521 3.162961615120671
P 8.008687770507564 5.100099099845459 4.474631392957342
P 4.307512701910846 5.700361583096649 5.119100222495807
P 5.557511520251458 3.073540352402592 2.908455842661196
P 5.189253769068263 7.451993702803855 4.093294779720852
P 8.150765133223633 8.674419651224913 4.027622851829145
P 5.96991725673568 4.29884518838954 4.760236185723147
P 9.770127596744452 7.892062900971176 5.172455826066014
P 6.457052447252747 2.989351542980401 6.639393469997101
P 3.4101435740684907 8.59945592785593 7.4679077041443716
P 8.5815783437507 3.512052737415446 6.807430181021695
P 4.940837021769022 6.71070684026987 7.355401223873656
P 8.185863742011453 6.698852443051615 6.042049213661436
P 6.599777101540326 8.224354324852515 5.699296054292719
P 3.296021361390485 5.304869054707119 7.955604243630885
P 6.20681791129123 4.834561224979544 7.921394413886084
P 1.8180448384427985 7.052379776254476 7.546635785325274
P 8.358431264154179 5.449571796842904 7.913405634996217
P 5.705499039435588 4.791703408853387 10.04646260198183
P 2.486631513402911 8.13588416660428 9.339406731369209
P 5.693275218338314 6.9801267809665495 9.743328257723322
P 3.70806870844522 6.04512474572017 10.061149808421822
