27
Energy = -139.59338528 eV
P 11.775966321214646 5.146223215485331 6.184202146856877
P 11.00327246401235 4.768904388032984 4.281401422534279
P 6.959167832512405 3.8018490983698845 10.021755263080644
P 8.16896217589739 4.013706874113453 8.187057619146215
P 9.488156552417308 5.615163634714802 8.746212333338187
P 9.990705967359572 6.298830249269493 6.677816300518186
P 8.986807177559728 5.095490401128787 5.06867447939271
P 5.059761055110677 4.373974403022339 8.525953382080646
P 6.771584604307018 5.93250689509969 10.789543319811523
P 6.543569507543095 5.5863947774563965 7.328630555869351
P 7.354489151000997 6.946154112176792 8.891962870493915
P 8.053595702158852 6.406530295998016 3.5112399316421135
P 4.630437156879538 5.572764710988627 10.326308672994042
P 5.925047397430281 5.92785874581988 3.177761395469997
P 3.6566703638196243 4.529735107459134 5.396064050487212
P 2.960158253987155 4.982412594736973 7.411798393643447
P 8.392485229528102 8.493651291646136 4.098801921016654
P 3.874487222549423 7.596231785421576 9.687322461168067
P 4.552789422026058 6.345686472485619 4.866026172367587
P 5.097575549721044 7.538196928938397 6.799368231835542
P 5.710385431293784 8.557625857676957 8.790748123353563
P 3.0426086390073808 7.182353354122887 7.621489343078082
P 6.8475126573570195 9.878700247807455 4.951739996737888
P 6.940222611613885 9.517453325336772 2.755057458063225
P 5.356241651431478 7.922260746837955 2.269596674479229
P 4.757454915771526 9.381768895418217 5.462858982793463
P 3.758274297371547 8.245960901317341 3.8289978086286256
