28
Energy = -145.43951505 eV
P 9.142380606803329 3.45966781780932 5.7126429384887345
P 9.106081816918158 3.9305599725251184 3.4601242196474833
P 8.890536128238827 5.5910135165126595 6.257661404589908
P 8.489601431689483 5.132786511594355 8.36850700681336
P 7.9909734198558295 5.963249415774546 3.239594913901918
P 7.093789349869954 2.6094652215500176 6.22859871171117
P 6.864799803530382 3.545839981634911 8.254238404095737
P 7.350346437440243 2.6310557163346444 3.2254675243694138
P 6.984963377876005 6.694591475538971 9.022363542643667
P 6.982704052881071 5.91680278717317 5.1822666611673105
P 5.95361114799665 5.48879064730717 2.473817863727141
P 6.110412048705429 3.883464556902714 4.590519355632005
P 7.066931277638889 8.298446893588052 7.390970235307676
P 6.364276864681464 3.602689625266023 1.4562039352229788
P 5.552363704451006 9.765123626852883 8.14360029947082
P 5.6420334332867474 9.318361086814388 5.9648201413788895
P 4.236463706063837 2.5003290466792647 4.126974558414289
P 4.310477930656554 2.7682448611284776 1.9294194685487542
P 5.341621389522942 5.151130959109506 8.875775778209116
P 4.40953480420487 6.517730247485059 7.37062079559373
P 4.078278292779085 8.169671781624064 8.853056278546273
P 3.6687643125614406 5.5485034191876315 4.664296543220573
P 2.9091253972916737 3.9876705148230536 3.179621923113483
P 3.4795958775140035 9.032277894008791 5.600587564318355
P 2.794667435976267 7.512634731405459 4.094595804564969
P 2.335521189667277 8.58227911804101 7.5255629075886965
P 2.1561229054065003 6.364746688988833 7.46427610483124
P 1.5860243134597705 6.068429610772049 5.315933653039018
