29
Energy = -149.53714927 eV
P 8.044947920905992 7.992968519803807 10.263493339953108
P 6.202180568596427 4.450728535290611 5.932127951235265
P 8.81398378681876 7.756333611494651 6.852238803706437
P 4.075955629286829 5.379013583475581 3.307676685057919
P 9.625939744912154 6.597268339451589 9.584894329829023
P 8.141783421683558 2.274566505566886 7.274976940851302
P 4.615226040538539 6.685538349999385 10.943583537968586
P 4.8199284833533005 8.717431754614003 3.0938941203095607
P 8.311493513319625 7.492007463409689 4.757126430576866
P 3.995565697632798 8.192881644885063 9.61213577326369
P 4.369395128408864 7.258113919641028 0.303642424606183
P 4.337731372916649 7.194220489970239 4.619133885720049
P 6.764708576536172 3.3111895931415765 8.68137564772251
P 6.146717528278152 7.578545297005773 1.685841314292812
P 7.459103515342473 4.851901389426111 11.8288384422538
P 5.10190851393114 9.104442278345418 8.081147270053403
P 6.647830332026739 5.443503477969396 8.02767554418251
P 8.075042711741986 3.1775124867076516 10.47776511789905
P 7.77684279160396 3.059948686348615 5.397003726098899
P 6.413289894024056 6.260009582194995 4.628904283095717
P 6.161207143445994 5.533310143762924 2.521618184544506
P 7.266167029362045 9.019455368830851 7.877649300861902
P 6.643858373042402 6.354227017894299 10.390841486429347
P 3.0059928110205627 8.351321016055428 1.7420144505000337
P 8.845125758996081 5.739936417592593 7.690935010307081
P 2.9074667150119087 6.1505783352110655 1.5641649835030609
P 9.522645208548841 4.809154451600247 10.991467637131759
P 7.644848092459322 9.55521856591241 4.363970071927741
P 6.908905662904333 10.354465141047607 6.149655272767183
