30
Energy = -155.61659874 eV
P 10.424816814430175 5.397614428671678 7.511922911113807
P 4.409295010819173 6.962662362658687 6.612156136763321
P 5.532012455817304 6.688977920891418 8.334428046726172
P 10.901623545178852 3.2160499130016795 7.737443437779623
P 7.899735712143382 3.623319120269657 8.400872109062915
P 8.429703409962915 8.188157353334184 4.946707198314396
P 8.16549440850715 5.494219940817779 7.305152412886842
P 8.989333519731442 2.223865340992438 7.066910339100583
P 11.148638338929938 4.294018365525926 5.754523890519629
P 8.999415041360251 6.265247339450195 4.0118071476807
P 7.556707395061052 7.621506024784181 2.991555628250307
P 5.060791223211905 8.911473698886667 5.66134679570882
P 4.472829436626423 4.771264463803118 8.819702321484067
P 3.174908222213772 9.139993015776216 4.410994311442685
P 5.765136098287877 2.9822175034914467 8.580468445712672
P 6.381150641621968 7.265417092047766 4.860286880108742
P 7.733395433324909 4.790408375776326 5.232669748965214
P 9.279449164153494 3.2292874720401405 5.07413839764155
P 4.509489440459247 3.6886354720977206 6.854346180751008
P 2.1299114691577654 7.1462172809506495 4.668045387647958
P 3.807860372944971 6.248311348297934 3.4243832141971016
P 3.387356691747265 8.233490583109914 2.3353166293690983
P 2.858904709171457 2.2388156533493557 7.282844531336814
P 2.218581167871417 4.1455106472457155 4.594811858636
P 1.1749440307342054 7.895350509901354 2.743565559720974
P 1.464380245995543 2.4295604473585284 5.782767927829723
P 3.0039715261503823 5.138449371216688 1.6888191574575113
P 2.1839353730166127 3.1986422054283756 2.6006819468605067
P 0.9037737172740664 5.891259578548181 1.7563067030010249
P 0.36835489661726717 4.325425552908048 3.3096676112852035
