30
Energy = -157.15156943 eV
P 11.64854910465212 5.216956454577923 6.738657956515724
P 10.387672105590017 6.727545468851823 7.774848947903279
P 11.068717101953355 7.064136731369012 5.644314456254007
P 10.246193517999549 3.6359355624245993 6.0310355461051905
P 8.370141173955394 4.047516983687156 7.18819672754412
P 8.315021640007801 6.239203377588065 6.9948957544327754
P 3.593780287593176 7.29424645938572 8.669411612229483
P 9.363532427770425 4.527582048021904 4.182522224541611
P 8.987774738542852 6.5791623581963385 4.892647758287436
P 4.80029647964872 5.63314532086368 7.758754010522668
P 4.1457644653363825 9.234598234593975 7.652778879070455
P 1.504744420108095 7.428812860808173 7.8743589889981935
P 7.654533039017107 3.410343769437244 5.152348553980624
P 5.447249361585032 6.333868465323012 5.766193259999566
P 1.933341067431592 9.525527232051273 7.118406255092034
P 4.758023617712753 2.778211417203421 6.535574707541239
P 3.452579779276295 9.283990242131363 5.526550799421331
P 3.251563095079526 4.034501815878464 7.5357522453696
P 3.483709079669058 7.10223842164814 5.076755122622234
P 5.500516735736707 4.110399082502204 4.67267540530448
P 1.4559059876858724 6.6083969820678705 5.85052422403954
P 6.2877364895907215 5.159308731524587 2.7167110278606494
P 1.6539035871089516 4.412336659381335 5.940335572373392
P 3.429365616209595 1.8929815006969433 5.023621151680189
P 5.008471831642825 2.0371158452240326 3.482946763084499
P 3.1005288388863534 4.141947418671253 4.17995426941228
P 2.845494408192298 6.278361190953619 3.164489844192748
P 4.660599761412067 6.4315083329508225 1.895004458914078
P 4.983259683871709 4.341221728445794 1.1581358433263758
P 3.4811294839049896 3.0305723011775996 2.2447321380726533
