32
Energy = -166.20587327 eV
P 5.2318483414533095 3.4798867364482398 9.885896519776217
P 8.02926320670088 5.981202107916284 9.548198962497223
P 6.01387938705911 5.336928718517442 8.845351090044618
P 5.803572835874753 2.238656912106053 8.120567472025547
P 3.652813159247174 2.8143983207188135 8.429916848019733
P 8.777353370856705 4.174392359372526 7.049484882974853
P 8.811905082042655 6.389689044702278 7.492923298069514
P 6.195953181292371 7.2063762347453855 9.964256582868364
P 6.5470947335402006 3.8975596857339228 6.737568202756635
P 8.975798301932999 4.234062203149112 4.7901271743560105
P 2.5378790601884114 4.509452925478323 7.420800001077757
P 7.270359916941071 2.749361671985989 4.898270548189206
P 3.992565792237915 6.189517420352478 7.169750947849078
P 6.91098942060036 6.53281732021864 6.277205385777692
P 2.2551579146859853 4.437312730677888 5.2121305923318975
P 8.236082012985992 6.3787698896852865 4.427779708933648
P 5.665447180053552 3.8612909324935227 3.8783358629459657
P 5.549948072153577 8.823567250981089 8.478780816963923
P 3.496250817028789 7.940862732899625 8.449479825555082
P 6.3860621550893395 8.725604897623708 6.3865835972347105
P 3.4724481239649494 2.9862498630129246 4.24543426385773
P 4.828751674734542 6.352925574828746 4.517669789546902
P 5.294703079431331 3.3361410979557706 1.7657345948022987
P 6.5030969533290035 6.2693858512078995 3.0258189100765644
P 2.8371819788008485 7.926145336875265 6.343428202043067
P 6.696314110778283 4.989541717407925 1.2482325680500883
P 4.561585569379598 8.629151878768122 5.073848736532679
P 3.2044266479000876 4.086789770859092 2.2557054674908272
P 3.2169305636914634 6.232034385695216 2.9986317347973634
P 6.105985737366641 8.097805894226465 1.6106246597619926
P 5.739195500594254 6.60111593375007 9.964256582868364
P 4.055314175516685 7.429628880824584 1.1626784788740456
