37
Energy = -188.53295947 eV
P 5.2523446872632364 11.390178311836785 4.287678764217077
P 8.897270532860496 10.426854490663887 10.395114705460035
P 4.787365655852861 14.509967822692435 5.313157129173432
P 7.381403889886067 10.989753860611682 3.662832998021668
P 5.7295705132414065 6.44358333443031 5.801219194115581
P 4.5268917542525315 9.631214397529408 5.211184452398457
P 5.7750701363240315 8.088245217990897 4.2937098771460676
P 5.680657341680192 9.318479239075915 9.281091064863123
P 7.693206717874987 13.815580643464836 10.80407576631947
P 9.287033388875223 12.533120955552134 10.802793847905523
P 6.151015188115928 12.817270966246845 9.541602595453082
P 10.508242847738947 3.8851234705518425 6.769378248972888
P 7.551669119397141 5.469021624148336 8.378240824625033
P 4.2623167694147375 12.541485412719128 10.759058061334482
P 4.562131550899449 1.6415471078575434 4.247679550685344
P 7.831841227415561 9.551467989518015 8.638924490557894
P 11.023669410537783 7.76784885164837 10.255094522593755
P 7.8388926345838295 8.839182769440136 4.066968492258144
P 10.99513695700708 9.90016587060538 9.676035747073941
P 5.818878575096874 4.706832216945866 4.376183099480474
P 10.622395316194323 3.8803992692286804 10.101043096211276
P 7.140640524028517 3.272408759866677 8.366448598017275
P 10.49415174830277 8.211663188652478 8.327973451545153
P 8.55847242377897 10.387522909699717 5.4639834854123945
P 11.897566762281436 3.814319592053173 8.397520227587867
P 7.198662849003655 2.5649892553453935 6.263521775827047
P 5.940587909799289 13.815580643464836 3.664307649147012
P 2.835425672370449 12.312619597531771 9.08041102757663
P 7.9918427544374255 4.264889702526056 5.004308221689356
P 5.076303995146445 3.1379989738386618 5.814630820750327
P 7.90735757255879 6.117318264649298 6.282973745794405
P 5.902460153794405 11.031827693715854 10.755540751217374
P 9.221488183958513 4.020811571772798 8.479773937544431
P 5.2875718747143345 10.322454127050175 7.316934814845827
P 6.420936589631356 1.061114488718001 3.211417605974688
P 7.316613704483842 11.175228654193957 7.1761236590595905
P 3.5067089397742413 11.60716667296301 7.267834735347633
