39
Energy = -197.68744875 eV
P 2.3466145672386216 7.7604875824463235 11.605029959189464
P 9.14853579154758 4.565970722541934 6.534799070172403
P 9.107817844546181 4.5423602256022235 13.140234063943844
P 8.68385337252538 6.618337811499408 7.191575085003417
P 8.44232628497704 6.949752498571518 4.147097681591136
P 10.385445283848822 12.54050462704455 7.424418951377862
P 3.2490341290922267 11.765948162636374 5.901581713840535
P 10.689034649312898 7.418846150303638 7.659890520146522
P 5.0277895655099965 11.509042041127364 7.151321782289247
P 11.037644097630185 5.307576190966037 12.328120959380838
P 11.673627938274258 6.420821998874017 5.8537395015306934
P 7.732036633620808 6.401189432976474 9.201262724006133
P 4.2093385790703595 7.564560036556667 10.549479387476126
P 8.815002623335822 3.9644564995401343 9.773466222432623
P 9.330907267107312 6.71496391533965 12.599040008376894
P 3.6034162978647744 10.763615856449764 8.720434892918481
P 8.71725311909134 11.087605013651313 7.338422860207672
P 9.009421038147343 5.729905142771481 0.3784205121387048
P 4.3927502393562765 5.441357608244433 10.317467220948469
P 12.257278308662306 14.498598087785622 9.440861138636484
P 8.808139871226606 6.318413607132507 2.1966416402130533
P 11.561577697192046 12.369797851931644 9.326197412812324
P 2.199094884626865 10.393237292990102 7.07283128870533
P 4.776555751330202 8.837903462948816 8.803416034391175
P 7.969591967390046 3.4847852099346444 11.596387882514412
P 2.508488761304171 5.661627711542812 11.304707932983602
P 9.31950164814741 14.388224140147008 7.857302610284679
P 7.67631873721725 8.587716830337836 9.671895388947448
P 9.996726786575438 5.4655694200713345 4.6636258097954535
P 13.927446865257922 14.166731011310011 7.981587538019937
P 5.764541556957004 13.531486625463614 7.5641882876088715
P 7.782279959739299 12.95496423697375 7.580572231598187
P 10.864758297322739 4.431153560843279 10.244373891637006
P 5.8183314608932015 9.10619386266247 10.769721081059206
P 14.279079603270455 13.715169100744328 10.097540801062944
P 9.320163426282065 7.35446587727538 10.476414994807046
P 11.419452670074197 4.426902972827844 6.931690757230503
P 13.735587737450151 12.056473657653328 8.708198257106114
P 11.767000899985371 5.717914545398951 8.679450700597657
