39
Energy = -202.72921423 eV
P 5.021509259305537 5.547014724352482 2.3193363128231606
P 7.173611696326545 5.245035808605978 2.63680141472952
P 8.897868526973312 8.362510140714534 2.0220312676363044
P 7.559947876861024 9.670650863215338 3.0721243478416085
P 6.89697643901052 3.0678750464502063 3.1592071906964265
P 4.557515217759623 7.457440369275762 3.1673182849619748
P 9.59664873932959 7.05864696073023 3.6357380491230935
P 3.8089418575953893 4.338968545764377 4.2295796300528465
P 6.438569277216742 8.076163943770469 4.16670705870825
P 8.723700222399218 2.7584035882297337 4.373037718292023
P 9.043516584341928 10.347718540713874 4.589637762679926
P 5.309046265286678 2.766347571441349 4.691061348956571
P 7.713976694806454 6.283517648775804 4.5514512420827895
P 10.34826124942293 8.586306015382757 5.075393464612186
P 3.5853060284656433 6.232078127367097 5.322874574349952
P 2.258819157688383 3.3579491772070678 5.738785385852226
P 1.7922010667577866 5.419401839872988 6.509142774678305
P 5.185783239804129 8.903343197819135 5.832810260740552
P 8.254319066887877 11.1490220959139 6.5132649868106
P 9.834872828293372 10.197973133135775 7.776538418727404
P 8.16665967054834 7.057452118381628 7.756715999961733
P 10.124270575020848 8.045578292083114 7.236735549239144
P 6.2406584594721535 10.275392857177359 7.258080441996198
P 3.025343790601727 2.688976855265807 7.779881392687747
P 6.226277233888788 3.684834859127957 6.472201823052871
P 5.151147191737097 6.886534869902271 6.837700303315474
P 2.2858431000731945 4.619405894837808 8.550414739060862
P 5.8647674967977705 5.010722880597469 9.192022467808552
P 8.250125786239575 2.8729667443056153 6.3739166264951175
P 5.227188869191639 2.2180805876053404 7.8558153585027775
P 8.683268477976911 9.997838452048166 9.682847778485861
P 7.146979891966458 8.841633673282383 8.619839218949739
P 8.800071849038401 6.546223791444276 9.8192541254366
P 3.809416077703269 5.700591301457405 9.779575132316443
P 9.688874845578383 8.328062531855263 10.692521332405661
P 3.932564753521749 7.592471613195836 8.643677792205512
P 5.699934886664714 2.9539740653692976 9.877450729226869
P 5.605571043499576 8.190732196208874 10.061633222555727
P 6.723994937451021 6.3165093086190405 10.781224703445178
