41
Energy = -210.6302182 eV
P 4.871947580036408 7.726522761103894 1.1795892063097793
P 8.076828942080617 4.535084943957927 2.5834651421054056
P 4.1943813442156355 4.289880012231493 1.444011888016211
P 3.174740358915096 6.197720841960131 1.314659514274839
P 9.363802107692168 6.302513280026841 2.9396011489112976
P 2.265940943765114 6.678604537512896 3.296474369339283
P 4.140014265078077 9.587162544325144 2.051404111162906
P 8.756570468363218 2.9295324010100248 4.189354370162494
P 3.7638053850180024 8.252262507121193 3.733996063888442
P 5.858091228093448 7.744132471300203 3.1693429339979438
P 8.630992026432166 6.12314618164691 4.910489362115019
P 9.86443910901752 4.282900633612047 5.5775273226779865
P 6.556720652303619 5.43510484401108 3.9255387914437945
P 5.25594215606092 2.1524205633217055 4.0917801778531375
P 3.6039538699648106 5.698984262030729 4.784835975041115
P 4.68395624802445 4.127019644972621 3.501138433218345
P 6.370424440929552 10.610697516453424 5.658700191595448
P 6.777625850173717 3.135300957335025 5.277138679938931
P 8.904216382240557 7.927770812753369 6.1937418200400085
P 2.8199353765009074 8.925315979332495 5.682632567327937
P 2.3896028848999697 5.116613518459219 6.55309647589543
P 7.356870122087673 11.297846353105989 7.475221670414563
P 5.584460956636329 5.9755364404597415 7.060220753437082
P 8.860493156248252 3.476803702100216 7.414144624201056
P 4.234563307299209 10.385432796292365 6.613983773538205
P 7.445424888551849 1.8280153392430816 6.968640058990644
P 6.71293646041137 8.402960100431105 6.054153315005661
P 4.305414093766394 4.173441715618379 7.235974525228661
P 2.513691943958059 7.310455830898937 7.321668299517987
P 9.814530387258385 2.9521309441514596 9.242679785580824
P 8.938923113835164 6.835659923605737 8.152117662270165
P 7.334342307612439 5.162834287169724 8.24214664979414
P 6.848503143688276 9.304817429441924 8.093787729703587
P 4.314927326656616 7.142705875774348 8.527223474670189
P 4.651323814722281 9.352183281894598 8.587383718148407
P 6.459014405418774 2.9471013525453285 8.662326905084777
P 7.996933590793805 8.182170325058326 9.549341674648037
P 4.412274466934124 3.2882536440616716 9.405479820955168
P 5.181763999505638 4.625839491416243 10.943754127692722
P 7.907560494580984 2.9029553707096194 10.354268157943364
P 7.268614179883525 5.140662361198277 10.50346250751364
