43
Energy = -223.52139126 eV
P 3.0194529094077613 4.920098482058129 9.92828805699375
P 1.5406180915958787 5.7347216618861685 8.403183179578908
P 2.134695172954491 7.825152281175158 7.984505172198864
P 3.848514079457495 1.1775853374842065 6.573600571366405
P 4.640999860660975 1.7101071828550372 8.640428954864179
P 4.555361003959883 6.532916099907413 10.492317549309425
P 3.337087446896867 3.277093298749257 6.043834625749689
P 6.84182663487615 2.2063208913518366 8.39956568093934
P 2.440041147729936 2.9506267541910387 4.04498636384831
P 3.6443104941418705 8.338104784381127 9.535115071213818
P 4.415831228482398 3.9581651005587926 8.483514010389422
P 3.0392238909233735 6.158384823240133 6.802034490086173
P 6.221041189914689 4.022580595399623 9.70750221427778
P 5.395352610371661 4.066091460077542 5.4516042691001445
P 5.78573880521112 0.8827077109668977 5.425347621609682
P 1.6041364222966465 6.517884071918691 5.115647714419557
P 5.250756959175217 2.4724658806345836 3.872561822021109
P 1.9402329361588802 4.982592177708565 3.4880613551779875
P 6.907973056429392 2.627652061708957 6.211771284097474
P 4.9557988758374085 9.839284110735289 6.438792753129386
P 6.377878162339608 7.087621099081441 7.506679200402509
P 9.243002764399753 8.735436190306801 3.9794856137310135
P 7.311841662148708 9.865614990486934 4.097917175621911
P 7.136995158287388 10.266248733957653 6.28985189288075
P 8.251183788551668 5.613663245583719 2.009757950691079
P 8.269686354444016 6.74806767128902 3.920643740325822
P 9.823913196880756 8.576862749761954 6.144138906461052
P 5.222060395501972 5.164661966675008 0.22980945156924681
P 10.707599516860018 5.897391614307124 4.175789853965655
P 3.7993571298114723 6.560789277028608 0.823953640870687
P 8.089112296769867 8.657357856757839 7.544587833064915
P 8.246604797247615 5.456422652717663 5.817818457606964
P 4.769198944361871 7.9028397474329894 5.227821306886386
P 10.245666724121728 6.400175841596288 6.3072714141585
P 6.18408703668737 4.774150170035283 2.1884329150145136
P 8.966107749111742 3.632908795756311 2.7244322389881575
P 2.868224937470063 8.046601446082803 3.970589367435908
P 6.89637714009944 2.6675878384767087 2.361756010848616
P 3.7916166367739277 6.260300525356922 2.9971768659492737
P 9.662814827179378 4.0039528779768245 4.777998480652694
P 6.214166232005676 7.992031067273392 3.5750106690173986
P 5.4834064155353754 8.955885016758078 8.429587406995683
P 6.64725127717724 6.2600398185589246 9.583972806738549
