47
Energy = -243.29987385 eV
P 5.1553513028950295 5.25185156348023 1.5820803576452744
P 7.369146273148724 5.020082224412182 1.8563669132093379
P 7.850192265979899 6.8955715304627905 0.7381337566814404
P 4.405672034496321 3.265255267559455 2.3632670673293164
P 4.672696226943735 8.481939545245533 2.4699577702114763
P 4.520312216477507 6.438721065017768 3.382316858355718
P 9.646746486521046 4.890134490033102 4.27139588725146
P 5.4975794915566105 2.4069535423634303 4.100044442421026
P 6.818293070352078 8.597700440793222 1.932054557894457
P 1.3866654248110615 6.867465389555999 4.7413226905462835
P 7.559540047420323 5.66340844054789 4.002026317495666
P 10.837274985387829 6.600244065936216 3.428184766598051
P 9.509274598846527 7.72019599355522 1.9829070367446258
P 2.343765334347028 5.996971286930854 2.8723628538969446
P 2.676183595234422 3.9359935735066736 3.62922673710972
P 5.093372205718692 9.87952097787577 4.12267563806275
P 3.6940672917499136 1.1150028783156565 4.318369812543719
P 6.497195271317593 8.784997623124406 5.324524596177603
P 10.799529601088903 7.461155460868209 6.647094618018942
P 0.4829379558100294 3.3617447731147103 4.103666489541462
P 0.08343601116683105 5.122057678776752 5.456126848472464
P 2.658020805265966 2.0183758195939014 5.93591539142679
P 7.981177770954783 7.85744549543469 3.703850756368024
P 0.5681799948727447 1.7460047639369658 5.561391234226265
P 10.124108036067158 8.283440836709325 4.696826655555318
P 10.73538182756999 5.264329590959539 6.242303338434749
P 5.404734358704983 3.847941324445278 5.825261065086443
P 3.259159419273059 4.292322663821082 5.840625902338647
P 7.498957045009674 10.2790932782325 6.527473483041063
P 3.1443994953075625 6.571043926156084 6.056802231350916
P 7.539596941901594 6.327804832822274 6.718559088484605
P 7.842493838448002 4.2111588636954 7.405327103664365
P 5.452870453645608 2.270760349849265 7.449329625294538
P 0.5873630024966335 4.791630981129897 7.641055940504196
P 3.312389665800307 1.8362716139554003 8.063797117134007
P 9.012144352848106 7.393530458655355 7.992934153944178
P 2.659565386125795 3.9604639251283653 8.031175245406205
P 9.902543888814588 4.445415598854067 8.286581115509595
P 8.024153522587902 9.360192995047953 8.429086456072804
P 6.438254506227204 3.4873016322207118 9.059088331362197
P 5.750769171110499 6.772291598469379 7.870975862312826
P 9.840051522250738 6.180016200485118 9.56111154584658
P 1.8832687216301138 6.632197527612488 7.891265714070368
P 5.970267738011735 8.64417259133777 9.00055736101086
P 2.9458596154771475 5.3230894034889715 9.663676959757991
P 5.028597106675371 4.8596957897267465 10.27750054226928
P 6.52157673457201 6.5721567396734235 9.928538376237665
