48
Energy = -248.35945729 eV
P 2.7883947974776118 4.568528617227464 1.0312665823544436
P 2.249229116755057 5.516879106845922 2.9270678920288735
P 2.2621823084239803 2.535615696317719 1.7770712036856369
P 4.988671170687551 4.475140636104718 0.5832381067132412
P 3.3118513521184516 7.431146697075613 3.068316849210721
P 1.8725082543814968 2.509336459615576 4.035049394010254
P 5.55649936523636 7.018329529948814 2.9445030810892527
P 6.005618119681996 6.358328461855655 0.9662840979996734
P 4.275249533342928 1.4884010056755597 2.006742099236595
P 3.1324679606291466 4.329778588995717 4.60649071854382
P 5.519541687113405 5.560861019845199 4.5982131860069675
P 3.051688541061784 7.373583123656829 5.293499690580598
P 5.912590424355287 2.970698331316247 1.9284523261015616
P 3.7306574818574636 1.1666866538050606 4.186581814106687
P 3.660780016676063 10.357049319345352 6.437647823640609
P 6.093402251549029 9.502867838784285 4.483134341455499
P 1.8436686712143073 9.034956875303303 6.143793701465265
P 7.8587670351954975 8.535601878731422 3.5788171048047746
P 9.105115244422823 10.441968936306768 4.0771607011248525
P 7.303596893613692 11.32455187506103 5.155174910774108
P 5.073009295184002 8.515141728030704 6.220638723662014
P 2.276763585395547 5.603806503615666 6.20535929698694
P 6.817735026625779 6.510372395690661 6.218228768634982
P 8.64190275869473 6.8668862275896725 4.847792703455849
P 8.494305617333582 3.1442170996477365 10.159731276818915
P 6.7913325959385755 4.43961080155393 10.689908145261564
P 7.35111839806657 1.2967357706000204 9.805856319492534
P 9.367658376643966 3.774371364711862 8.198153855477228
P 7.673866509179124 6.42493442763842 10.003320605667975
P 5.46768218336534 1.9101144234768415 8.688588573525294
P 9.424506454021971 8.75626340246093 9.231412898555188
P 10.421611354610496 7.171653537814475 8.095871020633552
P 8.303547908778448 0.5324619667614305 7.89810187460365
P 5.121159068903477 4.016677427617908 9.265499209143917
P 8.606885519592256 5.850803622185836 8.041809161787237
P 5.555240318657471 6.9730089114286065 9.407708791775127
P 8.570404692175583 2.344459374361898 6.679468545280571
P 6.526369847108893 1.5827280982848655 6.757439123125865
P 3.3950100095611995 9.958860914874068 8.633395515237483
P 7.85628715462419 8.906178300444052 7.761118841555367
P 2.0685979571960234 8.334708423272582 8.236169401293145
P 10.323947100966349 7.8732000356634755 5.88932012380725
P 10.158982496346965 10.088216949607977 6.0363079484336115
P 8.36615615353517 10.92230945586476 7.1307813416282215
P 5.742559002804878 8.930109743424401 8.389472390320087
P 5.1681075461873265 5.593409275553479 7.697890694943938
P 4.764858366066447 2.84979000063357 5.248534055447344
P 6.440279044209964 3.621023732940938 4.025979736080287
