49
Energy = -253.02215409 eV
P 7.837470950257831 6.681319091442537 2.278164562728999
P 7.167630067954343 3.652267477166297 2.780035048481703
P 4.378664424017652 5.74404605468067 1.1405969316471616
P 5.9094027453683236 5.5128296902969804 2.570401698887174
P 1.9670792139677091 4.5409544943095 3.571806781171805
P 8.997571487284054 4.927763507484246 3.083799229017171
P 1.208671869040476 2.2822150182710703 3.847208341279747
P 8.125231375960983 8.159854660374027 3.924815557431256
P 11.243086852047186 9.157167336343159 4.3854782705220785
P 6.783488830093515 3.757076423395735 5.066096253653449
P 8.536013194622901 10.235291074210359 3.1479086022642537
P 3.287983157407123 6.641888233464187 2.8270464599258203
P 3.263764263814873 1.5049586065833966 4.19768389559871
P 8.891717926240386 4.402916426387583 5.359079041000687
P 4.747674660856556 6.096703076434991 4.359552765076795
P 3.8613258801013757 3.8310507945048684 4.44496761804987
P 0.7064456831860636 5.337909779332121 5.2591655985734675
P 0.7354520273996777 2.0830939635360215 6.069044714332083
P 10.075693709747567 11.082018365802783 4.544574699922965
P 6.621764862835607 10.92146492935239 4.198424255581698
P 9.679883335786428 8.088203215395552 5.499963278325489
P 12.126897138894018 8.705532894544705 6.451278333534967
P 6.257363015856491 8.801342776365015 4.977620414861918
P 1.9055484132271654 7.204279916948847 5.6685333392247585
P 1.3952741504595783 4.055728283130502 6.919239960635875
P 6.717527718991261 4.935399568169291 7.736889003289333
P 2.6227563919897934 0.8624567378892606 6.233313078825893
P 11.279164098169352 6.631587469004013 6.094459414799504
P 3.059346501867077 9.010146997726645 7.607631901839445
P 0.9204065398792824 8.365027208985284 7.426120984798763
P 3.5945863772351094 4.100691559928156 6.651533719878503
P 6.940580014604633 1.6520919700136605 5.83839604994763
P 8.972574956039818 1.9350398025258337 6.697068571457036
P 7.062319216796312 10.463736765544887 6.297580766546577
P 9.166305292644086 11.037380623206337 6.5830856595463745
P 5.169124652565144 6.430682627616167 8.2163603248388
P 2.4956514408685857 6.877055894175099 7.811196014917352
P 8.406061541674744 6.021172973808574 6.882325619446847
P 3.721598888056339 2.1697842636120326 7.666353501951896
P 10.723124361147283 9.702695241085914 7.91249331966367
P 5.842978505916111 1.5428991222723774 7.761515177904402
P 10.323931636726769 6.172192849838892 8.07908707411674
P 3.589290629090037 8.928273196346886 9.85558104085779
P 5.704818911422563 7.993872682359583 9.704306449880988
P 8.819753666956817 2.713071412886528 8.635442557281145
P 10.235613551660721 8.068002537201338 9.17429397934686
P 4.714409037103389 6.065314710293675 10.359825467760329
P 2.653188053594039 6.965175989537893 10.310372183361133
P 6.720070488219655 3.114653415859025 9.058564195660757
