5
Energy = -23.59011101 eV
P 7.124189751370816 7.124189751370816 7.124189751370816
P 7.124189751370816 8.20214412922726 8.942396000000002
P 6.046235373514372 7.124189751370816 5.305983502741633
P 8.20214412922726 7.124189751370816 5.305983502741633
P 7.124189751370816 6.046235373514372 8.942396000000002
