9
Energy = -45.32646925 eV
P 5.174510287955333 4.690401990337548 3.5883825454458025
P 7.228882166248341 5.272594269869804 4.3288155454888395
P 4.387821323866934 6.758291320593526 4.1476914413999735
P 6.450753058319897 7.332654499109524 4.864690739481118
P 3.8289870526247634 4.967545115908486 5.410608684715924
P 5.151403867509063 3.8343872535618977 6.855870207644961
P 4.367923341868327 5.903277459664167 7.415567887535478
P 6.4308783514889 6.765623954255418 7.076935157264416
P 7.210351311469235 4.70673489805082 6.542948552374542
