13
Energy = -41.5327482 eV
Pb 9.784226554466828 4.56685371218701 5.703499486564343
Pb 7.099152494648375 2.9661640956156 5.723893871806769
Pb 7.425237497830585 5.78836755994194 3.929547915894163
Pb 7.487528369162448 5.306395617370855 7.962417976619756
Pb 9.28739958702532 7.577263694765529 6.373341698983374
Pb 4.807208721408854 3.582945084339089 3.593949755352804
Pb 4.357414018101721 6.771477608274473 3.4183826430171296
Pb 6.066070614951575 8.33769719658388 5.934526114615687
Pb 7.545355242315563 8.28557791720572 8.922738720635024
Pb 2.096677044320913 4.915448488144304 4.612410889653714
Pb 4.303285110805944 4.65215617579394 6.73865791617756
Pb 2.8211301556249757 7.691240302677086 6.090237224685776
Pb 4.622767383193775 7.226934594718573 8.694763224365852
