19
Energy = -61.67215569 eV
Pb 4.145731187343867 7.100323395743101 8.574226432642522
Pb 10.009368358704327 7.525673470446778 9.50282087234803
Pb 8.651556762286901 7.723322219989013 12.64168216520251
Pb 10.560830869230966 10.068893060156672 11.428630571136598
Pb 12.794623625958636 8.177077777693556 7.058188750165214
Pb 4.082226579681948 9.767383034403279 10.406469487378088
Pb 6.653291672771985 7.676710537143957 10.180752831142554
Pb 10.160960853397787 6.340603742981344 6.6238362888602955
Pb 11.747452787466282 6.83787828612933 12.081124683184614
Pb 6.931697276528076 10.585553766007955 11.652549969092664
Pb 10.083613430225597 9.540776235347362 5.928578756238799
Pb 8.241461774934852 10.410696076037823 8.795832598085983
Pb 11.648258949032966 10.871812450568866 8.476035686634074
Pb 5.61693976532489 12.284333941152408 8.94355867427136
Pb 4.430067187941099 9.877809712050281 7.192224927880439
Pb 12.589924631303766 5.713282736360783 9.119211312187891
Pb 6.97576429711018 11.219274995564687 6.0958924209356375
Pb 13.458602210091719 8.742992877561004 10.151977773682567
Pb 7.107758758055077 7.926079130480582 6.961489172468655
