12
Energy = -37.72993338 eV
Pb 12.494349206091364 8.741993345412494 10.109215841692619
Pb 9.705300455910516 10.191844432234175 10.032112624512664
Pb 8.354097599040742 11.855079582789767 7.698775589985835
Pb 9.044099769786973 8.990115086629947 6.51870896483873
Pb 10.726716706543566 6.856181395941037 8.673173044498771
Pb 10.097616822086533 7.500499991290374 11.767345308128027
Pb 6.1901341589796255 9.683119517534099 8.771519806769103
Pb 7.235073748559256 8.629211250492869 11.60045526119781
Pb 7.392529228999884 6.494854541549351 9.36106399885956
Pb 8.705787631550372 5.831219462924547 6.637738273598447
Pb 5.969506822327367 7.603161095324289 6.229119301563335
Pb 6.281873533544686 10.572128670004544 5.7348776824752985
