21
Energy = -68.65485491 eV
Pb 6.920394425184742 5.312279562744359 2.0701308139809513
Pb 4.608653889941401 7.515937128552643 2.3859718316461307
Pb 7.731674308662014 8.24165065150403 3.0006891765852566
Pb 4.1710909521641915 4.5832006463614325 3.68566781527115
Pb 9.325679068613528 5.665373054274373 4.3707359114574444
Pb 5.280791387111189 9.782774561818563 4.547569458801885
Pb 6.987881716605904 3.170695044734739 4.458609496019942
Pb 2.9427886304356274 7.181882296896313 5.1938493308646745
Pb 7.499997925116941 7.7733273491229795 6.165076997587096
Pb 9.36501105320107 3.281714963969656 6.58167542667319
Pb 5.443323327845633 5.54203497419266 6.553930850850624
Pb 6.541317606391619 10.639017631209535 7.408824487993736
Pb 3.6159503683174337 9.49409249938176 7.409977786730868
Pb 10.029492090539758 6.142929538903323 7.874968829703759
Pb 6.35509620609416 2.5891007685446006 7.594543856538686
Pb 8.895513436740144 9.037499065963866 8.810475351986074
Pb 2.9992198539725856 6.655194849875481 8.468796196357435
Pb 5.580466346038822 8.481828679212345 9.782389351667975
Pb 8.54329523817947 3.7754984026879295 9.657984927053432
Pb 5.499317228495557 4.9417970584083495 9.760107713711308
Pb 8.163044940345568 6.6921712716387285 10.718024388516056
