27
Energy = -88.7183598 eV
Pb 0.9527363039343956 7.050725819720226 8.84051439200385
Pb 1.8161503297381087 9.212350433884069 6.464762892401451
Pb 1.6006953565994895 6.021305639919264 5.7972726604849605
Pb 3.125979941361729 9.543399332967322 9.543892981377534
Pb 3.663094476645609 6.318275861164734 10.713089446580687
Pb 2.532012800403388 4.188941209846073 8.294071481754688
Pb 4.132985801346601 7.1048615280943705 7.702266487635523
Pb 4.308478957509736 7.837447409859239 4.526764330218251
Pb 4.98669778755262 10.401696488437388 6.734893631940165
Pb 7.017332940812939 6.924126187117471 10.544901639460658
Pb 6.438354678164639 10.051881750634081 9.603767149427455
Pb 4.720512237621913 4.642513109707622 5.71586540293668
Pb 5.839164815732165 4.374861686566922 8.881804968605117
Pb 7.165457930518771 7.811159299787217 7.35962944484894
Pb 8.770674327451031 10.627764469302639 7.036353630607786
Pb 9.928797711914767 8.589668496057321 9.270123970914295
Pb 7.407808052501183 9.204168767937068 4.368810851404678
Pb 9.577449605839947 5.1560294349875955 9.19689063174128
Pb 7.598030276796154 5.990918402067214 3.8418112128326367
Pb 8.383450444472043 3.797681883944106 6.2775303318231055
Pb 9.885389702067354 6.646630482248721 6.306936485368074
Pb 11.75827023512887 9.260006997394804 6.3885047776014225
Pb 12.559474053500251 6.65023198385273 8.349728354436653
Pb 10.435861507971753 7.905233969156915 3.47791310275673
Pb 11.757637266616182 3.910310340605332 6.764091187579589
Pb 10.618465865112269 4.510890247753977 3.795823704081725
Pb 13.015127201338272 6.414398809459533 5.065967222901508
