20
Energy = -65.89729102 eV
Pb 3.583345697716675 6.4704603390452595 9.213125859865519
Pb 6.111307682544179 8.362806075638082 9.779640098583336
Pb 6.586513190514747 5.132442498354036 9.627714308643414
Pb 8.793530239700958 7.410527815620727 8.172198343475369
Pb 6.754908070607374 2.4365556610921235 7.707998491928926
Pb 9.386792278449336 4.196522674122673 8.224527683984098
Pb 2.4172933211842946 6.948916168764281 6.147803738037926
Pb 3.803361100311918 9.368022991334632 7.853954761721186
Pb 6.868943918851826 9.863768112513798 7.047596854265608
Pb 5.088893034207126 5.058185876082414 6.67139461805457
Pb 4.624435436965284 9.226993321736279 4.692691259244095
Pb 5.812702865421566 2.628780073363352 4.536159592940885
Pb 8.958187701053996 2.8106004492830463 5.406524697331906
Pb 10.04182381078019 5.8273123459681795 5.540784335968903
Pb 6.146236658490623 7.524308377567263 2.2894658469522855
Pb 4.936669934906115 4.562390174965607 2.050379914193794
Pb 3.0574776498894303 6.953453451438578 2.9425662343771366
Pb 8.019687334199238 4.906749890838418 3.0806126511188796
Pb 2.860354548658546 4.1326808213058825 4.457882185136315
Pb 7.001197381650427 7.032184537069649 5.410639980280698
