21
Energy = -68.5079389 eV
Pb 9.82096257022719 9.57361348810492 6.701767875765483
Pb 9.708636497832345 6.1412296999577585 6.345194937507846
Pb 9.961767275528967 6.904651681432899 9.429783264491258
Pb 7.823864914964154 11.877210528658964 7.9126970239183745
Pb 7.206295579957232 10.670437339232965 5.001023654715192
Pb 8.103867031266464 7.843812984171114 4.055111445913336
Pb 9.028255000983366 9.965287022524267 10.07412223697488
Pb 11.390594227744868 3.5307618132450895 5.53441193854786
Pb 10.319228213131545 3.715332530769811 8.503014880153968
Pb 9.151273303371452 4.540172372238662 3.6209265651524225
Pb 4.751907344868431 11.383631320578221 6.90601834814975
Pb 6.797270050123897 8.336813502032348 7.784965611217635
Pb 4.6549334600573085 8.427630293819824 5.138644766558905
Pb 5.700299777161676 10.29601317707143 10.24909863647193
Pb 7.440522418049146 7.340312896699727 11.23859455409604
Pb 6.3582746720055106 5.2746282202542485 5.268915718557044
Pb 8.30931573284823 2.7960533519805564 6.1907383801118705
Pb 7.140465400388197 4.928324848955806 8.76896659377838
Pb 3.3959448758165527 8.96746903783344 8.275372492780818
Pb 4.1425053487866945 5.919344952251581 7.461028883177436
Pb 4.41710501472511 7.037714677421361 10.51136244788456
