27
Energy = -88.77402983 eV
Pb 8.72320239356414 11.727749281096004 6.513266081114384
Pb 6.020523161871765 12.493514411467514 8.173361059408032
Pb 10.510597681287557 10.175814256385722 8.73502466768355
Pb 7.843387527262567 10.437071228148909 10.604193401870262
Pb 8.747793393046697 8.540954611764297 6.5492502203360345
Pb 5.58750490673877 10.671134234050104 5.107375994049383
Pb 4.6177733335312645 10.85721884708976 10.538118947144039
Pb 8.577155643853166 10.126906127262798 3.7339350971177083
Pb 10.30865244451219 7.353483990573686 4.140146749913946
Pb 11.59547015589282 7.403553472652516 7.351322100416227
Pb 9.495445702436585 7.52402519127487 10.269939757557278
Pb 3.2877619113304544 10.970034793709758 7.5243415954419515
Pb 6.085053869483418 9.02605491730567 8.08630172985472
Pb 10.782776155432815 4.728975792571817 9.095776875205402
Pb 6.645505779124981 7.549823282892857 3.883952222955829
Pb 5.979722979914258 7.68507425820182 11.0636099485636
Pb 2.970666890738166 8.36826276277461 9.33340239119703
Pb 3.9058951852954618 7.8725542104582305 5.9793367798413275
Pb 8.178351112244941 5.35429631516816 7.0192832205818
Pb 8.404704425517004 4.709449801663645 3.6683777746193966
Pb 4.682597071828864 5.707783677671076 8.564087717592976
Pb 7.617398905676367 4.6818501967005215 10.286708230245189
Pb 10.668140333076181 3.553989687323117 5.892140837964365
Pb 9.075379305350948 2.147869590893706 8.381132932036616
Pb 5.431607362449828 4.761046405603569 5.23218656663172
Pb 5.910201955423011 2.8376442564576014 8.032657738185677
Pb 7.75210642947127 2.130489125075757 5.462524518560027
