28
Energy = -91.05948351 eV
Pb 5.537516646106034 8.585657381619493 2.7447598428611637
Pb 4.568263633941362 10.35110067766509 5.8264657983713946
Pb 7.031571331755334 11.17221365070267 7.728328271797674
Pb 6.564208170768099 5.405818263427959 3.4819064296681206
Pb 4.050152468527012 11.078114159736042 8.946348669785698
Pb 8.311584085308084 10.099228940335186 2.2745530082290526
Pb 7.8676985528679415 7.072302377460297 1.0413811843744187
Pb 10.690325843013296 10.203051144346166 4.262920131318134
Pb 7.707395741862194 8.780469710066921 5.201564810445194
Pb 2.6651172565877577 8.402670278137835 7.696491631885099
Pb 6.472904724644628 9.901561833616048 10.814689180336426
Pb 4.132641929898162 6.94073355289527 5.204948101701168
Pb 3.7234176114361737 8.246613066683656 10.806353640032725
Pb 5.888275922794603 8.215249995047392 8.128607377351766
Pb 9.444783668541012 4.577868069183335 2.22984308393917
Pb 7.99408897829873 5.685246937397571 6.732473865851765
Pb 5.4058836004149065 5.2542176990011225 9.081942761708106
Pb 5.3044879090008035 3.7760986281726208 6.115448372255944
Pb 10.715453576753672 7.791080458139667 6.2653126346883505
Pb 8.320172159292001 2.952234523450132 5.046595244292888
Pb 4.3542052271705405 2.3089558421288543 9.591023266110913
Pb 3.730381289906292 4.887095917246592 11.719609782704495
Pb 10.664967957354145 7.390625591115005 2.9500904103739245
Pb 6.493027527768191 6.667391783487896 11.95695134889478
Pb 10.851548082392375 4.791559378737899 5.232508900525369
Pb 8.631673205792879 5.2229287286744395 9.956814748012622
Pb 7.408168350830695 2.4983295175498728 8.591071737767813
Pb 6.594188156564669 3.2998653003413874 11.613699158694647
