21
Energy = -67.99687639 eV
Pb 4.849333958909806 8.295674848967563 8.894151531462109
Pb 6.807923822812 8.220365392418238 12.073358967687346
Pb 6.623289427760071 8.400251434664069 5.611435774688416
Pb 10.538975264636093 8.229733754632317 11.965293310109278
Pb 10.35364153380268 8.413964174118457 5.50634758033113
Pb 12.311950377891995 8.323156965106651 8.68359509097797
Pb 5.721820436401178 5.652888706080535 7.169547248421335
Pb 5.817138986081659 5.567475911998279 10.422270817423657
Pb 8.489065879400371 5.721256675706838 5.450069683127353
Pb 8.685190909794018 5.538320235202996 11.97052230769084
Pb 11.355564012755265 5.677208250210165 6.997675526483138
Pb 11.45189752284125 5.582922585278911 10.25191620217444
Pb 5.767977363559477 11.02208869189075 7.345606099503587
Pb 5.858361706120139 10.93910988522743 10.532341513134316
Pb 8.487011423814515 11.092195530276937 5.6939789257338225
Pb 8.66049197635087 10.915891345199471 12.040845942593089
Pb 11.292728049669249 11.047233235346235 7.203508261240616
Pb 11.38196913392227 10.955921830282547 10.38559727132418
Pb 8.570401520117201 12.462708702118166 8.907314329055096
Pb 8.581058123232012 9.324220722629669 8.824152871946675
Pb 8.584852238509312 6.238357905735712 8.72646894761311
