37
Energy = -122.07193168 eV
Pb 12.832677123046244 7.319165321895158 6.517911256428425
Pb 11.658658743302384 10.38597957905058 6.309945047729896
Pb 11.7562655406218 8.883812814189135 9.113551523544382
Pb 11.49895172814845 5.704211624017109 9.265345228390599
Pb 10.485879620824138 9.422041596126094 3.2664295187237777
Pb 9.003236032429395 10.443102232286135 8.332316125638112
Pb 9.18381437377921 4.2622190103101465 11.222019032346417
Pb 7.223899671622177 5.882332533910026 13.254935828756789
Pb 9.543490618880162 7.86056167598671 6.252152623738546
Pb 8.713058875309908 11.69214925567413 5.202029071726049
Pb 10.977351041070207 4.7157283663126925 6.16954890493381
Pb 9.59353686744838 6.33475986979088 3.217017786247925
Pb 9.062001481101362 7.5451467297659685 10.780016599872974
Pb 8.2142357589187 11.181005582323554 1.8329371026805468
Pb 8.066803608001907 8.081060450055906 0.9161335128269247
Pb 8.342324771454614 5.120736683674436 8.102625667126386
Pb 7.293315678119451 2.182843226417178 9.6119701652524
Pb 8.160373010721 3.874469671259422 4.762275215736755
Pb 5.933594863331 8.495610522935888 11.765735750946423
Pb 5.203108354970189 9.888285047162753 1.3845549915365012
Pb 5.7193781528129986 5.2937180567826845 10.113551588677485
Pb 6.5231633551281245 8.142737334429123 8.460588616381637
Pb 5.8380084746841865 12.401364172817017 3.636708927774229
Pb 5.252597156612414 3.112894593967115 12.3967788683259
Pb 6.86928383640748 8.985666023175867 4.060199007129634
Pb 6.5815481898225805 5.57711468592789 2.380018087913608
Pb 4.032946825750247 6.193870014420364 13.025321703302597
Pb 5.711775274319506 3.014823903494473 6.8141301149667735
Pb 6.004829694798139 6.1629095900733795 5.735215980184729
Pb 5.739101214807346 10.998427299944092 6.64398150573704
Pb 4.05566236455787 2.1380901885885506 9.449253656542732
Pb 3.286230631525755 7.600332257562654 10.052353907881265
Pb 3.511379002822907 10.318853192900768 4.1150327578738
Pb 3.9117675826164335 7.243437718100481 3.312489463508238
Pb 2.4182707380206643 4.48468356078165 10.850710625463703
Pb 3.6039360565782816 8.22087669637678 6.5851204689335505
Pb 3.1612376783645986 4.917965653149346 7.65574134780883
