35
Energy = -114.5495339 eV
Pb 12.796962385138324 8.560224733206793 5.461703837858078
Pb 12.339684275132708 10.240578633081185 8.277767210530891
Pb 12.009007234134655 6.954962919077746 8.394693096314008
Pb 11.716919865810091 11.567692736024329 5.378484475872678
Pb 10.908713404807257 6.035460899083966 5.174430252466103
Pb 11.369427752391006 6.837122239287455 11.585151164348073
Pb 10.467721814187188 9.820298731986798 11.229094803871194
Pb 10.385073482847629 4.071431138041035 8.033291041337636
Pb 10.312165115246698 9.249772042009374 3.418242835664649
Pb 9.573902890451246 4.2582255084010905 11.23073658823741
Pb 9.643697584805212 9.059578201518558 6.644120494869684
Pb 9.75918915136447 12.245533382749363 7.885626085148789
Pb 8.656663146148366 7.751100193581522 13.093309265586946
Pb 8.644209619530857 6.222211165366044 2.994846398593513
Pb 8.764750804613719 7.043966855068184 9.47221019320919
Pb 8.398738695923484 2.4358603145624227 6.201875872450339
Pb 7.569880005459682 10.24078559580846 10.055404473207858
Pb 7.77890161337961 5.739637106381249 6.305118362220245
Pb 6.7922133991087845 8.53063745835497 4.040214548558502
Pb 7.253395059294304 3.5089251606123772 9.147020441829595
Pb 8.557985541871659 11.9011238144591 4.747688249079176
Pb 8.112895409728578 11.031489806881964 13.161403745687306
Pb 6.456400199748442 5.742734793380616 11.586797618642272
Pb 6.927920379559504 3.7316159067346324 3.8257591852432276
Pb 5.739911492724651 9.166237577035718 12.794147452425376
Pb 6.106541309780713 8.98672051032132 7.307066025283977
Pb 5.16483534354145 3.328571280508284 6.463282865439964
Pb 6.543060700657268 12.391707155472323 7.5297162085412
Pb 5.387705153779905 11.201172574402987 4.650541572751133
Pb 4.490445089932459 5.2672233063222125 8.940080004461882
Pb 3.622409852816793 7.388514776687519 11.354313927840135
Pb 4.579709950751304 6.474526141222317 5.691186523744905
Pb 4.424122393499868 10.462398011899419 10.084353856397797
Pb 3.4345572774076385 11.020046731650869 7.075784303540247
Pb 3.018123552762222 8.085582120915053 8.185947783324984
