38
Energy = -125.03303709 eV
Pb 13.208927921266504 7.650559309813932 5.663276055635414
Pb 9.503279856478889 15.063054289375156 8.446613970479076
Pb 9.066811078979693 12.471985435920596 6.405040816250764
Pb 10.480097334412473 9.269877431068286 6.476397314205828
Pb 8.219837571690997 9.77613513106903 4.037909889779305
Pb 11.39501200271253 12.255379887976696 8.662332424780422
Pb 13.32839701687572 9.41770691019632 8.62420342902475
Pb 13.220402583847005 5.795978701641988 8.436593715545786
Pb 10.647906241241174 6.944242272553342 3.765272801749425
Pb 7.2529021881963205 15.322592127488925 10.65513458640397
Pb 12.396512252378631 4.564400917204351 5.352776124685492
Pb 13.48467941291684 7.565501935945557 11.225972608089682
Pb 6.588322973226703 13.469379949910604 8.202364103397777
Pb 5.727718764886456 11.383205077428752 5.4861609066225805
Pb 8.39674769922598 10.661783841115625 9.167143906469823
Pb 9.601544287359014 13.16813327126324 11.140384280788737
Pb 6.901401157061105 8.56285833133882 6.876995040489025
Pb 10.497400132627522 8.087131754654019 9.7079123154052
Pb 11.843860690848405 10.283660024548007 11.65376435238823
Pb 9.338830653694078 3.9304040563487574 4.95964630609511
Pb 5.241615710133529 8.724427012682739 3.664961242871985
Pb 10.107056688160547 6.142050192896748 7.093385812969214
Pb 8.592322355912893 9.667150184426031 12.33037424473957
Pb 10.734191245504007 7.11110520427781 12.818828956628991
Pb 10.620877465947816 4.879233916771488 10.249886917309418
Pb 7.286265122844244 6.668865625187352 9.864552947872276
Pb 3.507578828675752 9.012217195696255 6.312364663945312
Pb 8.267343194231321 3.6969588696807207 8.239617855071685
Pb 4.811539667350203 6.084126281569755 6.126155355759676
Pb 7.4175372949438865 6.387023341865268 4.301356982127581
Pb 6.490935323476633 12.24650968243515 11.337676661870606
Pb 4.89618389753929 10.612984995905444 8.87178606652025
Pb 7.394432491914073 6.538426704626271 13.156862198942605
Pb 5.153794659830706 4.180491758446083 8.968121514523444
Pb 3.957489603425673 7.280178469829849 9.256338772227972
Pb 7.342705768773191 3.7860687780737403 11.443464630941806
Pb 5.261868986277894 8.692441724107285 11.8604075020822
Pb 4.585667233772634 5.415766763300383 11.927960083949259
