31
Energy = -101.75302909 eV
Pb 9.717770070929358 11.736606645619684 3.895556131378301
Pb 12.268981111327044 10.914331492858144 5.764922295503072
Pb 12.4692687799023 7.180911714057571 9.812646941744372
Pb 6.680495272915355 9.736243176770135 12.605175799201593
Pb 9.286740000075994 9.078231311218614 6.530071416836609
Pb 3.5206475404748736 12.403879381413548 9.263758218926029
Pb 6.38860038391973 11.467589648519757 8.256377619413174
Pb 10.309899031847745 8.558236686469066 11.656340974853128
Pb 3.539991840029119 10.516371412408716 11.846172782769727
Pb 11.973121637536064 4.223188909681211 8.695594053625163
Pb 9.926577136964804 6.276484024289438 4.818304440816244
Pb 10.503630083640383 5.308705230483315 11.65502897485831
Pb 9.3043941857465 5.997033906169653 8.412188802913908
Pb 7.278358783587239 5.066506910465314 11.070526525122588
Pb 6.7916317712713195 3.3122016547033404 8.276306488501543
Pb 5.0176830006685105 5.978103049960044 8.457795110890922
Pb 3.7711544040057308 9.188671427870684 8.916039492885018
Pb 8.741704679354577 11.289233446030314 10.520770109927811
Pb 11.60898597326505 10.177531743435097 8.882555433217078
Pb 5.767157573614839 8.689651920225954 6.401829614727688
Pb 7.288322017573044 8.423488488531278 9.52104632743836
Pb 6.981375566609558 5.473225714574189 5.844916747169957
Pb 9.608068621324424 3.195648176003242 6.723048212250585
Pb 6.853563680788593 11.695271234202446 5.123016407491831
Pb 7.895708306536777 8.887271807766897 3.5776713157738427
Pb 11.151396625980912 8.915328673668942 3.472782596477522
Pb 12.360654606220159 7.691142072107754 6.559672375051484
Pb 4.839021131913364 7.450387138926571 11.495741086187511
Pb 9.39592380759087 2.7493559379098356 10.023772979709078
Pb 5.854808837009455 12.670704077144382 11.392595723720765
Pb 9.54785680873897 12.391956257877206 7.171268271979351
