31
Energy = -100.86071753 eV
Pb 12.12914055340841 7.411904446890403 12.672374145453281
Pb 11.775152364189443 10.458911785694204 11.899256598326053
Pb 11.355619708807934 11.314368979533802 8.95090400972858
Pb 13.10715099154951 8.347885473910443 9.394709235765848
Pb 10.820260998749964 12.017596135644231 5.997179732562766
Pb 12.084836759211793 5.248150958152556 10.422386190507925
Pb 11.53905546878909 8.913009645553245 6.368657828166132
Pb 11.73468635716171 5.868307781061634 7.243162756000197
Pb 9.314509542502021 8.836306208791582 13.352360401464614
Pb 8.30744573108871 12.328859942753086 7.939352132386861
Pb 9.29634958893897 4.593829387173015 8.99323658032175
Pb 8.624594006316313 7.034756559844414 6.662948754287207
Pb 9.240283980408 5.785308883926681 12.276284282164333
Pb 9.850909413869385 8.116450664940594 9.94930094542002
Pb 7.778497138763392 5.905459714416121 3.790948984093529
Pb 6.860486878194585 8.121198749173656 11.453795395529038
Pb 9.033070511584208 3.675180950697792 5.7141539786654105
Pb 8.490458963195877 11.099824504840907 10.95111319427116
Pb 6.362093129407096 6.034439113586769 8.880567451369963
Pb 4.481044790573628 6.083277569506132 3.083721403536188
Pb 8.409233937647446 10.090489047996698 5.540555070465136
Pb 6.740591392628037 9.459620572078881 8.25151895036667
Pb 4.5642269275549605 7.0187863993280795 6.363142132579098
Pb 5.727898631952719 8.938048762727618 3.9438827064426905
Pb 6.977724127978734 2.8035725545514762 8.023575045334448
Pb 5.794275044181238 4.011398406084454 5.424837874283951
Pb 2.512173463294026 8.77009641901615 3.829170848209531
Pb 1.9477467789684264 5.634386827357155 5.047549043819361
Pb 4.142593678875772 10.294367953716753 6.377846731190865
Pb 1.6650686256715634 8.346009314320233 7.021555948462853
Pb 13.10715099154951 7.847192180349053 4.588947542442772
