33
Energy = -107.612251 eV
Pb 1.7430209734712452 9.146994450924787 8.266717989382933
Pb 8.924066645538257 13.321504568624318 9.426665196321666
Pb 12.560570230672656 8.994834694621444 9.548831121309423
Pb 4.423656402660642 8.809514387102666 9.650702355055241
Pb 5.998034529851709 5.97597149625319 8.611745300246731
Pb 4.956871886107751 6.323653585132532 11.72801873785841
Pb 13.947914363331826 10.17020208067874 6.986363719382104
Pb 8.61016302595051 5.8382226809458935 6.333682619909834
Pb 11.135740498620525 8.274946851395734 12.261048306865586
Pb 12.545336539030458 12.577142636540522 5.379223713819754
Pb 9.468802535420862 11.633045450213345 4.142873167693375
Pb 7.220149467401726 12.158939188194577 6.799285470035005
Pb 3.246295662966841 4.327616888576068 6.9273227772010175
Pb 6.1495032310777145 2.8191410387508617 7.88176206003673
Pb 12.266182491082827 12.542437485571938 8.9658900085725
Pb 8.664817370083018 5.77473051316853 11.830221302069386
Pb 12.360370512837168 9.609136837033164 4.219400231837717
Pb 10.295369941649907 10.508692315710245 7.156263306926371
Pb 7.387334856842657 10.332374857226004 9.476479819755232
Pb 11.910036257784808 7.463925390653235 6.595674595519668
Pb 10.042346156568591 11.28782520998406 11.616344630867708
Pb 9.487396021275009 8.362592724963134 4.380002278043678
Pb 13.07759860960298 10.929744916734888 11.90698594441218
Pb 2.148130007128749 6.303340374716816 9.442429935964013
Pb 3.6489983363827743 3.6083385351655797 10.056991770602112
Pb 9.31315375437974 7.607426291523169 9.142831902258278
Pb 9.030449793178295 4.165887011141405 9.082934266804218
Pb 3.7540238789661498 7.730413058726268 6.407926874452084
Pb 7.92116211115543 8.863238667009512 12.248460641501635
Pb 6.944222434116963 8.724702928609139 6.640657893826624
Pb 6.572204496637917 3.414436288427467 11.138217968964344
Pb 9.947900928118775 13.858853645381844 6.503788196690704
Pb 5.587752546592767 5.439757285338297 5.233170508740268
