3
Energy = -6.53634891 eV
Pb 3.1629651611986818 5.922410218297334 5.936459405721988
Pb 5.935395190406035 5.935456656422024 5.935592863383012
Pb 8.707891556077321 5.948384731185002 5.934199638576919
