30
Energy = -97.75987159 eV
Pb 8.133985780175145 11.916244326988556 3.630932281548456
Pb 10.828164263935077 13.296222634424204 4.52154117985038
Pb 6.0005544599938245 6.791577329992986 4.987737324492503
Pb 10.809073788133832 10.088371651863564 3.918016419574709
Pb 9.185825654902375 5.675988515206938 5.340061043752012
Pb 11.486593009926255 7.858524741714008 6.074245505917155
Pb 6.560910458890571 3.678597315503648 5.635272318944856
Pb 8.412392736283294 13.419886855277358 6.5556922035392455
Pb 4.018675172041866 5.050471393049979 6.909964008051982
Pb 8.159394565823153 9.051175799347744 5.496393553932123
Pb 5.786596110173861 11.546001257243573 5.8252168995841975
Pb 9.088019746678086 3.0585424744604985 7.3445015917079175
Pb 4.75835560325303 10.32806570733323 8.6271882677383
Pb 11.608397075940003 4.963563649691843 7.917777480744552
Pb 11.081420221751438 11.3271180587641 6.953790413780046
Pb 9.304162406956827 7.190783126119781 8.760509848626501
Pb 6.178533742484179 3.46828482504002 8.964606646712987
Pb 6.00038627629506 7.30165812709005 8.308465394513552
Pb 11.935571079705504 6.3726635111075085 10.730131035515505
Pb 6.182056532368068 13.17908157813458 8.696574332826456
Pb 3.893638174753675 5.586693807413258 9.99614265935765
Pb 8.203999034058947 10.477902892444465 8.3565058773808
Pb 9.52557571900289 4.105566893427634 10.439082217819765
Pb 12.084184955467832 9.140215093497497 8.995359338593572
Pb 6.8626477594253705 11.136904853276912 11.177065520650524
Pb 9.586365909837554 6.40026088732912 12.821651634967084
Pb 10.013656809582924 9.403656720934753 11.367252483027862
Pb 4.7516317324347455 8.457394658527402 11.321497031680162
Pb 6.639976587520817 5.587187628630809 11.664714879722725
Pb 7.3398120410290275 8.561951094988606 13.082668014271785
