39
Energy = -128.55861104 eV
Pb 2.270413846472063 9.832707714274736 3.868215893629277
Pb 2.4724950750439976 6.731842783190793 5.123551062939825
Pb 3.776959605121568 7.536520845940667 2.1447453401078094
Pb 4.945106326684714 10.548443626299333 2.177037547716751
Pb 2.1098596020199185 9.700117693801579 7.095660701714534
Pb 1.822442570140603 6.5527852997171205 8.405117990312739
Pb 4.480365617477053 11.948933588553698 5.302704016394336
Pb 5.321709918756914 8.749564489305035 5.0760785578254195
Pb 4.259505347409875 4.805717588976986 7.185634538064573
Pb 7.068281487604689 8.014199263899918 2.329530974725644
Pb 5.475401396724651 5.549115389758662 4.053716971017292
Pb 2.653034276332116 8.930783209889817 10.290662984919114
Pb 5.209811784599654 8.052106927092815 8.29470471121472
Pb 7.700146548768224 11.055153315103547 3.7847386737156787
Pb 4.499560864987769 11.307343679392838 8.66547356882849
Pb 4.362040409157178 5.887080649307587 10.420986136808022
Pb 9.765142835071567 3.401941999054573 6.252859838352491
Pb 8.504183398897045 6.129429364185888 5.069661227541381
Pb 7.406537884599344 4.845045104010797 8.078761530352478
Pb 10.215130626825903 8.636564823283784 4.063740393941443
Pb 12.031652592740011 5.747492925664768 5.433310356586345
Pb 10.05537471719166 2.7619240557057942 9.582350974541196
Pb 10.737521026543899 5.936666424903755 8.508359387378023
Pb 12.722265572733466 3.1733610666944227 7.4931524125483335
Pb 7.451510446487866 4.04276481071237 11.192416335871751
Pb 8.067709436511842 7.333354196624308 10.142489554642307
Pb 7.281323373542453 12.177672974854458 6.960267285022872
Pb 8.563899320717171 8.824601273703081 7.042179718772522
Pb 5.606785284412824 8.90852447361322 11.593289206762025
Pb 12.055735377488233 8.725430854153847 6.992503721660151
Pb 13.051964169346466 4.10547095779915 10.514988027282538
Pb 10.251594603149513 11.305332830760978 5.81492929988322
Pb 7.685472663094301 6.4615611488067906 13.183655016692207
Pb 14.029082087496063 6.090455882377593 8.074203966108694
Pb 10.528525862645022 5.019504545858399 12.33546908358575
Pb 12.744690724862346 7.3557148810462145 10.922641853696392
Pb 7.543316716548978 10.792179421402615 9.859832658182242
Pb 10.118953193032077 8.397716681912488 12.51789081748978
Pb 10.604504043864619 9.766327781608211 9.616252140392008
