30
Energy = -97.86185431 eV
Pb 10.177976915899952 8.039119166012316 3.8603071345868454
Pb 12.684481838816417 6.072209708613866 4.531384462762882
Pb 8.211954347771899 13.614334191671801 6.5719513440356705
Pb 12.941309182882348 9.307175789860855 4.747460174950436
Pb 8.188604928722901 10.28323127235176 6.154760547292061
Pb 5.503677871020113 12.194941252933214 5.703327497369169
Pb 9.648395934841853 5.375456576171061 5.724708029856619
Pb 14.282619867465927 7.498046496882328 6.97876398740511
Pb 5.115454711025293 9.155562162568268 6.64503086599352
Pb 8.125116005921527 14.348914099207038 9.701577726937481
Pb 7.275646020731108 7.0620983258198375 7.628760920919393
Pb 10.929221325850328 8.14046980878615 6.982468128090627
Pb 12.310244036905216 4.96410453909004 7.610049688026174
Pb 9.905720530950202 11.605692637598072 8.844764808389288
Pb 6.733764781057503 11.405570051477524 9.153125841595532
Pb 5.316998956145816 14.213308379006458 8.178788475331276
Pb 9.474807324386768 5.673012077605212 9.307596743547665
Pb 6.265233160565849 5.238879209137528 10.407707182892164
Pb 3.6691218111354904 11.293206838633736 8.405581087290965
Pb 8.528856562881375 12.334365969013378 12.106341132371405
Pb 8.584425286157188 8.779145824766989 10.37264976689577
Pb 11.964035038505232 4.585305296658613 10.883412482847483
Pb 11.167778051183753 10.32827995217945 11.732140793384902
Pb 5.25852057231495 8.423587221800005 10.01008577503033
Pb 12.40630354157069 7.760646071827184 9.81449029660223
Pb 8.82149090500264 4.280791961401534 12.142606505762462
Pb 10.588687300785592 7.066665169639485 12.604517832056942
Pb 7.128868368504296 7.011587897543984 12.955060797295618
Pb 6.001666498519015 10.332781069564874 12.426254791416381
Pb 8.794736230111734 9.617228889810653 13.820043086695842
