39
Energy = -127.94955576 eV
Pb 11.84795654582715 7.567941324843834 4.7800670434209795
Pb 10.193232823366246 4.585112632539157 4.627929398574377
Pb 9.833470129033882 6.7922972223471385 2.3220758808363184
Pb 12.006603234483762 10.720635030686031 5.851719606401355
Pb 7.198326776097349 5.0964883073855205 3.1573155586008284
Pb 11.44898203567491 5.988136105784596 7.646500975321025
Pb 7.255240690207262 3.4671098395700635 5.895379791077954
Pb 12.724304593688174 9.066723313139114 8.51669432213208
Pb 10.073382672401175 2.972303330611961 7.312149375879438
Pb 11.77238596878507 7.057930670153126 11.006409923113633
Pb 9.75995447651646 9.822471943311296 3.5892390165026606
Pb 10.207980978039348 4.349605872483635 10.444632956842678
Pb 4.160407667822154 9.014725033012606 4.084707069376782
Pb 9.30162605328126 8.600629431595909 6.775284050135065
Pb 6.419003430494243 7.04378200333056 5.6579483964874315
Pb 6.919138762714163 8.233639021821217 2.499764579885143
Pb 6.887688112002464 10.412718667199947 5.133025733020139
Pb 12.098299471031098 12.45085411784987 8.765036126120172
Pb 8.21552506858717 5.61317101081006 8.084999954512062
Pb 6.633427505585252 5.54696116386285 13.088158194138156
Pb 9.270587762582572 12.198115294630076 6.8751325014086
Pb 9.745102711973928 10.096065325908437 9.742040618781097
Pb 12.72181133167541 10.484003020840051 11.50039677074252
Pb 9.769567174938013 5.598167622947473 13.53000777261591
Pb 3.373978471144536 7.075196307163826 6.503684110050772
Pb 11.86406718471646 13.614177307235225 11.712086513760243
Pb 8.436902681870976 7.277010958871444 10.994745157598075
Pb 6.182499896143083 8.898480857134452 8.768391901534963
Pb 3.747629122896432 10.355050754863166 7.039307294089111
Pb 11.104412608893037 8.539418056532035 13.824107759752547
Pb 5.490440259481266 5.868533271294584 10.018877624562046
Pb 6.350856279197159 12.159508810223269 8.405261558463865
Pb 9.834192933931607 11.475518111208173 12.918623150636362
Pb 2.981038922234749 8.122409381025484 9.490782507952572
Pb 9.138620371774092 13.400463635986979 10.055077389815073
Pb 7.877208640292458 8.363639473584401 14.057571926854509
Pb 6.864560993767507 11.018074056497163 11.478939960623434
Pb 3.8067603867514928 11.128688381869532 10.272610336365588
Pb 5.010859240453161 8.45227730020212 12.101351162371596
