40
Energy = -131.91268988 eV
Pb 5.581790385866725 5.975953759998579 12.048752771087974
Pb 9.421360602444292 3.917662273491197 7.422240296430457
Pb 8.891943348462966 5.954530923468862 4.254821143560827
Pb 10.80610067978973 9.359083320327281 8.87073452525302
Pb 7.002343783169798 5.6962254282987494 1.6037984937148637
Pb 4.982871768302076 7.626328194850206 7.230153663712989
Pb 12.016520699924094 6.809652764332951 3.065860701153701
Pb 10.49192898878646 5.928423217721646 10.018882462351348
Pb 6.8193648952110495 1.9732021606745798 8.566389053164963
Pb 3.0383988661174666 5.703330027122397 9.642197777295626
Pb 8.263043155658346 2.9943458134464858 3.0318219654278002
Pb 3.1838015110984563 9.120625180665701 4.901011427403429
Pb 4.282499427299662 8.848309580048527 10.137678298815889
Pb 2.496382645526713 5.688927552843402 6.273530730135824
Pb 4.79047362209737 2.9472567290337084 10.986117142169949
Pb 10.165902792486714 4.916263310375406 1.1901303495823559
Pb 3.8023374174650377 11.12463910652809 7.564733326200686
Pb 3.903236239224194 3.09288477811326 7.79923593992622
Pb 11.6910954832233 6.200641581678234 6.2727143190500785
Pb 9.344361854530213 11.263399190907428 11.246030616564244
Pb 6.3469528561430835 13.466984582158599 7.186753899958864
Pb 5.217913864851235 11.740095269733866 4.618294978741578
Pb 4.886255836024338 6.385059724028155 4.197511380091751
Pb 8.817712309104973 6.170827642297657 12.931177570202555
Pb 8.150188036428842 9.288874504416949 13.518340388614508
Pb 7.730178307383169 8.364861829835625 10.474479138405933
Pb 9.313801904783226 8.077845710011012 1.701282798510337
Pb 8.39390589780852 12.070417055488818 4.951295468134689
Pb 11.289185884463521 3.7183021718953646 4.058432230568123
Pb 7.14089384282213 10.122455523896578 7.171190023002913
Pb 10.189146162684393 9.00088823555448 4.9920006046750895
Pb 10.850594513373323 8.510049265813668 11.986982137234222
Pb 6.387164616752634 5.195009139020428 8.971386603686062
Pb 9.217377429111881 12.408962766966225 8.13128682681124
Pb 6.931050535405412 8.926333931659354 3.9374738113676364
Pb 1.850913698149302 8.429426555237733 7.932637711116366
Pb 6.4850709199942695 3.9826315273307955 5.796145858186083
Pb 8.657165144331167 7.127309872072268 7.397421973216183
Pb 6.285803502850175 11.71475311031216 9.950845660818434
Pb 7.991179695869714 3.5037652131073633 11.234155319503948
