47
Energy = -155.67663583 eV
Pb 11.403941082101484 12.817879656531593 10.665826931870585
Pb 10.53507388741211 10.428014816870116 12.912620439292066
Pb 8.232023199807205 12.165006358525106 10.806484355635668
Pb 12.918037178494775 9.791554020081863 10.729321413640912
Pb 9.490828689394926 7.465104183121856 14.2983895272158
Pb 12.469668647092892 7.668251059083041 13.216213726851633
Pb 7.30964715114598 9.505365823950845 12.955246475411531
Pb 12.778392463835493 11.838785338456958 7.942071395850705
Pb 9.667109791315653 13.728473625649452 8.036750059127558
Pb 5.227939551660552 10.639181595973609 10.6574288584339
Pb 9.866874002577346 10.459564667164829 8.48371416598602
Pb 9.846944547377698 7.855681331024581 10.901616070200246
Pb 6.197944845326698 12.81945682545215 8.345212202276082
Pb 6.674215918233246 9.538220640828769 7.743175312222781
Pb 10.665679908812828 5.0169417014486255 12.412427564421947
Pb 13.097884027860685 6.2758241587546 10.361585885465692
Pb 6.979058934527982 6.032737946818564 12.707677634803419
Pb 12.508731693011972 8.54209743862863 7.646245528809715
Pb 4.38099965525709 8.206569323996172 12.94470644967591
Pb 10.85547085009533 11.953828146165394 5.410387754094018
Pb 11.446138835654992 3.438511822785934 9.705736659657674
Pb 7.74003730002627 12.156167607839423 5.696540461554492
Pb 4.462997402531683 10.951844702531302 5.77269890328407
Pb 2.7279063025868906 8.351382656336844 10.051901657872456
Pb 9.345851331827193 7.167047005576173 7.2311579465225035
Pb 3.37147044736564 5.550456301041911 11.68315041798643
Pb 10.826227558319868 8.681236892847519 4.467379527464108
Pb 5.787446207643435 7.259549729654097 9.966498020084797
Pb 9.044333192201357 10.930762649765258 2.5623275864625428
Pb 12.26969462524111 5.408265636031873 7.365824310910665
Pb 5.820237960369173 11.579284604162828 2.895921557969995
Pb 8.465860599400415 4.8467836467609935 9.663536918854527
Pb 7.393954722384668 8.68703039078389 4.408820199218124
Pb 3.7221490957854444 8.035051729957289 6.643389437765247
Pb 5.225564237518181 3.542852061667331 9.895616921094154
Pb 6.265533779732296 5.525336507774366 7.071681079441784
Pb 2.8838459890222436 5.460796831610977 8.41342701907696
Pb 9.456336235873819 7.912413008715545 1.5596308953843083
Pb 6.609126154607327 9.197011358004891 0.9644195848107641
Pb 9.356290490826305 5.767726864989994 4.1214747706605355
Pb 9.621998603161765 3.756399457884374 6.668990033252994
Pb 4.272322499277405 8.583354235594562 3.231902899901696
Pb 7.1426462176493875 2.138016053614386 7.778281498196587
Pb 3.9325843097650246 5.392101781103179 4.646300425545282
Pb 4.160856553946175 2.8052270339470966 6.80566472667143
Pb 6.515830894621427 6.2056536842661645 2.406297449964212
Pb 6.544930312907413 3.439834971812097 4.662965224693915
