42
Energy = -138.3882618 eV
Pb 8.107631083262108 5.562872989881534 3.276340124124339
Pb 4.94900848716915 6.359200510459727 3.840484317859636
Pb 4.315375397784258 12.639804241696192 4.303651240103199
Pb 2.519475749816273 8.181522387793063 5.273692411582552
Pb 10.922889623704165 7.000206013912499 3.964572796333643
Pb 5.159455056050282 9.675350330395636 3.8376113827998317
Pb 8.18256026573942 8.793548762693623 3.102396135843905
Pb 9.938502631833911 9.928700627036196 5.5757561326013425
Pb 13.156813366840524 5.099376880083194 5.578392470457747
Pb 10.028781007292217 4.1419275523314605 5.563071143644587
Pb 6.462178662225146 4.504693483277698 6.001717621566082
Pb 5.542675764215631 13.251539853105129 7.202276733876132
Pb 3.402126687019549 5.437578297081946 6.6570023787205574
Pb 12.716426870650967 8.189361592647849 6.550372913272438
Pb 3.1352685033646632 10.906144835139605 6.682571900773008
Pb 7.466317407632894 11.974520894436765 4.734020466638592
Pb 3.0391918225904924 7.972913602127478 8.7981506162726
Pb 5.613521005110192 7.9688439845816585 6.76688042708468
Pb 8.940301530304462 7.043430889278089 6.694135040949783
Pb 8.856277625214394 13.325023960859864 7.432238429731091
Pb 14.806133310315476 6.303348701087374 8.169183316248445
Pb 4.553613447967954 11.033932933149476 9.599237913813399
Pb 11.599416842584992 5.3286037886132345 8.42641307877324
Pb 8.391463406218486 4.514366939186892 8.684915381924357
Pb 10.916229338903028 8.495402914605192 9.412455516801888
Pb 11.928562660111103 11.201969460337224 7.799619092702249
Pb 7.501290051776417 10.489527511531014 8.142740508122543
Pb 4.912320636721618 8.062648750590844 11.624892952508901
Pb 6.92022682067569 13.370768484611428 10.079347865548076
Pb 14.22176442384389 9.350772028448356 9.279866032865524
Pb 7.803586732534081 7.552905128221898 10.087503789758278
Pb 5.212752543701193 5.482849158767325 9.417268967517677
Pb 9.972473895511005 5.437915514705948 11.635497177477548
Pb 7.075526363667371 10.458594025340922 11.775601710693536
Pb 13.40310402057223 6.595178055325185 11.04085075974984
Pb 12.484558807026303 9.615199423576863 12.129267733270666
Pb 9.753570957834768 11.612176584794803 10.275259163370828
Pb 6.7374174962026485 5.452910735878004 12.535639403745261
Pb 6.75148173068767 8.185179899436731 14.458771979960497
Pb 12.0615176470959 6.923492278256771 13.90607251155346
Pb 9.518833447731787 8.594106422158905 12.854610937472959
Pb 8.96508432089745 5.9272970229582835 14.77535697228761
