41
Energy = -135.05774821 eV
Pb 13.271143901959118 7.051184024041499 12.38960906233459
Pb 12.920331166294336 9.731799691727767 10.364833442644747
Pb 12.403196343905314 5.402453505525514 6.188580666657842
Pb 12.382361556545298 6.5004267047440845 9.314024123165508
Pb 12.176238440885388 9.736860249640154 13.656684577502556
Pb 10.753548684847194 6.852024706085539 14.396250602967894
Pb 10.802194310758308 4.69267348260171 11.715425666453193
Pb 12.26418975176064 9.774322225964106 6.483693161944276
Pb 10.426917710651525 4.036217577089611 8.443713140036749
Pb 10.12887205697712 8.21804584753915 11.273466801017573
Pb 12.025263667708858 12.458600987152815 8.446159032894325
Pb 11.595136432449031 7.058677900949671 3.7148899585323547
Pb 10.601045458175848 11.7437204220287 11.655944281652065
Pb 9.617488933715666 10.351629677062798 8.65893923105854
Pb 9.41372917930637 4.862139185906947 4.958629261267282
Pb 7.40381615990596 3.6719858922817177 7.698530041957236
Pb 9.956396942445487 7.569749402050199 6.705968756371437
Pb 8.79680602804633 9.41989549887102 13.920126040527615
Pb 7.827015186017026 6.134702436691123 9.823263005188295
Pb 7.820939748547711 3.1453882505470316 11.020083606585894
Pb 7.87018204441142 5.597286917822648 13.251859315418969
Pb 8.96584262474656 13.567098412224539 8.78066543615495
Pb 6.260961112917849 9.026217298880841 8.835171513716011
Pb 4.568396569400859 4.909216451519768 8.487876031947666
Pb 10.549600410243512 10.078616987802826 3.71707965532857
Pb 7.4407230187943645 11.036327135128348 11.36426740666535
Pb 5.142139867904863 4.87930004401301 11.743718064036345
Pb 7.700833397710632 10.259850248305359 5.7038008506502225
Pb 3.5623710129990545 7.834759979271508 7.031837160201165
Pb 6.716576687757487 6.693228527368163 6.3424173612095744
Pb 10.291422022271222 13.008965453216975 5.849751446006268
Pb 8.341594053265693 7.697059773408617 3.3986926496003855
Pb 5.980650135526422 8.274019153398267 12.291564617883651
Pb 6.8956017962315945 13.686357138968274 6.019800605938769
Pb 3.3025036917492225 10.367433333662998 9.099339780939893
Pb 5.829590914966002 12.52984837767879 8.913817258086857
Pb 3.59679917719656 7.356160403371589 10.361082721129709
Pb 8.557936249981733 12.516445012596819 3.3285868168558483
Pb 4.303603282415606 11.288802380201968 6.279428380715913
Pb 5.248560449172223 8.547212223249808 4.10601044182148
Pb 5.524706118061766 11.670523378034405 3.5016443235599577
