45
Energy = -148.95998352 eV
Pb 12.284232320242907 6.176401586838778 10.66882270266894
Pb 9.511067468888317 4.536286433544127 11.078518457433994
Pb 10.831098013237064 7.391817877955289 13.426983841232271
Pb 8.878347210769142 3.3526419499148985 2.9261220838250654
Pb 9.843251812252033 2.2875837356815403 5.828617892453754
Pb 6.996146130011299 5.952451785658346 12.352581118069999
Pb 13.086533027514143 9.060648871955223 11.792786990552809
Pb 6.9355459899913985 1.352865179609994 4.590575397089588
Pb 10.747148221713877 5.232008381278686 4.691338360216
Pb 8.447967392636997 2.7316150704744273 8.686931864591013
Pb 12.865969806367897 8.801849813028676 8.542627417691136
Pb 9.311185097779251 8.055642585552183 10.625408312389723
Pb 10.50978721217817 10.715375669054039 12.910623237384767
Pb 5.671863454944687 4.028013337500323 2.9108762402233723
Pb 7.913523471102753 8.807237864488368 13.649436988703158
Pb 10.646945620369792 5.6663667974941445 7.9661100035048555
Pb 5.32315366480242 3.1201146822532495 8.8007262396362
Pb 7.171283062887358 5.901177566497755 9.013732321166794
Pb 8.133893471303182 6.580264351599052 3.1857645802879033
Pb 8.60218579588857 7.560922481488355 6.352880483156653
Pb 12.674198872735131 11.893805855785597 10.137348372107313
Pb 4.233240518791692 2.7191597415146864 5.717188610919281
Pb 11.629073560004034 8.426821496109715 5.612277373463146
Pb 5.398567185560228 8.736580686592436 11.576532335106787
Pb 12.197650601285623 11.529736074820235 6.546176045690526
Pb 9.786905103217231 10.875729198569175 8.767872024882386
Pb 7.247517350195727 4.396449688891108 5.872898288728071
Pb 3.016582227275471 5.169802666057775 7.556834463701824
Pb 9.317775500139454 10.177055132053669 4.302715407517103
Pb 7.383942049916031 11.47826579866495 11.711636260741665
Pb 5.169447411299014 11.09463340910863 9.312065977120625
Pb 4.210344055191679 5.677601405827019 10.63316052813644
Pb 2.8359573732238172 5.60492178508522 4.18173559288261
Pb 5.003077848740511 7.553494292200314 5.880349249019737
Pb 9.912291673183033 13.430995484544674 11.096833266000887
Pb 9.178874121660446 12.908736877417923 5.8672640920433565
Pb 11.00028647207068 14.04316361405329 8.186968869519758
Pb 5.057411672225112 7.319815533563405 2.444383597239766
Pb 7.060736482386078 10.3901383482572 6.8293429500905765
Pb 3.1326365163789034 8.475471379689504 9.156739036841975
Pb 1.5896235307465627 7.891016827065957 6.389574825511391
Pb 7.612878410895437 13.42457876095585 8.691733376702455
Pb 5.763845012528411 10.239293100317614 3.830733773838723
Pb 3.566918118073502 10.576687463924662 6.395765235857479
Pb 2.6940749368902015 9.039744206558685 3.685390763553822
