45
Energy = -148.56832589 eV
Pb 11.780517598815159 4.378329195403244 11.265973658537593
Pb 10.062362552551733 4.690923610817937 7.861709916807616
Pb 9.816355538757222 1.869644465058809 10.403585783484633
Pb 9.789032730520303 3.056031523521248 13.45218472972368
Pb 6.872224426730937 3.9698650823046173 5.432487863569752
Pb 11.414881207716274 7.186135930836172 9.733931183899337
Pb 6.986793083052362 2.031304519368383 12.031885830931229
Pb 9.992199472223124 6.343854478126195 13.251595708354637
Pb 9.952772457552781 5.479975065740166 4.651151603168469
Pb 9.531521505906259 7.977937903621822 7.091889626193325
Pb 6.983108607963901 2.6152155613224433 8.754602029013634
Pb 5.210315248723183 7.422494271336106 12.669300478666184
Pb 7.923198920125592 11.650224333948016 10.86530228566264
Pb 3.9733662866504225 7.438913563593164 9.499403977696712
Pb 4.023060999363142 4.609122436330434 6.9130357729081995
Pb 5.052279379749087 4.394011947436204 10.69516768182378
Pb 4.226502765417205 5.38072362717719 3.817824599477769
Pb 10.490408639105304 10.203563826983629 9.678476286546953
Pb 3.924087867964645 8.600424566742122 3.2438212403391335
Pb 6.938747911976877 4.8297865311276444 13.744210398112479
Pb 4.93994536744719 10.3936897935293 11.131816211122953
Pb 6.779945816882629 5.9651530769238805 8.044869636107174
Pb 6.210267409267378 9.30278051329696 7.99365484185192
Pb 7.002478022179553 4.901400799274112 2.3673325593818055
Pb 3.961750209069288 11.112205144896523 5.3014948410989335
Pb 3.348372161551658 7.8529708649102945 6.321130872620641
Pb 6.5510050901720644 8.290561161614608 1.4191699326554474
Pb 5.913700183029427 11.440639756566686 2.5981203371295436
Pb 3.1896378334787294 10.618442625747145 8.375361666444476
Pb 8.446758150367923 4.8860675324979725 10.804537416590678
Pb 7.883707007651064 8.253574101388368 10.78165542419849
Pb 9.436283865294794 7.105669648976022 1.9682527147956594
Pb 7.109038507028226 9.859461723155505 13.553999339805426
Pb 6.901129118408795 7.3923803263343855 4.570203175677277
Pb 7.680167763574743 10.761550263187004 5.308628365672887
Pb 5.88220907585018 13.699719189543169 5.093867963981617
Pb 12.516872352360783 6.638278721476123 6.527408894364348
Pb 5.859771010824095 12.516820624965655 8.268554688251283
Pb 9.184614035834946 10.418083282408018 2.185362648967376
Pb 8.557733865623582 13.410053258513395 3.3456355150976727
Pb 10.105333891911988 9.663043795641215 12.821997171712173
Pb 12.346709346098168 9.761429439649357 7.027304561541865
Pb 11.518593325650999 8.549162679214174 4.040300254482349
Pb 10.934606498578692 11.735457536766202 4.84657651288189
Pb 8.74470924421772 13.467067318900861 6.607989175990855
