41
Energy = -135.09045815 eV
Pb 9.881086725120788 5.234685930128476 11.773461428072606
Pb 12.09721268919759 10.23838787206849 7.57708321397553
Pb 3.7599098994786955 10.944520408437239 7.079895218315429
Pb 12.235460583916405 10.108024871908674 10.714768900302271
Pb 8.706684407127979 4.026566330047078 8.90883133563099
Pb 8.2598892944099 14.097032265319072 10.95299689321636
Pb 10.291422631432741 12.56716229004554 6.207913274604319
Pb 3.1898766071305205 7.694701695525188 7.766806735157675
Pb 6.237762908168862 6.094270528672707 8.17867059152958
Pb 9.765361687990321 11.510689438708813 12.351891042527832
Pb 9.272203527674623 7.4662695421027605 2.3760255511453456
Pb 4.200392541278342 5.3883166923315855 5.639528968415774
Pb 12.95380302007958 6.873254489776858 11.231900373221265
Pb 6.503411893631586 9.24256792458475 7.5254618507490365
Pb 6.942389049872741 12.29914642830271 6.091797382824912
Pb 13.5483620409857 5.081745662549688 6.19357092294609
Pb 6.26504617385344 11.631102794805848 12.001739644238572
Pb 3.914597693863675 6.574894004055624 10.631155429911363
Pb 4.383153469491862 8.636865719775546 4.8674155716415335
Pb 6.578934825233077 4.911261723451105 11.41515403849375
Pb 7.459443186098209 9.59283589852389 4.2226542286215984
Pb 8.952501937318962 6.841096139962098 5.868675021611643
Pb 13.589131394401472 7.463095591940759 8.229633163994398
Pb 7.105887342910498 3.917470306715444 5.801084263920337
Pb 8.405005717935042 14.619615217419891 7.836473768523182
Pb 7.869014096647745 6.539070793233396 13.952060918061138
Pb 11.700416781866561 6.346255799796509 4.053795193723453
Pb 5.733018810299734 12.978369578054515 8.98525159870005
Pb 8.730533653248369 11.239309688497363 8.909527485142485
Pb 11.04181071766208 13.334878942742314 9.37810525525933
Pb 10.719584700899688 9.466012368321978 4.736189695357446
Pb 6.415467702708391 6.3907599573807605 3.521191540626197
Pb 4.330567631222567 9.82725271626085 10.160474060095211
Pb 9.139175043690093 4.438937186853789 3.209610494423237
Pb 11.947444514781868 4.616320423634912 9.034374731886846
Pb 10.396553226045423 7.677293886780361 9.200890205967212
Pb 10.584444726600884 8.280811467512747 12.975865521088714
Pb 10.634526608837973 3.750730168982086 6.0858761088313615
Pb 5.097375354962596 8.06222434423927 13.216206514525542
Pb 7.5643109817120235 8.341952841375061 11.055795105401721
Pb 7.692411917117796 9.749827786080587 14.175784474223395
