45
Energy = -148.71770179 eV
Pb 12.473205007378187 5.385898899845785 6.880997699161772
Pb 11.834443697811594 8.557816158045807 8.808738388549024
Pb 11.908619412927848 11.280524781347154 10.604071098514444
Pb 11.487655613032203 2.4527719731913376 8.094099362352386
Pb 11.049024595573863 5.149792547681134 9.832093451508143
Pb 11.342011848548154 11.602317367148418 7.455547734230778
Pb 11.567739043177596 3.0879375009822074 4.88458771422186
Pb 10.820892190120304 6.520582393362277 4.149684405818931
Pb 9.556554267907682 8.691697765287687 6.451033041025254
Pb 10.461527185037777 8.510912209545413 11.826281657045765
Pb 8.470793260829259 7.130489977251522 9.171327226064367
Pb 8.898722959664406 9.707748872876872 3.176259712446445
Pb 9.053469278934227 1.5126344610186389 6.1763221893787525
Pb 9.157342476901546 11.528518000244679 12.334573389666826
Pb 9.610711830837364 13.337393158352937 9.62811946785965
Pb 9.0713741185314 7.069468275271059 1.2812953254410544
Pb 8.956042365128862 4.0602665391446395 2.964055027644656
Pb 9.224589762452357 4.697598373804904 6.5854614801453275
Pb 8.5827003193471 10.388980679037886 9.306455385565915
Pb 8.358128945706575 11.716289263058584 6.0027870756188815
Pb 8.480750595950576 2.9546133310341176 9.436062424039015
Pb 8.513067388308862 5.361573003692093 11.88345114357534
Pb 5.884900847452126 11.556409090588284 11.356628220558674
Pb 7.357744751479273 6.714275879802844 4.253229363657187
Pb 5.868779737223781 5.231325509285044 7.9641692375921
Pb 7.1930760315826445 8.523782112742868 12.14049474779348
Pb 5.619734389030485 12.150410300585026 8.08624283587335
Pb 6.039997227393518 3.703068241604454 4.584479856591789
Pb 5.28497082663854 5.755166845908677 11.327473783492026
Pb 5.952870225620277 1.8990223445469812 7.394800371088008
Pb 4.41086383668012 2.8650077736028416 9.9007147570698
Pb 6.101557510954026 11.336511168287672 3.443158235579902
Pb 6.442545372835196 5.316227929540274 1.256019638274469
Pb 6.073772136522192 9.323859218264078 6.018705858724602
Pb 6.063057448856928 8.60460312183805 1.580425169824631
Pb 5.195741177728101 8.910599877589487 9.141682994668635
Pb 2.9840327133031668 11.392116339727952 10.098673189267286
Pb 3.2652208037605583 3.583249065348381 6.818634227917541
Pb 3.8265583196761934 8.906378332048767 12.067214734075343
Pb 3.0254059389936896 10.622484790750752 6.8932588823303975
Pb 4.14324404844344 6.166848364413014 3.3193169575096153
Pb 3.58762440473981 9.402821952986987 3.810718627379183
Pb 2.6308455195008706 5.404351792399117 9.347707489374109
Pb 3.4086641570657314 7.126166174128242 6.481826949588425
Pb 1.8378069729706754 8.528186977635098 9.218078484868307
