47
Energy = -155.64144916 eV
Pb 12.66230101982864 8.161572149149658 7.658504464922753
Pb 10.639870850549364 10.859239000939267 6.744451733843428
Pb 14.118417968393684 5.279383028956346 6.761243741876921
Pb 12.203920134781857 6.846433774892156 4.708241121322024
Pb 8.658814030127832 8.861123024784662 2.3322398608128383
Pb 10.276157652846099 11.503156661888324 9.862213315180645
Pb 11.087290186915096 8.282049841208533 10.442741692774886
Pb 5.687318341357635 9.421965345683676 1.376889802467381
Pb 12.850940923501334 5.269427514887385 9.89073607637284
Pb 8.282322082615984 13.07020633883858 7.6373229145180765
Pb 6.812899940396725 6.313190460440182 1.2465943996398443
Pb 11.859073935077095 3.593460781253844 4.9594489187995245
Pb 8.255735586107772 10.994087946755153 4.661774324862528
Pb 9.168277567475947 7.9694801202580425 5.871981851522197
Pb 8.259103739567307 9.448451829290816 11.638039090254367
Pb 10.69251326563605 5.372835347707243 7.407932048776785
Pb 12.693941111202653 2.6344522989418686 7.936370727818217
Pb 10.421222004980544 5.631467980956463 12.211202662877088
Pb 7.5450984638709455 9.95537475587768 8.35336459046536
Pb 9.546240522874248 5.932639206438425 3.1550836653095917
Pb 7.3927961831093105 12.50772758035965 10.66255510674572
Pb 6.097203785254079 7.83773074424662 4.27625427406857
Pb 3.782700537833788 6.906752194723741 1.9475751289274394
Pb 8.179144394163721 3.1941309219190637 3.9225860717202896
Pb 7.214119303196166 5.148457097964288 6.481637263982692
Pb 5.00731163635447 10.165062966095155 10.91618196429724
Pb 9.351424299136951 2.276857893713208 6.897493068925483
Pb 5.308253089775702 12.019770980192911 5.247056741835735
Pb 10.282955297913464 3.018671388933383 10.182901504828259
Pb 8.423014498049714 6.3859442362756775 9.783634925274594
Pb 6.124144115481381 6.9805643711186525 12.173901937636163
Pb 4.247268318412962 9.295088357349998 6.890667366646648
Pb 5.3502120463339535 6.965481518675146 8.891656093526775
Pb 3.202411457979554 9.780226993759788 3.7363566230995384
Pb 5.140692324919105 4.559941374326495 3.852489175087332
Pb 4.820819002017887 12.362000450673909 8.474051980792629
Pb 5.995397836316389 2.0419736525448786 6.064727952571438
Pb 2.5979036765157666 6.535017362296392 5.002995686582784
Pb 7.594901457438053 3.9876698731609452 12.062568786891154
Pb 4.081948774036573 4.180789872013551 7.51947809306555
Pb 6.90561209415817 2.771692805227923 9.10805438540634
Pb 3.0566974419329647 7.474340836752803 11.222546883861737
Pb 2.220003914057092 11.919273059000323 6.366809065767707
Pb 4.521837824183773 4.386823968784217 10.818210956248025
Pb 0.917316405707972 9.046075023904 6.215731656574072
Pb 1.9713068833310656 6.777836882660963 8.334064924162647
Pb 1.9907646838836444 10.208417736008622 9.16830997248294
