49
Energy = -162.19652736 eV
Pb 10.12161743604819 4.794859043620656 1.7269140404380852
Pb 7.72977198062694 6.902751426025636 1.6710511171995994
Pb 5.2218773903008655 1.360679906859147 5.318304863840372
Pb 10.75972602925372 8.032475294379777 1.9093748221846905
Pb 7.358091882199362 4.2143864641565285 3.718627090838264
Pb 10.31661023943779 3.4845956762929187 4.757469735703765
Pb 4.175356869855737 4.258467480333995 4.3335002030202805
Pb 12.328786855733895 5.850586588206996 3.8231604253992364
Pb 8.171633647975876 1.6216023924558671 6.739779119979284
Pb 4.9204217947349 11.440679904661634 3.9296088973169185
Pb 9.223153768158152 6.755370849440826 4.664192372068588
Pb 8.413397082825922 9.924342016251003 3.465063708164325
Pb 3.113941883409296 3.1250106811032734 7.281804072311224
Pb 5.845103136574238 8.192350997051653 4.154955618075308
Pb 6.173685930405507 4.165122906609224 7.104871183853607
Pb 5.339743892277915 1.0539830760749231 8.515631778207531
Pb 2.707407264098637 9.139770300884681 4.570246265430879
Pb 9.392575429257457 4.852847719524065 7.634274625342606
Pb 11.925588288617364 8.82083656509617 5.13054477997169
Pb 12.406101518069086 6.371853234301653 7.485799704027091
Pb 10.757903340877412 11.852272360735421 4.470637233147458
Pb 3.9992968674567546 6.7383632058791285 6.458747952877011
Pb 7.758364598099008 12.827325394332508 5.4273682580959814
Pb 7.93978917027663 2.600804817431237 9.807371852191213
Pb 9.319895407055348 10.193179199897681 6.9729274560330134
Pb 1.645945661559923 9.112998669891391 7.754420394608056
Pb 11.215918052865064 4.695837698704218 10.336413447318359
Pb 2.7204774284906086 11.880448728796654 6.248467988228023
Pb 5.64884655712776 10.50260287933489 6.902975457967458
Pb 13.546536678203417 7.00624988914824 10.468951228377083
Pb 10.278975515433682 7.943650035293907 9.694582914871917
Pb 10.541208262090127 13.290464258569035 7.283504418796295
Pb 2.042307768192763 6.0972880526680875 9.362788318489311
Pb 12.76645031533007 9.655170189391738 8.474352151986341
Pb 7.164230029702786 7.524376865397276 7.39361569075022
Pb 7.752339440393236 5.820535164112228 10.43846783078027
Pb 7.609805941759824 12.771956084756427 8.574358063342594
Pb 4.526075467600152 8.056653839472267 9.453367638554097
Pb 4.746238892387511 3.9049648764373055 10.087274102330332
Pb 1.6727961921530055 9.042430133962926 11.072790700381727
Pb 3.5794794751420898 11.282115443343848 9.423064349058599
Pb 11.122380440939773 6.827639495802125 12.730497090658819
Pb 10.294417224329694 11.552883504778578 10.11263313236363
Pb 12.479946938604456 9.688699096036592 11.807378453959437
Pb 9.323385653815528 9.563831689052114 12.676912595912814
Pb 7.221650096266277 9.755475667430913 10.14684940541542
Pb 3.625191045002465 6.68682726809315 12.235514807036434
Pb 6.716430681949165 7.539774894096035 12.925955397775489
Pb 4.573905589183261 9.917935067757288 12.335582358752601
