40
Energy = -131.27696729 eV
Pb 7.1711915783231825 14.226778214072178 6.284431975895382
Pb 4.151002067355478 12.960282086488595 6.57757608338043
Pb 6.07920001898421 13.509584842890023 9.205562090964024
Pb 6.274351727508127 11.889231854998945 4.236232664850583
Pb 1.6717128360425098 10.839343834096287 7.166213658047526
Pb 4.292616132530088 9.6343825184841 5.9084671349962905
Pb 9.516206447805585 12.19048131020901 5.234620411049615
Pb 4.08692529992562 10.873428256140318 9.315183430426826
Pb 9.33385366917584 13.090326397649452 8.520230975687072
Pb 7.291348792180053 10.797416158909838 7.318831208514772
Pb 7.729106270872078 11.281031373045245 11.109497724581702
Pb 2.3273785565377967 8.138588406121409 8.51382246751548
Pb 8.265005459132736 9.244815873437675 4.019519588570981
Pb 5.7842768539305585 8.012440015632366 8.602524393302659
Pb 9.072224742546444 8.381968706589515 9.73255320576621
Pb 11.59624210245462 9.654565184994665 4.273591740561904
Pb 10.959221356846053 11.014230517366972 11.047382819777265
Pb 6.455646217893733 6.84036394441997 5.604181806112597
Pb 5.554950987465966 8.927781235831556 11.746967196499062
Pb 11.000348452217446 10.104633974503564 7.668779661880127
Pb 9.591091515284955 7.378447931304659 6.448062744554598
Pb 10.18900323609371 6.7072435049717045 3.171608071504202
Pb 12.78441640246459 8.374691291178296 10.046137954727625
Pb 9.021776827948967 8.948508393976601 13.111678923060897
Pb 4.456098706879965 5.072615281496895 7.703046380260269
Pb 13.25851120634906 7.008751783937345 3.534134355706973
Pb 13.040976298514169 7.60369622502174 6.623259685298658
Pb 12.197383465010084 8.970383046314906 13.125064074784877
Pb 7.860322033531985 5.213272449827091 8.339440347695888
Pb 3.8967407661746716 6.348356062592797 10.663822057251357
Pb 8.483865468494319 4.351643653227738 5.080299775299041
Pb 11.180170244336542 5.698574498971854 8.738218873226332
Pb 11.735530962511618 4.735881719005705 5.4270814367690114
Pb 10.734272240611105 6.271116767100353 12.12639417844154
Pb 7.47490487537408 6.174231569592119 11.628214849005436
Pb 6.402575377950682 2.4097582503167265 7.177462805061416
Pb 9.81931986886084 2.6208287028734008 7.561196867694088
Pb 9.472608255513215 3.4654189485449054 10.84533916182615
Pb 5.762596889049829 3.372896889916632 10.437898892988759
Pb 7.758714316875364 1.0694755540590462 9.65072496598252
