43
Energy = -142.39207613 eV
Pb 9.662731581290167 5.819266387263133 0.9592166646465048
Pb 8.749094633545816 2.6340596260948876 1.7470783833472225
Pb 6.876332688496004 4.470958312840553 13.218114450464663
Pb 10.71525711996145 4.319201955704454 3.797222791514534
Pb 10.738499663832188 7.629665278819884 3.782902973957214
Pb 6.866502126710861 7.6272628838895224 0.6962775670849772
Pb 10.907419366409139 10.874081809433088 4.702020500610429
Pb 11.975557535074332 8.502927866717771 6.700844684451441
Pb 7.371281786254605 5.580788222878783 3.361769312257294
Pb 10.618975932794717 5.016370253248398 9.18004956156926
Pb 5.627546624740834 2.8441617020847727 2.8746045916641547
Pb 8.424196008776402 2.310427556837878 4.961195387376176
Pb 8.182219198699205 9.497120929621408 3.1037902585506063
Pb 4.297458388853389 5.757439620727756 1.4683214360784438
Pb 10.468828746701547 11.184206449993114 7.850848472775681
Pb 8.71963281485457 8.663121540614869 6.152267434271789
Pb 8.831799591287968 5.257375364803554 6.483011213062452
Pb 11.20717901748767 8.35998857981515 9.867349852400006
Pb 5.065345707977707 8.176762001447239 3.6032335281692305
Pb 7.943165344300232 11.799323047218133 5.607025469069032
Pb 8.456189256379322 2.407670361517787 8.413202017961355
Pb 3.755152564216296 5.1543014331312795 4.560825058889857
Pb 7.036364566634504 5.406494123171623 9.70130582943399
Pb 7.968283108174361 8.671210638224386 9.503450967616338
Pb 5.8192410683191245 3.5179193585620308 6.508585790874633
Pb 9.14388478148525 3.247898854400859 11.48779609705018
Pb 9.39635608393613 6.503489792713383 11.97161574613937
Pb 7.413385247716167 12.20908719906465 8.837322641061292
Pb 2.3914654601570757 7.685550588034907 6.529642885204606
Pb 9.66737621645352 11.016802309718218 11.000918191937899
Pb 5.125753290947637 10.265713851668318 6.869688695147169
Pb 5.814606061670686 6.894494148500154 6.56784802860805
Pb 5.977679732928305 2.5656712321857276 10.729617654766868
Pb 3.49093973374996 5.210584485096167 8.29379001534291
Pb 4.545730034720531 8.368414198189958 9.54932808178985
Pb 6.7738002598789295 4.388370854674801 13.218114450464665
Pb 6.342437186962849 7.579272505136462 12.452188458944903
Pb 6.423191280650544 10.690486282392317 11.694608200799706
Pb 4.31687439873937 12.101573673843342 9.573787928898154
Pb 1.9643786548110593 10.491870365853122 8.049020826233221
Pb 1.3926935834445515 7.601922493579614 9.630021473355663
Pb 4.1451425719306725 5.38062597050948 11.454887329091088
Pb 2.4231766182257366 10.133312557239067 11.27529889368413
