50
Energy = -165.43698716 eV
Pb 13.089809625381879 9.150051633228733 9.089333609090684
Pb 11.89112576347582 7.218842299425963 11.485744583557436
Pb 10.743109538197734 11.674276519814764 8.420943102421292
Pb 11.50160985199207 10.598431442475386 11.483644890785841
Pb 13.401025480091056 11.03313839431333 6.588335439048307
Pb 12.939142581757721 4.371867853454131 9.706248534154422
Pb 13.42662784817311 6.565887983175844 7.142146058182251
Pb 5.820976293833149 9.056194798534875 12.930846364594705
Pb 8.815035307417727 6.557402502405195 12.681332870945493
Pb 10.852388338143987 3.965882457743394 12.21035925595101
Pb 10.91916822949794 8.535299603214117 6.5896249015781505
Pb 5.4669962889391845 12.39650178955 12.175243693557576
Pb 9.300576892329747 8.865934934469042 9.887444432985696
Pb 10.785005696989899 11.256287127314504 4.750707642233806
Pb 9.896668077096525 5.573881441132648 9.3692085298131
Pb 5.768631077026563 5.642312079350551 13.189833558401117
Pb 7.2395910109712585 12.970255112443096 9.351383572875347
Pb 8.364970784875476 10.976255665690658 12.124577972252288
Pb 3.468693699626522 7.204171698827527 11.546003015961654
Pb 2.952325603743075 10.512833435328965 11.416090846986057
Pb 13.21926470964767 8.929334186587392 4.173966096023232
Pb 11.589077335530584 3.832389230979878 6.831338283067571
Pb 10.33775941430735 2.276631059111713 9.517938520682717
Pb 3.9123147555269595 13.16928166782231 9.528380240671419
Pb 7.66671576805437 3.7157111653150583 11.199419341486605
Pb 5.682092428275526 10.12289970348672 9.597482955911666
Pb 7.8732797559151715 7.094494237923757 7.293704453540334
Pb 8.129582166157414 10.554652538064307 6.828429157175083
Pb 6.435280642805623 6.831980623126625 10.235151085756344
Pb 5.195231438392397 12.132984080910658 6.764285187097538
Pb 11.941074941041789 6.002707401554265 4.175386938000529
Pb 8.880231205416077 4.565920579618879 5.033954018564831
Pb 4.485635759683385 4.171205660259022 9.375907152536126
Pb 7.490032454121238 3.385450649675387 7.772053521371976
Pb 7.988945168084265 7.68949216026444 4.173193424773855
Pb 2.9743266786749074 7.123108554186143 8.236434550546685
Pb 7.942004743066579 10.618132999638329 3.0528104092184285
Pb 5.103041970726603 8.779249762863929 6.373094239508224
Pb 10.534328354763069 8.691158099712691 2.269316522840594
Pb 5.262219415261566 5.298843827567512 6.1072398653903655
Pb 2.6693286138860355 10.5220179484558 8.10562753656188
Pb 5.0764606390047105 8.679314692680636 2.9932608541252694
Pb 9.35096035964902 5.628745213014098 1.8992744037388722
Pb 4.5339559055893615 2.116565077338492 6.743720713594697
Pb 6.301668243383159 2.7830435184488636 4.118780603980749
Pb 2.0559610658483614 4.226996251292209 7.051670018545765
Pb 7.539699410941055 8.157757232718046 0.8374416259555578
Pb 6.029107111043963 5.649037806053432 2.4304174976390533
Pb 2.629969332736898 6.790519678774729 4.94980115338796
Pb 3.1404699615509832 3.6287256850713425 4.098135892818009
