51
Energy = -169.20343134 eV
Pb 3.8187357643253796 11.513330352840478 3.8917739538890035
Pb 4.7293127290369315 9.421940297923106 1.6125330323768043
Pb 2.8570300166793476 8.389228626138529 4.065409086971745
Pb 1.3445804785570277 7.804298949271043 8.541347340295047
Pb 5.14597447881046 6.443348100768696 2.9407041031647605
Pb 7.711146563182895 8.267640946888472 1.962690466142418
Pb 3.4660681831163362 10.231815011535275 7.244081725813343
Pb 3.778081218158322 6.5803227546707665 6.735781283368708
Pb 7.084450364062529 11.415098028657988 2.8380519347383326
Pb 1.7414484080136314 10.476038566436848 10.257232260865392
Pb 6.1381375739079145 12.378157757845367 5.926620087983374
Pb 8.501684303606213 4.345949449180721 2.959680437844216
Pb 1.5164902717472195 7.638911049966723 11.873492691701191
Pb 2.7281122345936586 5.1805859888013925 10.03151346677945
Pb 4.635322078427453 11.735746802830944 9.98192988870183
Pb 4.5674152224083775 3.4625672002219714 7.99485506118138
Pb 8.655493451596078 6.981913054464855 4.921560951856343
Pb 4.359896561901086 8.145828086063919 9.889855514667047
Pb 5.969004233705593 9.052213751674962 4.939471050321269
Pb 8.366227880407662 1.5992642624937947 4.797832351283057
Pb 8.455826357330498 12.834066826660274 7.957068893502856
Pb 11.288927895227012 5.861770034311987 3.1231239864438236
Pb 6.247848839645696 4.117929007348241 5.286239841719957
Pb 10.423567985878739 9.729938345874585 3.234486512957463
Pb 3.966101860972693 9.840240006108033 12.785182987356443
Pb 9.67164831351644 10.101662074367535 6.405996490709899
Pb 11.380178116585299 2.6418980272581525 3.7653644557440815
Pb 4.369287393097061 6.431219112850647 12.854198894365222
Pb 7.854634451073504 2.53077991442678 8.000705290862758
Pb 10.01997273026103 4.2652853426629065 6.338111170918012
Pb 6.904067189503865 9.873635594124316 8.465567197708209
Pb 11.041985786963119 0.8944808951935833 6.477019758885253
Pb 9.836329047673445 12.763291036502688 4.656863876029149
Pb 5.976507242057958 4.503839090707103 10.707081873603274
Pb 6.849540626278404 6.0280585333876155 7.88318718251227
Pb 9.858951930460098 7.483415110222549 8.36374676932853
Pb 12.102508515136638 7.5427463672822155 5.738236571110983
Pb 7.621257447893434 7.7476227270720415 11.165761379667797
Pb 12.738604454141287 10.912893870765 5.125303725655822
Pb 11.589888182831992 12.674243924609364 7.497881386910683
Pb 11.224877997588829 2.5459326534895887 9.16544151590389
Pb 6.656888759130998 8.431176812792996 14.260473177080938
Pb 7.154791506179467 10.985477756100181 12.002920838966581
Pb 13.144748969158433 3.376101668799465 6.508396691595304
Pb 9.049890809952283 6.178760052581081 13.65304291749485
Pb 9.278565252158819 4.787324582326595 10.478150311825242
Pb 12.456493607273769 5.521645468263122 8.858695970151086
Pb 10.016362690675923 10.3322508229696 10.253819263874751
Pb 12.56960326944344 9.619339196244004 8.190787410863562
Pb 11.217283210861794 7.386859778846318 11.543102170770078
Pb 9.641337439342628 9.36399047515415 13.49598218556443
