53
Energy = -175.80540309 eV
Pb 12.787450411780886 10.203526582737455 3.150553127552547
Pb 13.01834898469928 6.810834106797556 2.9425653871970177
Pb 10.190834395345197 5.207836620075095 2.313817022171401
Pb 13.954632940932465 10.16708509933826 6.267212630805486
Pb 10.342784909219123 8.436334872936875 1.8777436617374645
Pb 11.557857772497536 4.964588800794958 5.288458504432714
Pb 11.14729215669831 11.76081487618109 5.536831173022135
Pb 8.336348692785736 10.548946404889136 3.866290899147779
Pb 14.079178410679239 6.912877808825167 6.034905657836444
Pb 6.733058538677667 5.433904994508785 1.9781079087691236
Pb 11.168352880704841 8.410368915151036 5.284308995637972
Pb 9.284863953047937 9.826235087511407 7.836296084597424
Pb 8.092538492933235 3.9304756629131234 5.063816232215887
Pb 12.032888866886951 11.425956190135004 8.602280085165328
Pb 5.701639596954388 8.676626695107599 2.339836458358427
Pb 9.165076798775841 6.526950858328999 7.258521247520084
Pb 6.891944316520057 12.077764755586513 6.506533283010588
Pb 12.316277231007545 8.165613469536279 8.548462975664188
Pb 5.143984067427765 11.626621101286883 3.825793678417712
Pb 5.421241993409865 2.8150199693128566 3.3698000301179225
Pb 5.917289345683564 8.951467324598239 5.808320710623601
Pb 11.760186199735157 4.969003012271397 8.857240528534694
Pb 8.382438965300585 12.012689260205295 10.181412087646178
Pb 3.4527081570119504 5.417934868545898 2.43595839124948
Pb 8.234114196960919 7.245537932748293 4.119108627318952
Pb 10.597779968819221 9.512513289203245 11.191344143127452
Pb 8.93530518668438 3.2573530299880846 8.375907436257146
Pb 5.890155865502134 9.63042745328004 9.004843649344656
Pb 8.73476825092448 6.0680901404023935 10.513636567769232
Pb 2.974051803303094 9.18139952452672 4.150983354347836
Pb 5.017906795107927 5.6893169245727115 5.241899161628792
Pb 5.23294637454177 12.8027208175632 9.399032758157702
Pb 3.617043217242186 11.380640376834581 6.759658685277038
Pb 10.430936431394795 3.1842488776462106 11.287170418742953
Pb 5.248991531729312 2.6501020859956714 6.694422122619962
Pb 11.443843715127846 6.224385567799638 12.105514614632021
Pb 9.138669847447595 11.559564661463435 13.339130036148676
Pb 2.6058570053352397 3.1230920458081393 4.823781520754024
Pb 6.085990715254094 5.363844808031322 8.590252503926699
Pb 2.728872284444336 8.266677165279779 7.390986542174013
Pb 1.629163777726942 6.200572778163546 5.0064620271147735
Pb 9.493508997743945 8.337858461484924 14.227396293598554
Pb 7.2115428067745 2.9394518355661887 11.062989268409789
Pb 5.855563864476789 11.959201138834347 12.49334146327482
Pb 7.333067028620104 8.957530620610084 11.925252743099383
Pb 8.649147867600139 4.765645203511064 13.524899332771547
Pb 3.1138920876331966 10.577582415438693 10.339451607985511
Pb 2.862749072008529 4.69803863984238 7.717371078194261
Pb 6.7724098442718 10.272186634580843 15.099482917060516
Pb 3.6529202665441125 7.378626088728757 10.371880094918353
Pb 5.56380525493999 5.469618831364095 12.085714689306071
Pb 6.50902184033967 7.088421228067013 14.739209997104156
Pb 4.275665146590083 9.132678263796471 13.234616129416626
