51
Energy = -169.44161536 eV
Pb 4.541639108949241 7.309756160495488 2.6960959572229197
Pb 7.004731935253258 8.802701940847525 1.0314127294793842
Pb 7.231340131646338 5.570295034860396 2.2175797163049125
Pb 4.857119962602323 10.554693221864316 2.901222557652846
Pb 4.85475500371857 8.441260215487773 5.71028978830829
Pb 5.658494174785986 4.981227665406139 4.994684754467631
Pb 7.699553478291713 11.825818892206144 1.8582680148803283
Pb 7.7811607700423275 9.567034670955328 4.328692198681251
Pb 1.6269586811447971 8.971169845712334 6.497755901631004
Pb 9.855435379050265 7.850754693330519 2.1562058913287223
Pb 3.5532362336832795 11.633710818746549 6.1092995039838645
Pb 8.315489424612535 3.0250021838596215 4.51501964241076
Pb 7.029664033811265 3.2455186438999517 7.6354577764489875
Pb 10.220207607707783 1.9757196983040144 7.374855983108367
Pb 6.5006426004693125 6.590087422494996 7.894380573703469
Pb 10.276641365775786 4.698598391442208 2.3054614967062528
Pb 1.318675924185683 11.462146862621175 8.632542474186181
Pb 3.0108559646078676 6.340394846130031 7.818440977339837
Pb 6.833016263913132 11.10424482177754 7.581444886421791
Pb 6.571744822103714 12.911673667980917 4.734926452054533
Pb 8.90514590155726 6.368723312998312 5.088351937824813
Pb 9.85444291631892 12.231752420514056 4.21859228457609
Pb 1.2542732158546899 8.415838282955708 9.787045180704666
Pb 11.160852833678728 9.176105142119988 4.857681387787257
Pb 4.20293992993614 9.58242287402353 8.893802042484776
Pb 11.378220202374058 4.114385806325753 5.130630881305078
Pb 4.235567022716659 13.059536070808871 8.976746380488626
Pb 9.526038965538888 8.667783424817847 7.7214075081076645
Pb 2.7567981412527565 11.171669475255015 11.424388713530256
Pb 8.832448157579968 13.589986794222664 7.04123826337178
Pb 11.301376342214672 11.484827185671586 7.062118155675417
Pb 4.15721868771391 6.674952915631395 10.75269879153033
Pb 9.767406207883386 5.042920096742174 8.26599332884042
Pb 6.833098694174453 4.802700906973731 10.937721734470966
Pb 7.26797539348724 8.530002052789502 10.424144340756511
Pb 12.474197244557462 7.186929561507406 7.269994597877252
Pb 8.53008622200029 2.200198145815345 10.322928298437589
Pb 6.228592593679229 11.672911754227087 11.112044143882002
Pb 12.948053003501812 3.929006053254222 7.8600650628654956
Pb 9.376184221244703 11.367819729128717 9.664275304078535
Pb 12.141275780653688 9.174999324761496 9.890034029508119
Pb 4.967098635408467 9.165000651283377 12.674725155926824
Pb 7.613940847930894 6.874091352548741 13.28500182874468
Pb 10.364962717264888 6.466243240273815 11.197087584449005
Pb 11.58388786455663 3.0430613092947714 10.686518281693873
Pb 9.943680998153255 9.413063764082226 12.603308931832746
Pb 9.332416187683194 3.946751430765057 13.194786096741764
Pb 13.654142992865848 6.075631079814373 10.286052334414695
Pb 12.958202604846587 8.025112758270573 12.902370607466107
Pb 10.534979892353356 6.887985541308254 14.65450934550373
Pb 12.60065286388447 4.821173639560762 13.222337437029895
