55
Energy = -182.50571929 eV
Pb 13.17992462251165 2.4078506610232164 6.996929215852414
Pb 8.460839825524486 6.299139094205703 3.160405308451762
Pb 5.085688035669388 1.0827839653676214 8.89079091197207
Pb 2.72459084589675 3.8248648720801786 1.9625920690899277
Pb 8.616787017453305 6.76194492761272 6.75761627642995
Pb 5.417866871602071 6.226985908286265 12.491053245745517
Pb 2.4308651820679197 3.4182320912336634 5.481283067707487
Pb 13.41555379078741 2.8165033229971113 3.531237206658899
Pb 5.283658388858129 6.832146971612524 2.053124107912603
Pb 5.302115740367398 3.87432023622218 10.827795892312485
Pb 2.517642807515653 3.1304680136613863 9.035722539583684
Pb 5.795431794923339 8.039999988837836 5.270914604854285
Pb 3.076908046525792 9.518345784450252 2.4678329794483247
Pb 13.126852684084826 8.162444350121527 4.287131458897747
Pb 5.663969651087123 7.230464372315349 8.608321537027535
Pb 2.1915512492680977 9.392892634672322 5.772755492887455
Pb 5.768027345712973 3.356981654048597 0.5061256232643382
Pb 11.251912626660372 4.577211259799714 2.240288678545579
Pb 8.620498971376836 2.5062115739171973 2.181693524736053
Pb 5.517670901643828 3.9355922437342192 3.844281501789293
Pb 12.201470748629246 5.163927103666151 5.493844530952369
Pb 8.593712579061961 3.640141360162689 5.44020789441567
Pb 5.517115943470749 3.9915980866628145 7.3051564045132995
Pb 13.300805829637662 5.708440063796012 2.3079712101501983
Pb 8.207530545440186 4.440734079271082 9.191455585379517
Pb 4.836332485475992 9.316658313278872 13.312908356219761
Pb 13.50777365152281 5.13713905452507 8.81591201769272
Pb 7.903912981446594 8.200959043085003 0.35805717787935915
Pb 6.289272346411794 10.003977925679713 2.599610080820979
Pb 2.9842245574089974 6.071367989496421 10.82731513726308
Pb 9.053134431766116 9.328219257417082 4.5818117422828895
Pb 4.868106275698512 10.401266616064694 7.4739321529722424
Pb 6.176625322506483 6.826859343022535 11.785745320878675
Pb 2.54451482452173 0.7107418795644391 3.5250340441877728
Pb 11.330100286194922 2.1043195686255056 4.429930675089106
Pb 11.235168224929229 5.912617803215028 8.698026495004346
Pb 2.31527721166783 0.36964764748277845 6.869807058439303
Pb 10.995384502468447 2.8569010560709462 7.58703721156716
Pb 8.759305090427889 7.880576053514954 10.068820687452472
Pb 2.3964109044270736 7.164020053040225 0.39054108531654924
Pb 11.436938757867818 7.575826664183416 3.2985405219987687
Pb 13.316469934460905 7.954574630134229 7.46123514212063
Pb 2.453381613277863 6.540799946492187 3.9422166436961796
Pb 13.31322008356746 0.01614427186855068 4.876429535676215
Pb 2.636810544874593 8.91066931645771 9.33828636941214
Pb 2.6670362267980745 6.228524883155779 7.427657921682775
Pb 12.201470748629246 5.319518928111616 5.614195502846005
Pb 5.940937517672601 9.844527092589377 10.472069273008595
Pb 8.561483148823818 0.29156963830078647 4.712720499354153
Pb 5.877505762331633 0.7543431569495093 2.5526421347429658
Pb 8.049842898449292 9.943619027955132 7.729416551839821
Pb 8.112705417582028 1.2493716640154773 7.7227079655727175
Pb 5.354024888175392 1.0596421240680178 5.643947003233521
Pb 11.476498484792648 8.265858172409011 6.537287964899026
Pb 8.519490681164505 5.067001295681709 0.07083009821187468
