50
Energy = -165.20376188 eV
Pb 9.002918524603286 10.780185083842914 5.403552154244379
Pb 10.499398584112207 8.036803556702209 3.130052046863307
Pb 11.446409954364803 13.02114118921868 5.503381462401649
Pb 12.210404180618978 9.84892629371991 5.143861526996101
Pb 13.893919252487615 9.71966477360364 7.8656530715186594
Pb 7.295733856317712 8.823574287159296 2.817195155703884
Pb 9.460083789240223 5.011593714088987 3.2436309455776713
Pb 8.413244994198816 7.059131732116172 5.4984817582619225
Pb 12.15266267025357 5.471978198369738 4.991060890992517
Pb 8.453048337563503 13.943913737564333 4.642062946737872
Pb 13.240325529103568 3.2134528649658005 7.236103396349809
Pb 11.541862688290518 11.86039778248022 8.558420504925344
Pb 13.813050788054063 6.428006542041515 7.544295816862566
Pb 13.038447486786671 7.975186909879254 10.391791843587992
Pb 5.248532289693842 6.578277180075403 4.042849898653547
Pb 4.015807069410169 9.45944457051262 3.080498238802052
Pb 6.118577326008683 11.863575278139129 3.6398982253908443
Pb 10.484763736257607 5.190504381824553 7.957596715819828
Pb 10.841455197978606 8.513140441511537 7.864917438058829
Pb 6.982413001710686 4.063440010677425 5.065652037898134
Pb 10.350113438053196 2.756318891755094 5.747022637894212
Pb 6.128776240009304 13.046123114005201 6.823768707373932
Pb 5.971224043070292 9.324565105073328 6.029248070813849
Pb 10.810417288569678 2.113906600299842 9.095689865522624
Pb 9.152924133424154 13.915712131550737 7.844726658782165
Pb 8.356056119547858 10.668336487824881 8.655785570810192
Pb 3.80719152034048 5.139525863150631 6.99007971341426
Pb 12.929110015880573 4.5817522776422575 10.279194707592021
Pb 3.3294802762381175 11.374979909625065 5.684980667862876
Pb 7.707184400001361 2.489888788376447 7.723431112657256
Pb 8.922333945005944 6.390579188796577 10.724977162217396
Pb 6.478064850726579 12.90456142839692 10.246323806893423
Pb 2.801507904534346 8.02909786412777 5.7321770688856475
Pb 9.58552747470257 12.759149904348392 11.033128023166224
Pb 6.850321838863883 5.688663400496829 8.118858762429289
Pb 3.5927075708979204 12.369340339196622 8.81796191185595
Pb 10.233542548738933 9.452616776791425 11.180103085848042
Pb 4.07464484048298 9.268932483091783 8.70746809979843
Pb 11.397544780387156 6.491900521016832 12.820259617292074
Pb 6.561091908932598 8.71664228479857 10.820300838687688
Pb 10.208039142523239 3.6539797402056773 12.002956753256239
Pb 1.9062960903409116 7.01387378045393 8.905753253504752
Pb 4.194299521388489 4.887873555533376 10.126202274127918
Pb 7.282984464413443 3.4685872861788543 10.684679826828988
Pb 7.39518259668094 11.03847847084672 13.011338524398774
Pb 4.254899210567488 10.986571061731313 11.875272011092221
Pb 8.485658357018272 7.938007402349126 13.763169924743847
Pb 3.48330215439298 7.727866310626021 11.756839468008177
Pb 6.0806448743819415 5.917282952890345 12.754410040276724
Pb 5.300556557980162 8.807234915476972 14.207623123468853
