55
Energy = -182.49391583 eV
Pb 5.7577161305052345 6.384992245738907 5.838068243491284
Pb 0.30171883613195577 0.9925836982745398 4.440359440356754
Pb 5.437420821599821 0.7454858786813519 8.817478391535197
Pb 15.08332136712967 6.307832152914554 7.199791556839738
Pb 6.032300270217504 4.599072879189522 2.8086158504547316
Pb 6.302640058083352 4.515114158743319 8.653251806309186
Pb 5.795625584181198 9.606086037639633 6.133700959061804
Pb 6.087870405857165 8.043453563571568 2.898708023590198
Pb 8.583666813435002 9.70693657907247 8.06111455223816
Pb 5.947430788901448 2.6796645881844894 5.93649091911805
Pb 6.053943629589196 1.1000863780107668 2.8700940071137895
Pb 3.6929508625691163 5.9591366355496875 10.244703167295233
Pb 0.04199448583113865 2.812724665554833 7.51737688356475
Pb 8.943450039017279 6.365040719875885 1.988339374433562
Pb 0.6353515863479602 4.995807409098926 9.907450325402095
Pb 5.991402012160726 14.559330185686667 5.828515483894701
Pb 8.929985919682887 3.091829324351247 2.025163636904495
Pb 9.354545395002823 3.0604506808377647 7.79767470760003
Pb 2.8532520928558256 4.653196990102127 7.038332755369114
Pb 0.3685626041993759 6.218554063258658 1.4927206306871101
Pb 8.422872543785973 15.182596451339698 7.862355807878316
Pb 2.860220363242123 8.015741084424048 6.887891451878979
Pb 0.4632474071463442 2.8120030145277823 1.506556227660392
Pb 6.025954441259113 8.069776408215718 9.118398500981009
Pb 2.8898974171672154 1.0314147056354541 6.63339007569939
Pb 3.362290827021709 4.507194442446273 0.6299678825996704
Pb 8.997700181167847 6.5064903173507425 8.26608535446956
Pb 8.646203675513112 4.774307971717439 5.040486194364477
Pb 8.95714239252767 4.596730940834013 14.316914317710227
Pb 0.7212314247372145 4.6052778868656725 13.606134635492257
Pb 8.60133742800365 8.0755990758824 5.222408189442508
Pb 3.4185813409423695 7.972256307504366 0.7858351126493494
Pb 0.8542160531817795 7.87358274426429 13.959250143028534
Pb 8.7920504161282 1.1948986360173213 4.958375089199735
Pb 0.6928193361007174 9.524694997325218 1.552576050881459
Pb 0.9694093218184681 1.3361347229789298 13.873063231787603
Pb 3.104167999219948 6.233130892735181 3.674670183337229
Pb 3.5174083736634674 0.9819843293242311 0.6122120710694647
Pb 3.5730533880700275 6.313349358437135 12.85017150747433
Pb 3.200562056445146 9.665483786791887 3.8260719448475577
Pb 0.6954132243841485 14.797998704280126 1.4422340123999788
Pb 3.652183624069749 2.8957835579524875 12.754130762369526
Pb 3.2111584622228806 2.7912255855781085 3.700421282623605
Pb 6.3068869578234 6.365590235084259 15.07529669404036
Pb 6.373589663399877 4.639570534136179 12.309674607083466
Pb 3.1355490603783513 14.595439732212219 3.624621215720672
Pb 6.300022132731975 2.815356674804441 15.03618620663649
Pb 8.578916427162913 5.1428496965012 11.272539398284463
Pb 0.36487831954423405 4.4448317534779545 4.544590092207601
Pb 2.7337991619007207 2.6656979046407363 9.675658323042237
Pb 8.712567714800219 8.429627988881673 11.012346644780834
Pb 0.37659978048982856 8.068261894248906 4.4550453460055195
Pb 6.152033562307862 7.0357043858255865 12.309674607083462
Pb 7.984962965467912 1.9173695561354558 10.50222594624383
Pb 5.557778387552212 3.793165789982259 11.784166689828732
