54
Energy = -179.14489352 eV
Pb 8.172053800347472 9.901023818725047 12.972518479730837
Pb 4.6819727653479495 6.118508861937254 13.13709684044921
Pb 8.410611527613899 6.677289298458465 12.503864108652516
Pb 11.085201771563087 8.838072692052256 11.72955046983299
Pb 7.018714004324359 3.715811215008469 13.101260662735562
Pb 9.92685587364722 12.053412249232933 11.302942109907361
Pb 12.65752656048856 10.924345757681703 9.744562905263818
Pb 3.1794808555878475 8.362793687513006 11.554013503752648
Pb 2.425661602023578 5.315562972736557 10.482437087475287
Pb 3.8335955142811358 3.013738903153832 12.597381283907364
Pb 11.101629295094423 5.599932636031475 11.043299064254715
Pb 6.4544662466054294 12.181218973532527 11.247578101724661
Pb 6.265339369792194 8.679203447869249 10.688937915970019
Pb 5.720219076228367 4.731894852469352 10.198351164384407
Pb 11.023888623343076 13.234303067943296 8.189618350559158
Pb 12.708291377043102 7.729846282155476 9.04543199774213
Pb 1.5649505619275832 8.45343468836416 8.779662417227504
Pb 8.700758837564525 3.4011273515433667 10.07089872781542
Pb 10.454021490846038 9.837134937350246 7.248585223119192
Pb 8.385907113130433 14.455015778341563 9.681765835544743
Pb 13.442242308342925 10.558551276800905 6.446745353451068
Pb 3.474870523041828 2.3591781366240423 9.397842756062158
Pb 6.132016284739622 1.35250096757361 11.076470856898839
Pb 4.555340573573372 7.187628012405449 8.188704393010548
Pb 1.8378161376768678 6.099339114324687 6.652991786002243
Pb 4.3114769650805895 10.844345568438474 8.81921891396283
Pb 8.988306392185267 7.3912969883401844 9.274943632583444
Pb 6.512070682149314 2.0651610320125946 7.896803255005693
Pb 7.72914491999212 11.271397887372546 8.417399085324584
Pb 5.521401399310496 13.855823255826841 8.379415912152634
Pb 11.0624340756382 5.149503303070851 7.692440552216972
Pb 11.118229151315951 12.533039806471873 5.011261721884812
Pb 7.72176002205658 5.100042682784007 7.195922632066993
Pb 9.401780402484768 7.316351063004716 5.128903400609043
Pb 12.642722716390324 7.346669946394369 5.808203914780466
Pb 9.60123141480077 3.2635716955242753 5.176588840366601
Pb 2.985018381088153 9.378851223451237 6.052467785274233
Pb 5.456764442406253 11.90162099718388 5.780129099981005
Pb 4.4454797036242715 4.176185863550197 6.554400251787415
Pb 8.245407160483742 13.816768907187472 6.370344659912857
Pb 6.575504323608201 8.735287686454264 6.326640116029546
Pb 6.768333264885033 1.7948073286876525 4.072073331253441
Pb 8.323484202919836 10.930024017437137 4.220882601171824
Pb 10.690539948470983 5.421720075674458 2.7294689465564472
Pb 11.485257311184956 9.616920528989906 3.8325616115845675
Pb 7.332333337969634 5.02367658119067 3.610395768086617
Pb 4.070572430752468 6.859841805418799 4.362598235972758
Pb 9.238685148597614 2.5084468717912984 2.032193472642592
Pb 5.727395642043021 9.224453831281357 3.187349397164258
Pb 4.09118295380541 3.786491005416876 3.31538421003218
Pb 8.630363983462457 7.9475469525666185 1.9336838886197523
Pb 6.196104311181521 2.922569703674242 1.0547754702564633
Pb 8.49472315172526 5.094844066446463 0.22539803960414145
Pb 5.594025534182314 6.37172690285333 1.245912297184591
