6
Energy = -16.77778517 eV
Pb 9.33516040676851 10.3149329627717 8.888584645518037
Pb 8.13136751394409 8.820199750101887 11.181472180621817
Pb 7.1507478584763 9.642412398084684 6.951487535852118
Pb 8.332546809965427 7.148304329200259 8.7825431909031
Pb 6.937862049678109 5.2276102207028385 7.055305662033168
Pb 8.349435467092242 7.332532459287898 5.464804225300704
