6
Energy = -18.33928973 eV
Pb 10.101252216628643 8.489048472783027 6.892492601609094
Pb 7.924391183488001 5.8118220000067335 7.512839628269472
Pb 8.967395209429084 7.731922375721301 9.644117768277564
Pb 7.04855128789093 8.652924849811749 6.744599175001813
Pb 5.905146837606603 7.906967541455721 9.478745058054953
Pb 8.107297308733411 10.569416611127002 8.896859882966043
