6
Energy = -16.10363322 eV
Pb 8.585623381081259 8.563171944437396 11.474974382163156
Pb 11.60051406817103 9.402856820209436 10.929457190408543
Pb 9.310493257684525 11.604055449903754 10.905503532196986
Pb 8.180847041326038 8.110272007108009 8.52793585953554
Pb 11.195897780465156 8.949006862861683 7.982846269703117
Pb 8.906135918739658 11.150148362947819 7.958794213460429
