7
Energy = -20.03978635 eV
Pb 11.208629905519006 10.714035019097242 8.130553827553493
Pb 12.323939476812956 9.769934139529262 10.865199253585986
Pb 10.928364684411312 7.583207825210039 9.040766511334287
Pb 9.786069683215864 11.75734214078759 10.804505157373205
Pb 9.550206964673333 8.719113742424778 11.778417684701623
Pb 8.475542018360512 9.368248787140312 8.886957136500993
Pb 5.8184813802622894 10.255296909002375 8.225356900080723
