8
Energy = -24.77892384 eV
Pb 11.413344043534265 7.907547305122171 7.5441545631268925
Pb 10.212725164664075 11.133182006975343 7.755764158146285
Pb 8.342083572458606 8.398838810810938 8.110893446938945
Pb 7.148727234267683 11.228598757096723 9.052085353898192
Pb 11.040911401893535 9.266868688799939 10.380276796580578
Pb 9.324404423511456 11.90859119706265 10.88656838256897
Pb 9.801678485842622 6.381079719076269 10.071106742996442
Pb 7.875910909483031 8.935078750711355 11.358935791399091
