9
Energy = -27.57572262 eV
Pb 6.226775868510439 6.049617608614336 6.753052476518766
Pb 6.082910082617865 8.764197261989333 5.49720134073038
Pb 8.51367113472464 5.582217772823487 9.096009439303913
Pb 10.437189966645947 7.87782923380076 9.291258262880483
Pb 6.4379446604331525 3.6243658780047143 8.370273963512826
Pb 9.073230638008862 8.408769266732818 6.489311373136154
Pb 6.861975444140195 8.504909358509561 9.007462020856156
Pb 9.367203160364284 10.750260796943046 8.966066785811684
Pb 7.1100172668403925 11.192106631496372 7.112211528682291
