11
Energy = -40.59388505 eV
Pd 8.806814177152482 7.251362862049933 6.195622754502118
Pd 8.233146439344681 5.103927631513956 7.710239050595454
Pd 8.03306325991988 4.88708756719581 5.039018380450434
Pd 6.663521832179995 8.952254860065258 6.206680929925928
Pd 6.095015830848638 3.784932961092375 6.533431618679261
Pd 6.369894116574276 6.365885880119523 6.403621720329217
Pd 7.375091931789942 7.6236832674631145 8.442188868249152
Pd 5.387378297748053 5.1387571513501475 4.323927056192717
Pd 4.542627600564315 7.642725315164778 5.045497299894218
Pd 4.7187006955792015 7.883028914404444 7.7227031490740385
Pd 3.920185386192742 5.499679629912098 6.555592052716468
