11
Energy = -40.53897526 eV
Pd 8.754059544518467 4.330175569500483 6.218358480556503
Pd 6.225118067016963 4.657913722045836 6.462791737272719
Pd 4.467861564016108 4.588531567922197 4.553177778563222
Pd 8.061614784868025 6.207413626111442 7.829776495851476
Pd 7.782151285472736 6.431748148566674 5.139900823644791
Pd 3.7052874418501744 5.363034552330725 6.889342803796678
Pd 5.482000099939172 6.793132061676086 8.095892961186985
Pd 7.2615211732587195 8.223940719941952 9.238671812683416
Pd 5.142247752612852 6.960899366341647 5.351895850584557
Pd 6.977282094923032 8.517159817979232 6.694665617242235
Pd 6.739023419956006 8.538068178878124 4.133531578276414
