19
Energy = -75.83068488 eV
Pd 5.096899485985197 7.543726427022558 3.4288339971198525
Pd 5.72288988626461 5.0386204313686624 3.1792704050074803
Pd 7.6893143813102 6.794627910575692 3.8003105334720795
Pd 3.658866324190093 5.705149477621435 5.014408992875697
Pd 3.9810389793713696 8.430499570095886 5.626496261592652
Pd 6.6307599555732635 8.762358593523434 5.1610744976787295
Pd 5.24059647338231 3.373676885370895 5.1127427218860575
Pd 7.77609248381748 4.330383082282427 4.799975851048896
Pd 5.967421291347595 6.150818054331134 5.917280489953521
Pd 8.4680301574138 6.4216021193885755 6.352172122489265
Pd 8.391961420973216 5.186927310024472 8.679575139233181
Pd 9.985605295395688 7.29032154008363 8.37712767563178
Pd 3.514696146727378 6.743939346038637 7.582073927547007
Pd 4.123221374599027 4.202227440689536 7.3349076910739
Pd 5.718727115047532 8.269595775828726 7.620765924153924
Pd 8.262097468969902 8.917064537144167 7.177421160925367
Pd 6.798423983930935 3.7971807175101757 7.169423340623462
Pd 7.553818591017901 7.620882000681482 9.420904739183399
Pd 5.799200121134762 5.800059716871022 8.624895464955744
