18
Energy = -70.10236871 eV
Pd 7.451294631345992 10.214920835759578 4.572107400224374
Pd 8.229496557555267 4.413231564325094 8.07317202376069
Pd 8.516900676140267 4.401412433354304 5.49216409512485
Pd 7.701750565451414 8.22499338166695 6.33758038668206
Pd 5.008789082801941 7.738047022120354 7.422754683727412
Pd 8.313337557421269 10.661845030568921 7.09833238067779
Pd 4.93268091631557 10.443968626336524 4.083819141670727
Pd 9.477212559005284 6.399231830943979 6.837474291562476
Pd 6.7244884895679915 9.307760543463221 8.891939470520123
Pd 7.158123169582105 6.731227326610332 8.574974360142232
Pd 9.689361849867863 6.186855746738204 12.01385737854973
Pd 5.729452850251842 10.204773023013086 6.56242485098785
Pd 9.385681338114187 8.653244444269085 8.416634314722854
Pd 5.540418367835876 8.022134304545196 4.832880331634514
Pd 6.507127452495689 5.8914235467944955 6.16666205195664
Pd 8.174726577935985 7.881430030196662 10.702742065439837
Pd 9.903009526451113 6.199705874091693 9.435492349544223
Pd 7.739539183243902 5.167198106215885 10.64621931929674
