13
Energy = -49.82240738 eV
Pd 5.995222371391163 8.520378822645926 4.368586810910758
Pd 5.9261495266770075 5.895836406716946 4.394584921797442
Pd 6.120864630449417 3.4048240665405523 5.145597440437245
Pd 8.271786796733126 7.1287008679200685 4.45413688273295
Pd 7.986667507290266 5.068867557891355 6.248007311072333
Pd 4.228990195787466 7.310840145133279 5.915299293418756
Pd 3.712817052009123 4.717550523335966 5.229251573804011
Pd 6.855220844565095 7.526251125695754 6.643218479553192
Pd 5.0440183616257555 7.219544123208668 8.535907896331763
Pd 2.979937665755891 5.7543602094136 7.613605147112817
Pd 7.383336302658407 5.938493819077045 8.667892768339756
Pd 5.459585603718538 5.001150277329236 7.145492477603997
Pd 8.07730128998657 4.55510020373943 3.6803171455330483
