15
Energy = -58.30845465 eV
Pd 7.095852010441853 5.372007619286891 9.129323557335551
Pd 4.691314073980007 4.269625409083255 8.995427897996835
Pd 6.272621943379391 4.2181853847825685 6.873833125061624
Pd 3.573183641510574 4.797003208756368 6.677855997592701
Pd 8.92844176642256 4.707503531682627 7.201748941064525
Pd 7.78586610827265 4.847198573918372 4.755046790958463
Pd 4.96680438607956 6.696941226954949 7.941987167479805
Pd 7.400742615181957 6.785197106409401 6.906904201653219
Pd 5.374196849775036 5.959760890073011 5.09514203105155
Pd 9.579862466645366 6.716504234033541 5.43864420591979
Pd 3.3282279404788797 7.371207683260155 5.864639795426459
Pd 7.323312486054573 7.460550485129176 4.151257866204179
Pd 5.654060283524793 8.644493461426805 6.185440182323433
Pd 8.274587393585165 9.072002529120383 6.012185651886065
Pd 4.774728514751021 8.149842204911378 3.7298014105332
