15
Energy = -58.05240163 eV
Pd 6.146342761597685 5.199058180496049 7.375957596130902
Pd 8.807190687405178 5.154629568872313 7.180957981227972
Pd 3.4862806110929645 5.154728439312351 7.1810164571580914
Pd 7.532852573962801 7.486019541255361 7.192202464661316
Pd 4.7604997678576755 7.485841668638155 7.1920906392034905
Pd 6.146838483630588 9.713758411174517 7.008324632458501
Pd 7.445146583081144 2.8639646175109115 7.198032284690963
Pd 4.848099975090975 2.863855411265894 7.198012430120061
Pd 6.1466345555918025 6.587626352898201 4.963265210480313
Pd 8.8156213356802 6.6320666184390795 4.948521842177785
Pd 3.4779740089878652 6.632002854156462 4.948594925579623
Pd 7.482974531642709 8.93045693932896 4.87564966257867
Pd 4.810579151097373 8.930355087397842 4.875534475001918
Pd 7.468430225487337 4.282948427111095 5.031068090502911
Pd 4.82488462723993 4.283038004067342 5.031121429952462
