16
Energy = -62.32040884 eV
Pd 6.998887017755803 4.507476423261423 4.218455693670758
Pd 4.6995916885017515 4.578430071387028 5.644258526207193
Pd 8.825053131709485 5.433214343743904 5.98307548801763
Pd 10.078965708075897 6.823551014446399 7.833392700269395
Pd 6.9756567385092785 3.5426290116231702 6.640501753712251
Pd 6.427680644550354 6.4767689520083636 5.8535266886533
Pd 8.378975864452107 4.841088935280804 8.54310770160129
Pd 8.524461284411935 8.105229781740901 6.077292800977996
Pd 5.783673758164853 5.312515776764521 8.202603365237998
Pd 3.978598949337152 7.215846128588188 5.3281608784249235
Pd 7.5723933036817295 7.352792214115726 8.359397013216922
Pd 5.990428390257048 9.095956909917872 5.582074102165228
Pd 8.041319037738763 10.646218792852043 5.91839554056336
Pd 3.322287302297139 5.868457959003299 7.505851528005335
Pd 4.980217415804802 7.8902568575093674 7.764589408139824
Pd 6.765229543277162 9.804545195394375 8.034172948349934
