11
Energy = -40.7181738 eV
Pd 6.870984056289891 8.914551545613643 6.178003207489941
Pd 4.552622714150894 7.457404461551019 6.425778729642356
Pd 8.831135797342629 7.071218595276999 5.38386191347576
Pd 5.8150054920255725 8.474058695575328 8.58669626523659
Pd 6.329715254237355 6.895839552227361 4.594822446636232
Pd 5.011299416522173 5.958734726214054 8.708696442372602
Pd 5.983930120696491 4.73568922889878 5.989042027027199
Pd 8.669334494051299 4.66610795671592 6.53051565928419
Pd 7.1748176140351205 6.572639387312211 7.408916175120918
Pd 7.899016265853752 4.867038422010738 4.067865142083702
Pd 3.5687804112403527 5.093012071467499 6.793928560840219
