23
Energy = -93.2065325 eV
Pd 5.317251365651257 5.950542136503564 9.6705734121841
Pd 7.142864038717325 4.5539452815557455 7.957738198144426
Pd 4.66596934816852 3.685415191894971 8.116788712113877
Pd 8.045245691982855 6.291027690916261 9.850784373802394
Pd 3.928827524733874 6.040819870691389 7.3403680645479925
Pd 4.309043747016442 8.37836666761794 8.485415639970773
Pd 6.599403448239823 8.579530167824544 9.84932237672679
Pd 6.5629878755057165 7.072780004045137 7.6695278082759994
Pd 6.338955271354703 2.835294569256947 6.135447482670688
Pd 4.016946085893583 4.167195039440105 5.480247728807262
Pd 9.450771946998456 5.7575435540928535 7.573088525075286
Pd 8.81646121436361 8.35584896358994 8.205532340881945
Pd 6.066053169658628 5.753984905830191 5.631847807410205
Pd 6.161198642814156 3.8892965569182407 3.737963679269325
Pd 4.424242141131806 8.047876501163774 5.800848433312379
Pd 8.382351560708823 4.529205901508017 5.383965905322765
Pd 6.524740266276005 9.529912326562346 7.049169847337234
Pd 8.356158959688264 7.27732056459727 5.743372168491041
Pd 4.429986606381439 6.325104203088097 3.7447003261949354
Pd 6.5366793239609695 8.650779258571637 4.5145524757897775
Pd 7.529585608604237 6.243549143971026 3.38064114225001
Pd 5.735571360868226 5.336585647123697 1.6171930864533075
Pd 5.7993860270847595 7.885853684215694 2.1555310976806377
