25
Energy = -101.91025849 eV
Pd 6.689519737447181 4.072607171763405 9.50094546888148
Pd 9.082020499035535 6.081803630531171 5.087670535846589
Pd 7.3931344705887145 6.652459883444366 9.330175434454604
Pd 9.075658795556073 8.68982275767255 4.836423257838208
Pd 6.645786083075051 8.328798772938947 3.775601817370101
Pd 5.8320575626225954 4.320244484066573 5.622793123638978
Pd 8.06286020948549 4.997618800442826 7.352256052005805
Pd 4.09371836799759 8.591869372392795 3.1539998795611592
Pd 7.069548592490148 9.554962466318607 6.3250247287246655
Pd 4.504948480497663 3.2255530614478207 7.728334372190499
Pd 8.278193674574577 3.555042387281184 5.08918846579784
Pd 7.806912988435028 9.334212158840334 8.934876128771041
Pd 3.3308462180431273 5.048662350524659 6.200277180665891
Pd 8.836478180598803 7.588564112075192 7.28359854191499
Pd 5.524459410996857 8.345998288424934 8.218648974039594
Pd 7.077102020346421 2.5275480909257606 7.239406508847661
Pd 4.617192437950797 8.799372853215232 5.71164099842398
Pd 3.2031334600056534 7.331777493107651 7.575833247774637
Pd 7.053618707680373 5.498857795791762 3.515250123645999
Pd 6.601239470875924 6.908720996617814 6.039867805405421
Pd 4.705893467338279 6.31427197547232 4.28201296621743
Pd 8.832915611501564 7.262265720268958 2.644236211907502
Pd 5.817982394030894 1.6233042954941377 9.304735555780935
Pd 2.4435290818144257 7.416737706674148 5.059600969481729
Pd 5.247858207870372 5.716051620814448 8.036155852361679
