29
Energy = -119.85353804 eV
Pd 9.105616007778588 5.210764935628486 4.478991457544507
Pd 9.280804861621395 3.7347596941704686 6.738710433876029
Pd 9.220448588073532 6.416787083915201 6.910371701648812
Pd 7.278600888224038 3.0820098900391666 5.211105228824657
Pd 8.527583547524959 8.922955529868949 7.340414947570987
Pd 8.455304841719085 7.870073318806517 4.886132702887521
Pd 7.431527936805313 4.000711773293774 2.710990063582317
Pd 7.829110546531314 6.71812089554119 2.550275807828028
Pd 6.4573410261019974 9.67374231150383 5.475632829720433
Pd 7.039508448041767 2.433941476320639 7.773936108930417
Pd 7.4081101012903385 5.00026221171949 8.13278029654892
Pd 7.221258645002737 11.128386758645787 7.470616837529287
Pd 6.625085119078514 7.189311562304228 6.766052233159565
Pd 7.501901213051408 9.362996332383865 3.005029884381015
Pd 5.635037478019601 9.219626696420454 8.176073232359371
Pd 5.414541047418981 6.527704087750105 8.949168315738431
Pd 6.573790330366889 5.603387077596193 4.781106466907214
Pd 5.000727004272067 3.500639003634418 3.888578688269918
Pd 5.356456894763702 3.8743612944769743 9.399904527425324
Pd 5.335740050056699 5.666881626806305 2.2681254068439687
Pd 5.553845666894476 7.8555458770663 3.7925397406408043
Pd 3.2984798738010603 8.01472981349299 8.649236223000859
Pd 4.247340308194641 8.111455314434867 6.145930004026426
Pd 5.289355282912095 4.216692651229127 6.708478008072328
Pd 3.2073077356642616 5.446547432613748 9.824273158266685
Pd 3.2291827207573727 5.82842190578436 7.177810709890614
Pd 3.970508736349027 5.955127245307083 4.609706949290906
Pd 3.134092707954615 3.3084750412281063 8.182710831787334
Pd 2.9455639794510042 3.69975274573942 5.569488791168998
