23
Energy = -93.16700618 eV
Pd 9.013213194168415 5.544480370817201 6.8606163558444
Pd 9.494730509772323 3.587900002362109 8.608850153166754
Pd 8.254604494618151 7.480144845388273 5.17188586567894
Pd 8.525675418588886 5.909042658055237 9.487064476518276
Pd 8.03423845114322 7.880340343208004 7.826856314742053
Pd 7.830036126282147 4.876571615202075 4.530394206131199
Pd 7.469472821371775 9.308973490076802 3.3712382259870135
Pd 7.423390596413251 9.832004549432277 6.176810643454833
Pd 8.279705891431988 2.9989823887004663 6.295233308470204
Pd 7.476627860619304 6.705592797895611 2.7280378688413855
Pd 6.893793213007544 4.189755904227938 8.274717507557558
Pd 5.978851505173333 6.57514320771434 9.237403933668034
Pd 5.246011410786746 8.006375827505696 2.4316816725704142
Pd 5.419514352216263 8.658110542151713 7.570782328495442
Pd 6.27500195114485 6.224246410884213 6.539463769483856
Pd 5.559304938373317 8.427164739158327 4.9584291506229965
Pd 3.4780299300843063 7.200918355406458 8.637836574142758
Pd 5.773285665664671 3.678542147354927 5.786712745089598
Pd 4.34780549613993 4.794382829141041 7.810423925650246
Pd 3.6791305399651697 7.048049397228223 5.9942742783303675
Pd 5.279697159049453 5.827232113593483 4.016355467138785
Pd 3.3509104219987114 4.4879155055149145 5.261594882422703
Pd 1.8812213458133853 5.559766600131746 7.23610539762758
