21
Energy = -84.00939375 eV
Pd 3.3266698922974745 4.983487618553409 6.101305576545041
Pd 3.368398569027388 7.241190304111984 7.434809588667491
Pd 3.70088250172565 4.856448377680181 8.729474995881116
Pd 5.137939563385042 9.043614991222109 8.534354618307702
Pd 5.463716455644129 6.456931528880027 5.551908142925071
Pd 4.8087965569887405 4.063079375327439 4.15889945635608
Pd 4.649957078665717 8.954634402720998 5.925112458520012
Pd 3.9034157596982397 7.193013844337001 10.068033291540717
Pd 6.095701567255086 6.126965705099176 3.0052352531662305
Pd 6.297072064858463 8.644373097962712 3.926352102945151
Pd 6.16513069126881 2.1042509184771756 5.38233922591332
Pd 5.669031463591105 4.101549015227112 7.003141502718853
Pd 5.767167186088749 6.4773000139248476 8.357854346856472
Pd 8.168816944293239 6.887562093207296 4.5220895637482466
Pd 8.589569599602825 9.501918333996006 4.988097280361715
Pd 7.0854158201120505 8.33559741818289 6.791568174052817
Pd 7.356515379748461 4.412503336491524 4.6583503192322135
Pd 7.854735841773193 5.744372056771568 7.119312416317781
Pd 8.215951379869919 3.131948445488138 6.7565156855674005
Pd 9.695703714911946 7.58191338947468 6.507956321378688
Pd 9.814512529511383 5.008501312784093 5.542293252632993
