26
Energy = -107.03501371 eV
Pd 3.0336432225134526 8.981066994904674 7.5879178708038175
Pd 4.424813972532155 6.873699211233797 8.22981916967163
Pd 2.7273053977042285 6.7660846524794955 6.100247443884418
Pd 5.777573453542556 4.713033928594482 8.917216598104279
Pd 7.9822785447022735 5.335238440437372 10.326498495672729
Pd 3.886117724972687 4.471507544673714 7.012082935556664
Pd 5.594928272397179 9.308660816610391 8.322833736769192
Pd 2.5517688242068726 4.568714667372072 4.669462098194424
Pd 8.221194177529442 9.291049927422417 9.058024814427252
Pd 4.902175946992471 8.341939170008365 5.813685103769432
Pd 9.61874823612442 6.706299698304924 8.78961826771195
Pd 7.069806181719985 7.045274629299783 8.510270944675396
Pd 4.456465796308748 6.372758747813358 4.096993684277504
Pd 4.071689982775189 4.379257732092647 2.3974638431766224
Pd 5.118831647091738 3.7337604348439 4.685758277337766
Pd 6.216047729344563 3.008236030618285 6.952223094495352
Pd 6.071143465829364 5.859443329769844 6.301845835182639
Pd 8.286259086006222 4.513132599602905 7.8082685015487465
Pd 6.871610939036937 7.472678674416973 4.2610548252416764
Pd 7.4119498154863654 8.88203974781678 6.48278903689409
Pd 10.022750387429285 8.723439196776237 7.149261691840174
Pd 6.554324534899778 5.165709405586858 2.892682747846722
Pd 8.873555972741357 6.504560045143253 6.191989396481038
Pd 7.78085348422368 4.2521645967557395 5.149482886385603
Pd 8.989322080280331 6.008847503039548 3.5641705108270147
Pd 9.279765844427077 8.557429547544318 4.567478813961881
