22
Energy = -87.76014158 eV
Pd 9.099170279338077 3.5771997635533888 8.042991978309507
Pd 7.977205865574482 4.355972135218109 3.463018845608503
Pd 6.698162916291061 3.1292973008246907 6.990750804012102
Pd 8.203437488368559 4.994251460079961 6.0014390885660225
Pd 6.053090580302248 6.112534487347051 2.687066254000806
Pd 4.172327745910352 3.6835457537212073 6.772316473231402
Pd 8.135106569914909 6.879086443973331 4.04050399711158
Pd 6.925247477243663 4.5311088086885105 9.206814325261268
Pd 5.689052911001868 4.550306352670038 4.749835532303563
Pd 8.891726059255658 6.223702098764244 8.258161349746006
Pd 10.01666195278432 6.812055315530285 5.881094450195865
Pd 7.5845747655358355 6.688824307654529 10.433950038767838
Pd 7.735757528487328 7.868541437916543 6.669738271066885
Pd 7.258238891791491 9.285004863138704 4.502478339682282
Pd 5.748076885089557 5.755927804467621 7.295263859592021
Pd 5.582979866534065 7.377278276006187 4.940832237861688
Pd 6.166527894448161 7.943783352909687 8.752238626241322
Pd 3.544281579080608 5.912380364737526 5.589505921196061
Pd 5.5843673657759085 9.47551477362715 6.622529388783224
Pd 3.822482955289271 7.536872316137795 7.670283336795641
Pd 3.232746239803067 8.549821310967493 5.286696982600511
Pd 3.1947712231707888 10.034921975390343 7.457139853119312
