22
Energy = -88.91383853 eV
Pd 6.994495414146183 9.350810018290609 9.150386328300042
Pd 8.917639324273969 7.931607765852145 5.608663511009186
Pd 7.675693083921886 3.9393690998637254 6.314366099710589
Pd 9.76307686920128 5.606434300906101 6.540882253278912
Pd 4.0348151704537765 6.011810666400125 6.226164846845152
Pd 5.844417577988342 4.795348335204786 4.4730183867431075
Pd 9.081149135155451 9.907821798575998 7.4833165661599015
Pd 6.622630360352575 7.6775169656673175 4.18244984675784
Pd 4.219572528961694 6.744336689669079 3.705992395133774
Pd 4.414805745929155 8.520109420185896 5.6499368680487665
Pd 4.722120977278872 10.026136466614968 7.7846560872720465
Pd 3.751194154602876 5.30181024001996 8.698392923956185
Pd 8.820495051856089 4.46939224482691 8.663444699042897
Pd 5.103042439061482 3.696893312361874 6.924169232457383
Pd 10.65742066245613 7.780459232956659 7.705949432351908
Pd 8.367714988836847 5.676206883255847 4.237502483383211
Pd 8.187487615348626 7.079393989784912 8.448534678853513
Pd 6.681119512878088 6.357781372733573 6.430763808763061
Pd 9.500315943444738 8.896685896564021 9.887869408391255
Pd 6.331762047201974 5.117525142588851 8.763076619651805
Pd 5.205154651286098 7.525352100436879 8.354833238383877
Pd 6.792439885005661 9.126351250897205 6.5178739683268825
