21
Energy = -84.09641433 eV
Pd 4.736181174665048 6.024628182745791 3.0711843950320827
Pd 7.096096474077304 5.420934717920303 4.0122826017480655
Pd 5.452037206080953 7.67566730361617 5.038668218054565
Pd 2.909082341650777 4.297264498933799 3.8856096019546777
Pd 5.031132763679871 4.8044518703587755 5.533410914998937
Pd 2.937522253491883 6.743025700906 4.942012458697653
Pd 8.097438432712961 7.749076841950147 4.2692798820250655
Pd 7.376966051970895 3.7315915149379513 5.948933830242844
Pd 9.292261298576278 5.6897382241622605 5.65394553207913
Pd 7.198778366359701 9.529009940061416 5.952411310010174
Pd 9.524014810112647 8.424827234482423 6.336432401922694
Pd 7.150369307568783 6.666853808385285 6.823205956630718
Pd 2.5946235059367395 4.613927827149941 6.477500225415196
Pd 5.213824000383424 8.93984900834237 7.464090478758678
Pd 8.740847421213873 4.345945681288535 7.996006938912563
Pd 4.126724759904696 6.577633768873886 7.308376092256295
Pd 9.888429158177429 6.703747703401893 8.185044361933363
Pd 6.011517159012471 4.701465396352138 8.118007548832132
Pd 7.786128115728838 8.603811367595938 8.496423844313693
Pd 5.542466004946471 7.174000564833435 9.36697596807354
Pd 7.844070060404841 6.13305951035729 9.670708104763824
