22
Energy = -88.25994106 eV
Pd 10.962316659362717 6.332083156320443 6.097476177217802
Pd 7.797674153288315 4.355753805762808 8.94945427925995
Pd 9.342272858418221 8.361950686609148 6.023856088451095
Pd 9.108267385236648 6.449450734416245 7.857364906071801
Pd 9.10518055928444 5.5982936257560345 4.503815578590266
Pd 7.2417188693473955 7.392046158932808 4.878453923488116
Pd 7.383181284067888 6.8636083264604375 9.81079565108532
Pd 6.029133123243441 9.181291603024164 9.570356898185791
Pd 8.345554771944645 9.010059497638316 8.398339836136408
Pd 7.052686998470606 9.793887979388119 6.230200074243072
Pd 5.271113112678756 7.154817168394642 3.120265471952274
Pd 5.89824521099224 4.818026391347996 10.681456279694949
Pd 6.660606082308445 4.9075393828851634 3.757770717468104
Pd 6.2559616843262775 7.536181294935202 7.460649604891411
Pd 4.883991198438372 5.871583211890479 5.463658450938808
Pd 7.49941156726355 5.129775778216047 6.429516349482515
Pd 6.365868951704701 9.576549997753375 3.6645920441980318
Pd 4.660353460104901 6.923876798425273 9.722232160928012
Pd 4.726088266270306 8.505461535868257 5.401196562414339
Pd 5.324928104292969 4.951047611073287 8.004748215043705
Pd 5.621838533033837 3.4228309241148063 5.8070676280698414
Pd 3.58938708372296 7.074588715440254 7.363355686180061
