23
Energy = -93.60830498 eV
Pd 5.781851396466092 7.798301963002767 6.51777542792883
Pd 9.2314524503379 6.51777542792883 4.210704105129547
Pd 7.82336529300438 4.244397768413856 5.035364500448142
Pd 7.82336529300438 4.244397768413856 8.000186355409515
Pd 9.2314524503379 6.51777542792883 8.82484675072811
Pd 10.071243220775463 8.047122542356826 6.51777542792883
Pd 10.071243220775463 4.988428313500834 6.51777542792883
Pd 3.4219182339915575 8.835141583846678 6.51777542792883
Pd 5.1628578925266275 8.87089882921503 4.211105319557271
Pd 3.9066709049307007 6.51777542792883 5.034101938820857
Pd 3.9066709049307007 6.51777542792883 8.001448917036798
Pd 5.1628578925266275 8.87089882921503 8.824445536300392
Pd 6.046860278944143 10.362326939999926 6.51777542792883
Pd 7.82336529300438 8.791153087443801 5.035364500448142
Pd 6.520998617783089 6.51777542792883 4.114185905410004
Pd 5.781851396466092 5.237248892854894 6.51777542792883
Pd 6.520998617783089 6.51777542792883 8.921364950447655
Pd 7.82336529300438 8.791153087443801 8.000186355409515
Pd 8.001951893780422 6.51777542792883 6.51777542792883
Pd 6.046860278944143 2.673223915857585 6.51777542792883
Pd 5.1628578925266275 4.164652026642628 4.211105319557271
Pd 5.1628578925266275 4.164652026642628 8.824445536300392
Pd 3.4219182339915575 4.200409272010977 6.51777542792883
