24
Energy = -97.26843616 eV
Pd 4.4264002355956205 8.279125435872594 6.412368385381205
Pd 6.776920329526339 9.751671991190914 9.81601515083792
Pd 6.47155947195644 6.545627386096139 9.9461155316567
Pd 7.249809216898282 4.996263381570189 7.839650315957177
Pd 6.959460308183418 7.9404358376496775 7.824289290079307
Pd 9.607133010863645 9.04878945950935 5.988348241774249
Pd 10.306048383028273 5.466012307611298 4.979209401937735
Pd 5.441350429023683 10.440170374221736 7.584223661324406
Pd 9.481534469768118 8.5782877481109 8.768018782569177
Pd 8.421248723954943 7.226998646790976 4.483860181358886
Pd 11.594088204749575 9.921399335223356 9.948152660387844
Pd 9.073382242767119 5.983784122915913 9.520874710730938
Pd 8.22783494504432 8.066599406963553 11.127756017107133
Pd 9.079361152826612 6.6417162023057115 6.9559533187949505
Pd 8.042522651953638 10.61810055656465 7.542802338465227
Pd 4.6051558398281225 8.409487616438836 9.17459924584146
Pd 10.644842201922016 10.81193347038185 7.6496641486737325
Pd 4.760333442660674 6.047753029510109 7.9104739606419505
Pd 7.883252809324465 4.574533562190028 5.277319248689747
Pd 6.196292791878917 6.491630181390931 5.716425334278874
Pd 9.112769852267666 10.950533955562202 9.97818702506602
Pd 10.012108454806638 9.703535604693561 12.072885827186791
Pd 10.827990166739687 7.502338979733625 10.814445130763259
Pd 6.882191927934975 9.199477816688788 5.562744599290904
