39
Energy = -167.35439199 eV
Pd 10.2076272281879 5.385563686903825 6.351950678329938
Pd 9.730136710106235 7.911533219610236 5.600539930095317
Pd 9.129420895223493 3.560587915326596 7.990959613288259
Pd 9.490148571225332 7.175282745976578 8.169922284223876
Pd 8.83151610649727 5.709897172134855 4.032982885059777
Pd 8.707046361863497 3.452744477157596 5.303238863881735
Pd 8.363598408812555 5.417473989210165 9.7572074674856
Pd 8.706151008793233 8.162065364803437 3.0444298603862814
Pd 7.911122132285221 9.112397731283458 7.30225802729141
Pd 8.183512886392686 10.060376913429856 4.85040701878511
Pd 7.197117869536091 7.42829533287023 5.2492982958957874
Pd 6.711269184773542 2.978008997134489 7.113820426401351
Pd 7.615961430783209 5.621478714938598 7.1489809438835135
Pd 6.973650636339709 3.1498862783925894 9.686499292122578
Pd 7.308250647767309 3.8407772055731253 2.7370463567570398
Pd 5.649437913137366 7.434721311907507 7.365708967730985
Pd 6.616152637433004 6.526811593302815 2.7107749004977357
Pd 6.156673103968441 9.163334889129878 3.356254103305436
Pd 6.722585384339837 1.8718069142674187 4.71506866874039
Pd 7.207068348146121 7.836510505828042 9.543327781296346
Pd 4.8142170338665 5.037728971205504 6.971402801580302
Pd 5.7070749013478554 9.760576336203036 5.890794580835667
Pd 6.198994182857847 4.639507076792596 4.86554307440063
Pd 4.212230119652297 7.791401340947222 2.214715741513156
Pd 4.419119969772876 5.190478568485524 2.5170727701313407
Pd 5.756090325029307 5.49580789591584 9.446132379975147
Pd 4.371277331654609 2.400073747663008 6.013647838984617
Pd 4.7021373495354135 6.9310520817426875 4.816310243297889
Pd 4.704824356556556 2.764679097673249 3.3495850536096947
Pd 4.449153157158714 3.089104218424217 8.695908943659072
Pd 5.670527680926489 9.916470898062377 8.567238603274392
Pd 4.35226149755108 7.816675332692222 9.597180516930955
Pd 3.474103435607963 8.88655491076995 7.168622643057539
Pd 3.2597818386111634 4.5022478073866115 4.77259317641532
Pd 3.5304887270410634 9.17293573417661 4.477395836555999
Pd 3.131810964903897 5.613920631352559 8.943806587908133
Pd 2.261916796700705 6.787608367362813 3.85510868593789
Pd 2.321183696745548 3.8136947600609696 7.1507828834557285
Pd 2.5747966886920097 6.520182151583816 6.506286187377096
