36
Energy = -152.58397604 eV
Pd 11.023443176135839 5.812102080164833 3.479649951862607
Pd 9.754286470675185 4.45513549327575 5.314023684636873
Pd 8.551997481298102 3.088203622206552 7.13163856216162
Pd 7.459571164493723 1.6344158705255587 9.000019509516854
Pd 8.422410883295832 5.341651034460946 3.059983403949613
Pd 7.1608203488995 3.7939507979551514 4.939960648821246
Pd 5.899686653853716 2.376229173953935 6.928793670270271
Pd 5.761192212248477 5.142406402133804 3.108135358437335
Pd 4.487082858729914 3.663413168493409 5.073061261041521
Pd 3.1014081505848665 4.952478778624172 3.1834756190444957
Pd 10.162910949419972 7.173424331150167 5.596420244350495
Pd 7.679268150187592 4.254041865062443 9.483754356701494
Pd 8.99254654759382 5.718713656789544 7.590785334075434
Pd 9.423279206212502 7.848732083866949 3.068035120774691
Pd 6.766384809587274 7.633743170155018 3.11635490436308
Pd 5.278351580147023 3.0089264140524934 9.480317612625493
Pd 7.638436406725062 6.472141617944173 5.313981882557181
Pd 6.350740409822995 4.9617299544873426 7.301624684810233
Pd 8.877011341321365 8.395713045606646 7.576329120194713
Pd 4.969920829294804 6.235051665217716 5.376835099208596
Pd 8.133972702634281 9.050860622385095 5.077058146451539
Pd 3.8394145434235214 4.234207497623986 7.615746778754402
Pd 7.599029781314347 6.90035655041762 9.564630316505959
Pd 4.119166839639359 7.456107304875246 3.198616406512187
Pd 6.36252776444128 7.653955399684601 7.363999597910972
Pd 5.229740985863731 5.660645689296304 9.58327341198295
Pd 2.4576817876868895 5.531151511038258 5.755692766647657
Pd 5.462303639242184 8.918660485794529 5.074081044771334
Pd 1.5325333151398688 6.989431929356479 3.71804579539707
Pd 3.740539980483718 6.912288621544605 7.7376092056653984
Pd 7.550611975996082 9.552823495563118 9.565348648288753
Pd 6.80915960968589 10.24672567388113 7.053989361572371
Pd 2.8823715671923877 8.258841883878222 5.541496395042208
Pd 5.139206407177552 8.31546699418993 9.61421010728431
Pd 4.156373373260085 9.554770517165117 7.3455554901156335
Pd 5.35047271125384 10.940064615281408 9.19734971955297
