38
Energy = -161.4888867 eV
Pd 4.68427296994988 4.413723197475531 10.757430605562474
Pd 6.229224797802498 6.497447794017746 9.961546243657228
Pd 6.971366537480191 3.9292010454031945 9.332299966318608
Pd 7.428402881505373 8.233839854683291 8.33466128798844
Pd 3.3258434572501185 6.533499471275416 9.777897586529997
Pd 4.707736171022973 2.471969663475362 8.893618948674487
Pd 2.5871145426622624 4.016480148200372 9.046124242449606
Pd 9.851922261121212 8.03862576282474 7.4452606147518585
Pd 8.619213081907532 5.910902522505072 8.740116369527923
Pd 4.980933879440445 5.184670148228021 8.079778835005131
Pd 4.80653473017213 8.06832097963055 8.274970494503622
Pd 8.244861716894333 9.882509284943836 6.050998691614869
Pd 8.776325570706756 3.4532622877641894 7.3924419302341144
Pd 10.03860177278934 5.599730000441075 6.454861141586851
Pd 2.2435354886804735 8.344543672665942 7.886884673358368
Pd 6.2836962353792645 8.142456174220701 6.00861802252324
Pd 6.043229337356067 10.38517338675045 7.605206328695086
Pd 2.3843647805382813 5.856975465705667 7.220596097132294
Pd 3.6628853913935178 3.6064737151393036 6.436563281047224
Pd 3.910174703359146 9.492144123320344 6.19758806365287
Pd 6.2225362626999 2.9137230732087827 6.887518437376448
Pd 8.878876839940377 7.4734709186843835 5.051653398882219
Pd 10.346837230826532 3.3509620051758016 5.193052982839885
Pd 7.200949466686935 5.547268248758244 6.557779007526178
Pd 2.368537051567171 7.605761957089768 5.166527177525128
Pd 4.466251115059732 6.169810818540916 5.683366397554062
Pd 10.670899648866932 5.880529140461297 3.872713869760739
Pd 5.8922164078739065 10.697683667978273 4.89733018824399
Pd 7.843598330548187 2.2782434718918023 5.032916673399703
Pd 6.5474940799659045 6.4665945328338115 4.094683530058038
Pd 4.643376978217658 8.444454299159911 3.8227943669275137
Pd 7.34147265496562 9.007198846895479 3.463960138224408
Pd 5.655720287723974 3.9503148714337217 4.5062056926723795
Pd 8.376540630068263 4.591171114233592 4.040116811628003
Pd 8.561718615275604 6.781805447642069 2.393484419396665
Pd 4.143985121388596 5.86512668968602 3.052700371917433
Pd 5.979084634995449 7.453459467684836 1.6575085073684854
Pd 6.5166772605487715 4.778557932180995 2.068880665990284
