33
Energy = -138.60289798 eV
Pd 8.39680554674163 4.516003660000597 2.4773416092563116
Pd 6.90568984488228 3.7502123648130516 4.570551096688545
Pd 5.846388767677239 5.327834791814972 2.5694887881823423
Pd 9.051732802340418 5.491800823870028 4.881436431675057
Pd 5.319869542587627 3.126129887390632 6.565793490309364
Pd 7.142163976681139 2.22346457421624 8.131270580065634
Pd 4.340513202289498 4.6567965896808365 4.658382666371584
Pd 7.403528106182053 6.10823268088076 0.5837177974567063
Pd 8.08911281496515 7.141799837008856 2.8984646267265233
Pd 7.680243239230082 4.612415047938984 7.055498558538115
Pd 6.087338077082609 4.282647365816494 9.271453763895094
Pd 6.49753934388193 6.366151939354591 5.010370440566656
Pd 4.151425922851039 2.5435385687931342 8.832772010182596
Pd 2.8747826425079372 4.039464453643081 6.968802794990524
Pd 5.763797384482786 7.866932011221542 1.7235093270211985
Pd 9.637272655636668 6.521361234847368 7.233135271882192
Pd 4.204721156589474 7.205086777593277 3.770642371363381
Pd 5.019788669138345 5.697705722700368 7.243251432995695
Pd 3.521069009984532 5.101752107141047 9.376999821497089
Pd 2.80408833644929 6.500309009364268 5.916024783998154
Pd 8.143498308668956 5.870367073784717 9.486897592224233
Pd 6.377895975136666 8.945347023456621 4.056559995951565
Pd 8.62408878414695 8.127860774712335 5.29172800444851
Pd 7.114908107414254 7.422836723302352 7.531118960230637
Pd 10.148619973158876 7.609585436355981 9.619136996077016
Pd 5.5740261688616775 6.835041379707015 9.822974699858102
Pd 4.792323474155597 8.309730747885997 6.164909578326704
Pd 3.4039607643348893 7.574959340561675 8.371979612476236
Pd 7.672935164226125 8.502989112232141 9.930749743798998
Pd 6.936171348395502 9.949495844814638 6.408190892532221
Pd 9.168268213151123 9.16346424120329 7.732059918011488
Pd 5.40653041551889 9.291920085334068 8.61115821024752
Pd 7.481611855768433 10.895435243532052 8.830596997383399
