37
Energy = -157.15617193 eV
Pd 2.296830600140241 8.047425144105247 8.704068698744708
Pd 1.5574360470341673 5.702110269187674 7.581329837814439
Pd 2.5106440247009156 7.714869570668041 6.000360107152274
Pd 4.475188918733965 9.089656659446087 7.540132826200142
Pd 4.287397061710925 9.340386007429476 4.929378639129637
Pd 2.869624812898758 5.686704286414611 9.882781801752673
Pd 2.9405744044918576 5.0052333136906935 5.523946813461268
Pd 4.667072345981421 7.7012199975597655 9.841377476063457
Pd 6.670182303129631 9.869730922328731 6.36166851120672
Pd 4.027257105543173 6.849449793356055 3.9578553549155187
Pd 4.296489023591203 6.465114675714418 7.478975666917338
Pd 6.197284547490599 10.895993133009268 3.9731358706602538
Pd 3.830366335036339 3.950053669243408 7.954286238248462
Pd 5.888330379783435 8.53329206887685 2.9133659561894873
Pd 4.286153789871549 4.245102226513588 3.442823715285142
Pd 6.920478688070339 8.534259553171601 8.612322775530362
Pd 6.097572489466694 7.359321443424337 5.490945257386929
Pd 5.375528384388464 5.017434785398538 9.907950728196763
Pd 6.817592975911077 5.9974417133794935 7.934813826504883
Pd 8.229458915474346 9.25556403160057 4.265080646366156
Pd 5.674358152046623 6.052722150307298 2.0478364344005673
Pd 5.513741295790797 4.456775012392889 5.839471282243583
Pd 6.52639649519418 3.3824097825659543 8.064532220615375
Pd 7.863847228259924 6.801390986838455 3.292359842735012
Pd 8.744330974453776 8.20679910644579 6.714945406043222
Pd 7.908210915745992 4.490623830400629 10.26064235544679
Pd 8.24083689405067 5.739495628341867 5.812585435839659
Pd 7.0192927895933375 6.960521093761902 10.77558464540512
Pd 6.932814132117103 4.317693599294554 3.6003665596897756
Pd 9.054096314153218 6.779237265601904 9.025127555092936
Pd 9.100629743775205 4.22865194089648 7.9821367063331286
Pd 7.90885909484769 3.1596095408822205 5.763165423964546
Pd 10.097894921526722 7.464692205406619 4.5215010270024
Pd 9.5118251652004 4.731590402513569 3.7823097276736912
Pd 10.61445309015339 6.227562260983617 6.949944844127559
Pd 10.573616289760887 3.5998110312730494 5.953974635630815
Pd 11.858661063676946 5.525378611369892 4.702242863824317
