31
Energy = -128.48675325 eV
Pd 8.977750364111799 10.045808612131276 3.6714237082465524
Pd 7.072597018989526 8.757476452234531 2.3387762869474322
Pd 6.3711943191631315 10.541252739465955 4.15463373704011
Pd 10.389770750799157 8.738023877225626 5.6031631761864364
Pd 8.562629872833503 7.46410062233173 4.105676503871417
Pd 7.933721994987129 9.503926913877756 6.075021199331236
Pd 6.002851339802889 8.035204630829766 4.930144596100013
Pd 6.27516986372422 6.3417502584520555 2.9350810585963836
Pd 5.197903401807606 9.941345023065523 6.467496937117282
Pd 9.274825702360813 8.105577000047411 7.951409582213033
Pd 9.665226114728494 6.251376104619064 6.217722598997748
Pd 7.352697452016491 5.366496310599107 5.14336011076536
Pd 6.59546332860549 8.350755099198558 7.974464694568681
Pd 3.8528169087151696 7.00557449204329 4.01505389813444
Pd 5.061302157242848 6.286147563606335 6.681192566171302
Pd 4.912357129115734 4.645975940710678 4.493421286947445
Pd 2.5514389653209104 6.7652809462170165 6.291524151534377
Pd 7.287826703483119 5.764403955754438 7.8597822656321785
Pd 3.899620096131418 8.279302156561556 8.0289312838615
Pd 2.293602056718944 4.899087916946596 4.468647631590022
Pd 3.0677792126055956 5.867137169038358 8.784337566947498
Pd 8.960073207825396 3.8196395054526153 6.616115873376349
Pd 7.944585574650907 7.402332568050311 10.081299239408855
Pd 3.4605491914191107 4.110044838940116 6.764499197648899
Pd 6.076161538461517 3.4322429244329986 6.514735033774091
Pd 5.378946323873118 6.748536001223736 9.730280772847738
Pd 9.580474990836993 5.457024215838536 8.866643871611142
Pd 5.151080869084747 4.230456276044489 8.882962217135852
Pd 7.61923979058598 3.1384687197598704 8.77841737622353
Pd 7.200648938032279 4.942439673504475 10.57166017257993
Pd 7.7831769754145395 1.5162936452443683 6.755603558041928
