36
Energy = -151.47015628 eV
Pd 5.446145113489509 4.920196859044581 3.2870022838478783
Pd 6.0508384084574205 3.854188539845295 9.3336661944001
Pd 10.985985122897576 8.524650155645439 5.282110303723375
Pd 9.529584665888905 9.146365544470946 10.274742829727181
Pd 3.1748724404266193 9.32813379935948 7.310961339861067
Pd 6.760518879620201 6.1793924229473784 5.26747895078105
Pd 6.137549021313066 10.333733954355386 6.501344091304698
Pd 3.8742171182870173 4.21424550648554 7.932483995212642
Pd 5.97953008668971 5.861928412185079 11.044470784339676
Pd 8.716604489927517 4.2241099672816755 5.7574757268806325
Pd 9.956814961624186 6.802287272777906 9.255953003456213
Pd 10.001277462045314 6.5058398526390695 6.630603183670915
Pd 4.203290395307431 3.0326278604784385 5.261236242932993
Pd 4.6346859577665285 7.422323486105983 3.5240810526186066
Pd 4.15252602900318 9.810791310020285 4.711099230943627
Pd 7.837604299820613 10.131123998591521 8.513365012045535
Pd 7.702081629070606 5.586660141119581 7.9267631292317295
Pd 5.067538104932702 7.837953098618446 6.346893312661418
Pd 6.808240875980042 2.975163271820383 4.340955922766204
Pd 4.092453346062948 5.5848798677819245 5.439695180977014
Pd 8.341169981536481 4.951370067524226 10.324098640658077
Pd 7.391644750912537 7.670659622016227 9.737519284929276
Pd 7.711993602167915 8.01457869909613 6.9566216052741
Pd 10.017321874882114 4.375901766198147 8.207168143559397
Pd 8.706706101557344 9.985235016446596 5.595485787340322
Pd 6.222267642271316 3.8743845375640213 6.686163823558324
Pd 6.646511241009074 8.869551664410805 4.273673844969448
Pd 2.4953308362974487 7.719116769541616 5.174634630563769
Pd 1.9141533111193827 4.489571630058481 6.246184373307993
Pd 10.536195722050733 5.537365155824546 4.288572393051696
Pd 5.252316549065763 6.425895869492121 8.572549757530584
Pd 2.7729642258634444 6.68136175695272 7.57901158800033
Pd 5.370523165085097 9.080240999341436 8.766679526302129
Pd 10.196701395025817 9.020367564472819 7.740632216070922
Pd 8.82251366967863 7.515034770441455 4.253653491464335
Pd 8.111824179144005 5.129529953737166 3.245408930802804
