39
Energy = -166.63231639 eV
Pd 6.36384510170343 2.61075090959765 8.786233919880596
Pd 5.446475690906531 2.451130750942435 6.086285462715157
Pd 8.08034493981147 2.1784397293493147 6.863088884341315
Pd 3.0437593052481273 3.8100605564096166 5.620163251053969
Pd 5.240881223707736 4.359712069357268 4.171691217177057
Pd 7.695370934714874 3.541306048762173 4.587450207428181
Pd 9.69566729392441 4.151973047603602 6.277796922921369
Pd 8.397383459760098 4.3654707321570205 8.602763552905282
Pd 3.174756905164496 6.023501138525674 4.046541032286622
Pd 8.301688914255953 6.397672190178784 5.565080428329285
Pd 4.134691859794986 3.7209636535415345 8.101617204596984
Pd 1.1742970366434462 5.86472290490895 5.690935249268362
Pd 3.90109601630698 6.048696933699226 6.767390243583778
Pd 7.3590325467462785 5.739504848690653 3.109415499074211
Pd 6.555287257886045 4.723487270711108 6.695466458000092
Pd 9.822204566175671 5.139314595409334 3.7690880835954403
Pd 1.6986959706743874 4.612878581512111 7.96085112189228
Pd 11.53626637649017 5.926792365835997 5.780740312200904
Pd 4.995539762882362 6.355172776319212 2.2123110784531477
Pd 1.6066519101996986 7.332667708726174 7.916658852442249
Pd 5.623708200963388 6.919391560514641 4.975845806674781
Pd 5.967741678694143 5.217063974655486 9.326814771197366
Pd 11.436329409975878 7.234231384265235 3.5053392001054218
Pd 3.4749189521215884 6.107102337022377 9.395179243001978
Pd 9.833011386187396 6.462800131414833 7.717372140417612
Pd 8.925729972532327 7.917428211928465 3.360746267360983
Pd 6.577964058367969 7.274425182810058 7.486862322886099
Pd 3.7331809868925974 8.50279661109417 3.2246203390954506
Pd 6.413827495561 8.542742572638492 3.099301995659906
Pd 2.589905591506335 8.175221337963194 5.59202790156132
Pd 5.479747160301544 7.767008794358162 9.895650776311175
Pd 10.276003404569366 8.315792706312227 5.701756630271736
Pd 4.981267587686493 9.404658730234699 5.450045396173347
Pd 4.023757077365818 8.501122867674882 7.816991976790633
Pd 8.092245452794877 6.863142501336318 9.629250115429858
Pd 7.634685522117568 9.065494348304494 5.441422413207686
Pd 6.287416546342509 9.881855580778906 7.725044476345731
Pd 8.80567819270131 8.904701370777989 7.831424468607565
Pd 7.485459088061782 9.432600185800215 10.06515175128879
