40
Energy = -171.46500349 eV
Pd 8.454292078042904 3.7191897861712877 5.613901673350326
Pd 6.798227313016498 8.097583251384478 4.068408994341278
Pd 2.3023326988575854 7.81241541272619 5.606735999596702
Pd 9.324890814261307 10.704490789360221 6.9762198961084545
Pd 8.814747408338054 6.103003299432421 9.674790919655015
Pd 4.062420831330707 4.313031648549268 5.631176647478441
Pd 2.01346141026785 5.435093308996315 7.060205183705665
Pd 5.068805717452217 11.277689580366555 7.005001987439463
Pd 6.15702038071065 3.3050141353210902 4.243354421836034
Pd 7.0990124014129705 10.32625651995071 5.551852402918626
Pd 4.711059857439362 9.05277014325565 8.42425225370967
Pd 8.394159619668894 3.8679485956117006 2.951448277639074
Pd 6.807066511884469 8.04030819968976 6.886431450212413
Pd 4.071293426991632 4.384288584425184 8.335779080344706
Pd 4.380342877113642 6.848579815930944 4.117046419220605
Pd 2.6780583997766754 10.017130031001141 7.032851049835879
Pd 6.814396788415889 7.996371458976794 9.710295376620884
Pd 10.742239736432749 4.282923122525865 7.025087911307275
Pd 9.113838267434385 8.534006859975094 5.421661880925778
Pd 11.060374183992236 6.546707502265539 8.358274598713622
Pd 6.498112337631401 5.681673744636766 8.251361269200055
Pd 4.369354067312546 6.749649884092743 6.9277456276981075
Pd 8.817209789417348 6.155155260567964 6.904188631270922
Pd 7.114104046247045 10.306564781717 8.369339050944312
Pd 6.164707470881053 3.2813515307940047 6.935551394337659
Pd 4.685867397746073 9.122188165324344 5.447201232081805
Pd 2.3254471873657883 7.693386310706445 8.403783983342267
Pd 9.107255730286258 8.468522783216962 8.39970363441801
Pd 6.4828330173334425 5.693268342712494 5.508263081049499
Pd 8.489874515920121 3.795054262613645 8.320018508624118
Pd 11.306808714191677 8.868576927748437 6.964694261582365
Pd 6.471975050544601 5.715760679149295 2.846359649167315
Pd 8.80219161711334 6.259262845445727 4.096371519272019
Pd 4.389788419541909 6.685183993527545 9.69960666796049
Pd 4.134663866049456 4.433363166892738 2.9700291627738014
Pd 2.0624147674369024 5.487061118466144 4.347174364733888
Pd 10.680213594123476 4.332711055234663 4.311492221955603
Pd 11.075533623700904 6.638099432055118 5.556100457700059
Pd 6.509777249874701 5.634731349257836 10.970303965208608
Pd 6.1820220948628295 3.352371493222485 9.625863702791856
