41
Energy = -175.53872493 eV
Pd 4.252634387206776 9.680010118839371 4.1831566518353975
Pd 3.1473139727992163 5.279788444013405 3.521926891647418
Pd 3.7351162263168214 2.908791126384682 2.6146002049204466
Pd 4.992258757063908 7.246492653285789 3.3404013735668254
Pd 2.489839881084353 7.671374945450138 4.430818130825634
Pd 5.701200936768398 4.752639992385271 2.560792124170309
Pd 7.581764535758212 6.619192150968693 2.8332847704889197
Pd 6.825047059993607 9.193070154064213 3.795600035562282
Pd 9.383051242420036 8.548989518795217 3.566220379837082
Pd 5.835969866282766 10.120551236884378 6.224209328037713
Pd 3.452099559920495 3.148325896537457 5.258282240340918
Pd 4.6644067829486335 7.724780818425698 6.02468370884764
Pd 2.832267888542322 5.607554506059353 6.18868286634331
Pd 2.2526711417778666 8.046407443395449 7.1384077532009265
Pd 7.725054842005533 4.31281560890544 4.358323259529617
Pd 5.312547631624338 5.069783199289309 5.204555543315068
Pd 5.808753687142266 2.491899290780646 4.169681347491059
Pd 9.561935634081905 6.167004545224233 4.7815568232454515
Pd 7.124837993365581 7.0637855976409165 5.37279923740637
Pd 8.41999327110455 9.358713374605212 5.989161899765933
Pd 10.832702182781132 8.233673549993377 5.7896624129190855
Pd 6.685779479737982 8.09133093664652 7.906248250015168
Pd 9.043078022587178 4.358286572609606 6.6218752321411545
Pd 7.563832268319245 10.64867959539292 8.17250919967602
Pd 9.930402913281712 9.288832058438148 8.237064110340588
Pd 9.068851133653121 6.943372109049132 7.417115078532819
Pd 4.307753975753759 9.19297719090755 8.361712104804093
Pd 6.716971256743189 2.939514135749857 6.58956648431797
Pd 6.662140366276136 5.461983329297027 7.483669533450036
Pd 5.822878109394603 10.204401474058898 10.176253629594177
Pd 4.180024382225897 6.495567896009327 8.352328306207406
Pd 11.733606227281136 7.283869062010295 8.067279633549623
Pd 10.273973443829291 5.068199981966624 8.848255972413185
Pd 8.025724306888867 8.816218325332299 10.127416250922083
Pd 4.304497999717505 3.918417073032718 7.619752357436797
Pd 10.224889368198 7.404374016767829 10.214102140265682
Pd 5.6441328783914875 7.469575466889151 10.341447338966727
Pd 8.063917420816319 3.5655922765548955 9.017534911340013
Pd 7.946787480339947 6.137420122889371 9.825240678267205
Pd 5.6390849533845335 4.793521783825063 9.879063907484461
Pd 5.805579891641389 2.2582132502841556 8.9713727741191
