41
Energy = -175.98524202 eV
Pd 9.930538434405337 8.162233498612196 8.66051304289411
Pd 8.40581653456726 8.966169340790323 6.575346445338961
Pd 2.59707195622305 7.4451105849617525 6.678994416284314
Pd 5.596206888565308 7.381897119976704 9.720054017307211
Pd 3.64555733288686 3.6460204578590196 6.189651924609484
Pd 9.081072346345877 4.700773456302633 6.033338248346692
Pd 10.216731727768552 7.069045665361158 6.207892423444968
Pd 5.4718156696876905 7.850526744761943 2.6991352071048045
Pd 7.588675915767802 9.27391664807028 2.267044558146979
Pd 6.27947440138367 10.4943098105478 7.0526500881791145
Pd 7.693031413641998 6.5762706072593495 7.628898434308047
Pd 3.642240999066629 9.856812673312401 7.066309232436279
Pd 3.3375149021568595 3.9276997308636936 3.5172749622236013
Pd 3.921656016351111 8.682092809768 4.678933799722302
Pd 7.276152688743466 6.581025326090193 4.973487517150284
Pd 5.017276986194551 9.940921949975824 9.380560944353114
Pd 1.4079657752180763 7.871795020998818 4.392643856256097
Pd 6.311938179403283 4.448425295019185 6.5864229900218385
Pd 9.994119602478285 5.53079133634138 8.412611000486812
Pd 5.675138262533803 3.067821696182096 4.395737048586836
Pd 3.1874806821342343 6.573898548162148 2.966328306677105
Pd 4.59088282732361 3.125920848863676 8.635993759718176
Pd 5.552654279614402 5.206882886729609 2.8263632958153173
Pd 3.151666867096667 8.018575564961198 9.11552595165863
Pd 9.700951810366 2.9388456612850624 7.8532908920666875
Pd 1.9775905327892866 5.408727004421656 5.241500901505551
Pd 7.909185157936611 2.3740070632840586 5.750907974811539
Pd 7.83141842564024 6.59725365903915 2.355733449147724
Pd 8.175672768382597 6.741181182548464 10.232932317053281
Pd 7.1823359447256045 2.6032525783879774 8.396897694521115
Pd 6.4866391219276105 9.143828450146827 4.759218380515074
Pd 8.677361716074211 4.045100937688401 10.136927932626511
Pd 4.636122155709608 6.057112627571574 5.180319289387792
Pd 4.234532837793763 5.743347105280336 7.929476107175056
Pd 5.4090761263959894 1.6539239448305905 6.606347968442481
Pd 9.128398689507701 8.348461491243112 4.136005634893754
Pd 7.505826593424491 9.10852654813719 9.04757019027402
Pd 5.514310281422511 7.961610880853547 7.071232857422793
Pd 6.363251141322823 4.9547847549950195 9.309591772948115
Pd 9.983428850715722 5.8677140193718476 3.81000797449271
Pd 7.90030237524986 4.242469688087883 3.7094124105886244
