49
Energy = -212.41585292 eV
Pd 5.672519390980013 4.609080335684466 10.480565869736527
Pd 2.9071398675883504 5.142276658250548 0.13404401913136027
Pd 3.7010007531335587 7.726835729759698 0.35938234878917374
Pd 7.40476003683809 5.8997219527435165 1.4038104533507894
Pd 6.204083028571467 8.340171862834511 1.3394156000949478
Pd 4.275365474196135 3.1831082193679263 1.489746720517907
Pd 2.204225925817444 6.594610144577879 2.3537898905034735
Pd 6.999962051107301 3.231627526081464 1.763066486642119
Pd 1.6027149036636932 3.876367633387117 2.1092560575224195
Pd 6.402745884945902 7.063899117493338 3.6545088814722324
Pd 4.044013133638229 8.517711494678712 2.959125471232919
Pd 4.76482081417114 5.904768642199808 1.890741410221982
Pd 8.813248599995022 7.779882060489986 3.935084833419913
Pd 8.53578924063455 5.07186886169335 3.6404221398606853
Pd 2.8023094188508626 1.3863755586678803 2.906507615451232
Pd 5.378753692279059 1.8076288974442103 3.5946280162811886
Pd 6.534181092285294 9.632538889419264 3.8223217767661612
Pd 3.374858092949811 3.75607484469298 3.960941872623429
Pd 7.966614549282227 2.3709434277982373 4.137680434937531
Pd 1.2760546627121256 5.342022933040705 4.52102768034293
Pd 2.0717773565129147 7.936946568088271 4.841115055740564
Pd 5.9483575013758 4.421453485454446 3.827880780863915
Pd 10.014853556263207 3.8347756099803636 5.51150876072271
Pd 1.0585920444407257 2.639744380807033 4.581823731379317
Pd 3.977070266784071 6.2095782231933825 4.507144703403844
Pd 1.157560609594348 6.433110410510861 6.956351298975619
Pd 4.779254662550629 3.9320366319454023 6.15800781929084
Pd 8.961600650426783 6.258356684061648 6.0948136205494
Pd 7.403266822801268 4.003764830023178 6.133028218188545
Pd 3.4496420025616206 1.592966502384588 5.631276404478779
Pd 2.8018889746884272 8.74408735300868 7.322859798754194
Pd 2.168622428378536 3.8643125037735704 6.726791204003722
Pd 6.118075542074564 1.567163537092592 6.180574631764013
Pd 7.469331839369363 8.538344568168569 6.260018165103053
Pd 4.77051126040527 8.622997450519964 5.547550803817049
Pd 8.759094813710476 1.8033704070741479 6.768345772186776
Pd 6.197807306263004 6.303668178700867 6.101282758111795
Pd 3.693107373738781 6.26989089656174 7.09876187899028
Pd 9.100147658894816 4.346176746624081 8.077858074876472
Pd 5.765739844515213 4.9786929052765405 8.36632351109311
Pd 3.176016223624172 7.22574028463448 9.522042140582808
Pd 4.222792661145068 2.3169996271083515 8.152168392573866
Pd 7.756052958698102 6.732700206061445 8.470801295958891
Pd 6.94163557943022 2.615070710923716 8.580645582295126
Pd 5.426964570738522 8.056051159780813 8.168373234809392
Pd 3.1709460048090228 4.593627124136537 9.106411678254956
Pd 7.667084845872464 4.696460621153053 10.303532030386677
Pd 5.5516658203713325 6.433067938443001 10.431216859073004
Pd 5.2252337799426885 3.4611852378227446 10.480565869736528
