4
Energy = -11.85706059 eV
Pd 6.037000376876261 7.443842990495714 6.876738987080487
Pd 6.6980202571709295 5.288368359058854 5.863165677168801
Pd 8.50921801069437 6.873119995403016 6.68707927579369
Pd 4.2251186661303 5.864025965914398 6.042373461443459
