45
Energy = -193.72306411 eV
Pd 2.5220130688933335 6.331338688262787 2.5626969656369445
Pd 2.798871365495195 5.592403215507268 5.054337139672051
Pd 4.526568451165 4.6712149259122 3.0842863777192027
Pd 3.8227790123898022 4.9140720442839125 7.439317571532922
Pd 2.6461631320201793 8.181103622536053 4.37677058312039
Pd 3.9522020040519745 3.2630132562739114 5.300008886055102
Pd 4.861906497896515 7.380838048526599 3.1205995039280907
Pd 3.167008725767174 7.427835223104044 6.928079524998038
Pd 4.168211089709987 6.68993069208326 9.315888667894024
Pd 6.460568204451965 3.3551327533062976 4.336590187459107
Pd 5.490305402345784 5.808501056202331 5.428827664713921
Pd 2.6294262084827253 9.899174601762901 6.275970042837885
Pd 6.5552503853670485 5.930811591188517 7.888356371602486
Pd 3.530944223875505 9.314069231452656 8.73788181126693
Pd 5.170142784601363 8.49084834955142 5.593472211716375
Pd 5.968792478120356 3.3817091318801804 6.971241310677504
Pd 7.01418882988867 5.794262525861129 3.227410135799952
Pd 4.923393021543988 8.734198880109831 10.902056888031508
Pd 6.542542897315008 6.662465792752196 10.48717969048087
Pd 6.048014459634787 8.504866522168971 8.264211227343797
Pd 8.186162378453226 2.2441253497082068 6.057352056605331
Pd 5.4214339219428975 4.22046641748513 9.503318587287335
Pd 7.850408873490346 2.960301323466967 8.699588772351461
Pd 10.605142288395074 2.4398060010592886 5.009597137332977
Pd 8.10455126346248 4.964672339641981 6.026724022699787
Pd 4.940300931712518 10.822784639604256 6.896339154378071
Pd 7.759814141467321 7.698711042855156 6.246751614110446
Pd 7.58282091224216 4.328210379210952 11.062233578344236
Pd 5.776402700703098 10.869969971864084 9.480576701570223
Pd 8.988646882513862 5.241885743506018 9.104285264837948
Pd 7.136587276229066 8.431341194583178 3.725323020890219
Pd 8.974692912823352 4.0514979526484405 3.7301557954119122
Pd 7.559521277095631 9.200630797135064 10.721693125337485
Pd 8.696674259614955 7.781815544283379 8.800296881288956
Pd 9.264336027897038 6.722953248981133 4.164083058397778
Pd 7.285425989466868 10.306327796749219 5.7375278368242695
Pd 10.109359543478064 3.710724158039861 7.275234353102211
Pd 8.139843858990464 10.251881034561592 8.278021358721235
Pd 10.178431903146222 6.442086632265507 7.1074128925643905
Pd 8.992867157926774 6.839668726933338 11.28668736423699
Pd 10.097579748135312 9.12095038544971 6.976083832363297
Pd 11.144209464633931 5.018309652452756 5.092665974830587
Pd 9.46267320603178 9.376598412483016 4.478251790866404
Pd 11.489355296444321 7.688450726938934 5.160877121989595
Pd 6.885733993689948 12.370308828368879 7.516004394172864
