49
Energy = -212.02352646 eV
Pd 5.538835047951334 4.582477598041417 0.8205872443035278
Pd 5.8187705382540225 7.165597539016721 1.5127156510892266
Pd 3.3621234284880597 3.142185339840817 1.2730292099415468
Pd 3.497304751523339 7.975088185832047 2.1826001622446682
Pd 8.056794461052803 5.783004898604923 0.919998728032346
Pd 2.483255183074368 5.684902442777105 0.9664167189848464
Pd 4.705112873607415 0.8466665409422303 1.7523574822682075
Pd 1.480075049992811 4.021799375060898 2.930054459612603
Pd 5.728091996215164 9.405882347585353 3.251722009134646
Pd 7.74668814199863 3.250556309736442 1.8360897579468867
Pd 6.695442155097573 5.234308826578597 3.2121716659390414
Pd 7.98795593820819 7.567094629711013 3.022424450373123
Pd 2.5053139865428005 1.4263552793518255 3.2092360404520646
Pd 3.955035948738311 5.3339166631792905 3.0610768569495552
Pd 9.298485241882299 5.0543422592299825 3.234189498402421
Pd 3.0799468697990218 3.305905638788053 5.002896925417604
Pd 1.48869367110143 6.664260771205114 3.370481747244298
Pd 3.046450901395304 8.61410500863815 4.675244823024581
Pd 4.756606398448388 0.7063474284586242 4.477000094688691
Pd 5.36855741816473 7.202132831757415 4.426445005855937
Pd 7.113994351729692 1.017848655862093 3.0750050923211227
Pd 9.425293613535256 2.314848540484142 3.723387717757826
Pd 5.283002915713554 2.967480458553434 3.1898100552926656
Pd 0.5074472530746976 2.290794355065441 4.805485515084476
Pd 0.4822649806978124 4.9427857866398295 5.294050833950563
Pd 7.4123957027059815 3.1874862125453727 5.038746277951575
Pd 9.719434064706634 4.361785824516188 5.719072043726915
Pd 5.260055801430259 4.702499821590008 5.340922402138124
Pd 2.963625228743127 6.006337413755785 5.5608752647119255
Pd 7.650045321420116 5.9995416133189865 5.64494636839607
Pd 0.728286575845448 7.592734310282563 5.799509092434873
Pd 9.837109586232819 7.109731866380879 4.903619115229312
Pd 2.5300281669859745 0.9204762989196987 5.9826693756745515
Pd 7.122930236522847 0.5993493001538187 5.710715227049355
Pd 5.114588725212631 9.302549177979378 6.198895325158003
Pd 5.346949661672714 2.336203313759213 6.601379924574665
Pd 5.132027596827407 6.729222799531969 7.097790478413658
Pd 1.4423597950848375 3.210854864783125 7.154170220948756
Pd 4.737058160994613 9.405882347585353 7.064703156858757
Pd 2.849482385653512 8.20645520180925 7.3576374316165785
Pd 7.5125377226975925 8.709182953178223 5.325625641995144
Pd 3.9643916602132023 4.343972821345862 7.664309076924502
Pd 6.687703096476273 4.480392698714223 7.5933879459755795
Pd 1.4455344647201205 5.835262359465362 7.727921302031194
Pd 7.442002207701864 7.642107950081969 7.756580516434576
Pd 3.408913452386077 1.7998483179492901 8.391562685473057
Pd 5.074460509927529 8.685604827700299 8.822490807179674
Pd 3.5614613664999184 6.426000388467259 9.30243570589197
Pd 2.1989942318618234 4.026552506258912 9.569475705709063
