4
Energy = -10.39806249 eV
Pd 6.391109915236615 6.382179279593612 6.36615222492986
Pd 4.20924209596869 5.5986771577608305 7.083253444703367
Pd 8.336368749091672 5.780001879503489 7.682274187135318
Pd 6.556365196905035 7.723813011119204 4.354217229431261
