4
Energy = -12.6762178 eV
Pd 5.11084509321368 6.60348669289821 7.173568796321983
Pd 6.7683205279530565 7.155940212871022 5.221134251040008
Pd 5.096573977062628 5.250188286181266 4.930041306299441
Pd 7.029413421725355 4.995537828004322 6.68040866629369
