5
Energy = -12.69114726 eV
Pd 9.597120571904368 6.592628379460476 8.493752369622966
Pd 11.668146378889492 5.3723320970634605 9.032060805048232
Pd 4.102099392140411 10.596998617644319 6.032334853698218
Pd 5.787687892085543 9.131632634197882 7.084326790594085
Pd 7.6613220796092785 7.842053871097397 7.835281170875049
