55
Energy = -230.55471501 eV
Pd 3.583728361301812 2.878620981139578 6.058905428640233
Pd 7.43045720176618 13.39522763449357 7.143317110670131
Pd 7.8175204266382075 3.624429401598052 4.213324805735094
Pd 8.084869431534345 13.39522763449357 10.19798878791051
Pd 6.272047859496784 7.405007702153158 7.5455520340704325
Pd 4.629092629329916 8.271153519651243 9.63089456540558
Pd 9.001053354875165 8.40357424745261 9.43519105094754
Pd 6.800304335290529 9.003889247689665 11.020907541506409
Pd 8.283406859302085 1.4890406577953632 5.625758274582793
Pd 4.305147048462875 9.355426596756242 7.375836929347931
Pd 10.832676252017139 5.407496949202082 6.419307174873932
Pd 5.288486435034572 8.594449324602715 2.967902846751866
Pd 5.868543004958691 4.438805605965851 11.178890517076542
Pd 12.773124793795573 9.156042900955661 6.810201155407385
Pd 2.3774068752090796 5.303649386631418 5.635892646252159
Pd 7.604412190949351 9.641296543009547 7.667288604353604
Pd 7.765057366443593 7.856118662873412 3.4992895717329104
Pd 4.878190604122453 5.2826085842639685 6.530566067475753
Pd 10.753260129634267 7.884785810275427 7.5824816462156654
Pd 9.128219690805839 3.562425420399063 7.266914920223413
Pd 7.296459272612282 1.6427304528327977 8.64154203827114
Pd 3.9313622389268463 10.318889287118264 4.945506510581173
Pd 11.989258691638836 5.098163306223345 4.047114308036997
Pd 7.4510178415095805 4.135833813215675 9.153912361752676
Pd 1.3671659751661542 7.56337634392404 4.888443764071306
Pd 5.805018973518539 10.723580272091572 9.216311941761166
Pd 5.057344085157477 3.056708032944305 8.862984690592636
Pd 6.4567883358999145 3.164549314745077 6.523436091868628
Pd 7.146563775245513 6.596261159064419 10.016959990521201
Pd 5.146248196279658 0.8820909913596617 7.129914276725631
Pd 5.207411694072882 6.942571475891574 11.819512681570728
Pd 8.387380146867452 10.873128557927082 10.075151838068093
Pd 7.793371767816724 5.429159632741824 2.3896729508496044
Pd 11.697011678776853 7.553831445760693 5.0890513898029
Pd 9.702762951698249 1.0061543194355995 7.813863024469506
Pd 10.294331785769863 3.230842097796754 4.865391056255703
Pd 3.931270677714087 7.6389091286353485 5.268400601571844
Pd 7.376542753356152 5.747653478957168 5.7842658880799
Pd 4.193755243266963 10.849251755483404 2.251850699286538
Pd 2.6775326592379294 8.949329660493216 3.134388631975993
Pd 4.775115721082652 5.65830841021946 9.20465376299129
Pd 5.2210084194439945 3.6173321411123003 4.231105715707871
Pd 5.494927141277018 4.451554988829206 1.8234189943241594
Pd 6.331921185005232 9.031494881278528 5.36940578226189
Pd 7.6051026234675305 12.328795718376304 7.977461869837939
Pd 8.817474176654013 6.073946702925434 8.008767959333333
Pd 8.84971740006356 8.05596236737535 5.921338475805711
Pd 5.764994533975049 11.418645016190125 6.539012144974353
Pd 5.550259299735794 6.188850846001818 3.865633589970759
Pd 4.5927534055338075 13.36184401993189 2.140140224807398
Pd 5.649235697688303 12.133644337955054 4.106260004463723
Pd 9.569242284980913 6.04429194559139 4.246468532756619
Pd 2.7014078028721595 4.364659195711039 8.146516886857636
Pd 3.061404619337956 7.032391762964344 7.7022274450617
Pd 2.9317469445024544 1.6565003373711267 8.295417046672265
