51
Energy = -221.6131188 eV
Pd 4.005252988051477 3.81739896824422 0.821776130064494
Pd 4.24621370944136 1.1526911028389646 1.4759046154153672
Pd 6.27380241021806 5.361588698801775 0.7618712954637501
Pd 6.481401187465448 2.666358500550699 1.2958563674222154
Pd 1.8994129666247608 5.256249006319735 1.8661530639154795
Pd 2.148354954904452 2.613328804045682 2.524930995362868
Pd 8.723498047349006 4.2002264486780865 1.2098949603138347
Pd 5.792470109572594 7.851316496589078 1.757359180554364
Pd 3.108516929391022 8.010749813596707 2.4170500308656644
Pd 0.16967512177809838 4.061698658333289 3.7137016287075673
Pd 4.3726307354380305 5.7524297727108396 2.677518394776017
Pd 8.23701474021249 6.734563358206433 2.1632342638974555
Pd 4.628410473441391 3.079779226261349 3.3363370902249465
Pd 6.217016859293963 0.8124859414368705 3.316894862012346
Pd 3.55691460990543 0.6534078911281103 4.0557659009376295
Pd 6.9021537063198615 4.592367715043785 3.233966982285597
Pd 8.487942092033126 2.3114978385347253 3.174097267944415
Pd 1.1655702954098395 6.928466488405134 3.837190065200697
Pd 2.586788385275257 4.674592720124511 4.490419001780623
Pd 1.4883055991670509 2.0711298709321833 5.093245711154688
Pd 7.684933363521921 9.139305147609077 3.2870812366435205
Pd 4.96845616971435 9.313794114838934 3.9398943659641112
Pd 9.499693135111256 4.8095216080346015 3.690161118288511
Pd 6.32770482772772 7.019263091623813 4.258743467622152
Pd 2.3213222130665505 9.256655105377133 4.672988830226852
Pd 6.916598832149159 8.958912259463023 5.910053114331321
Pd 3.660863834516513 7.092336340525428 5.152381627776192
Pd 7.682690916182291 5.266739505466386 6.055182304702824
Pd 8.95036597797989 7.303214511444898 4.788966462524589
Pd 10.316098586570408 5.435853164833932 6.08955037920276
Pd 8.147837268911683 0.5417562309786548 5.218796510639514
Pd 10.316098586570408 6.0234224405049686 5.207365856002634
Pd 1.2884091835403246 6.864548966297548 6.546162349374859
Pd 4.370202295162889 9.194791245289773 6.626494874967813
Pd 6.611250992428958 2.762248996260906 5.221036166016826
Pd 5.517208339745643 0.389872816522381 5.97352411851113
Pd 9.198210953779522 3.0136780095684297 5.765173758533587
Pd 0.665378295549781 4.2842587532144085 6.406961464102015
Pd 3.955519105261494 2.6896176942456544 5.949988507798178
Pd 2.8869669333958377 0.32454989453537453 6.644974951676479
Pd 5.149761657629626 4.92466305524711 5.195801628239342
Pd 5.697441416458302 6.793992943344683 7.082600828539661
Pd 1.8065710356042857 9.31552454318888 7.253514310007207
Pd 7.330187520498679 1.819655044925792 7.529221008290456
Pd 1.4345779334003756 5.235151102982855 8.804052336283211
Pd 3.2985394269208412 7.3473059228325415 8.312426218212176
Pd 4.7108956949159495 1.7281081755137793 8.264391907441523
Pd 5.927249141206017 4.115407690595173 7.7296278268446255
Pd 2.0960809646975034 2.6524112237503448 7.912901376126981
Pd 3.388948694384315 5.052761610760956 7.101874056945178
Pd 3.8525092286712885 4.009278878508209 9.465866638932786
