50
Energy = -217.53898864 eV
Pd 10.808678460635962 7.874980539636246 7.048037386825221
Pd 9.884469385109572 6.2400527508243195 4.942371312265442
Pd 11.226753933464762 5.283168088026774 7.4552126445071565
Pd 8.561342003505784 8.812334026075227 6.004006759770428
Pd 8.304461689893104 6.082856388624165 2.474606140662172
Pd 10.265569103231138 6.797048572881745 9.491882121250205
Pd 7.347404903892069 3.6100159785489963 1.6875503747789322
Pd 8.520838946837955 3.9593800043981635 4.044242209879246
Pd 8.463135246172431 8.542204201157965 3.4526900460622736
Pd 8.874492472809836 8.99436969827422 8.580868126776855
Pd 9.400795063774789 3.7593104317391903 6.470772173862369
Pd 8.64146323273213 6.222544475691009 7.38016236194378
Pd 7.288967250715963 6.6589919221858045 5.078232090668009
Pd 6.044973566679193 5.775646851813182 0.8728311058732605
Pd 8.095893305565234 1.7303138591367206 5.452866700348384
Pd 6.506974717215512 10.362176101329231 6.671013525001307
Pd 9.170908766125647 4.320198713174275 9.11850978218416
Pd 6.0151624807833395 7.65718563556643 2.781267721867537
Pd 5.954616466731234 5.044321612913508 3.559016970801121
Pd 6.157585099457156 2.431790344108637 3.7617005207936494
Pd 4.537877917775153 3.7051942081791425 1.9114783358271306
Pd 6.717459618447679 4.302956838887882 6.138470330674071
Pd 7.6377602641927105 7.127456410249927 10.036931072961856
Pd 6.33885311081458 10.154742137926515 3.873563648159131
Pd 6.579392286944707 7.686638527014264 7.593462986599381
Pd 3.704369224452748 6.525862551846262 1.878800150832559
Pd 4.858629493375153 7.464249223508101 9.64420249193056
Pd 5.57245588579181 1.565049808991531 6.141027946775249
Pd 5.334529277915137 8.332103005167344 5.422811377487778
Pd 7.44210467445764 2.514691998481996 7.987830639872179
Pd 3.7007749003561092 8.95638001646184 3.309458837666244
Pd 6.389101223630627 9.655251776899693 9.346350577840083
Pd 4.058897591653202 10.654108214678224 5.403218257250165
Pd 6.571994620251832 4.987503905167258 8.830567087319224
Pd 4.004769716110777 6.4053794863073925 4.50411966078852
Pd 4.086124297860074 3.9219213672953552 5.462056571925477
Pd 3.4725419949938265 2.018173047817631 3.84255722143045
Pd 5.847753500268307 5.613410225387164 11.259199161919732
Pd 2.4499533407417533 4.593871743823729 3.312538106750946
Pd 4.636992957596596 5.973798154501708 7.070899430689722
Pd 1.5938158745710014 7.2243888190204135 3.4135970164564875
Pd 4.809869477619022 3.24370932640143 8.0383287635502
Pd 3.0264105833294295 1.6746179433213433 6.700529354779943
Pd 2.543959287819944 8.36988286007214 5.756164796150873
Pd 4.1946734551337554 9.160973621930466 7.7353284948814265
Pd 1.4043826331212652 3.233195629162158 5.327692567672319
Pd 3.8033348168325762 5.06160660641539 9.661523542723288
Pd 1.6947140594280947 5.86022646685327 5.727101860302309
Pd 2.327023548795662 4.221635995098007 7.658644345491481
Pd 2.512634858259623 6.9912395394549804 8.103005565806448
