7
Energy = -23.62541806 eV
Pd 7.7749496461098575 7.421113389636023 6.423219904903631
Pd 8.215162645040888 8.5667925246863 10.45470630762639
Pd 9.42033352931259 7.564278976331211 8.383699710858817
Pd 9.713796971911401 10.070719882649517 8.978884789936563
Pd 10.813863905907903 8.245212834050118 10.503892106547726
Pd 7.317718678277741 9.351205373793123 8.075070816106477
Pd 5.759912076423462 8.909240160356623 6.133887326310445
