9
Energy = -32.51454113 eV
Pd 4.8573482331136315 8.511411332100055 7.75201892070091
Pd 5.861659203509152 6.052291877170783 8.162558380189278
Pd 7.047362832132138 6.340802268232001 5.0293418189132995
Pd 5.937971252481618 4.195129030757336 6.210790713243523
Pd 7.405623676922977 7.904546057218404 7.220640195519355
Pd 4.547831562275007 6.526674955372702 5.992405321041067
Pd 8.243395720879267 5.31964543002825 7.19078959211251
Pd 5.8361949253181695 8.711669219645424 5.282025477211867
Pd 8.200905073025682 3.9696200875585204 4.97778472713318
