9
Energy = -30.7608949 eV
Pd 8.04545230746551 6.655284679049794 5.478851225142251
Pd 8.42687524807092 8.602774882814266 7.068703860661746
Pd 7.716808673680917 4.543777679355768 4.185844963271322
Pd 7.0235054785005335 6.668632453716986 8.017843835306866
Pd 6.5355555907626774 4.510962368570762 6.39291551279483
Pd 6.135241164886983 8.292957429413056 5.995368681053927
Pd 5.543203692990695 4.6917925476378874 8.731081990599638
Pd 4.602915691811197 6.140157409963105 6.866126996898972
Pd 3.832468861632094 7.787608885368796 5.15944827711537
