12
Energy = -52.33995884 eV
Pt 9.478230329574714 5.897979539814224 7.809052555849775
Pt 8.306679145841969 7.983355278539292 6.966942388875371
Pt 6.513283369537742 9.7049705581353 6.463640210203202
Pt 6.731891729793522 7.854782061964754 4.719755682355248
Pt 7.852999638037936 5.5990599338798726 5.8905852928048015
Pt 7.091779397493541 6.253550604077094 8.609890314864323
Pt 5.415187484622404 7.34710459563112 6.807494052276507
Pt 4.591110915641369 6.351013378306851 8.992412752977234
Pt 5.463681004407998 4.727607514134654 7.2239425573037375
Pt 6.741526800441347 3.3536526677786798 5.484773083554282
Pt 5.607150643609832 5.404902066014972 4.541681291124371
Pt 4.206335611886323 7.521877872612437 4.489685888700264
