19
Energy = -87.55732559 eV
Pt 8.093837142036453 6.734107963952085 8.549009779049484
Pt 10.523271655266765 6.917884971926776 7.562442511601876
Pt 8.786744366258029 8.937029689661765 7.464530591891907
Pt 5.676803189033815 5.880635617714039 8.835583529932066
Pt 7.638041430300528 4.203768195226893 8.728138664086163
Pt 6.2373763297105995 8.390866237459027 7.514456442448963
Pt 8.629224551133264 5.341422738782504 6.451916762529367
Pt 9.619944811574515 7.6511360857635475 5.2358715238761375
Pt 3.9564822408235365 7.782795769335725 8.5095602552274
Pt 3.1046628957368654 5.407244292084552 8.856665905295877
Pt 7.430397072343117 6.522694809351788 4.475520565596119
Pt 7.353004320055368 8.932212540756174 5.275413677618411
Pt 4.361661961342191 7.276275704869787 6.048096361392018
Pt 6.1546792282541904 4.568549514353208 6.646035259896648
Pt 3.6213628785217327 4.894896032188341 6.46880787936072
Pt 5.01690191692585 9.164865894436694 4.422141532209965
Pt 5.05166885911145 6.711549375670227 3.7036177293882093
Pt 7.46531028212227 3.957843942483011 4.524631780762427
Pt 4.835022566586029 4.280618321120298 4.283956944972818
