12
Energy = -51.55349982 eV
Pt 5.575238452415759 5.734978577446056 4.514654775784285
Pt 8.864361656380952 6.924518324871131 4.584626069698138
Pt 7.563801998316881 6.812266505465983 6.784438968052198
Pt 5.078128130977664 7.582068179934353 9.18081868574638
Pt 6.185161411155034 4.103206277904787 8.445668329401645
Pt 7.805552421477957 4.740578327986321 3.754813881092856
Pt 7.132630404143913 4.325155327415066 6.1465695921312875
Pt 6.5864496087009945 8.072496667877925 4.637131324070369
Pt 4.066534352227896 7.6425963904126295 5.438528938165843
Pt 5.824332068709903 8.747930114393586 7.04931859436378
Pt 7.240564066355772 6.268324580307171 9.230422086674343
Pt 5.003550195648332 5.972185492495659 7.159313521330199
