11
Energy = -46.82826852 eV
Pt 3.9938543088680736 5.509977089526832 7.706721719436025
Pt 5.0358668989713875 8.76265681624273 5.69616677078532
Pt 5.830454006498728 7.346772223336958 7.685813858951486
Pt 7.684204403047819 6.18479297009913 8.998834503252347
Pt 3.9185321934081188 6.518543182773702 5.401994718152534
Pt 6.228560509414908 4.317105415880448 7.794079684020437
Pt 6.366066552678614 5.82567142812849 5.71230048222994
Pt 7.221824070462584 7.924877258797462 4.663491836789986
Pt 8.222954691389864 8.000062279416396 7.080115923715947
Pt 8.643771459610441 5.499976687439187 6.676386387206451
Pt 8.393960793330944 5.649614536040282 4.1241440031410255
