10
Energy = -41.33403978 eV
Pt 6.7429219426789775 7.1179252935510124 3.2930175490595595
Pt 4.789113667163182 6.868886818172623 4.837899622154128
Pt 7.313449748700125 7.481317158491183 5.758181182428438
Pt 3.204073070181871 6.515323543092909 6.741793941760914
Pt 6.872913008852214 5.032555871512879 4.792412638348972
Pt 7.44109006574866 7.21633259070745 8.281171605186158
Pt 5.476652924746481 5.391865481164791 7.0710720027057725
Pt 7.979254018380001 4.9373079044349355 7.085917230522631
Pt 5.206710530885587 8.01712459126106 7.344636382169211
Pt 9.259364143179004 5.706903868127399 9.079440966180455
