14
Energy = -60.07556352 eV
Pt 8.279180829856491 6.668744586982127 9.43803207659328
Pt 8.748132888236144 5.278266865776839 6.786768331588239
Pt 5.6975918518306 7.727858010546338 9.261623214164558
Pt 6.399883496096878 5.714093281048324 5.359186557923168
Pt 4.58331481809655 7.08107381721767 6.853629171908276
Pt 9.746670907938359 7.816706591285916 7.356721518961499
Pt 8.654502607027396 7.161724106796049 4.950437114039761
Pt 7.949122501255569 9.208792172339022 8.871147953028544
Pt 6.123144872246766 8.380504889995752 4.921731721883543
Pt 5.6859612889316615 9.623269984927425 7.282868787323345
Pt 8.145589784225228 9.66773369679882 6.129406775234784
Pt 5.991681185648221 5.2211575328145825 8.062644292266729
Pt 7.185894746604529 7.393348260330899 7.1534520695506325
Pt 8.121325012461773 4.156609656605452 8.994349767792475
