17
Energy = -77.39354628 eV
Pt 8.009785771164463 4.317282787314262 6.4642660650487755
Pt 10.030497407218812 5.753116183457552 6.0337535628762655
Pt 6.267164170902343 2.5319841524792435 6.081699787989355
Pt 6.613976603532596 5.961062011879996 5.1502110855596595
Pt 8.496030393065796 7.582801064245613 5.062971626005558
Pt 3.3624221745355682 5.972689799150661 3.82895390019838
Pt 5.026958004729441 7.8012819047244495 4.441846488598019
Pt 4.771556118457051 4.234997245878842 4.992957171947176
Pt 8.92244066980004 7.539206292080596 7.52220223356516
Pt 3.8945982882650356 6.340198617185692 6.346940688718817
Pt 6.768273246436799 9.394665064095184 5.396964490895851
Pt 4.494815382374491 8.939570684798328 6.822680592306519
Pt 5.491763786310418 4.462175368145395 7.652860590958849
Pt 5.605647336220259 7.009813418821183 8.0517964621724
Pt 7.610887059614151 5.651421731791978 8.678689995553723
Pt 6.9927190772942875 9.120427934216004 7.989275265624117
Pt 8.098590420023866 7.84543164968002 9.940055901926232
