17
Energy = -78.19723409 eV
Pt 6.141817360056912 2.8545833408488264 5.395846743053169
Pt 6.612353573688352 6.929096730124477 9.15978525590656
Pt 7.495725003567212 5.591889368770823 7.2443269565787105
Pt 7.999544344620274 4.502873831116278 4.952576549585195
Pt 5.746629789512842 3.8436186098550045 7.6996582678676875
Pt 9.742388914816015 6.293203486303532 4.568907751322422
Pt 5.135283721577365 5.019807085930722 9.85047072404969
Pt 9.182206605472318 7.401965663412695 6.783818332666214
Pt 4.4252325858655 4.72444630400775 5.516335582344436
Pt 7.9520673491576765 8.087337714189571 4.422131389534873
Pt 6.254609954237632 6.3306274352715555 4.9490292559457805
Pt 8.410795288013754 8.640401954059522 8.850218223829645
Pt 4.253695970531446 6.2652667214758875 7.819044315295831
Pt 7.165677551360004 9.311223045140288 6.76194512942237
Pt 4.964881511012604 8.126614675243307 6.175798247781907
Pt 2.8798590170683775 6.73040365057756 5.72743415925774
Pt 6.05133579290499 9.760744717135218 4.536777449020907
