15
Energy = -66.84214707 eV
Pt 6.5789908405870134 4.385152386325637 9.60863856187677
Pt 5.0239761266972005 4.6363667952955385 7.517950362875535
Pt 8.071187160057507 5.353888287744113 7.755039998257947
Pt 9.440030245457807 4.489580035076322 5.686965901381954
Pt 6.112516319251541 6.686117872979567 8.586597422766568
Pt 6.762562339853102 4.701041814869972 5.642592365654595
Pt 4.453427565224256 5.798926480572548 5.315817414223692
Pt 6.616539622442017 8.535068008111484 6.941618260096568
Pt 8.607185992427329 7.922486988864752 8.437396157977789
Pt 8.595917303957307 7.136172641811588 5.959848647955331
Pt 4.231900984236579 8.314112703259546 5.92603424273253
Pt 8.17549997229666 5.762472438008786 3.8195805985752473
Pt 6.334485357497647 7.418354545822775 4.426609653579748
Pt 4.501910289637087 8.718114166083556 8.390779452873364
Pt 4.00042005586473 7.648695010661723 3.4910811346605506
