16
Energy = -71.82864098 eV
Pt 9.372579710145308 7.5173734343808905 9.148066235745473
Pt 9.354950871523856 5.05595357481824 8.559348259852033
Pt 7.91868341453973 8.901116908408332 4.5649092759917576
Pt 8.416186629246 5.623610745323015 6.2929498592372735
Pt 8.656108308194746 8.167570215823241 6.846546344794928
Pt 7.484429846422222 6.451537716191178 4.065237449995691
Pt 7.108211828252482 8.152693552946168 10.036621566312252
Pt 6.947867544327182 5.839030220095669 8.9037829787573
Pt 6.252025511203945 8.174426699546462 7.635279919508622
Pt 6.945312030543919 4.034796067277397 4.716363804364565
Pt 5.866150583904486 4.99737002609114 6.780521109299123
Pt 5.671782328459248 7.828526893726356 5.155427920096481
Pt 5.045221748960576 5.404212023288836 3.566001062758308
Pt 4.424600159460209 6.396986489281647 8.403606541726717
Pt 3.85265978155888 8.597990851849945 6.836622771896451
Pt 3.880496546225922 6.155687013144396 5.712361132919363
