15
Energy = -67.08490148 eV
Pt 7.8454975197389345 7.719866213469822 9.808875054801954
Pt 7.51517016159582 5.635638892605405 8.554325327310528
Pt 7.589598880432691 3.0479841270694332 8.27011977341472
Pt 7.886699854505424 7.141319146332804 6.384430606672082
Pt 8.13361956445303 4.459191486327574 6.216620716435384
Pt 6.945865305440175 8.978380851836691 7.879474288103186
Pt 5.505102413507284 4.246203962063909 7.41603122797693
Pt 8.033568190945097 5.933409148008361 4.0377869256645695
Pt 5.939310695466761 4.246349856872607 4.876140768462898
Pt 5.456405094619737 6.949647150245405 7.500843680027336
Pt 7.348900620849478 8.509403284821456 4.344058747263614
Pt 5.916845038853647 10.041409172044016 5.80382272966429
Pt 5.582461173068398 6.746533889817284 4.54380019524982
Pt 3.7364880925292603 5.599201233155992 6.021093482354228
Pt 4.080971045486307 8.261965236821004 5.859080128089807
