20
Energy = -91.26994555 eV
Pt 6.514236761451222 6.815781543481624 10.921162108193915
Pt 4.910553393277565 9.797926066799608 7.925437772418749
Pt 8.82883100100751 5.7179936008779455 4.334947225181629
Pt 10.420836266114666 6.110984072252782 8.50720005880077
Pt 6.524376517221376 7.0846754124826585 4.004114965721219
Pt 10.493243086309988 6.818423454360928 5.996619840284396
Pt 4.210567062527315 6.072570988877803 5.248098955639327
Pt 5.442987122204566 8.202263470895838 6.020226982092648
Pt 8.81251929229503 4.77681611105658 6.767983942416122
Pt 9.168202709452611 3.93691461791768 9.13776772695322
Pt 7.272654668139995 9.807570327099363 6.798437348203507
Pt 9.163004320199224 8.22842467077396 7.7405655658098365
Pt 6.606857894566526 9.68856906947047 4.178085287209374
Pt 7.720263082787399 6.001929862182863 8.824511970188103
Pt 4.325701041792945 6.700264256169113 9.698011862500387
Pt 8.573956487446447 8.275244835943798 5.124160169057333
Pt 5.4872795791344915 6.131241568323344 7.565912867489905
Pt 7.005775889293963 8.532396392218889 9.046107332305382
Pt 4.826716769711906 9.119354116642585 10.374031904951886
Pt 6.583249715615229 5.034164655362364 5.550618359965505
