26
Energy = -124.08517137 eV
Pt 9.091321962953012 5.091573911558867 3.524965249955184
Pt 7.153669028618195 7.140260585820169 9.680444604586896
Pt 7.661532209898394 3.0678298267174746 8.088317294766236
Pt 9.75987922173972 6.710005836393205 10.048768076904292
Pt 8.982437312514985 7.916041872520825 7.8478259637251275
Pt 4.95523993496456 9.3612292278781 6.602880859188705
Pt 9.257411538996639 6.69948419390582 5.570486023165475
Pt 8.546764183976263 3.9226866730342507 5.787707704228742
Pt 5.436669322528513 8.784981569179026 3.9385367737579506
Pt 4.06300897458518 4.575314553588876 4.529378794030956
Pt 5.719901949109537 4.845821277526906 8.8644360465942
Pt 6.598126770816545 4.651106709303108 4.028006974552071
Pt 3.8374179485903412 5.444896607889324 7.121190493176577
Pt 3.2257789234443623 7.042872533110361 4.481130894485075
Pt 6.792391501366625 9.333587287453533 8.3375539255715
Pt 4.877996131733814 7.444489181208295 8.512316740099502
Pt 7.464390828122973 7.177934059543604 3.6698705903962643
Pt 5.492078650052064 6.833188629119368 5.704721922281539
Pt 2.736341427325216 7.841954983770425 6.925646120587916
Pt 7.330803716940607 5.905881892154282 7.167124777760552
Pt 5.083146048574137 6.36282295123947 2.728531946958482
Pt 3.0461699887744143 9.586159000157176 4.899873069078799
Pt 5.769277222958401 3.7550412303574547 6.384859174689686
Pt 8.097624479146308 4.728333460166666 10.047897983972527
Pt 7.465479046273053 8.769422439039625 5.824799465150803
Pt 9.681919165585938 5.188613296879861 7.847703259944531
