20
Energy = -91.2635114 eV
Pt 5.53481843952893 6.762833067909889 2.128729482108666
Pt 4.810179225156661 4.543247740330393 2.95241355498332
Pt 7.72044491487666 6.536228865154201 3.412521493575814
Pt 6.98811327680335 4.283688124331991 4.240187086246475
Pt 9.801467924506222 6.355253220863171 4.831970352723749
Pt 5.431791793761375 7.673095860153517 4.506510203540018
Pt 4.709649825682091 5.406250294267515 5.34515531202979
Pt 9.085611222801298 4.1303510291110666 5.641365955892401
Pt 6.919843296302032 5.1384465425865855 6.799574678192707
Pt 7.682664572573338 7.548644607062425 5.91283566046135
Pt 5.475081274650126 8.524870658670295 6.884571719401967
Pt 9.901260700211532 7.2516519249577485 7.3035351373597015
Pt 7.821209692936296 8.353021529209967 8.385107357061843
Pt 4.75801702036415 6.227125176147296 7.740557865841032
Pt 9.196883174531406 5.006706764363251 8.123643307676504
Pt 4.336098735350665 9.557709457471887 8.848834333478049
Pt 7.107520542562912 6.05039549105437 9.23551254409835
Pt 6.4796750911996295 9.432760478679818 10.191898347585076
Pt 3.6738613145344075 7.300596561109961 9.71807439269386
Pt 5.822434585178493 7.173749230076405 11.053627838561374
