23
Energy = -108.40071911 eV
Pt 7.636527420818351 2.1057900942651866 6.561746876713181
Pt 8.599627027088626 4.219436403325185 5.402435964291047
Pt 9.367000935618828 6.369734485085872 4.269168307126895
Pt 8.024522410157978 4.183346954642384 8.06737146130309
Pt 8.874437365957577 6.392131289230113 6.889262249328563
Pt 8.213392691627593 6.362240228235022 9.422083668000903
Pt 5.971990965194186 3.807050241341678 5.457545094000818
Pt 9.397282451652547 8.656128269397502 5.596502561026021
Pt 5.558731182668717 2.931936658030227 7.950273073747786
Pt 6.807843622185056 5.874650812312445 4.05000571185401
Pt 8.638202747889848 8.711450432576893 8.125404953269069
Pt 6.176802528063134 6.571163583890215 6.536437330649545
Pt 6.86976891642381 9.053398388837778 6.158251353525711
Pt 4.246397090445911 5.35976345078861 4.317883794423769
Pt 5.811741090142075 5.367470301892142 8.90101174677516
Pt 4.062786324664983 4.91877239459956 6.986810070146656
Pt 7.686539261072567 8.39424727892868 3.6614391008191216
Pt 6.194756372135956 8.010766973031837 8.793101498256698
Pt 5.207083537779121 7.964521979338457 4.30740797685606
Pt 3.7649582315561543 7.068315810350902 8.600520030288747
Pt 3.2987558977652403 7.1586551574156445 5.934728638244421
Pt 4.5124507863847105 9.207705295454513 7.236014033986922
Pt 3.332421588106526 9.584979846226728 5.016577439351846
