27
Energy = -129.74889384 eV
Pt 4.091173470580851 2.968497926406408 7.156808462891247
Pt 2.5518664215787314 4.155504965029599 5.3055554336413335
Pt 2.5837883753634023 5.084314520385411 7.796238525670732
Pt 5.200427825424288 5.011482126966238 8.377765402337833
Pt 3.6625363107518845 7.319395987771862 8.333731761119491
Pt 3.7577276223847087 5.4567402525153295 3.3971368822711607
Pt 6.658406204370751 3.214780935603069 7.112328780227316
Pt 5.1956000324979446 4.05431478165425 5.087132147443826
Pt 5.134622739698055 9.426647121234767 8.895379635703334
Pt 3.6238793489558523 6.5280023697327305 5.84485169622309
Pt 5.786553697620917 7.04844971121132 9.86972102663238
Pt 7.730005933907215 5.687834819269391 8.769389476056302
Pt 6.655045650117325 6.402979443854095 6.473738554988199
Pt 9.102182816059173 4.016311444155827 7.2864681487040475
Pt 7.8099383538043226 4.361959142734943 5.005171626762893
Pt 6.342508998584886 5.104970914468597 2.966135051580814
Pt 5.563429298641867 7.259234090386822 4.2389693946211935
Pt 5.09180397456941 8.625997644691752 6.404214442086877
Pt 6.8825888017662376 10.476358965761948 7.212549231742861
Pt 10.306743717154497 6.073716938349526 8.460797820571393
Pt 7.5088082461223316 8.305837117398779 8.386725672862863
Pt 9.48978276266463 6.210605445085378 5.972948896599372
Pt 8.258546405618057 6.712448758845156 3.711935935285521
Pt 7.444365947090633 8.778290647744651 5.2098554485985105
Pt 9.240042687899662 10.46726016336658 6.173176103897669
Pt 9.992349428699983 8.398436494420853 4.626835077562972
Pt 9.834898888409901 8.349251231292252 7.424063324254443
