21
Energy = -97.61741221 eV
Pt 3.866464516508803 3.6196743420963777 8.495717770119747
Pt 6.288059583735264 4.5772822819202 8.017076196699602
Pt 4.231117670497749 4.618575587958495 6.226335812206707
Pt 8.175550835279811 6.100851003318067 9.014302489506997
Pt 5.280979477495323 7.725711120346544 4.808789544191687
Pt 10.296137047149807 6.497952699929328 7.4324405117610635
Pt 4.418093095875174 6.988642499974398 7.232969818483737
Pt 7.171461749237748 10.400357101799488 6.6162787338575395
Pt 8.749342214096991 4.351285745430919 7.115776720279097
Pt 8.777368908795898 8.60946945055054 7.675535871366534
Pt 6.430555903465572 7.278950045791052 10.46005866503967
Pt 8.995019889326437 6.187686716304994 5.197591899428517
Pt 6.796935571950361 4.703487523463402 5.316032416476647
Pt 6.276111640707957 8.825451221059785 8.497828336940277
Pt 7.725934145049787 8.658608407271721 4.819953942967991
Pt 10.252272642984932 8.476836382406574 5.569539832283441
Pt 4.651320455650801 5.790506524144144 9.517742097913839
Pt 4.7059418723952104 9.547139730805556 6.511087811632625
Pt 7.139855022365424 6.541056921872324 3.3500873708983847
Pt 6.986932266410673 6.91542812653907 6.767754080779705
Pt 4.693416846974641 5.4012610239918635 3.877382855974882
