28
Energy = -134.14043724 eV
Pt 4.4947908841603885 8.263034269522006 9.696645823016041
Pt 6.234486698321455 5.678021824629956 2.4011917582407682
Pt 3.6277926911307845 9.56364112212101 4.825492625386309
Pt 4.223375076607967 5.493921045124334 0.9776193920836154
Pt 4.625547530619616 7.230991679119726 4.93700431724454
Pt 10.047320762542837 4.142824044043371 7.984313325407068
Pt 10.144623209652744 5.981883317480258 6.202472758903823
Pt 5.346199936121654 5.493028871250803 9.421486363662218
Pt 9.488597815349758 6.565666379248143 8.601399653425966
Pt 8.259183299296607 8.142998998329938 6.458501830487794
Pt 7.289174576360805 7.098275168471516 9.876447627292933
Pt 9.728717877425371 7.720307439157119 4.380123989357516
Pt 6.4877456018604045 8.960730965264293 8.164883963408643
Pt 8.274769423836545 5.084680041313298 3.77766311594425
Pt 5.613285294512886 4.053227069884775 7.3048764860097295
Pt 3.736714683338654 6.751296314728967 7.722423424732793
Pt 3.48100288775006 4.918756161328859 5.905400561904822
Pt 6.0671498677280855 9.263126238035428 5.620940854022613
Pt 5.897895724086142 4.886325648483513 4.863986877857607
Pt 3.25391289637451 4.295908419561606 8.428527928587876
Pt 7.964451684093033 4.567788811741387 6.3216263508464845
Pt 5.436858617123169 6.808944498862815 11.60078627973851
Pt 4.06545322355849 9.211039332913984 7.341300624482025
Pt 7.655432347157268 4.495097740745539 8.885077487673327
Pt 7.170555309599799 7.438127956720984 4.172496191918713
Pt 8.912204272227957 8.985067723051209 8.93929778353115
Pt 3.6866766157066695 5.43109547121714 3.411230719043649
Pt 10.779583849139641 5.4676961033319795 3.7702845414730106
