23
Energy = -106.83839319 eV
Pt 5.4199416321667835 9.446678850797738 8.043880217245954
Pt 7.4052808950211135 8.047875173951097 9.127157915747802
Pt 7.176435806296905 7.451937460880546 6.645959460764946
Pt 9.37032597931654 6.41231024000141 8.3979073072447
Pt 2.958743197238094 8.524858085156557 8.321882505450178
Pt 6.390599922413014 9.6373583979798 5.573255896097712
Pt 8.110441374410243 8.397673090294143 3.96509872253715
Pt 9.5790254764944 7.177661259038256 5.840440169058586
Pt 4.2854426710173685 8.029262680139357 6.12159439195283
Pt 7.008773258913825 5.3779174345162355 8.815985356750698
Pt 4.997706726524355 6.9101153601583905 8.622896188365107
Pt 9.101951251076219 3.7925248988972666 8.869282003830488
Pt 5.655091423212881 7.511965495803774 4.047822926265746
Pt 8.528120845254286 4.780961054634538 6.501810992810222
Pt 7.8902126578204435 5.787779191610601 4.255621773692956
Pt 7.145034097942321 6.875297360995763 1.9783122298422386
Pt 5.5442372578108 5.256420420524442 6.127611305043212
Pt 2.9289169917206084 6.059277310074604 7.22465641809147
Pt 4.625494775594096 4.272566789375125 8.304988134508982
Pt 6.883314056177949 3.03944716848167 7.579650048731903
Pt 3.585773099968354 5.914212142821162 4.618598777587728
Pt 5.629898668597035 5.018625034981447 3.1557692483013797
Pt 6.832245754336845 3.4083062620461604 4.926509048146579
