27
Energy = -129.66262905 eV
Pt 9.297305426066249 9.604860786700801 4.552781668550794
Pt 10.370290476139719 7.255471360282138 4.83001797708115
Pt 7.992210086696897 7.649386151136731 3.380664997311374
Pt 6.745455341577937 9.991185324436994 4.052082956728493
Pt 7.740289408268595 10.461775819818472 6.4851092902568865
Pt 9.29970032590593 8.346968051270213 6.993377326680104
Pt 8.514035864898103 5.35843998336304 4.897310462975125
Pt 7.1959999990684675 7.36946390971492 5.839898553129992
Pt 5.324808449245653 7.72225462765882 4.023756470270921
Pt 10.054915852122068 5.74422141116456 6.934912236601912
Pt 5.444857393987924 9.233561325842663 6.3085683914938295
Pt 6.506009723284132 5.471109608937768 3.2154540920056736
Pt 7.1163286963495835 8.899051420471343 8.46118224153496
Pt 8.073794037046888 6.438423831419599 8.460774176511284
Pt 8.176702958014737 4.018012850966288 7.412720661950173
Pt 6.447226535023655 3.8070959784280816 5.276791042697706
Pt 3.3458257805530285 7.682602194733253 5.840318989394511
Pt 4.30386534690204 5.438375836116498 4.760480846748623
Pt 6.1837927973292866 7.117465526384596 10.10288275439715
Pt 5.673206487819565 5.608196237071308 6.99426757900699
Pt 4.555204411004458 7.62847329538513 8.163508128368813
Pt 6.056833529594534 2.526071692999992 7.521204051122003
Pt 6.300117237537052 4.546818741870148 9.264074057396746
Pt 3.924258277953155 3.1229849869612365 6.043588962533138
Pt 3.0878233703040845 5.453217359412736 7.228272641492889
Pt 4.000234657240543 5.697578939466252 9.89318705326016
Pt 3.8689755016116902 3.407000719531957 8.66288036204488
