20
Energy = -91.80564694 eV
Pt 5.821950944963133 7.374885535202952 3.159159687370475
Pt 8.132936992273946 5.9948224463124005 3.3756863677560025
Pt 4.5461176114692945 5.3584730985686635 3.92931164041286
Pt 6.856649638243112 3.980609191162048 4.147764949289803
Pt 4.925605367118868 8.724766309960764 5.16470985736991
Pt 7.224934803479705 7.426294726546826 5.337210407544721
Pt 3.6292701624760393 6.678946379314518 5.946298205054785
Pt 5.855704022752483 5.267085979482475 6.163591424265828
Pt 9.45644565603961 6.027055350137263 5.588209378118616
Pt 8.15928543432874 3.981880486746837 6.373619237711857
Pt 4.045220555400971 10.006689356248536 7.166785679714886
Pt 6.304909544592745 8.776933523084887 7.450825322223741
Pt 7.207487083787465 5.32779534413351 8.468796407366469
Pt 10.717986062311281 6.030442320721339 7.787672993134169
Pt 2.778734176765055 8.013916021628319 7.92775039302162
Pt 8.549692892444847 7.4391189544619065 7.6600645216819325
Pt 4.962886622883298 6.665589170093138 8.260057597955099
Pt 9.451557662714828 4.039938660972619 8.554522754282136
Pt 6.328672063681857 6.720561409446993 10.428060828448437
Pt 7.596929665114165 8.71717269861604 9.662879310117354
