20
Energy = -93.32945372 eV
Pt 8.552101538350593 4.331807225379876 9.237701251817285
Pt 8.397898203739492 6.828958070622658 9.200058575677708
Pt 8.220377508258021 9.318439769607451 9.012584798555318
Pt 8.638241022388994 9.371107761168762 6.486734782027771
Pt 6.053936293506653 4.1127263906849185 8.84930116937426
Pt 9.209905647684213 5.06186863177274 4.889701554577228
Pt 8.352941618266733 6.843661094454719 6.622644868426606
Pt 7.626964740339493 4.354192236905507 6.783097635156814
Pt 5.962544123865397 6.631638970101161 8.657173886486657
Pt 6.332305687049166 8.782456420488971 7.349114771280689
Pt 7.407208002908211 6.872187157033063 4.239685647135776
Pt 7.827325129256665 9.369942521201187 4.117339597320648
Pt 6.600747455876753 4.471371166529687 4.398821567859287
Pt 3.7242255051140565 5.332003643179243 8.619533561665143
Pt 5.021097684872609 4.683865133439977 6.4299588131941166
Pt 5.558676534188304 8.47127953271382 4.950501388899547
Pt 5.66851474240269 6.012113586424191 2.4923009238086493
Pt 4.21883809751252 6.248944564536108 4.501661222898499
Pt 4.120596641457089 7.466425937519478 6.947929418651006
Pt 2.5354909256983547 5.464947288972915 6.244091667923846
