35
Energy = -171.84000411 eV
Pt 3.171657732576798 3.900283558874209 9.176012951432057
Pt 5.0810448959269205 4.868410713192498 3.1596340523219837
Pt 9.84269793007132 5.631037044362171 7.880046094995378
Pt 9.4459491994903 7.626586180123634 3.7232050534227
Pt 4.940491752684161 7.372946732355149 2.608824710725396
Pt 6.094789425419414 10.344106851185671 4.662921592995482
Pt 3.8995997756440715 6.351576790143066 4.89005551204798
Pt 4.914177628594929 6.911204858860103 8.599047146804365
Pt 3.7295499512943335 8.988609871874353 4.403876553428645
Pt 5.219898390709283 4.981881866261573 10.299243206411864
Pt 2.7022231120928537 7.973021505568271 6.517560233933784
Pt 5.876673180299267 3.50118594341354 8.294718711557353
Pt 9.366233549582743 9.247452884158122 7.303954216182393
Pt 11.096042396208222 7.785466181934621 8.626497555967306
Pt 10.712296124052024 7.472298969524359 6.0044404645011085
Pt 6.053167062521438 5.604439350102028 6.5031925145006655
Pt 3.8254810577856584 2.260804754192856 7.304375688709704
Pt 7.203269337711018 6.262704278006599 3.4882937262573135
Pt 4.984290072959776 9.932093553004364 2.3683621639628707
Pt 5.185589715086136 8.671633211505023 6.652966258153975
Pt 8.237558601421073 3.731760200616737 7.020574421866955
Pt 7.538992127887881 8.16132631837401 5.462472345966873
Pt 7.333998727964013 8.828417197710912 2.8286770745539607
Pt 7.111037034429742 3.9409290326490543 4.664937491851576
Pt 7.221903239321173 10.507181378121349 6.925470448537801
Pt 6.781886604362264 7.060033130142477 10.572785866267026
Pt 7.719820995088137 7.077222064840979 7.851061777874203
Pt 4.393160408191566 3.810732840539662 5.414431437987213
Pt 7.768372921258095 4.851287167454145 9.380028727006374
Pt 6.242994051518747 2.0165351627997468 6.196183254560033
Pt 8.848005020823097 8.560942693291468 9.756844120571905
Pt 6.430498406376578 9.106380288408191 8.949418476069543
Pt 3.1366664132648467 5.590374825493952 7.325033774653459
Pt 9.003089207785125 5.618223335028254 5.349951026478907
Pt 9.64575706873422 6.270286968301532 10.528822375614606
