35
Energy = -172.4169924 eV
Pt 7.904650078313966 11.607041471306449 5.142914211116553
Pt 9.241942333493416 10.004464079176763 6.7158004207722914
Pt 5.751437485612435 10.451905476832168 4.21767988360912
Pt 8.008580525184682 9.054098136047207 4.507449216883525
Pt 6.609772261330107 9.83850612935223 6.694608437281847
Pt 10.40983024774393 8.268508917098734 8.251763080714934
Pt 9.764719266306644 7.601063185833123 5.764053071052806
Pt 6.008518162317606 7.936668468306338 3.327513504342896
Pt 4.166286289312003 9.393268403312206 6.024742362529898
Pt 7.818995878503598 8.471115683523674 8.496329193056793
Pt 8.057274455947969 6.5647180897635025 4.022561577434328
Pt 3.652898078567082 9.199640408597581 3.383961901596864
Pt 5.261698939948775 8.263243999092213 8.204729658739804
Pt 9.881108653798213 5.089969281250171 5.2415307476496285
Pt 3.8013816756595755 6.696839730945312 2.584699577260944
Pt 9.499792968172041 5.843518001861807 7.682705287187004
Pt 9.094804096122663 6.718412124613394 10.035575340309158
Pt 3.1207732267561514 7.223452848937467 5.055693780892977
Pt 2.749144320603068 7.809452386064727 7.5240705842991
Pt 8.808797281603832 3.4657666815230863 6.935590323921654
Pt 8.29900584578978 4.266744445860491 9.49414631752787
Pt 6.623496615661403 6.336235492276529 9.330368945445091
Pt 7.646379536499829 3.9716391145989323 4.5961650581893565
Pt 4.048863940622662 4.159757056906914 1.8949318048616683
Pt 6.0181165993111945 5.347485008923989 3.1188594521573743
Pt 4.199888108023541 5.948147327882979 8.711405169933895
Pt 3.2877480798149743 4.71891762649802 4.292049026494318
Pt 2.7147503815290657 5.283653609665245 6.710945296599561
Pt 7.487079343023293 1.9608770945268679 8.623374818402102
Pt 5.744935355675765 3.89565242812926 8.996473194877714
Pt 6.339208628219241 2.6938006463617654 6.399694645928512
Pt 5.309418345900094 3.005959969197329 4.046452347094857
Pt 3.750148449101123 2.960874462811619 6.1444153403041435
Pt 3.180815410068659 3.5409769800718394 8.612051140322622
Pt 4.80785063854055 1.5199952991571244 8.146896510514678
