33
Energy = -161.54606577 eV
Pt 7.886689999976889 8.72520563613631 9.060490654606115
Pt 7.999213040801494 9.776690229607924 6.581701224323341
Pt 6.913122996751053 4.328518288664284 9.955448641236597
Pt 3.1384080600373494 9.724089530134904 7.553198068523907
Pt 4.032638110929877 8.253977771191233 5.420968250236616
Pt 7.874460313042137 2.9001117921984614 7.919901725652191
Pt 3.333128845857814 2.8844614234493258 7.345400112681635
Pt 9.963208988066663 5.8125024940816985 5.126425493832383
Pt 6.40319130458432 9.18510738854191 4.474571846110976
Pt 5.499872801938679 2.353485882424299 8.78745100311216
Pt 5.452467842410342 10.40296095794097 6.597647585510672
Pt 8.160082900076775 3.707135241225586 5.432556985880919
Pt 6.962682033795263 5.366994801380487 7.490601889642396
Pt 6.028746125686347 4.246776516506898 3.867903099675539
Pt 10.15278103475493 6.99840140994262 2.818821169952482
Pt 6.330071055499667 5.550937575336749 1.613203763442067
Pt 9.144388803443649 7.390525244564023 7.1329794821082
Pt 8.673094181576209 6.236516966931603 9.491500485111036
Pt 9.6374725919165 4.760503696891029 7.439822636161278
Pt 8.421716955876416 5.03393914666791 3.1140197214380545
Pt 9.091121547657021 8.467652452896777 4.677607498378422
Pt 7.213058573011771 6.446062860499917 5.100852372527622
Pt 5.609493543476682 3.340587233909085 6.26019206217915
Pt 7.597362286219316 7.615631771027755 2.6520030806506765
Pt 4.513139572692387 5.646745494008185 5.545622906998117
Pt 5.1323823228541015 7.0652526391500645 3.384239690371519
Pt 6.028930079998119 6.853120358320526 9.718331432068673
Pt 4.576660916361216 4.840648135543812 8.766519389279036
Pt 6.16086359259221 7.8485336910967165 7.052908241285863
Pt 5.330456028045711 9.358751467278756 9.048287169044597
Pt 2.5533244989621213 5.298213222210745 7.1093786978733675
Pt 3.791686950464993 7.285743575131057 8.361203454253891
Pt 1.8026847375217732 7.6610453852363305 6.538476756625926
