31
Energy = -151.08295958 eV
Pt 8.816756814325615 4.99586063391054 10.448305989465315
Pt 6.4454013104276875 6.082439874469615 10.507138712693845
Pt 8.636017018121892 7.497228058317021 9.602773673851589
Pt 7.199361581266014 3.9745144182417107 8.559136669423284
Pt 9.49749459084565 5.324963262295048 7.982357794097408
Pt 9.172921900009662 7.902959269255284 6.9714791240163825
Pt 4.680981212575283 4.991440858619501 8.81462625298385
Pt 4.84778658848874 7.757165127472389 9.297683666922168
Pt 6.932266598012002 6.472285125112038 7.975188346878166
Pt 5.537209947394878 3.43738163761785 6.631936196746178
Pt 6.987292133430162 9.02706338941559 8.147848205273878
Pt 8.093225999612999 4.062735085291859 5.989108539854569
Pt 3.0044268844031343 4.405345123195884 6.839803820375991
Pt 2.909722995051669 6.9293590880451035 7.940472474637466
Pt 10.200371865661262 5.754889072058621 5.587226316448909
Pt 9.364959469359878 7.901130600125684 4.336346766045152
Pt 7.052438136516841 9.096486790331397 5.525548108374636
Pt 7.380825485735371 6.566120808326329 5.378262366904782
Pt 8.77032166533585 4.899527670357098 3.5505327603627754
Pt 5.076086160827499 5.916451351019702 6.247498367617116
Pt 1.8909058873929865 4.880710865842593 4.518551150715018
Pt 6.364637624325183 3.8910477572424313 3.9951747972056157
Pt 4.721141182549036 8.506921076892175 6.677629218302816
Pt 0.9087421740103232 6.10792945365318 6.596621532881989
Pt 8.95981747819759 7.0030099706952855 1.9492330596891105
Pt 3.9257657667698993 3.2118603836400794 4.547789101433773
Pt 7.277156862049701 8.844658743745203 2.9463950344300214
Pt 6.598159659486153 6.320785786168935 2.9050234068161997
Pt 4.9115670395475926 8.213106045359597 4.0107596008813395
Pt 2.759375670095333 7.380424678918335 5.232692798863878
Pt 4.2884567516205045 5.671496026068746 3.7810660341032207
