36
Energy = -172.21074437 eV
Pt 7.432039862824245 9.760493150902992 2.4983022410658133
Pt 8.709570892982475 6.266989190494933 7.103678832529631
Pt 8.739941787025057 4.5904299017443995 4.008844998157064
Pt 7.762105405830488 10.66522242116267 5.141569955979084
Pt 10.12777567000717 7.819730010643226 8.685707466010527
Pt 6.311028288245332 5.422346924128796 10.297651836185036
Pt 7.771881952208381 7.070993099619332 4.77699452302004
Pt 5.644347276715661 9.223113785866847 4.214259352065429
Pt 9.168846525212924 8.9847931965267 6.60451907223419
Pt 3.189502137760165 6.050648749096375 6.409139082942741
Pt 3.4248829007665296 8.039905920266502 3.680984247174663
Pt 9.489431192889212 3.929044913333655 6.384318049289997
Pt 8.825732269570919 5.845150728806111 9.707745606429437
Pt 8.131226865878943 3.635851724981384 10.68633590132023
Pt 5.047170987923455 8.49772854637943 1.799165539348801
Pt 9.108155090242905 2.139974241047618 4.568900838288895
Pt 3.43518610748808 5.4122535416348105 8.907547893439533
Pt 2.185796267315252 3.854704535626294 7.2582818349929115
Pt 7.218192612769742 7.249139478903112 2.1456462177510014
Pt 5.004011897122355 9.155640465696305 8.60780460014928
Pt 4.0503079314611625 9.650307449894811 10.81104942593688
Pt 5.644062206800429 6.587816054230571 7.583962052847382
Pt 5.023827555548363 1.6487091449432243 6.446047094830018
Pt 8.06551031242123 4.936575274639986 1.6047776601328048
Pt 9.63666145936491 6.7092514473943865 2.752340504873733
Pt 7.336404090146396 2.4023343885913158 6.34547442756733
Pt 4.722111454221421 4.007819441032021 7.113213645249515
Pt 7.488546463208378 8.060256387330597 8.86040853156012
Pt 4.531546882019371 7.251950484128599 10.259084658492217
Pt 7.226351503042443 4.036286887312318 8.307122859999396
Pt 4.013643828455583 8.536701388691126 6.214983935222735
Pt 1.6527206137300772 7.791338479475712 5.423486016630842
Pt 6.536874817482574 8.814162297786693 6.526345351984184
Pt 9.375489945005885 8.923525988038788 4.004212093650281
Pt 4.047885181601847 4.9710187814077 11.328640885110453
Pt 6.801538670784445 4.938100484314936 5.811761673612416
