30
Energy = -145.83556365 eV
Pt 9.53769608103306 8.828526193558728 6.02702509910304
Pt 9.333953444993503 5.529672551059487 2.8220370803522425
Pt 9.428552354133437 8.118901839236761 3.5580542687481818
Pt 7.1854160371451465 8.886476784022719 4.823885068051176
Pt 7.274829795186897 9.063899524270028 7.433433366680274
Pt 9.642899923601144 9.325825050009287 8.586026730841327
Pt 9.035164695438645 7.554404900242177 10.421357363318117
Pt 7.106943171173366 6.808983483993007 3.3154058035025664
Pt 5.022528885616187 8.940253274561911 6.279832175744449
Pt 4.890485069512286 7.913089017264115 3.948911282607319
Pt 9.127411183840795 6.20628975275954 5.378519849995619
Pt 7.286536443727116 9.479711985697259 9.989754517379978
Pt 2.6514245778304613 8.67920072365349 5.176795046831007
Pt 5.112144142372835 8.572315275969746 8.841341517225983
Pt 6.405486758804721 7.187557510336581 10.734909178563203
Pt 3.259375316871123 7.392178065285964 7.409761864925681
Pt 3.0114503809923514 6.164094327954934 5.017006722452346
Pt 8.949562709811383 6.897225709238881 7.832176384689947
Pt 5.027456332564882 5.338190777315959 3.623915377809696
Pt 7.037058197353805 4.492548648453434 2.046478967853266
Pt 7.730151719936228 4.203538533030626 4.53127329218901
Pt 3.4737775892965095 3.616211090210839 4.921348641625806
Pt 7.782403267270135 5.399756385128834 9.540787649087903
Pt 5.766845149767443 4.696038425710942 11.071200896627944
Pt 7.963912434702862 4.630941623981752 7.069260360087052
Pt 4.388827035285676 6.091456039110393 9.318812741735664
Pt 4.120328455558523 4.938276463449262 7.052115911074448
Pt 5.6155246563624095 2.827274555612367 3.5198324846672677
Pt 5.888686998028671 3.297445900540618 6.08498557896183
Pt 5.903731008067297 3.8802794046199 8.584318593547174
