36
Energy = -172.36619446 eV
Pt 6.81541249659382 7.4243844307157625 3.281130690207709
Pt 3.0497047169293525 5.400259762268186 3.665054669146992
Pt 11.50185510567461 4.060946575233979 4.58135421796131
Pt 7.755128749095103 9.414759995793435 4.783735228997584
Pt 4.720573739825329 3.5783792765847946 7.188690436276254
Pt 5.16768009070198 6.790618497606095 6.56908590644307
Pt 6.714332572495102 8.555854242197077 8.2178298866167
Pt 5.521019360785327 5.336641891753761 2.4194622160427106
Pt 2.934440729626417 5.191340516752563 6.328985080905139
Pt 8.670694830704386 9.484105368347793 9.820432103144325
Pt 9.74043606407023 5.657924717356545 4.242844221421471
Pt 0.9918631644614726 4.843799952170433 4.867512116537961
Pt 10.259369135787933 5.440944318175695 7.020343376411723
Pt 7.276636834177891 6.802219011203718 10.073240394126703
Pt 6.224789910847496 10.477574338454193 6.588028570209497
Pt 2.953620843692457 6.82554845590659 8.253672150440265
Pt 4.243899732331873 7.518446444572825 3.010744500432547
Pt 5.729010465669985 2.8536463312201383 2.905386837373021
Pt 4.140548052395949 9.048498315240542 7.437287122171482
Pt 8.80345302751893 9.79192760703085 7.23281218911622
Pt 7.439647731054174 6.224087870895561 5.547072307431668
Pt 5.240466184720815 4.6033277112682045 4.857164683703356
Pt 11.50185510567461 3.295569357634784 7.02356550045819
Pt 9.280589208030714 7.402582259628022 8.365782669519302
Pt 9.579914508510939 7.738901198582434 5.820593274177917
Pt 6.70796890458944 2.9355854328997184 8.680382244957368
Pt 7.1980586629406105 3.3616466213806437 6.1883550321856635
Pt 7.7723350401283025 4.095137757843275 3.70948491788624
Pt 5.362046201733923 5.436372799289898 8.796582094566636
Pt 6.5032273661426645 9.027317357454441 11.234013755028377
Pt 9.6327928892438 3.347400797009246 5.396590132780872
Pt 4.798022479849346 7.835915929136812 9.774534201066825
Pt 8.387026885180958 10.429380547844884 12.076113067763028
Pt 9.295887083325375 7.9745591865425105 3.216486612031208
Pt 5.098372116909267 8.824667573388172 4.9656261026578985
Pt 7.885065268894228 5.18827165010461 8.078565589290326
