33
Energy = -157.48308406 eV
Pt 6.131077301592405 4.010314853755965 4.506784255956282
Pt 3.4983626502677074 3.8805548848997 9.932403759466316
Pt 6.3604671610657375 6.004669132500454 6.242216704448622
Pt 9.169896283334051 6.578135105675228 9.63232955565825
Pt 10.507329661467013 8.721381978051609 9.304552494204499
Pt 8.113228098576636 9.749778274127221 5.544945333097516
Pt 5.917167722576512 10.266104911280102 6.752471473414602
Pt 4.881191791866814 8.04807501452718 7.3912530166893955
Pt 4.65334641337023 4.947258623104117 2.606053100418312
Pt 4.162285788861549 7.2115583904929546 3.7691945330064067
Pt 4.825390660018618 5.692394553896162 8.541705948028909
Pt 2.241534561539083 5.556464237252675 3.22020137761347
Pt 8.456263516982743 7.492508635357936 7.213135275506495
Pt 5.2210108077549355 3.195242181595143 6.816451114281848
Pt 7.690404350453453 4.969271329784086 8.395975995156478
Pt 10.698982278193947 8.61943067169574 6.766595910467344
Pt 1.3908375589289488 5.170878951085548 5.689123968116569
Pt 8.400843482583463 4.2906651954163015 5.735394086548531
Pt 8.913025579220937 10.101575713278093 7.957441726826621
Pt 10.113495005947529 8.789983521797444 4.292564474040001
Pt 6.709914362648446 7.361796284371658 9.13800444078033
Pt 11.03320160707154 7.173280698742298 11.151281350239373
Pt 7.6062358673929475 2.5295873707589474 7.48166644730698
Pt 6.6414343367154665 4.695776628215823 1.1831571792088273
Pt 2.8472830701975527 4.0927317276124 7.533327820506336
Pt 4.025563343330486 9.337802379602683 5.2298355095641815
Pt 5.8778323072378535 3.3262600335164065 9.292560380339738
Pt 3.7373764423548788 6.163112225181353 6.051382169299355
Pt 6.2973746051316315 8.172581957628609 4.702305278637435
Pt 7.039446515630318 11.562631388957008 8.523831614519896
Pt 8.05539945096212 4.918296184994049 3.1790961909897493
Pt 8.545996738163076 6.839628412031043 4.691917544992858
Pt 3.5830576275222406 3.876525497775132 4.877096919628711
