36
Energy = -178.81590811 eV
Pt 7.054622297291221 10.80039763518023 9.639784089597498
Pt 4.93018193240269 10.186648326408124 4.989848303245315
Pt 5.870016063743945 10.555780989729321 7.383662282459561
Pt 5.274991231045448 8.869941842854548 9.370737795041252
Pt 3.4012135422378655 8.176393771767366 4.409002749670642
Pt 8.350760853567582 8.683063971301928 8.976023990670251
Pt 8.625090847315743 10.74690085218432 7.424688419931858
Pt 4.024058004088065 8.70553632214554 6.968159808418384
Pt 7.432742367724299 9.541137294358045 5.423760227379339
Pt 6.047690470049086 8.296480198236452 3.595822242016719
Pt 6.655506272580821 7.698048133858208 7.238441384637489
Pt 3.6656405631808417 6.8443596092674035 8.765943188064002
Pt 4.766210238164982 7.000250101885813 11.121552694277884
Pt 2.136638017084986 6.025507083234363 3.8112782343123435
Pt 2.6936381068575432 6.44815383503024 6.42046072425192
Pt 5.288193963781547 6.548502587958242 5.404691397622998
Pt 4.5464100856480565 6.139104603314712 2.803185724217402
Pt 6.9233091910192925 6.618792120795536 9.675494107102269
Pt 8.425304894463602 7.3196637965658 4.3702929652001234
Pt 4.3595246899396285 4.678298097337602 7.335637749519771
Pt 9.571161142441762 8.419094579353706 6.45753733031799
Pt 3.8564439415694767 4.285426037454538 4.802303679715752
Pt 5.029516377733089 4.748520516166649 9.8606171167478
Pt 7.110301131889605 6.33253186398357 2.3001280097708126
Pt 7.439939353446694 4.264468469024081 8.654744915174213
Pt 8.938681409462202 4.907097617806732 3.408186322466103
Pt 8.951638932103547 6.3339795924695155 8.05007207995748
Pt 5.413995967970023 2.5658411466624256 8.54199592934055
Pt 7.424373684894829 5.315002935068867 6.063888002632254
Pt 10.35987425380743 6.073932057098189 5.708833173517867
Pt 5.739874773728913 2.8970590310464046 5.892001708177416
Pt 6.298474638549684 4.29575963303457 3.7417761623523424
Pt 9.528753903689775 3.922318170583326 7.0825277501113195
Pt 7.707016817643357 1.9810555133090555 7.381518603926673
Pt 10.743414536024265 3.666912635028449 4.76617473709334
Pt 8.210075735369696 2.904954021255959 4.97001738787107
