39
Energy = -193.27008408 eV
Pt 7.793667239636293 11.091941747746285 8.87678699354651
Pt 9.576654030377599 9.614292206492497 7.591361118629273
Pt 7.058525512707237 9.415128244595744 6.999419557977746
Pt 3.0719793570411524 9.960237449192038 8.868089473119868
Pt 5.678899163925463 9.47833451623432 9.33291653326311
Pt 4.498331021171923 9.143587156059011 6.894567862303981
Pt 8.184818289693133 8.718766645648342 9.7483221239474
Pt 8.587443127669006 8.10712773784894 5.402485825814623
Pt 5.984821946702524 8.324636740481534 4.908427930724654
Pt 10.643285966028122 7.845324951481449 9.269892800028895
Pt 2.125764022810356 8.004221169887446 7.329092245375684
Pt 7.546592381968458 6.8318409022739415 7.566045017250624
Pt 3.9398683402670716 7.522089449419592 9.197290226193298
Pt 3.324183427523399 7.887403028366264 4.901327536385759
Pt 6.2772573784642915 6.948963248559268 10.137216741561982
Pt 10.858162517864722 7.527254227979497 6.717244181273046
Pt 8.820618532302802 6.393957597972654 10.635120692393041
Pt 4.758505063447933 7.70312490618004 2.7136346748590747
Pt 10.659680379619346 7.206352110258251 4.1446180384459295
Pt 4.657253620939517 5.033914655645766 9.371185295607203
Pt 6.1561899102806565 7.429083945403494 0.6674774985907502
Pt 2.109302734253896 5.6827372005212995 8.791833889248267
Pt 5.151648578836653 6.3348737716757055 6.812714496599483
Pt 9.74709335718468 5.512785537093538 8.364738034543933
Pt 10.058558242364086 5.267288539452921 5.791824772840298
Pt 7.052462215026768 5.856009035779952 5.044041867615137
Pt 8.955963736451851 5.476238567842192 3.3056446213435193
Pt 4.03952308773248 5.590600987692755 3.9904035051278828
Pt 6.440630772206301 5.707026998624129 2.4335100709531496
Pt 7.2999625889063955 4.712910687966051 9.164851216709732
Pt 2.693893616031303 5.659226903004746 6.229002409415698
Pt 3.1339075254429454 3.5434636863031557 7.73294528521285
Pt 8.330053882932448 3.7326139889891583 6.978519931844646
Pt 5.727583759854359 3.7387515805463796 7.313149973999692
Pt 9.260302559452045 3.1136560169099154 4.59728159109904
Pt 4.997871551878985 3.4746083332505555 2.9087218080457484
Pt 7.625314256351429 3.370327039562536 2.511585065961337
Pt 4.021079101352854 3.366983121409452 5.313727867059969
Pt 6.674908558569001 3.1948767209181828 4.965542580356492
