42
Energy = -211.14957296 eV
Pt 9.819797007835124 4.80336014215506 3.7106794043005
Pt 9.425717833210134 3.864578636005817 6.247428140432342
Pt 10.34651373856548 7.30741819941886 3.4522200945956816
Pt 10.212652766098149 6.324530652889375 5.930298653102169
Pt 9.201004824248914 2.276226503753449 4.103434793137577
Pt 9.676311027878581 8.141071726058225 7.752756125142501
Pt 8.184489108527618 1.5919083723965382 6.487410814140991
Pt 7.543830302677838 3.8695471943204987 2.719644761008147
Pt 10.6154498589057 8.961205789789226 5.423901247707882
Pt 7.0966949284283025 4.4337436321213755 5.206933279640614
Pt 8.05482063744501 3.199919720082974 8.54990451261097
Pt 8.110617831481832 7.56983134254273 9.773472989752417
Pt 7.90073513968478 6.57891217187048 2.829236677005932
Pt 9.261486911076314 5.571552498393221 8.242142320757855
Pt 8.597573217769016 10.077613510073549 9.18414912962735
Pt 6.510447160798413 2.059190021524145 4.4420741076447525
Pt 8.70902053595249 10.343389220012066 6.511869238181617
Pt 8.292662866232437 9.033487493488996 4.154194846154962
Pt 5.902773790702081 2.618094374329933 6.975065728043875
Pt 7.701697663379888 6.881483217037626 5.407033336909463
Pt 7.6801332268570475 5.059050334667089 10.338513737166657
Pt 5.537964649505933 5.42343697396137 3.03935515146922
Pt 6.634754701767724 5.586295264147615 7.494135511454875
Pt 6.72744361486428 11.389432430259934 7.841435908074133
Pt 5.636033522873771 6.706465009738772 9.829871576053987
Pt 6.205669231138253 9.975013304070114 5.5535088673072925
Pt 6.898683295920275 8.279490080216558 7.370088735359864
Pt 6.00197490056751 9.367165605987632 9.51018911324103
Pt 5.799869201993883 7.937897313878988 3.939600925802289
Pt 5.514764419693051 4.005643106361293 9.255824736323984
Pt 3.58667215044833 3.344382675698594 7.594758030487232
Pt 4.46270218425045 4.0607184821635 5.07353323896168
Pt 4.647933297354374 7.034547642692195 6.722125227617267
Pt 4.402604259092275 10.41532511334293 7.523737972164644
Pt 3.4109636647453883 5.559607805398149 9.006597537485462
Pt 3.70301845082347 8.208686684522124 8.913983262601542
Pt 3.7420693664010827 9.018593990501268 5.312147783848
Pt 3.5862102906257425 6.496733393150702 4.226910630231728
Pt 2.564713405314919 5.372666407962363 6.426317457378536
Pt 2.028378156123888 9.527588372962068 7.268322055568045
Pt 1.473278155040546 7.091711031468153 8.095697464623193
Pt 1.5247457850378259 7.56736163992304 5.4943719582197215
