42
Energy = -210.50220824 eV
Pt 3.1614219567593267 10.831217630498632 5.833059557103866
Pt 3.86771835475664 8.190430511020498 9.524294311486276
Pt 2.272051441543824 8.904398497645456 7.45089883282248
Pt 4.995832365548008 5.826719772775942 9.710584783339986
Pt 6.869355209039654 5.163676290395352 11.375014944960505
Pt 3.095393763982315 6.2674141394043055 7.940641146878565
Pt 1.4127984252429715 6.8601211963388335 5.980280785384273
Pt 4.145524587350769 3.837973773004471 8.145449916216386
Pt 4.440755274271194 10.357753231045766 8.116422888495608
Pt 4.508247926523797 10.270489801564175 3.6197180492668704
Pt 7.070029361756491 10.281244466096245 8.11723385056103
Pt 8.257178443175825 7.132752007495632 10.295331416188212
Pt 2.246509294141111 4.36502597000138 6.376396257918726
Pt 6.349496215695725 7.868512457431178 8.681684639170351
Pt 4.626411890403384 8.143018887522887 6.619496908771152
Pt 2.8552690306808297 8.497548651166971 4.603207394392316
Pt 6.356559993714281 3.44053231930058 9.475245062345307
Pt 5.863148840623535 5.607354504218982 7.026885619326969
Pt 3.6899470681046718 5.972147098717456 4.880429336137876
Pt 4.638934714590766 3.547726442274997 5.5416885052901455
Pt 8.994760302714699 8.468674727506826 8.11899788701591
Pt 8.602013971835971 5.672523832427712 6.876828435424746
Pt 5.836369690792725 10.476591608538847 5.821214376307828
Pt 5.321321191860387 7.750910863617028 3.8299941748418345
Pt 5.853756635311082 1.9552273153474218 7.438933059305569
Pt 8.42970880348307 2.556334810120772 8.003627022680647
Pt 8.447563168809742 9.912872954133478 5.921583374464681
Pt 7.151246768444504 7.6526722001722876 6.068346379250111
Pt 8.529164884293335 4.788894759452667 9.359032870294312
Pt 6.19305200605917 5.327671726620465 4.285810084154326
Pt 10.472810180187372 6.53609855399628 9.008821035363225
Pt 7.064132856191383 9.787762288000456 3.5046559130398913
Pt 7.213042090250943 3.34328812941942 5.750463287250854
Pt 10.514008482171317 4.186569723613719 7.650815640949647
Pt 9.577856616927146 9.193355646458924 3.640012094351235
Pt 7.887857522594644 7.184418714368829 3.549333826242099
Pt 10.184998654276898 7.857721295080552 5.788688493267584
Pt 8.816170308794774 4.888578083947484 4.376439849830388
Pt 11.858596294540193 6.347249803042325 6.87312564143687
Pt 9.746425570273221 2.719779580968402 5.64806058792622
Pt 10.570531269897959 6.722134058521115 3.549824102811811
Pt 11.376650540243672 4.673754796589828 4.9658125324848825
