4
Energy = -13.12341362 eV
Pt 8.218027558768053 6.746070313358875 6.457851553589495
Pt 6.689666983883259 4.811959956527327 6.267192122858557
Pt 4.783786886785954 6.26127677259368 6.516934987186029
Pt 6.314435102936105 8.186609489893609 6.763937868739526
