4
Energy = -12.72982307 eV
Pt 7.657570048717122 6.171646487600939 5.5416108103355075
Pt 6.031706597006298 4.716283313598236 8.130461339787356
Pt 5.842639170725407 6.805578040007729 7.076038255957029
Pt 6.477734128349592 8.31614210359151 5.261539538718522
