4
Energy = -12.29940448 eV
Pt 8.604785380438557 8.369843772588872 7.326457387159909
Pt 7.975379985402729 6.36392401835049 6.276555470642338
Pt 3.747978136004384 4.913741392729624 5.97537727541225
Pt 5.593280716246826 6.2739150344236405 6.343034084878118
