46
Energy = -233.48254299 eV
Pt 8.631845091180788 4.079919519434338 3.155541482452125
Pt 8.030983832111826 6.365679726828427 1.9790982472926895
Pt 9.523104888426262 6.3398812328253245 4.186870437420242
Pt 9.107612760007727 4.2164812204204685 5.763199556327116
Pt 7.145252561770773 2.051045840593621 2.291596527336324
Pt 7.727259549306263 2.1028865308532576 4.8122933795898675
Pt 8.16240661210147 2.271267419594566 7.329809716504196
Pt 9.39890260882295 4.51212608905353 8.40853940280229
Pt 9.574233578529164 6.588669466242404 6.803545626500389
Pt 8.619352390751319 2.4960683789654285 9.883202308745632
Pt 9.487960055520157 8.810462536777782 5.270836354838539
Pt 6.505311606864721 4.775668144369747 4.903322221188605
Pt 7.844087155966902 8.689329958746923 3.0521741037612613
Pt 6.171689926514678 4.495554721439958 2.2383280000279053
Pt 5.109329355349325 2.6197401607192514 3.8527470893256806
Pt 6.92805968109135 4.912053196092689 7.550265778110893
Pt 8.490157214222448 9.19621349368976 10.463268393523867
Pt 5.6561372992215855 2.4358005458714653 6.478173476564539
Pt 9.29246536186187 9.091730241352941 7.940431305731889
Pt 7.321396474778714 7.20161476771325 5.186961225065739
Pt 9.497897850677738 11.170333645222302 6.43176979390062
Pt 6.11667645012948 2.804458811298305 9.109589805036558
Pt 9.150951303717703 6.899417589640867 9.406999169258778
Pt 7.539354905337192 4.836768929364119 10.330413143230158
Pt 7.001619924162264 7.48533109279443 7.775611907990285
Pt 7.691405781212366 10.753745452939686 4.625343705614047
Pt 3.2604509868800537 3.2076272614254604 5.515982636331224
Pt 5.656867886485673 7.026860177381637 2.8643073066605025
Pt 4.582365518593478 5.377386954634295 6.556918782250557
Pt 6.5964428203921175 7.253873215154894 10.336279892810193
Pt 7.068612760768174 10.2942207552239 7.117746591655446
Pt 5.016944272751792 5.284534034589933 9.581134730583834
Pt 4.0239245610843914 5.099869469156809 3.714003119731264
Pt 3.781779789935885 3.311827890382184 8.199560273477067
Pt 5.461415230567544 9.453119498745716 3.929208898343037
Pt 5.043006493874917 7.8509655113342065 6.138887733668242
Pt 1.4157773487738199 3.9593767914107243 7.218025032478626
Pt 6.155784922568022 9.741252669016383 9.46011152902288
Pt 4.372601960214618 7.815166950454383 8.992376074059386
Pt 5.370812890290272 11.523515881194005 5.540266667641902
Pt 2.187633685686638 5.832134091424591 5.554033503087968
Pt 3.4166144907795957 7.63032809388893 4.1052468761511225
Pt 2.754436136668439 5.899382066488923 8.337280736883256
Pt 4.4070550791738645 10.077538175212865 7.549868937394006
Pt 3.1799700249546725 10.05740814832491 5.192006173921096
Pt 2.56913679942428 8.133234209917036 6.92819307120428
