43
Energy = -215.1751078 eV
Pt 10.943527491051904 5.800411247007745 2.903486079517583
Pt 7.367034183764371 9.341927864210403 2.9271392806910077
Pt 8.417928132168889 4.98490826203095 2.415436562799778
Pt 3.2270524555323434 3.9548819939054725 2.273816449311901
Pt 9.05917967466472 7.471204716465784 3.091099146338563
Pt 5.9085961261519735 4.38195977419243 2.1650608344750153
Pt 6.608625685533771 6.952754934690951 2.261406691524864
Pt 6.218869522364739 10.08774117392079 5.13076050994453
Pt 4.89226456833004 8.660018097953566 3.283646881932969
Pt 9.392111571966899 5.173507382003565 4.8897143098677995
Pt 4.15943215235806 6.253509937037018 2.808226623055176
Pt 8.58996807623606 8.964360489870957 5.210840499645569
Pt 4.621341291498846 3.1788450876312715 4.281207926526324
Pt 7.08715432288317 4.065109527946943 4.5380881231818035
Pt 10.792799517652373 7.422082674734716 5.118772108167709
Pt 3.567590965550832 10.179351524629881 4.946352579738876
Pt 3.1932153373390246 7.509287528121692 4.873923319003585
Pt 9.737384278595 6.221416792059157 7.225486765238067
Pt 8.105558134691137 4.258406330718919 6.926659243758779
Pt 4.8829094434452465 10.747800942611404 7.167074260323077
Pt 5.294277669793002 5.871034564550532 5.210275386950638
Pt 10.150429501452814 8.79017400659017 7.2393875450108975
Pt 7.598966077694302 9.987942968597306 7.589685526452106
Pt 2.6869601505855494 4.871575158601992 4.806842335997711
Pt 1.9671892013125318 6.313708544029322 6.8689021371404655
Pt 5.811515803174779 2.8965429027801366 6.515029104645821
Pt 6.466525099849155 7.852038353217026 6.434569805889231
Pt 3.168602740354889 8.685138096929638 7.1603449630959295
Pt 9.677889646459153 10.139768033329279 9.338051287447467
Pt 8.542426746582876 5.227813972790293 9.30021228218769
Pt 6.122733553547667 5.682426470096193 7.709862879945313
Pt 9.96515213142642 7.4574865089330435 9.545573023911325
Pt 3.5993664676788595 4.2642373836938114 7.20086015621921
Pt 6.927237208986069 3.1176360002373995 8.95946565825175
Pt 3.8531663222866794 6.625195749548455 8.64630827385731
Pt 4.488906275161029 2.094037471712248 8.587025747396984
Pt 5.350680992697841 8.748792964993815 8.703650084549766
Pt 7.671789346701436 8.583269056967875 9.788840585266273
Pt 8.25090989204154 6.677487890948481 11.500234974414788
Pt 4.574815843253624 4.413444393648894 9.750048742953531
Pt 5.883258292440791 6.739233786885339 10.261470083484458
Pt 6.910416094947307 4.5318235791345725 11.309138269635168
Pt 5.556006599528532 2.361327352977551 11.065230924469464
