4
Energy = -12.0382 eV
Pt 6.51436509178797 6.507970679016908 6.494513666576922
Pt 4.424732576522283 5.758462780151834 7.182344068222704
Pt 8.382140423986973 5.935715194627649 7.755057618990561
Pt 6.678304819501081 7.797394258002034 4.567627558008481
