40
Energy = -198.09528609 eV
Pt 2.523934352386706 7.9983280837001445 4.716803339074243
Pt 6.174811792979642 10.556265802562498 7.281761679163222
Pt 4.598958512052402 9.064125446716771 5.776513006772917
Pt 0.927802397908471 6.412066126610107 6.218577173444994
Pt 2.7352076991670327 7.935429738776368 7.364281392342618
Pt 6.885987932560955 9.946741014307767 4.846784978237656
Pt 1.4551778874399777 5.6287499935856475 3.7799930914127913
Pt 4.7652556702685755 8.881300068128802 8.674333336381526
Pt 4.0102115772173335 5.9370453564236305 3.8459783884608716
Pt 6.0769259592131855 7.4143833365819125 4.231778162974164
Pt 8.02904317589775 8.768736167974826 2.802774495574615
Pt 7.505736250761367 9.044857364472964 9.107241926498899
Pt 8.688083848556147 9.896498238515418 6.903844635809507
Pt 3.560217584115364 5.752652698496767 6.327779230087418
Pt 3.4511631111413985 6.84971702256149 9.662068426742925
Pt 6.523446415441538 7.543216190943003 7.103474880698557
Pt 9.52781337093254 10.257122846875193 4.435066470829554
Pt 1.7736316308119395 3.8994249514645047 5.772672492526774
Pt 2.082318980715341 5.066514127996538 8.292882832810493
Pt 6.04176076524181 5.057634455344471 6.5563734859182405
Pt 10.150150451737591 8.711258931163888 8.691691844391794
Pt 10.929847093035407 8.516913060360437 6.1512718391628205
Pt 10.50502180313015 7.997160444120911 3.5231471528982685
Pt 8.487214287835998 7.77107849718463 5.3994835088127555
Pt 6.042385551238573 6.7533280565166445 9.636238974793017
Pt 4.3646681081965255 3.483560259032064 5.250131454963044
Pt 4.6575434074958135 4.631035770847515 8.881801494636793
Pt 3.2841422454250133 2.711070844422724 7.578018754663753
Pt 8.502199369006773 6.1605123093753305 3.3914569378619444
Pt 5.907755195502575 2.6632705765905023 7.549779950304793
Pt 6.3764049513119705 4.739986066510623 4.001347098936259
Pt 8.482285387108051 5.718893763545746 7.0845714759563085
Pt 8.662161832722921 6.700198399647316 9.476994198380075
Pt 10.710515675881137 5.986744481406933 5.088615604927725
Pt 10.9331528862143 6.382531207192059 7.768506032771921
Pt 7.266735864898291 4.441660594567727 9.213706175977464
Pt 8.708868808522087 4.141455385528548 5.049345551422704
Pt 9.914560815523004 4.3139241797456505 9.096195209014013
Pt 8.462356041273742 2.8750185583294257 7.348096387325186
Pt 10.86225782986117 3.937306102602476 6.666333447766838
