47
Energy = -239.20205556 eV
Pt 2.04925841119995 9.602161258049444 4.37840381407358
Pt 3.17941772608952 7.355367219635288 3.584150881428497
Pt 0.8917406788504565 7.380508242246602 5.115005782156545
Pt 4.222766146347982 9.766667446945997 2.9570429414644086
Pt 2.137971806519189 8.920777002857005 6.942437616440968
Pt 4.291310743059022 10.48031842740313 5.639933378275763
Pt 2.453954693094878 5.250315531012524 4.9474223049362624
Pt 5.665366482754931 7.551751463863309 2.553794571666008
Pt 4.259802677568858 7.9583605464730836 5.8831211912952215
Pt 1.8351928224829446 6.285999949655672 7.321506988625941
Pt 4.491529770987986 5.029099944129444 3.218606506584786
Pt 6.424106258738798 9.670843572947186 4.169596302270901
Pt 2.647073840241278 7.825911700416017 9.264641978590882
Pt 2.2474801313840898 3.693827706108202 7.169944527086174
Pt 4.460920842146132 5.616277772232666 6.81229951439017
Pt 8.225968724141747 7.819141905156731 3.527436857681497
Pt 7.2611139789452315 5.386108750402242 2.787603049328567
Pt 4.606102506295244 9.271271985460679 8.097182060612436
Pt 5.989798808286813 6.3898125678267 4.826569323662475
Pt 8.794717360998279 10.093660619647926 4.9955607305003715
Pt 4.111765813076255 3.259211605751396 5.2692413571951
Pt 3.442923924617263 5.21307081232467 9.171239592164326
Pt 6.707301815825336 10.245335746349914 6.833686405454993
Pt 4.6760123915442495 3.1252433626674 8.03537760196618
Pt 5.0174155543938195 7.226230866892002 9.940307763455806
Pt 7.5811239026757145 7.838451155200291 6.230896189082267
Pt 6.344904148078276 3.1240094625349535 3.966643371995783
Pt 9.193935648913486 9.45950673534396 7.526447633085813
Pt 7.062965892881025 8.75978714240068 9.050504732929431
Pt 10.254656034995643 7.93257125135523 5.304723826462483
Pt 9.555885013758985 5.644885776146577 4.181297989750281
Pt 6.6510389213723995 6.273380981943605 8.045610872513857
Pt 8.843140697685318 3.315693427659715 3.1995508831007395
Pt 5.920902366378139 1.591780112969356 6.1817807745912035
Pt 7.4163631564970744 6.711033535645537 10.76671164480989
Pt 6.709198496280276 4.386176302123173 6.237316975255629
Pt 8.879566365611998 5.646710463719925 6.7843264438335895
Pt 6.022418496782991 4.537307828768357 9.859891600514443
Pt 9.371242477192112 7.38461179527506 9.183667210801683
Pt 11.36683486397284 7.882180809960982 7.674579685007751
Pt 8.40400932326899 2.406265132560028 5.7147107088918885
Pt 11.389878630795874 5.71966368624545 6.18113445536176
Pt 10.709759234516698 3.4349568534355175 5.104539734821353
Pt 7.3102258481001785 2.772873628161028 8.197171315486942
Pt 8.647347177965754 4.760330504325068 9.47429581117466
Pt 9.914270942040304 3.3942626319081897 7.654130166464969
Pt 11.144434805737909 5.414603331331846 8.826616873223154
