44
Energy = -220.53734573 eV
Pt 2.3267366922175325 5.286751534346571 2.252899468227458
Pt 2.445447724485837 6.713701849510989 6.527886238507027
Pt 4.734860507268998 4.401881818814619 2.922635505266016
Pt 2.738423284763123 4.725585084445223 4.7931789557484485
Pt 2.6655900041584037 8.866665127384882 8.160456327920075
Pt 4.376339155371735 5.8491979876100375 0.7820577756362516
Pt 2.500871708740913 7.277176057318936 3.862654132829317
Pt 3.575234471309667 6.445224317973931 8.893465445275199
Pt 4.916322583882852 3.204905783839926 5.219540152846738
Pt 5.036199563296416 6.484306846037678 4.4772589323914005
Pt 2.6365373252872315 9.218960443059613 5.56092642350282
Pt 3.385089228231861 4.340855875172881 7.272073147525685
Pt 7.075434126534336 4.336446228866407 4.082758185653363
Pt 4.863232111491698 8.854973683816459 9.493008633207708
Pt 5.394902218576918 6.572816031372994 10.794669011357987
Pt 6.74303541626806 6.046981486443389 2.0263448786828704
Pt 4.641714281483223 7.868595084251291 2.343898964198577
Pt 5.074105619198077 2.3078508105594024 7.733982993179516
Pt 4.9942481730560075 7.623897479440599 6.913405706351078
Pt 4.895742169636457 10.194851570323664 7.077216851615991
Pt 5.84058319754856 5.242549019114081 6.665386777650382
Pt 5.277719627963224 4.475824213425178 9.251665715057715
Pt 4.971610447075353 9.23772327236032 4.544296681726331
Pt 7.074048317067027 8.394199635999168 3.218702608768956
Pt 6.884157923963769 6.732999296474679 8.59309303865548
Pt 7.339800005719716 3.106558745592797 6.450499577541207
Pt 7.176287992845331 2.790997131956314 9.139300883833965
Pt 7.0695650171287925 8.621701541196236 10.921459047853185
Pt 7.492041576641874 6.923277946006826 5.504731175590187
Pt 7.219252491771 9.463462171887501 8.407848045489038
Pt 9.198958200333928 4.0937391657711455 8.083573899905677
Pt 8.005827758544669 6.163779207486224 10.874251535543388
Pt 7.235866605970943 9.575556261513457 5.824340058622188
Pt 9.025745373458422 6.15382069929517 3.328577186916272
Pt 9.192340750337797 6.608879067300264 7.413768970949972
Pt 9.302447099418943 8.635515582688193 4.479886516045234
Pt 9.227562924108325 4.725212845646936 5.581507545967574
Pt 8.971260023243838 3.8303326454514273 10.681210713022262
Pt 9.307661450703884 8.224944954707423 9.57993355489226
Pt 10.458117233703993 5.763060477911804 9.687325691714115
Pt 13.00709544842759 7.294905585827646 6.308708093071986
Pt 9.548280309647877 9.130505746002525 7.0688980066645835
Pt 11.502482362959862 7.659887304336519 8.241811630194913
Pt 10.878248751271956 6.7559696365748625 5.185932569515473
