4
Energy = -12.31040715 eV
Pt 8.965771168487437 7.475294568708358 8.866594772457368
Pt 7.817616719916156 8.732503126661669 7.287433607073696
Pt 7.914670561013152 10.391737440850983 5.660216312930463
Pt 8.593788406747047 5.853404539830506 10.499366887340628
