53
Energy = -270.47998045 eV
Pt 7.434903230150108 5.757744146998809 2.4016420086361445
Pt 8.205318592560728 3.342669253853934 3.385730075555481
Pt 9.99709653550026 5.117302701406665 3.0114843321257734
Pt 5.550850131665218 3.8899119387962897 2.8523656684565704
Pt 4.521166710245549 2.869065123827056 4.987567627503042
Pt 11.712161272269807 7.034849801462526 2.692175921089892
Pt 7.47154963672496 2.4258675278048147 5.661179537181864
Pt 4.84638286627942 6.380961019027226 2.6138001028862043
Pt 9.201567643526868 7.7798619529328095 2.561040583209686
Pt 9.501117206185315 4.14830036708876 5.708420062107972
Pt 8.27975827867768 6.725338492134875 4.771678968416765
Pt 3.022109965006372 4.897948713267069 5.965715503554403
Pt 3.1154488173524513 7.023733280904168 4.552648768318778
Pt 10.979278072711388 6.359899292406397 5.106751110228966
Pt 5.556203498293216 1.621309510430438 7.18955472146017
Pt 4.138772849007372 8.915515532319894 3.0298015284252737
Pt 7.4086576603411105 3.250751824641924 8.331289432231237
Pt 6.5119299212046835 4.744783351503536 5.114767036880637
Pt 10.584825582079139 5.8374430783405815 7.546288063704085
Pt 6.7113338127767115 8.43080930726914 2.8043961699152917
Pt 11.025854688308335 8.931211807931826 4.298381763025772
Pt 3.033863584206909 2.5743831997585684 7.239023795626463
Pt 7.856423493573254 5.7839020488683754 7.157666897983961
Pt 5.233949602136703 4.258029630793306 7.295860122918057
Pt 8.729413747939404 8.414727412203575 6.601079773362136
Pt 5.706376726815044 7.20390057453283 4.9520892813698225
Pt 5.024653126554899 2.8227053801522906 9.48142292374414
Pt 11.233684791832232 8.339824762974942 6.9652916386982024
Pt 8.962124833476288 5.1066623752584 9.431492851422384
Pt 8.50831790568192 9.793401808721082 4.198645923891304
Pt 10.276309732631955 10.77372952901614 5.925470909376249
Pt 3.699710948791912 9.39513723687401 5.636641252055519
Pt 5.92851846658048 10.39113871161765 4.446434773058846
Pt 5.320165250097442 6.752895712005674 7.532309778671267
Pt 2.7079003920339235 5.070044829023537 8.577609913342732
Pt 6.5794112945301135 4.7185427590789075 10.428940092414997
Pt 6.275788191071652 9.012268682907258 6.726134986592968
Pt 9.870838484505262 7.706287354524039 9.253950902467444
Pt 2.8355889745469396 7.323271638559249 7.188441665503809
Pt 2.4847475877581187 2.825262858966983 9.842392551296697
Pt 7.161442011699926 7.85697099377468 8.885792967520912
Pt 9.321931183627019 10.279257938743411 8.292148116579137
Pt 7.652439558204833 11.304802764951631 6.273784442936992
Pt 8.043779521732022 6.809996238458315 11.113220586694672
Pt 3.943166399755901 4.801678059904049 10.870306265817199
Pt 4.999834147716308 11.480862591878068 6.710207625066157
Pt 4.0616334303767445 9.483691676580976 8.305286987072586
Pt 3.785616852569472 7.233074777652684 9.68109458494891
Pt 8.266296106446179 9.568635670434961 10.545120132443039
Pt 5.380168225247934 6.707268876233921 11.742773110082158
Pt 6.632429995649061 10.754720923095544 8.72791061481435
Pt 5.497565486899482 9.090003793557104 10.476660130908463
Pt 6.9287209263509695 8.589575484756905 12.623081082747099
