50
Energy = -254.34752626 eV
Pt 8.788352865147603 7.960542919676331 1.7858666240548915
Pt 7.532107346191411 5.683079998507256 1.4199692172515006
Pt 9.953284326252403 5.667410993204874 2.640730141421924
Pt 7.713272593210802 3.7536381994470975 3.184742015195287
Pt 5.9980852727642855 7.638693241425148 2.3736615293584316
Pt 10.078859306910665 8.054873637696812 4.052683353070474
Pt 10.133055031142455 3.431893326894432 4.096487450105174
Pt 7.641609913324392 9.414244682599309 3.6973807491031208
Pt 7.8219647302152735 6.399751018436919 3.9832313764465233
Pt 5.3140419921125845 4.901458102679785 2.626539426207842
Pt 3.822404738403332 6.901130717157797 3.6013907431038352
Pt 5.551219841623755 2.8873911733383406 4.480985459671022
Pt 8.03983309144922 2.1669981204980386 5.2614983337331775
Pt 10.589963305392132 5.685006026948623 5.274775240196813
Pt 3.3043746536790572 4.32724628971947 4.65973039390252
Pt 4.931521185553689 9.674985296253467 3.8275899257026555
Pt 7.849854614115401 4.648093817121598 6.050117641683934
Pt 9.169483191642373 9.65266370938806 5.94193567258686
Pt 11.18901709981675 7.947474422871825 6.434098165967218
Pt 6.100510224797598 7.958690683839096 5.328131850360022
Pt 2.4624420250996653 8.94976308336947 4.494695121613399
Pt 10.029251156207648 3.4937550072892383 6.760989595021559
Pt 2.0312056011782027 6.589725041165105 5.501057743849952
Pt 5.569479784966419 5.4247099159734065 5.170390759713018
Pt 6.622172617849731 10.529694789487394 5.868334510790908
Pt 9.516379859747666 8.482508923315299 8.437904039142579
Pt 4.2384631282302365 2.684491695131601 6.683749948601679
Pt 10.242189319355708 5.878804760540512 7.9268827043352665
Pt 8.359431759592047 7.206310998466133 6.403742034759614
Pt 3.9952026826705205 7.541634755276038 6.838661416693836
Pt 3.914648534593733 10.11925782766545 6.277928821592428
Pt 6.820335313250653 2.779500470419612 7.516819895062947
Pt 1.4912890310120026 5.2212390086203095 9.352990070791927
Pt 4.711077970494066 5.211079156710308 7.59643735554246
Pt 7.112903622765826 5.80343159895206 8.313605142298131
Pt 5.5153618174692856 10.593386326917173 8.371312449742748
Pt 2.242531226054402 4.518729268545305 7.0236657438591505
Pt 8.756392943433708 3.938976580673604 9.060735108437578
Pt 6.267002457651101 8.166912198726077 7.8911786576017535
Pt 8.951590528451314 6.547963997011045 10.154206695115981
Pt 8.074523311554008 10.667600598554717 8.095502444584465
Pt 2.4281991445597915 7.548464994501436 8.898268215911854
Pt 5.049044346532995 1.5641316004561387 8.955128245682364
Pt 3.9957248774539473 5.740691875154285 10.151593249112041
Pt 3.0253339685601763 9.987046037113005 8.71290228208082
Pt 6.04104541773236 3.8872335848015602 9.839298758435161
Pt 3.255303009671856 3.347279813339 9.25480895932054
Pt 6.396214420144235 6.453420178494007 10.709210447737387
Pt 7.426948850103727 8.854549338180453 10.063462206549236
Pt 4.744035811711706 8.360211525148323 10.000499790678864
