54
Energy = -277.46261754 eV
Pt 3.052455032375615 4.986706545173163 10.536150368135969
Pt 4.417993112008453 3.058775794280603 9.209067303267059
Pt 6.887965413125836 3.138971843980626 10.392402726670863
Pt 2.482430392317977 4.603259684958255 8.003398425086598
Pt 4.700424856362616 5.885397686231869 6.208217455154473
Pt 5.685802973868131 5.255022340886475 11.239553520972215
Pt 7.1078846257361255 5.1183644540386 5.547805253591855
Pt 4.096801225317687 7.298017580730636 11.446276834921017
Pt 6.984893413421866 4.403740891804114 3.0045990384179837
Pt 4.927036706506527 5.543049610568545 8.76050674930043
Pt 2.3137345566590826 6.884868458042001 6.488038097013293
Pt 7.357032209232145 5.19710587458287 8.106655823751098
Pt 7.418578062592803 9.877484631658529 9.521730095780086
Pt 8.279336883609274 5.456262851924186 10.581707358590243
Pt 9.274315518948159 6.594729899718359 7.146281881207798
Pt 4.734162299972809 9.191386732406297 9.728244447070749
Pt 3.1297272606618436 6.264614365658413 3.84317981862864
Pt 9.116265464829382 6.075798697155912 2.831581714724409
Pt 6.765656253539034 7.679599816521502 10.97593938773512
Pt 12.261799357031638 6.187136523628858 7.102413455163879
Pt 5.800346908882346 6.83243905212774 4.047136872913815
Pt 2.2389257028964122 4.405811398877467 5.399854295430554
Pt 10.591256687492933 5.633258142447225 9.214939562213008
Pt 3.2599148220253995 8.739644150132566 4.782413008608185
Pt 4.320075079780009 3.2185547363832616 6.508550514291317
Pt 5.578722148844098 10.72151687427305 7.786940878480202
Pt 2.919573951491139 7.263217303541778 9.044811667928077
Pt 9.095437269969805 3.430434288221543 8.942556503918057
Pt 4.12117890227713 11.106545124833854 5.641133510173241
Pt 6.33595915886493 7.62477416030405 8.466581357161024
Pt 6.589278737076486 2.6414618285248603 7.813277706073972
Pt 5.551700476011291 8.434699331627144 6.077266830198342
Pt 4.837187448115237 5.467378887553138 1.8840468291621186
Pt 4.518223944374885 3.8785640947792945 3.9910566713552664
Pt 3.3378581698507896 9.23548824251906 7.416183698552751
Pt 5.210127386631863 10.127948161777764 3.4828951282431286
Pt 8.084668401717046 11.608013972362738 7.518726099499901
Pt 8.249251425302079 7.371182574012342 4.864548601616838
Pt 10.531793501673901 4.266689238672025 6.854413633180366
Pt 11.567118714367219 8.04998272219391 8.823669014920565
Pt 8.003661173665268 8.848996842061224 6.940699887515751
Pt 4.347877321443696 8.042454139659352 2.308952703082875
Pt 6.771579710352279 10.889549403205304 5.354779711613246
Pt 9.184160522668938 7.834932188338597 9.914788479614757
Pt 6.572869790924783 2.6624862514115835 5.171080405976258
Pt 9.907310311799353 9.95069202231801 8.328397245152496
Pt 8.83577776142595 2.347663902983731 6.505884931146834
Pt 7.002823898852078 7.306918399504379 1.8651687620018895
Pt 9.218509046829482 4.0036516994654985 4.493604718336115
Pt 7.8339128242631055 9.41042666606108 3.2870127034600234
Pt 10.311172419359636 8.55457687440802 3.7833329336068298
Pt 10.80931621046464 6.127286166654784 4.849545626035766
Pt 9.39073397877821 10.442835392825407 5.426382293792803
Pt 11.08326460517425 8.470671879426638 6.29947871052613
