5
Energy = -17.31846277 eV
Pt 6.715808278831781 8.565658475284335 6.66815642930923
Pt 8.462172695797795 6.8226692613338855 5.992934436574728
Pt 6.291871543806496 7.031708738695626 4.677631851780361
Pt 6.242080655761944 6.051265508474201 7.084753193980519
Pt 5.319502461185395 4.554923369587276 8.602935952920832
