50
Energy = -251.42673447 eV
Pt 3.0193043070459957 11.365452909344373 6.602274125892155
Pt 2.3918994685383583 8.933965128855375 7.678336618183207
Pt 5.690392686527438 11.816255145908308 6.341200140387094
Pt 3.748095269569073 8.434239797051493 9.907690498081122
Pt 4.805858992427649 10.297661484010955 8.297432291009919
Pt 4.050059453497727 11.243590892946129 4.057958912650222
Pt 2.1979035180569126 9.382696240873182 5.069576954842681
Pt 2.6264117100877113 6.357779268012541 8.553851730169782
Pt 1.6769398083944063 6.99935488238525 5.984036293430133
Pt 4.7648317649026195 9.441975633916925 5.674491416971653
Pt 7.362945034587494 10.133924239197768 7.596519211109033
Pt 4.614314577413563 7.492187360553901 7.39813381990497
Pt 4.925066066185464 8.894456224921726 3.129997620609992
Pt 6.379766047849883 8.452614383316533 9.39502115935861
Pt 7.279435503457549 10.155511990134496 4.795979341716536
Pt 5.037035854432815 6.10906184824781 9.914232065595787
Pt 4.04733337993175 7.01139499711779 4.890084575618658
Pt 8.799300571141462 8.03774408285647 4.191548244232856
Pt 4.105419575149164 4.0863709745414925 8.461896480048587
Pt 8.82943287115834 8.103467790225006 8.421221415991484
Pt 6.851241580318248 7.921277133743058 6.103042954571021
Pt 9.51526210307589 9.44593327806975 6.221530190972407
Pt 4.002616832273517 6.60550282314959 2.2242298690321647
Pt 6.444773709648713 5.708669844811838 7.531620417460554
Pt 2.3039998351272377 5.283537027587338 4.039181350162816
Pt 4.657021461109191 4.647392809594099 5.924329104474445
Pt 2.1629108966022423 4.515379756188814 6.649511492751433
Pt 7.186270158623317 2.048044070329023 6.628493738942875
Pt 7.711345513870874 6.260965597996088 9.883226304211398
Pt 6.361213890471207 5.492271560880808 1.5403486830144468
Pt 6.443468308636441 6.750000618918745 3.805743264845085
Pt 8.783865136547703 6.2009817339965165 6.17088093635814
Pt 6.479653155570444 3.8558773306867913 9.581641285515937
Pt 10.754105521619197 6.276691334843548 4.449508743916718
Pt 11.006835984288927 7.348491014014316 6.927020626448941
Pt 7.131330111452506 4.473620191755791 5.193259151082188
Pt 8.483147543066558 4.1086156257048385 7.673719859083347
Pt 4.774876267542617 4.288735075750777 3.1922085559317144
Pt 4.641831776060205 2.1280144530747704 6.842058685014062
Pt 3.162796657246324 2.8554963382603096 4.704376924803082
Pt 8.776160674911063 5.831268223508422 2.73873243625825
Pt 10.150094164943429 5.7995822146952545 8.894462731838463
Pt 9.021972928866518 4.020938231707504 10.521052051130157
Pt 7.4517642232426065 3.4522641771860965 2.827479390322411
Pt 8.32102056265717 1.9016964503445668 8.978298746938485
Pt 5.814820691294294 2.1642497180139117 4.429656108068484
Pt 9.564537204943486 3.8099433784955474 4.319423009986181
Pt 11.027457246264232 4.606891724691636 6.489315903678253
Pt 9.799442679266997 2.1970721607020027 6.356553604906028
Pt 10.78422725535207 3.138443427890099 8.70218871140876
