7
Energy = -27.10908326 eV
Pt 8.928500360374892 8.111259944632096 6.6616531291929775
Pt 7.000657231124126 7.211630237835732 7.89733451338931
Pt 7.4204830919206 6.690945149738896 5.2875285565590024
Pt 6.015289550218887 5.241005560369379 8.98419465049391
Pt 5.052369888106794 7.432747047033701 6.004577666725032
Pt 5.6773952708245465 5.062247913777641 6.537615820809149
Pt 5.370359542005805 5.715219081188205 4.092150597406398
