7
Energy = -26.52091226 eV
Pt 9.118224456325123 7.551548102506561 6.975661502782613
Pt 7.764680565214727 5.563128568449091 8.016811547068912
Pt 8.297487987406488 8.638828050855775 4.765983087750503
Pt 6.73365773569612 7.174148927329394 6.227372092877806
Pt 6.965804786960561 5.916860891427867 10.36416460712968
Pt 7.4354010159782975 9.601643292125488 7.028506490686347
Pt 7.109090647903201 7.918205598720544 8.90449704291743
