9
Energy = -37.18816367 eV
Pt 8.199595872024144 7.571440084946476 6.027335744263057
Pt 6.927414549375587 6.9018407686489915 3.9314904061052482
Pt 7.132302062470373 3.3171595914867074 7.1873496113302995
Pt 8.267258331042825 8.710577969116573 8.246410484262888
Pt 7.686485836945893 5.129411386250224 5.571012503138783
Pt 6.154601732498232 7.68485075433963 7.4522256359527415
Pt 5.623338885504337 5.272119454247477 6.9751350046635805
Pt 4.813458008030257 7.078427559769775 5.3951438135766505
Pt 3.708829266361899 6.847456975447564 7.727181340960166
