9
Energy = -37.47971218 eV
Pt 8.090915450540871 6.715852765043139 5.535285365997715
Pt 8.46546432753342 8.6382574900548 7.139047982574977
Pt 7.823723096482232 4.6145366919937665 4.3024885691400385
Pt 7.086324845163173 6.746594016356619 8.10010732931459
Pt 6.594516540865894 4.60312750343301 6.4269897334824755
Pt 6.2040565769914755 8.33362552628864 6.046287576936896
Pt 5.646491931793328 4.776986075747873 8.763826973858665
Pt 4.678360051993311 6.1961680331192985 6.900609457085084
Pt 3.91549605065847 7.8802007699847705 5.290705883631229
