9
Energy = -36.53258531 eV
Pt 4.9117138067685095 5.35008094124351 6.701062986854387
Pt 3.8278926550793275 7.62667343801342 6.71031637882262
Pt 5.15631734958976 9.753618395761524 6.69038559098403
Pt 6.335542847447531 7.466179776570531 6.703960935450643
Pt 7.471065974847685 5.098630487688352 6.701786194516852
Pt 9.964535879485533 5.081595868808822 6.696727072915566
Pt 8.845864528963169 7.2804097328620445 6.7007059461095055
Pt 7.828898495215571 9.533915395692656 6.708269985238214
Pt 5.968272024820238 3.118999662162161 6.69688851685458
