19
Energy = -13.31487283 eV
Rb 4.183364807944968 7.86231368926581 9.892730127699135
Rb 9.938083613748917 11.840438058286942 5.554770185195545
Rb 8.50054763671455 7.34441532583087 7.880703364535598
Rb 9.099556069893781 10.52710815264617 10.389288269584446
Rb 5.49665942787311 4.390239822155235 6.390785584859988
Rb 6.78386590970257 3.9633941074476344 11.143046895249858
Rb 4.908928290624049 12.254499442491321 11.919692128024995
Rb 6.780655925279852 8.46687499902199 3.666269073496928
Rb 5.371737749231763 11.586896166241221 7.1077103509577055
Rb 12.610000110923265 9.884356131627706 13.45409984925263
Rb 14.56838791028366 10.900010483600434 5.302670185336864
Rb 13.328037287035313 7.956839016581739 8.83699597384706
Rb 12.956033166218702 12.948750545204193 9.508799886466022
Rb 10.796218416437572 3.4830586982586156 7.832264978517207
Rb 10.980072112929976 5.552457704140825 12.308611108865351
Rb 9.201832190364506 13.320491328768293 13.992275511342083
Rb 11.510788963255493 7.195902875308011 4.269483162614109
Rb 8.336155810745716 14.986234704046868 9.219923980543756
Rb 7.344573648863443 8.231217797146144 14.025378431681796
