18
Energy = -12.48108701 eV
Rb 11.946915972871727 11.607196175135742 4.708391600210017
Rb 8.704970832506955 7.877959834280007 4.3570512141617375
Rb 13.075461480976474 7.662685331337014 6.598321713939172
Rb 4.863475039497353 9.462888696572838 6.975490465139917
Rb 7.369342598878582 12.588691858257183 4.915175388845334
Rb 13.549026129448213 11.491456264631596 9.436261724528862
Rb 5.792816820255381 5.058348625128221 7.217376583939864
Rb 10.314421253534617 14.682076586682074 7.780464480304051
Rb 10.367087707168942 4.0562473448819265 6.972644914438848
Rb 9.287762058658734 9.304704701391989 9.335804800139277
Rb 6.296832255964727 12.995072571091884 9.85327366405287
Rb 5.249332258237418 7.750397023699783 11.440446280871383
Rb 8.126752453949969 3.8990607456720414 11.0264448530569
Rb 12.417033985389354 6.100229500575212 11.06392759363525
Rb 10.446581359449175 13.961349725603032 12.318550652791329
Rb 12.26029200228842 10.008001323122489 13.816411526616823
Rb 7.357114345937941 11.099732131575445 14.132348684975424
Rb 8.997258178212153 6.8163782935881 14.474090591578937
