25
Energy = -17.88905885 eV
Rb 11.886656546409656 12.522733901260839 3.4014545484153413
Rb 14.077258687445008 8.106857575309531 3.482499872368801
Rb 8.91833293719606 8.236322616021235 3.9570284665128908
Rb 4.439154891802713 8.8879068450286 6.058600970755361
Rb 6.6671127276211095 4.426966019942103 6.246745985710795
Rb 15.86813235353558 11.875286448297839 6.014626297061192
Rb 7.686428572659686 12.413109853050909 6.270360721266999
Rb 11.440996250243225 5.030604743661868 6.980703932653446
Rb 11.950919739176877 9.735739289570317 7.13555591810351
Rb 11.974659748840446 14.351864384390835 7.8898674461497285
Rb 15.806433126044576 7.387836366278393 8.025085622354787
Rb 8.002765058846785 7.850415757269831 8.690043791762971
Rb 14.477960169929508 11.180469901070266 10.84414656302717
Rb 3.9271936850104834 6.465035494615263 10.63215042154562
Rb 7.479681298237089 15.242284900268164 10.170057119771121
Rb 12.173608807710995 6.77796482724323 11.41263155047678
Rb 9.650235966639787 11.239933777155313 10.874780521299211
Rb 8.191522026320733 3.829996847659037 11.020300139275948
Rb 4.781258810033397 11.078708792145704 10.46848469802054
Rb 11.511509624551364 14.59748441822798 12.993235569316118
Rb 7.633749859632354 7.818562379226287 13.58058554193906
Rb 4.744521341292594 4.4781326369018535 14.803141559651731
Rb 3.2869912944325046 9.158910137814212 14.745777810700003
Rb 6.8597428965012135 12.363844377953138 14.591945250612556
Rb 11.726750387897978 10.106604517649954 14.873766489260223
