26
Energy = -18.62331643 eV
Rb 6.534993733688546 12.872712705688619 12.284980873379862
Rb 11.612624550335815 8.16700950465323 18.842811188436073
Rb 10.63099058075288 14.074774645741732 13.080654376978345
Rb 8.791632488186654 5.816623556847631 9.09240955680568
Rb 16.388248611152232 8.298362671924863 7.6841239231015015
Rb 13.909376560665889 16.29069202013943 10.59167344876349
Rb 12.653051714450848 9.73029185600968 14.245057084856152
Rb 14.191044523794027 11.444457748852411 10.154041029871095
Rb 12.750283525194147 17.256434659912667 15.883812271427903
Rb 5.958548988475876 7.921535934053411 12.640911512857757
Rb 8.06856736700116 10.432657552652138 16.095783011307084
Rb 14.63441240692793 5.981232046709233 15.55438968619247
Rb 10.254935530985142 13.601522454631175 8.514618978686476
Rb 8.698894119573797 11.960749721005785 20.72010898902389
Rb 8.083196529141425 15.159525766137945 17.220534323778754
Rb 14.16874828253386 12.459474590688986 5.9473981032884495
Rb 12.453257631621646 12.867003149837755 17.564032385962456
Rb 11.525556586056677 8.565022786217325 6.884676418652369
Rb 17.24428918934677 8.809255111530067 12.810565357098204
Rb 9.761025911721095 5.981232046709233 14.298099877350694
Rb 13.40449862717971 11.544447063802094 20.751658024745396
Rb 16.262682481055393 9.779994872770626 17.588840357405687
Rb 13.433268824824223 6.33468025230727 10.604225768346186
Rb 11.489702264791422 16.08359293941117 20.751658024745396
Rb 9.55580609983562 9.747740650008375 10.834727802203087
Rb 15.930550539423951 13.512810245353363 14.159515099082714
