22
Energy = -15.49748265 eV
Rb 8.076764996418705 6.82149416156419 2.737158435248965
Rb 8.734660699680493 11.672605102572119 3.8998686605275523
Rb 12.341381223522772 4.486147897977892 3.992936163043987
Rb 15.333196434715546 7.46932454367138 6.739103430751406
Rb 13.354112268542789 12.06668656918804 6.44292488758283
Rb 10.817993125250206 8.239112928641042 6.1669425498588915
Rb 5.148548976091105 13.56353831526323 6.938706365540628
Rb 5.6406390659952 8.870004653689998 6.334884024318641
Rb 7.887784433960195 4.525229753786226 6.927970075785786
Rb 9.191002086672572 12.038337942810088 8.502751291710767
Rb 12.19567998773811 4.892746835874862 9.29635919766734
Rb 8.636385249269205 7.859897251243903 10.187008132444301
Rb 8.102974352097057 3.6013015435895492 11.813899538048446
Rb 7.285749874735788 15.089499927448717 11.510573514878775
Rb 4.336774591834167 6.105452317755664 9.972235039323369
Rb 5.086941856372801 10.888591423417495 10.963703519268499
Rb 9.50060266633478 11.26157239983146 13.353741108428858
Rb 13.309366287990374 9.535674636231802 10.560273457247874
Rb 12.439997139573954 14.208316375783445 10.92781485346361
Rb 11.332713987996305 6.681646587056407 13.794109155115656
Rb 6.448930086419896 7.612522397728388 14.26279720049893
Rb 5.430263249028186 13.14275907511462 15.30670203948413
