34
Energy = -25.15743934 eV
Rb 15.61948562065759 9.78512567943825 4.715724256481285
Rb 10.507145364057717 9.212394911098547 6.182638333392446
Rb 12.912233187285272 13.503243988454091 6.732672467460653
Rb 8.330262400926383 13.489042293577903 6.953414421061999
Rb 14.331508668898673 6.20835869155128 6.913428223166862
Rb 17.979737742664987 12.890146309822358 7.218232451317548
Rb 15.597548503404635 17.19078760050796 8.463273294528584
Rb 18.76981154529938 7.820087554015671 7.595544368619035
Rb 14.233996782510584 9.48916381665433 8.5773991971187
Rb 7.068744401080425 9.152572739357113 8.725224461748851
Rb 10.5446532212851 16.332481998979635 9.910996726653304
Rb 10.274708160820484 11.406321687318167 10.144856422959633
Rb 10.731406709568187 6.364490691671278 9.813493258986389
Rb 20.4507857276286 11.136016457741135 10.217207829893344
Rb 14.277764284340236 13.639956461470591 10.818420379503296
Rb 15.708996038990653 6.364490691671275 11.256661553605328
Rb 18.990167958265754 14.943792974275645 11.78294667025407
Rb 7.221741686239111 13.378492105051091 12.11664208146015
Rb 17.36560806266737 10.198214513593685 11.706233749882594
Rb 8.313635395061082 8.527268796108158 13.353449320939083
Rb 20.4507857276286 7.055399067900088 12.750934858947268
Rb 12.251900163365507 5.660060482733667 14.408609685657867
Rb 14.724558250803197 17.464179371485358 13.588532382744463
Rb 12.455297426514006 9.53784489306923 13.779972768202537
Rb 20.38637535533748 11.459875285589797 15.303358455520483
Rb 15.57082593984593 12.835482784604105 15.151792315298719
Rb 10.797294459619204 14.48545704590364 14.553440698678175
Rb 18.52459048203949 16.089377013552586 16.723151814669237
Rb 8.337070328387798 11.895910554128337 16.89714381269254
Rb 16.465580363030526 7.947351192487868 16.01461966799906
Rb 9.722615029527365 7.606513505220989 17.628204843790773
Rb 13.857338997652652 15.971972379029339 18.292668207303713
Rb 12.423073272991301 11.352614025155551 18.593537851221594
Rb 17.250897975662546 12.082508636800352 19.35733625157957
