36
Energy = -26.79254383 eV
Rb 10.413210865974792 10.763779705615567 5.953094731998833
Rb 14.162572450360626 10.309764018733423 8.658668186822087
Rb 14.449630079681073 14.872773949646131 7.156792596430423
Rb 12.00379078016147 6.44974487500512 7.91305282969273
Rb 6.9712683709291365 7.219476567751319 7.214147294445869
Rb 9.384413959146228 15.74135048658287 6.343361669210796
Rb 18.512645591198112 12.440365307122478 9.425599222130282
Rb 10.659931264701495 13.5288167704461 9.641060490830265
Rb 6.653029453793995 12.082927160668833 7.989060373717614
Rb 17.549238573684793 17.455339552336408 10.034242548852506
Rb 16.917543729095048 7.219476567751322 9.553840910455223
Rb 12.514172909360006 18.190181140599833 9.956651187056
Rb 5.447702905204659 8.26141997836123 11.456640141216484
Rb 8.458253565620536 5.063369459912324 10.884848230389496
Rb 9.556150121977723 9.125116242815972 10.222287808720207
Rb 7.491730982851261 16.88323510395051 10.839503466198586
Rb 18.776481599710788 14.61789390963669 14.14247548718766
Rb 14.843552883111895 14.15325675059755 11.71346590368785
Rb 9.833302892953002 19.07146536294954 14.71846744026804
Rb 14.849829250982378 18.411550003459304 14.363849863933062
Rb 10.88653156977248 15.51405182287761 13.906653531555982
Rb 6.990424736669557 12.40959737735993 12.976813694805198
Rb 12.251351995323635 10.778584553501208 13.432603586608678
Rb 13.065739661485452 6.674713074356649 12.45731671127298
Rb 16.811615449359852 9.843720912938059 13.569452101290194
Rb 6.739470516765385 16.016727103184788 16.49243829973942
Rb 14.614181857251562 14.030967498852895 16.65478912068148
Rb 8.619669308129005 7.673554506894911 15.087882630031858
Rb 11.170843595559525 16.84824277499261 18.65774978085954
Rb 9.958029618985627 12.27145225387498 17.00065832675523
Rb 5.796521105395968 10.957041544577512 17.295250014954878
Rb 13.358322169991478 8.564636416253292 17.38537437985664
Rb 17.447231283220347 10.971903691193136 18.40889473975935
Rb 7.795574863942013 13.72940224043288 20.143882293998917
Rb 12.79493622709741 12.216003736995429 20.085553863201564
Rb 9.012270940165516 8.92966980348654 20.085553863201564
