48
Energy = -29.73413436 eV
Rb 10.619835176368149 13.09915912498466 6.855045468929701
Rb 15.694000401655803 11.97493837893588 7.0185590575633015
Rb 8.062130679084003 9.329447385347736 6.867030721787102
Rb 12.34528178598152 8.614327155347313 8.499994000874985
Rb 16.911889626634494 7.133470259967588 7.436367181618744
Rb 9.158380013970016 17.893477435325387 6.942136901937533
Rb 6.457080011964603 13.81898811911682 8.255328545415159
Rb 17.667565791306185 14.543109989422891 10.4248943412028
Rb 20.15051499407128 10.7181776855373 8.646854368847258
Rb 13.885940414965852 16.674158565634457 8.56585039230491
Rb 13.10630971648226 12.729676998304953 10.54510745132077
Rb 14.232841850665563 5.781315937199076 11.452201512578059
Rb 8.889530253317282 11.02765306765305 10.577899603252424
Rb 16.37293844437262 9.552062339122015 10.713389309260316
Rb 4.967371947792048 9.584262522180715 10.104747686262526
Rb 8.696038915629575 6.931571814179497 10.452867605935316
Rb 19.88252281439373 7.133470259967588 11.1723231937886
Rb 20.351106578099973 11.163777856769343 13.15656556172507
Rb 11.516648844043813 19.89932875063654 10.45601482234326
Rb 18.958057790890887 15.702913247251281 15.030492033950452
Rb 9.525436951127991 15.653182421720885 10.458091444939797
Rb 15.681871977071495 12.318955838738303 14.191084482890806
Rb 16.487259823540715 19.359709182735124 11.86926230755922
Rb 13.593426400238418 16.4443278184688 13.53655993501182
Rb 6.207546894295485 13.553840578419104 12.803973851029873
Rb 12.126233076526612 8.74064919492351 13.514579799332935
Rb 12.43088126445142 19.89932875063654 14.958939315622258
Rb 7.291505968978646 9.012233328571861 14.422011140094137
Rb 17.136974568787235 7.62154440735351 14.96483432751799
Rb 9.645524595379902 5.375375222527161 14.838737695320079
Rb 10.816938194797464 12.934295323170419 15.01120089439201
Rb 16.2430311039484 18.961588957667267 17.01879788868281
Rb 21.69038743485523 8.370757032645173 16.967768965824355
Rb 7.647869247997699 13.149516639020064 17.57065857936291
Rb 21.978096687152398 13.061334048285394 17.35753100906879
Rb 18.541398769111805 11.520112155677669 17.704575151523922
Rb 11.358073635072982 17.009998580370443 18.181602907899197
Rb 8.578307312089551 17.333997103363757 14.59099580430092
Rb 14.066300113740345 10.04209913662482 17.804155401237807
Rb 9.548743819322297 8.520968851533764 18.16306233112198
Rb 15.128175623220768 14.620913674353796 18.189206057005205
Rb 13.61347431178894 5.958310169302853 17.343626448539915
Rb 11.379304350220094 12.578329216328255 20.44525200961047
Rb 20.984100669562235 10.817777159351023 21.406762727469452
Rb 19.524015760751304 15.436326540768817 20.048658532471144
Rb 17.57560149192593 7.389278958098592 20.055775885012824
Rb 16.22858820262916 11.830894263688096 21.865741732850218
Rb 12.993329304295811 7.915388405805981 21.72493373208364
