46
Energy = -30.08163448 eV
Rb 12.516160411632699 12.076499059914871 6.451285278848412
Rb 16.318742279409925 14.88977533908476 7.7546675509253165
Rb 16.944878519592308 9.95816120021519 7.2321736622882975
Rb 11.846274853590751 16.880665950805966 7.7546675509253165
Rb 20.63589545331792 13.272628562503758 8.246242484433171
Rb 8.392811453487337 9.535037457632146 7.739255919471133
Rb 8.039444302930868 14.221288025624096 6.938446320406321
Rb 12.576675152169047 7.952475358154937 9.180266091098044
Rb 15.216735627131285 11.255654567298533 11.094621114505685
Rb 13.834481679696125 15.666560018274316 11.75231103153688
Rb 20.184789524455297 17.831990169984 9.755445395525141
Rb 18.313047879168476 14.473141765033716 12.393199837401307
Rb 10.617654230841687 12.55718423098614 10.540866065198323
Rb 20.025065865868875 10.0202103348518 11.759098713041887
Rb 12.284354120456198 20.07513366662135 11.96377292035955
Rb 16.851353292138015 6.603108673008082 10.918772040897332
Rb 8.558640023185962 16.528867289584337 11.280669684816376
Rb 9.163629809247714 8.915825307583908 12.77389274038122
Rb 21.47293839534737 18.274968364410952 14.551008257989817
Rb 18.746232631666075 22.162770582898485 11.640025133597485
Rb 15.829960305165681 19.520631096998862 8.801574658327462
Rb 5.924123402210081 12.273812495335434 10.7667553476328
Rb 22.910340431595795 14.047978682304935 12.390503912479913
Rb 16.769150685843094 18.6791298321503 13.530554858353959
Rb 13.62342575842634 7.700824071090032 14.064120321712227
Rb 20.277167686578306 14.392501861642433 16.725071436221544
Rb 8.039213996161289 13.065478827672091 15.000125110480099
Rb 18.924414932994107 6.836775533116742 15.43183953329723
Rb 22.49037899818466 10.46580874286631 15.93260244037436
Rb 23.015539580377897 14.831756107383855 16.530772727016153
Rb 11.111236255109452 16.701087873379198 15.341892392639751
Rb 17.112107508589656 10.984561688750222 15.494764269267565
Rb 10.458756173635598 9.366768452597972 17.81910099754561
Rb 22.515080696035266 17.499366666489777 19.567410354092058
Rb 15.605175102595412 15.330271341337264 16.484093910639604
Rb 12.587801949615702 12.177739544536921 14.994309841481389
Rb 13.713236262998825 20.184644584102568 16.855259854407976
Rb 9.541212074931888 18.841834700452377 19.10159621917614
Rb 23.015539580377897 12.787436449800271 20.36348585141423
Rb 19.184814815392095 10.122645442420364 19.53983046349028
Rb 15.178438066788765 7.760156548648407 18.527678827664385
Rb 10.270845621087666 14.027705184861857 19.201659841963536
Rb 13.833487803819375 17.01019550929111 20.446782661627424
Rb 18.43995243538428 14.792358798519267 20.909901987331818
Rb 18.182469356675195 18.822615432468034 18.20415687101122
Rb 14.505730987023679 12.077846835120528 19.8192130950805
