54
Energy = -40.77386857 eV
Rb 14.208540938957125 24.35050525909175 15.910160979075304
Rb 21.19125516183721 15.262463273793143 10.100152635600896
Rb 9.84478759387097 23.504333980893076 13.917319760258806
Rb 14.451784473490717 21.90591311720083 12.135698567388449
Rb 18.92158374067923 18.44364865388029 19.354555235597502
Rb 10.515244485581423 21.01282535881552 9.749692015779406
Rb 20.72342650756519 17.33892599796963 14.911891704252534
Rb 10.57045763010903 23.504333980893076 18.78476028228974
Rb 15.11793101629653 21.528231566800738 19.465211556328928
Rb 18.397420136504444 22.048483571233803 15.538731030567568
Rb 21.84974961474274 14.491501953733685 18.878377309889405
Rb 17.974061215684088 19.043888893299698 10.822945152315238
Rb 16.958683260862742 14.89437449118369 7.922686718397191
Rb 8.747573329075045 18.59430638033377 13.11294490610901
Rb 17.28023210327844 14.76674528715377 12.46751703919109
Rb 12.969111561046276 17.283876520749967 11.872583619405907
Rb 14.025560654586446 18.66061977098082 7.956378480854644
Rb 17.760816351910222 14.111785731087481 17.10900801994816
Rb 17.794500520946713 14.3786437832612 21.793757656610452
Rb 7.699035942360096 20.353335079338414 17.34435233880079
Rb 20.916581212151346 12.242126558060175 14.23865489915702
Rb 9.32916197654835 16.23546371650572 9.118396125066592
Rb 10.88611975259091 19.438475976266634 20.894135100110656
Rb 11.970238357399571 20.049425346663746 16.099159612568155
Rb 15.22432893502565 18.240172456225547 23.14539511891208
Rb 14.234574191325734 16.665764696942865 19.081645999054277
Rb 16.106176269026253 18.3050430535029 15.227451087628538
Rb 8.864519402214968 7.256939505863065 16.18677165394711
Rb 15.57461157538547 7.553352096959775 10.507696594940203
Rb 8.094308575904174 7.755127440908876 11.320657089485568
Rb 11.293591403007165 6.948657408124121 8.597482179847617
Rb 13.449402486542855 8.207035890880272 17.25289954300806
Rb 7.043096333628596 8.855377597074508 7.1888220329177885
Rb 16.62896622734149 5.788288849862688 15.010891641785122
Rb 6.8870553228760505 10.728198966085076 14.48350088043435
Rb 9.971194107490403 11.430794685013353 17.77011793249718
Rb 11.486551257238101 9.98647447112339 13.218836006795653
Rb 18.49070069782426 9.738719433555442 17.886499427224095
Rb 12.085209014352975 5.43789009806264 13.072415578145518
Rb 14.514982189572926 9.98647447112339 7.136146037583119
Rb 6.13216427013668 12.406762894417003 10.085326159700463
Rb 18.52852588524616 10.916035172794071 9.744763391189892
Rb 10.023304319782294 11.02659316292952 9.078730610671911
Rb 12.40684373514914 14.23882894372353 6.267888796934568
Rb 16.233804222157325 10.310235641463812 14.040176286868403
Rb 14.447637362693667 11.774102531534213 19.591238693753294
Rb 5.9790356216306675 15.339423754360949 15.163344128624598
Rb 20.057299447812422 7.9951954888612145 12.940161875634047
Rb 7.964176208831828 13.04861859142033 5.785159067496682
Rb 9.673265554063414 16.128884614495064 17.506566806294547
Rb 9.481936660057679 13.89540403146781 12.865568663326862
Rb 11.451344437054974 14.700981219443147 22.002875828192753
Rb 13.427381939813547 13.913833246559077 15.292865389550593
Rb 13.809423216201184 12.799138215195168 10.437075579688363
