51
Energy = -38.55489477 eV
Rb 12.3906710643776 11.35294075018366 5.8066034693953315
Rb 13.09205363434838 7.028294943765826 7.167252558311979
Rb 16.578973926481314 14.117218674158547 5.938900853292876
Rb 17.20264374750474 9.261698215437354 6.840776212502831
Rb 8.840888369517584 14.17820533880904 7.754054239377051
Rb 9.276673317929607 9.336205418273932 8.633748369022042
Rb 21.079312157633233 12.168316292290918 6.905678638697805
Rb 15.233411436787502 18.78149211085925 7.760056634906855
Rb 10.267700340740042 18.745219312317758 8.689274098493179
Rb 5.929895864568243 11.982317557411323 10.616254390086306
Rb 13.305100713718925 14.772900210610816 8.81714713068151
Rb 19.77459426970061 16.781560668069552 8.25703675835438
Rb 13.823432749820158 10.058296790542192 9.979026051378375
Rb 16.63197512006886 6.422308682236232 10.258906722011945
Rb 11.693143506044477 6.428435762351929 11.563731133916582
Rb 17.816513803747046 12.73796562941309 9.923292766235694
Rb 20.73985327843146 8.806596344316922 10.021024282229568
Rb 7.274474209885982 16.619252466687428 11.49566904095935
Rb 10.018677890426984 12.872487571014037 12.032784645309302
Rb 8.326607998169086 8.739086477057826 13.403777751983728
Rb 18.494706138029844 21.20027758182437 10.114749160587998
Rb 13.596526118763416 21.36195886600746 11.388189526045004
Rb 22.315938332601167 13.479362691320704 11.108160956940216
Rb 16.589278984557534 17.247388482352676 11.640423078662723
Rb 8.840888369517584 20.88251202616185 13.082868564180641
Rb 17.095002777985535 20.775808541339075 14.749897522718204
Rb 11.985792907578709 17.283521029569012 12.61446957655797
Rb 19.022544709805995 14.143597657860628 14.673887751456316
Rb 21.030306085794418 18.119328077776803 12.985327761456912
Rb 22.315938332601167 14.808441096692523 15.372110551196629
Rb 19.994076438048488 6.100791556291806 13.715007690220416
Rb 4.980343130622413 18.024806249490958 15.680773865781875
Rb 8.959502083939958 17.214298977848475 15.805634683230856
Rb 12.298558621540236 20.790659489693294 16.219165927347024
Rb 17.314162073638744 9.596340439065067 13.538022684243272
Rb 15.25415384678324 5.946442638630219 15.14674816406654
Rb 21.847398932021648 10.218977797915484 14.659484742268972
Rb 6.717226382881666 13.237797551763181 15.226140938843539
Rb 12.525115652652394 9.449822808043065 14.725396904587484
Rb 10.435531043588593 5.9714875501239755 16.287080743996317
Rb 14.586601305053254 13.395558990879833 13.277792907633915
Rb 15.130022634763368 16.826919856104197 16.48085544639751
Rb 8.094391773513076 20.379701242182318 18.56941453888182
Rb 18.5243978313669 8.456488917833294 17.806207661116453
Rb 7.812643185514502 14.99109252375046 19.57039514859433
Rb 11.521705609844998 17.42554739559321 19.802276066076313
Rb 13.512276100667993 8.507391951065484 19.189011077127507
Rb 15.762155551299756 12.032125540602578 17.763216291446778
Rb 8.925287317180448 10.023544910747109 18.12545227004727
Rb 11.388966315921843 13.619892605620231 16.72961123346737
Rb 12.004471777154018 12.575018429583984 21.102359162019834
