53
Energy = -40.45905447 eV
Rb 12.950459048706358 12.134364621088276 4.79128803703564
Rb 17.271241952367614 14.06596270424103 6.4186546461095135
Rb 12.976679099815287 16.7963257284482 6.621921922649714
Rb 16.150547169561506 9.180046399223281 7.255048567077515
Rb 9.08379034079612 13.675278964203862 7.6363304067818465
Rb 21.42940032918731 15.759430003355247 8.537060306650977
Rb 17.371437296331564 18.59195361942982 8.525878980283778
Rb 13.125665191003753 21.21252362184922 8.537060306650975
Rb 10.82960570692079 8.934448256271118 8.051798107799168
Rb 20.36242275607002 10.917723995877383 8.769466165534894
Rb 13.576860345220533 12.777995531557131 8.978494872447303
Rb 9.158813673378512 18.220801141885204 9.232940509752902
Rb 19.01478779260356 6.639540739743734 9.666208698734614
Rb 6.007500508716844 15.043003026197267 10.389589714266574
Rb 17.858629921734032 14.528368989994012 10.895947518535428
Rb 13.664557103336488 17.26253722069017 11.03489312934535
Rb 7.632580777076387 10.323493106528762 10.68346002674189
Rb 20.530126637274595 18.429538367409528 12.21051365573525
Rb 16.363578773325333 21.16508978486615 12.344992848069234
Rb 16.578738213598466 9.619310391880344 11.664961430877002
Rb 9.12863115283038 6.2174870359281105 11.113948781456644
Rb 9.878659516348579 14.184385487997824 12.065638033809
Rb 22.36746284309239 13.67536533291692 12.583541007275006
Rb 11.082680971539443 20.95336897928691 13.067274273725213
Rb 11.703167505649503 9.437496068909258 12.393330530787114
Rb 21.13320440492571 8.762802092155395 13.381657902871522
Rb 14.253913325442479 13.298773491255455 13.761549220203081
Rb 7.836593692068729 17.838147624733065 14.130902104719366
Rb 17.401437675228337 6.101956087745996 14.421754016681763
Rb 6.5966375238921335 12.934592740442419 14.94944547311094
Rb 12.104370168531178 5.887483261125358 15.176497377889596
Rb 8.421687396330798 8.187489183666322 15.330995389112898
Rb 16.79652217913115 17.15430842731848 15.138593760421562
Rb 18.622949393838912 12.399864008986489 15.458828423558728
Rb 11.931357823934244 16.985448356004405 15.838183185273339
Rb 14.827558132913067 9.324264830040136 16.475126957828913
Rb 10.647286433796841 12.082260342353795 16.6332543590294
Rb 19.330936465117194 20.843024931497013 16.427428346836763
Rb 21.32429645091095 16.264627971001293 16.84384994859264
Rb 22.9512013837326 11.537127174386763 17.132074974486187
Rb 9.52222775348007 20.43659150428001 17.837606590038057
Rb 19.33393562235247 8.3478639507427 18.270560159113685
Rb 8.61850238645307 15.705593291844732 18.74708543722188
Rb 15.356605070878354 5.832190572126085 18.960154474100868
Rb 14.935610853056026 13.809833054123043 18.542664949328294
Rb 11.120707328940389 8.011184701970867 19.458078732059885
Rb 7.533844739143541 10.86114868388862 19.45890058713736
Rb 17.68930030508586 17.635157704015253 19.948138807710297
Rb 19.418739854103375 12.88417742367881 20.35114007179971
Rb 12.381525555148077 17.41691558080646 20.713472966920577
Rb 15.514669668727034 9.778108164965078 21.351942190819912
Rb 11.232215096022347 12.536144712248813 21.566523785981488
Rb 15.55604316139208 14.435957143297813 21.56652378598149
