13
Energy = -124.74505422 eV
Re 7.984879378459201 3.940254974444115 5.335620693029464
Re 5.589032215151966 3.607625397846902 4.8328902128335836
Re 6.531254963961037 5.447286619524524 3.2817222607431713
Re 6.493259495799312 4.73850405454822 7.129499914262289
Re 7.833801297564517 6.247114346009314 5.220134026393902
Re 4.5365079179248315 3.6686077433459996 2.664398933853584
Re 4.162277390265248 5.9272247899751 2.7833167018533937
Re 5.13826412664231 6.162851937864251 5.1410181782486735
Re 6.133606784808731 7.0927593849521315 7.207865125551124
Re 3.115923794353495 4.586985982346422 4.7483062646799095
Re 4.188637144770116 3.8813190129536763 6.927742174311462
Re 2.7063747670066465 6.790967968731445 5.501343081475182
Re 3.815214287969097 6.267845882709854 7.474147699570548
