13
Energy = -122.84194811 eV
Re 8.26302713454792 5.095370497585065 5.086584778211221
Re 9.953971840900188 6.5391660624565855 5.841628756328704
Re 6.144698447061935 6.514058174567164 5.540958963184027
Re 5.980870665938174 4.022833942333614 4.5653270580550975
Re 6.115437881730358 9.016069024566287 5.863779465799104
Re 8.317471692697096 8.184719312994623 5.443235457390588
Re 4.317206030212172 4.814806632523382 6.106216231180871
Re 6.836337544872449 4.146474079987934 6.8144633081763715
Re 8.011491688221945 6.646068802908931 7.343128023040588
Re 6.4205382148017955 8.265292573328585 8.180136262747144
Re 5.401939359837787 6.05877065455755 8.002396908202988
Re 2.7855618748064908 6.02822378244891 7.5026377962659705
Re 4.099524286470176 7.658242925431487 6.635540838698858
