12
Energy = -114.92715454 eV
Re 5.7461235905432115 7.318091195072803 8.057533918706477
Re 6.466737885838801 8.963944962475402 9.561218682347768
Re 10.283841307690986 8.141478954570932 7.160281509991238
Re 8.268715495398656 10.66132540750806 8.625376820474568
Re 9.534147173196988 10.398956464734148 6.485375408232985
Re 10.688858048761972 10.21011590732119 8.525157972195075
Re 7.773945276046371 8.663877390247304 7.240791393162691
Re 8.26534267326637 6.312514532899108 8.162280082647685
Re 6.486268100356621 5.575670054053994 9.573812861574323
Re 9.097787421212468 8.413317611255318 9.383093724337972
Re 8.991438892770226 6.611628383819437 5.961478477100301
Re 7.425697215979485 7.2455738499895 10.885591543702091
