11
Energy = -102.96633149 eV
Re 4.339788274203116 6.651245010989288 5.816680202304219
Re 3.652087994642708 5.214330935563412 7.557202406154793
Re 6.0567330249306774 6.03233423538905 7.635293304143676
Re 6.475719775697157 8.220827861705285 6.443887200240677
Re 5.816394719420308 4.873364212732008 5.245676124863174
Re 7.688246113058814 5.722839777719638 3.937506860090643
Re 9.133551981568448 8.093942466270132 7.241569641354896
Re 6.151732692068811 7.50937675845546 4.1956119589134335
Re 5.18660954325108 3.586740365121207 7.064997196221863
Re 8.101199978550893 6.295403138417817 6.214737743986544
Re 7.475196505246099 7.836577369533981 8.693355362559387
