14
Energy = -134.885618 eV
Re 7.940841229008195 11.287203929282173 6.055743224915454
Re 8.903963095837959 8.81249825099023 8.701080323746448
Re 9.7643250077396 8.013697397504156 5.420885270593982
Re 5.937590809226798 6.549871371847854 10.254337196679312
Re 7.523090695665971 10.879385618524546 8.352072630652259
Re 7.487279768363449 8.875160210052794 6.651862363379089
Re 6.110230363110402 6.644170274679633 7.648945990189159
Re 8.558858711147394 6.616412190108747 7.143199340983038
Re 7.346547320254507 5.096500380699146 8.990931248636208
Re 9.80921094663575 10.052705317526787 6.6600404040956604
Re 6.250329012872459 8.823651271498768 8.876804635748963
Re 10.736537334506933 7.603754386321481 7.614768869267412
Re 9.248673529633592 6.405392796153812 9.618050817535645
Re 7.672920490656464 7.964285964169555 10.794005051959834
