12
Energy = -111.72448696 eV
Re 5.328518603288047 7.865198960515616 11.521682717304508
Re 9.514082969129406 9.880004685731352 7.438388938365304
Re 9.209054657888618 6.843629043307084 6.344563893123666
Re 7.067890746091124 10.010903519375796 8.285051341615603
Re 9.037904833503834 6.7424158589572984 9.646253470853566
Re 6.764712786067801 7.954726536313335 9.79057700723411
Re 6.900714759866914 6.520129240349598 5.530184430739395
Re 8.876741937100347 9.30786178987208 9.717739667709374
Re 7.80421826474531 8.83129412317014 6.022299573191416
Re 7.557032541257854 6.025207490444655 7.924141687720913
Re 6.007513451184303 7.881299204522951 7.317262042020009
Re 10.53071050757329 7.7637474374257405 8.035187419797927
