4
Energy = -30.75205238 eV
Re 6.2573736991037245 8.270111001810216 6.871384659872047
Re 7.733496055164585 4.117962590539847 6.949830187273777
Re 5.024842156402733 7.4491131489246 5.392432167540878
Re 6.6528382108720825 5.867997853731749 6.474472151733902
