4
Energy = -28.9780063 eV
Re 5.7798907825104395 7.20626575061144 6.505128015697412
Re 7.583577834949189 4.4656270033800824 6.479014268912573
Re 5.903331202749356 8.900474444405294 5.059606359269348
Re 6.978335692571219 5.671063714268061 8.202587592295085
