4
Energy = -30.52846171 eV
Re 6.075445737373231 4.565528669191261 6.724398639779103
Re 7.3515350715012415 6.649251267840194 7.682381131847616
Re 5.571863730873931 6.028624635347826 5.058318413662059
Re 6.755882215632213 8.242065760481674 6.440104813484163
