5
Energy = -40.16237413 eV
Re 8.396000673231843 6.153544462111204 7.636957388207687
Re 5.156572034731884 7.757813296851945 4.716085619121784
Re 3.9800639024666897 7.014891210254406 6.276042107606755
Re 6.34869253754423 6.390004197995904 6.355764953269999
Re 7.783394926894257 4.391046310077352 6.687078622682033
