6
Energy = -51.41539534 eV
Re 8.202260554829971 6.935629249650422 5.526581962490021
Re 7.933473033988173 5.863455982007843 7.6588732090528895
Re 6.357726425181722 7.665691562612228 7.064122017882001
Re 5.754775058945147 5.352051899335085 7.9823871926095755
Re 6.1769822849820315 7.110441111011068 4.626897808660642
Re 4.627377756109225 6.141512014663078 6.189223327282059
