8
Energy = -73.30984218 eV
Re 4.62217531638631 6.684953618071829 5.296793922435651
Re 6.526836712526945 8.162123396431022 4.965667845235524
Re 7.993991217625319 6.435646134907522 5.535330797779184
Re 6.1874737915653 4.901872257577902 5.307523250402407
Re 4.904259133344904 6.191069185329976 7.578869570812402
Re 8.167952998547646 6.530640694715127 7.912684541352674
Re 6.439056024409854 7.995716016618313 7.344568540615493
Re 6.687704075165569 4.627427969485892 7.588010802721447
