8
Energy = -72.13218928 eV
Re 4.611539112513517 4.530616762637069 7.2107579595771805
Re 8.798771034084355 6.06075351578062 4.941132447112168
Re 6.7073444390871195 5.288803245812104 6.072345410106819
Re 6.026988718296009 6.259391263135572 8.271516432051664
Re 8.14872818938057 7.036840647065436 7.119305966562516
Re 4.7288958853101954 6.804177159158673 6.245245895616717
Re 6.851818298180028 7.580866690964028 5.095607417212074
Re 6.173564718761069 8.526680136380829 7.285477864177189
