9
Energy = -81.74263433 eV
Re 9.231246510112904 6.511853248322911 6.903353086802752
Re 8.111053947257878 5.67630160883222 8.601358626135498
Re 7.144576454682053 7.676982618857094 6.513970837687812
Re 7.1188171640473055 4.964899794097957 6.423826071546975
Re 5.882160039954445 3.9719324004379564 4.672407937801574
Re 5.773912363243204 6.561231486954708 7.896784834129472
Re 5.163431363409611 6.046672836954697 5.477476744172085
Re 5.51359847788062 8.60878678052575 4.965466009566044
Re 4.1360133456227635 8.073894747294617 6.58831452964087
