9
Energy = -82.7207265 eV
Re 7.040668774432837 4.317685197084235 5.252106650296503
Re 8.85530891308481 5.740784132666883 5.59777585740776
Re 8.586523449522632 7.808872361461644 6.639391956964391
Re 6.453397112716825 6.934471270489772 5.290038503786584
Re 6.954781648326072 5.836188024707858 7.449746008735465
Re 6.239956644146656 8.198984255364842 7.387068512534068
Re 4.9196283394858265 5.235382505628709 6.189398439700833
Re 4.1844171009822775 7.5944557187545065 6.1680530601814505
Re 4.668146904523161 6.515031082721628 8.281577907736244
