17
Energy = -92.13607348 eV
Rh 8.209558185249087 5.218425004342154 3.7080310308272604
Rh 4.660299854422885 5.56925802011284 7.682941124697425
Rh 7.01226455690582 8.86059591454524 9.422692235907466
Rh 6.535495787307034 6.546176817395203 6.289582653106959
Rh 6.1562966250000315 6.465557866330001 9.566963798759526
Rh 4.394015848846667 7.459519938114805 5.590356463418963
Rh 7.078171163410617 4.5947920785611265 7.947213988273709
Rh 7.216721693421213 9.019189736321241 6.900183622982335
Rh 6.238833465679946 4.570020678989048 4.90845551867259
Rh 9.398076890477196 7.894248952298973 6.098379738830434
Rh 5.062442566498438 8.095462956721592 7.961273072860151
Rh 8.234533279721685 6.951203990951293 8.158498451142918
Rh 8.806731012715373 5.369233390617786 6.148333060379653
Rh 5.95581166705411 9.110218654328962 4.746649727866503
Rh 7.749569730825471 7.508351170684702 4.34187816229796
Rh 3.8521993254357434 5.075063686844959 5.317882497610927
Rh 5.27881225477327 3.329958447232375 6.766502879015645
