19
Energy = -103.97601986 eV
Rh 10.19391202326688 5.7448619556858525 5.253910607621202
Rh 9.321971076417212 6.848225568296022 7.228467268064859
Rh 8.291236611755975 7.356920986210839 4.795071667971917
Rh 6.6968807912969455 9.200850771665607 4.508253215936015
Rh 8.045571296954844 4.779812156677282 4.7845979067114754
Rh 7.39058372869395 8.668885496655678 6.912775070916739
Rh 8.23295458170397 7.978081863531048 9.16363080345692
Rh 6.0614552798959265 3.7940586912143197 6.154146893851156
Rh 7.065416228964217 6.0620157931127405 6.720874297885786
Rh 5.601983418429753 6.9194092622961865 4.756844752763499
Rh 5.776995547908806 4.621458307498884 3.7774700782555763
Rh 7.332211632417308 4.003910624322649 8.321119026802661
Rh 6.469221088420383 6.2058142367894105 9.11993579542134
Rh 5.689617819832481 8.63270558520981 8.760471780830633
Rh 4.921523039781391 8.984268473778604 6.305003585938497
Rh 4.635906715646237 6.7177161509884415 7.418383674812217
Rh 3.9524252730873366 5.029110605336531 5.6832313033101105
Rh 4.777113246524629 4.333012346518477 8.244343884310988
Rh 3.1881005595748655 7.4317014370534205 5.40148148943527
