11
Energy = -56.51339242 eV
Rh 6.963834377927387 9.592407899846853 6.144879449637629
Rh 7.349422859750877 8.35211410388211 4.017643385569351
Rh 8.839536313066727 7.815482388718791 6.034606116277324
Rh 6.018062932347676 4.270585460159159 8.63450207704041
Rh 5.58399461800157 5.0031326327576435 6.243688327406557
Rh 4.807735784167296 6.460469418261469 8.16175950758521
Rh 7.541173221813568 5.991006616602122 4.873293978343395
Rh 7.875874413051015 5.413560090410538 7.335602758182202
Rh 5.535109160224663 7.445072009787056 5.5802970307923365
Rh 6.909670388555858 6.338258637757703 9.681703016085157
Rh 6.926644963256455 7.668969744372143 7.643083385243898
