10
Energy = -49.5350097 eV
Rh 4.54327022086176 4.4399454380158305 7.789737992670405
Rh 5.902875718235554 6.202477544225499 4.5994578894943015
Rh 6.666733101235388 5.480333831855316 8.553091986361826
Rh 6.58408438995754 4.403848609585871 6.348765764178501
Rh 8.77760093997482 4.8387270058058345 7.403874757868139
Rh 7.588411561352554 6.815372530826464 6.518046877905891
Rh 5.00612243275894 6.677032912812794 6.9349587659674325
Rh 3.8651478435461954 7.642899990581772 4.965537189216745
Rh 7.905803355760886 7.718405375724745 4.231146998635321
Rh 6.049583436966221 8.626712433763965 5.583028371798746
