15
Energy = -80.84913172 eV
Rh 10.05698467943339 7.212021239614225 6.529873924032092
Rh 6.976531016859551 7.2911990061767575 8.523957656687026
Rh 9.927146785669198 7.2093503491359785 10.68497548055336
Rh 7.89238329936192 8.56632843584802 6.417265090833519
Rh 9.376415864505603 8.563905053847275 8.581056199425833
Rh 7.762206928005397 8.563905053847275 10.667717847641105
Rh 9.957738542707919 9.885253861452595 10.687276378073694
Rh 7.005948943089401 9.873866310775208 8.526664751582887
Rh 10.0870536832463 9.887692992604947 6.531999180503198
Rh 7.849613619413122 11.107757280237372 6.48541773187669
Rh 9.232220843739677 11.10943484579148 8.578228428853095
Rh 7.725365912687542 11.10586984345048 10.600756657330836
Rh 7.667224660583516 6.040384184906838 10.596272821389068
Rh 9.171698910201945 6.005344429383358 8.573700893067357
Rh 7.79357501782774 6.04310340559549 6.480253250817787
