17
Energy = -91.28129472 eV
Rh 4.86797304854363 2.8073668857239213 5.4817205648737275
Rh 9.250112251357516 4.682149261491967 4.64559334801514
Rh 7.0449951845655905 3.79551943073397 5.151335067461207
Rh 4.911027707048581 5.284275922013301 4.982435860801472
Rh 6.691582087925302 5.290672233656375 7.041583360859401
Rh 9.017351410686565 6.026248445354206 6.6590616146688415
Rh 7.383068697338686 6.3548227785937295 4.623381713106262
Rh 4.455876880203265 4.228065278558739 7.3759306449959245
Rh 7.229301005488607 8.747025498446925 4.01301216151075
Rh 7.7833964759450165 8.247922676946436 6.3451133304228255
Rh 5.363433254967851 7.8243289383447845 5.304812859429921
Rh 5.421195710509901 6.042110454897405 9.09633619892114
Rh 7.845505108604162 7.050337260085643 8.647517583389572
Rh 3.090231715842037 6.932189065465192 4.805861178358358
Rh 3.9102841002087247 6.672715081499836 7.09644553672986
Rh 5.690235849091097 8.250720677299944 7.857170578202274
Rh 7.690951826374737 9.48477393116295 8.536256180767097
