12
Energy = -57.73664964 eV
Rh 8.235882858597584 10.513879675747164 6.951392114377427
Rh 5.666901370157273 10.513879675747164 6.951392114377427
Rh 6.951392114377427 8.39849365165908 6.951392114377427
Rh 4.452509236481396 8.386714696469777 6.951392114377427
Rh 5.680789497549303 6.223705182706863 6.951392114377427
Rh 3.208108228754851 6.266398903439237 6.951392114377427
Rh 4.479154132024997 4.079080845756744 6.951392114377427
Rh 6.951392114377427 4.0786530362713656 6.951392114377427
Rh 9.423630096729863 4.079080845756744 6.951392114377427
Rh 10.694675999999998 6.266398903439237 6.951392114377427
Rh 8.221994731205546 6.223705182706863 6.951392114377427
Rh 9.450274992273457 8.386714696469777 6.951392114377427
