16
Energy = -86.23076849 eV
Rh 6.557441009548544 10.232252243747865 5.907202594166159
Rh 8.042485342175963 9.405854307008465 7.635720164744376
Rh 6.939362513735036 8.134739229824497 9.591095957750676
Rh 5.693122566053365 8.3718638417018 7.367630729641637
Rh 6.569615071728785 8.053091756217853 4.903674347428948
Rh 3.5354170007284216 7.134462291847788 7.177592584269789
Rh 5.126711471761559 6.4251046417050794 8.901753621907908
Rh 8.06563126537083 7.281261610250027 6.607290533456414
Rh 4.94958003826108 6.198969990586683 5.480947843249853
Rh 6.78457369871353 5.837868221920682 3.756104742475493
Rh 9.770617113995073 5.5082524971255555 7.153796920539277
Rh 8.164243980158407 4.9092823777645975 5.472944058310641
Rh 8.063987216431718 6.014271536579006 8.8518008640542
Rh 5.068518637995714 4.097968023486373 4.248958934628303
Rh 6.38053636226673 5.323442111659988 7.17123303728292
Rh 6.4671349104011 3.241682982884336 5.940926032901999
