12
Energy = -60.50155337 eV
Rh 8.35092753 6.578906959973295 8.35092753
Rh 8.35092753 8.35092753 6.578906959973295
Rh 6.578906959973295 8.35092753 4.806886389946592
Rh 4.806886389946592 6.578906959973295 4.806886389946592
Rh 6.578906959973295 4.806886389946592 8.35092753
Rh 4.806886389946592 4.806886389946592 6.578906959973295
Rh 4.806886389946592 8.35092753 6.578906959973295
Rh 6.578906959973295 8.35092753 8.35092753
Rh 4.806886389946592 6.578906959973295 8.35092753
Rh 6.578906959973295 4.806886389946592 4.806886389946592
Rh 8.35092753 4.806886389946592 6.578906959973295
Rh 8.35092753 6.578906959973295 4.806886389946592
