14
Energy = -73.96867005 eV
Rh 7.1636310839853445 7.788564563522863 8.647596800440919
Rh 6.476643514381452 5.460860816846717 8.10426405488974
Rh 6.207193771967113 9.603608224816051 7.342028570096926
Rh 7.821271112864268 6.736768033451569 6.487449005192334
Rh 8.358272096054502 3.9373491527920925 8.352882112453479
Rh 4.885694557731267 7.518008272554298 7.499806438277968
Rh 8.93037720439726 4.595322935432715 6.0813546747536575
Rh 2.9352873211182446 6.720453944614627 6.150445820959745
Rh 7.080706741130808 8.643631545635044 5.313380864140615
Rh 6.6394207507662415 3.55632746257016 6.505542419055625
Rh 6.774948357589928 5.372829902151064 4.727693258155384
Rh 6.718134262921954 7.273438392805603 3.2505252521040866
Rh 4.714642885134093 5.120615781048075 6.287113644106942
Rh 4.979800003594335 7.3658583646450975 4.9772432291911635
