11
Energy = -57.14496945 eV
Rh 4.697670992826942 5.7131362661853755 5.068718393679804
Rh 7.1680032784034236 6.295546059568845 5.395032433426183
Rh 6.85793222435501 5.756434838864835 8.092732733143619
Rh 5.58742902157188 7.951845250492854 4.155604558951668
Rh 8.760823126064844 7.161242391404471 7.2016148777577005
Rh 8.737421338800841 4.643446051440093 6.653292222565997
Rh 6.246907384891763 4.085400655788013 6.296855171219918
Rh 6.787159865266159 8.23992478955296 8.44900607974109
Rh 5.104061209086687 7.598751811037986 6.702277184274169
Rh 7.211766081252145 8.788429248634943 5.9728062690796015
Rh 4.430120216822185 5.355137376371503 7.601354815502005
