11
Energy = -56.3621997 eV
Rh 5.3770456954151085 4.458811974655767 2.3137088240362584
Rh 4.274773714475107 6.095047246546147 4.010278377844523
Rh 6.721883814036631 5.535642830871109 4.028263451728853
Rh 4.804963924644362 3.635211891771657 4.508430553559293
Rh 5.965957179721943 7.951164830867594 4.346130735891565
Rh 6.844496776114412 6.544283942582404 6.298755265647346
Rh 6.798767491579757 3.944520703573693 6.05594095043417
Rh 4.440044107433506 7.174423702619403 6.245879488317562
Rh 3.2128331335882576 4.902260867173432 6.022221318152895
Rh 4.687451679766772 2.8634635513746556 6.85791033762682
Rh 5.150420325454717 5.173806300194727 7.59111853899157
