23
Energy = -128.68875054 eV
Rh 7.6726180539552 4.067059391318186 3.0228079370373595
Rh 7.498179833047827 2.8556443167992493 5.292628629722092
Rh 7.274427151508278 1.8909178708602232 7.540513919839669
Rh 5.541202153615654 4.309604157817333 4.37949444143287
Rh 5.6509448343189534 3.6577800243224674 6.979269114705425
Rh 8.367756143969535 5.218170735220908 5.1318797723241465
Rh 8.476519407431853 4.107343432023911 7.389732639997844
Rh 6.8110089888433 6.453006052515947 3.4998004740892616
Rh 4.242826945299379 6.504068837590249 3.984873443477894
Rh 5.9833343446598155 6.317619113481212 5.998961769543941
Rh 3.7233310428632005 5.037883886073693 6.068610514554285
Rh 4.307761770553811 5.090226563660624 8.654704263586757
Rh 2.5077813017464634 7.419879744748633 5.522287907949898
Rh 8.054106543762261 7.705769497558623 5.514527734667533
Rh 9.874387851548953 6.1122509357828845 6.944026913556681
Rh 6.727178338036931 5.573152842771705 8.239193005585738
Rh 8.229334298958593 7.509775259820399 8.084134775241516
Rh 4.122249241329692 7.256886295495471 7.4214329264934795
Rh 3.4079877731475468 8.9045964652596 3.6660405109634295
Rh 5.790947234403121 8.602226856745695 4.527930775116008
Rh 6.2610723129933765 8.702157654282257 7.081168038931906
Rh 3.9734697632629574 9.431777366715782 6.11757349062837
Rh 5.782467794025985 7.608508207516593 9.290263466865085
