21
Energy = -114.88905137 eV
Rh 2.893913642068995 7.34127688382286 4.258309494779671
Rh 5.915414873531268 7.90526319273602 9.042593109946369
Rh 7.6201571964622055 8.537246964611068 10.599080706565807
Rh 5.3114741055729855 7.364752888158157 4.073896442112394
Rh 8.75059401456402 4.751342231702683 6.505463463971598
Rh 5.387811974492176 8.334487793671824 6.525043418908901
Rh 7.315455639693583 7.15823325424018 2.7219988745744805
Rh 4.128224416176892 3.625776971778882 6.8541957535168745
Rh 4.863560881043359 5.867465397413966 7.882223245217228
Rh 7.314042368867839 5.81955640531918 8.608483229480306
Rh 6.608655369073218 6.056489082870306 5.927781190366951
Rh 9.937827576547813 6.387309732976052 7.802452011618809
Rh 9.807126530497532 7.947030454894395 5.889990800547869
Rh 9.494984202509071 8.641543663463686 8.984466188660482
Rh 7.77937014805322 8.069819454742882 7.354143878735237
Rh 6.516528038993275 3.86656145887824 7.195505735153635
Rh 7.411168313667113 8.571115693029506 4.881510316148018
Rh 4.134100612219909 5.497273745981151 5.355124920955718
Rh 3.1632070239090644 7.402299746361729 6.692530218012762
Rh 8.658816411109743 6.267560515320001 4.519928827714592
Rh 8.949767289726802 6.500052576212141 10.219082050167355
