20
Energy = -108.81669573 eV
Rh 4.123128203933879 6.243777835481953 7.936707200960275
Rh 6.559558339589201 8.54036402697423 8.807341894429646
Rh 9.042949905071604 8.414332337513617 9.435472017391817
Rh 3.966156901882719 5.876502771616775 5.410430064352458
Rh 6.597723146762503 6.001730455674628 9.108229511163572
Rh 8.429454895831222 5.9144867193179955 5.301498350522886
Rh 8.396926279218464 7.086672514064892 7.576083710759843
Rh 5.399998707904417 4.0070737177631806 8.077572643202801
Rh 6.083618971599497 5.911824806030426 3.983731465992589
Rh 7.9002407692717895 4.4211466186970805 7.341309866084974
Rh 5.976982384986404 8.470516688892237 6.188237345387033
Rh 4.710256879222006 3.551005236192181 5.8258156520390125
Rh 6.975942414198985 3.7912802517713655 4.996289167172499
Rh 6.144762854117842 6.123695025309934 6.538037691771503
Rh 8.28421034634177 5.773971812540538 2.8372955996704277
Rh 4.2762597978285175 8.63845588408535 7.9403438126726344
Rh 7.192353745518332 8.018037832557324 3.0702014118155803
Rh 4.854382535222729 8.108947989372153 4.1057199193424525
Rh 8.17275862686201 8.409605050928317 5.240237761825805
Rh 7.499462031367469 7.296812980335275 10.876027044160681
