20
Energy = -110.58804802 eV
Rh 9.92977814048399 8.644132953224803 7.260374398570633
Rh 10.1385558278985 6.209375831262914 8.151669843203095
Rh 5.115229060949779 6.2202092602828944 4.158260944277862
Rh 4.445836620549394 6.1650214014906455 6.636774858721578
Rh 7.240413028152586 5.014977902905129 4.931787307388458
Rh 6.128219361890808 9.157508225567598 7.85814461529966
Rh 8.192386816427428 7.744316623185113 8.863165246999946
Rh 6.330745505864519 8.629737826571052 10.274538691448909
Rh 7.333671780706162 7.522595960959823 4.124714469156417
Rh 5.6694713009748305 6.673150268442475 8.897413598686082
Rh 5.275299498127686 8.435648764576001 5.490976043422243
Rh 9.2429516128487 6.663674552199107 5.804016227515873
Rh 8.314599691031226 10.281379407432631 8.22907436334481
Rh 4.954850586183835 4.020302762536573 5.358774037279016
Rh 7.799235819442737 9.20070722546329 5.941058689673361
Rh 8.783238084128872 4.414839665777337 6.904782982405431
Rh 3.854854611559476 8.256533905505906 7.761304610578709
Rh 6.984595730329749 6.893051934455148 6.670504644800339
Rh 7.939034945224146 5.259867169454735 9.21242999830354
Rh 6.299250723042436 4.565187104524448 7.442453174741541
