28
Energy = -159.7117801 eV
Rh 6.663632856014799 9.065334828727076 9.03954458310632
Rh 5.189791255108984 6.852790074524515 9.053984037459887
Rh 9.225121676202443 8.895164823451701 8.955754105235169
Rh 6.509104852255655 4.5485300309335885 8.946225392414213
Rh 10.553911086592727 6.687229579045728 8.838349900323305
Rh 9.072820904488447 4.577776080481319 8.87892840274726
Rh 8.022688532623611 9.45013125339848 6.740727703475012
Rh 5.939698491844436 8.078960420806107 6.863209539410046
Rh 10.100803631686656 8.048955985286907 6.641717042865453
Rh 5.8638366013872725 5.665747800841622 6.813761707123317
Rh 10.02117156577106 5.422619146294193 6.594690446571082
Rh 7.8534022251957305 4.166613329948469 6.642311761033133
Rh 6.427820459202968 9.121436693259415 4.646475709772423
Rh 8.988419619649784 8.924245772335189 4.435883913587685
Rh 4.943344877422026 6.944423912306886 4.701980352575923
Rh 6.277017499624971 4.680791582877298 4.555209225289137
Rh 8.845058756632177 4.696167358925804 4.353847120429792
Rh 7.399193984208962 6.7345218248279135 10.204290062434243
Rh 8.146602343813804 6.795096864934428 7.939562669862116
Rh 8.134455097540739 6.8138199720963435 5.388732011069091
Rh 6.973494949752046 6.913416349517398 3.28076093043221
Rh 5.737109968977529 10.615458029468174 6.895543298541877
Rh 3.950730802985806 9.214103708019108 5.621735307358096
Rh 4.070175866789085 9.154794688898896 8.28155348492766
Rh 3.5602980852044688 6.948294932066802 6.928642990713235
Rh 3.922212366234684 4.664135001413449 8.191000119484954
Rh 3.797712697713728 4.711612716404598 5.527247248002429
Rh 5.491691226653081 3.150962081379992 6.747671022832774
