26
Energy = -146.11581323 eV
Rh 8.356928003321233 2.208159460189836 8.393369570698566
Rh 2.9540891193614804 8.043952978687438 5.279687248764529
Rh 7.304876045011819 7.298864855818851 3.1144239342433258
Rh 4.291188306439463 5.950228954529923 5.792036666345422
Rh 9.389378927459173 5.538079610596664 5.459464855943601
Rh 5.2408229654101515 8.426028089467342 4.197900024932426
Rh 6.648687440991498 5.914545850665916 7.491750644178494
Rh 9.522989110967618 7.658242565465345 4.316295855607266
Rh 4.053976640160701 3.88393658054068 4.212011264393891
Rh 5.4960020309305255 3.6817356170539757 6.129529572222367
Rh 4.287688842578738 4.93454404724346 8.125769912808787
Rh 7.633759351211713 6.655259415765978 9.758687207565655
Rh 3.333091056305189 8.040178800062248 2.6956984605165726
Rh 2.595486097304744 5.951635204143226 3.8148073448682163
Rh 5.019824633563627 8.22747302656632 6.738225033140654
Rh 7.287127544659712 7.920198376956521 5.548230835181627
Rh 9.073489296836708 6.681074843694199 7.521898984315068
Rh 8.700813260332419 4.566340371508017 8.918098353427764
Rh 7.205725597474589 8.476880551459312 8.034375654806686
Rh 6.330818361794387 3.633225508677944 8.611245568026106
Rh 5.044842086139296 6.036538986881042 3.292657143536381
Rh 8.020901108715474 3.7535151602953594 6.528219526111987
Rh 6.905853522944689 5.502557528878981 4.908284150593359
Rh 5.146805471199045 7.195882034797963 9.085516533078563
Rh 2.958023950334957 7.097442352670808 7.733652654335288
Rh 9.382524656655095 8.909192655487024 6.4838764284611266
