28
Energy = -160.35781033 eV
Rh 8.049966434415126 3.2578838677439474 3.4800135924956974
Rh 7.487402148488415 5.636137258524498 3.4622418071143914
Rh 5.786452418648333 3.051714610910055 4.339387163818544
Rh 6.50070532221936 2.5246655996871357 6.659184524042738
Rh 8.386623908210296 7.989889997869143 3.8905140299049212
Rh 8.7569587390831 3.443011719455633 5.827944899508947
Rh 9.26245017338339 5.890619038194768 5.181105332440472
Rh 4.827771094045774 5.269913795971387 3.9802745444052032
Rh 5.9412021930534005 7.612329943565605 3.511232388559222
Rh 3.447357705333233 7.212626173580389 3.2326363719841105
Rh 4.42945339736335 4.288847891791644 6.373590846818169
Rh 8.347761067514167 3.046815428276788 8.347198304087327
Rh 6.167727019206228 4.40385468552118 8.304403483539508
Rh 6.774383911124948 5.088321892045604 5.809492023107827
Rh 3.402254824331015 6.569191023643298 5.737706139187417
Rh 4.397527949683742 6.273917929339588 8.075600747769025
Rh 8.689314470764872 5.473092426418214 7.563245702924445
Rh 5.779878689021996 7.35047366379804 6.046454287911728
Rh 8.216313128075603 7.857998889770115 6.418423798928577
Rh 6.730230133726507 9.606234830837902 5.117613599711542
Rh 7.98210296256446 5.1076139974948624 9.967792151019378
Rh 4.145129487139284 9.01172615976318 4.8104615885753015
Rh 5.570955917321163 5.898999278688087 10.387707186653296
Rh 3.7984960335951925 8.69164237326677 7.349884635182494
Rh 6.942236065181355 7.035497814359172 8.544238970972685
Rh 6.426568320375261 9.350192724474248 7.668427786364023
Rh 4.994752573597022 8.302141214766003 9.567258178328084
Rh 4.809136707455895 10.805758565165998 6.397078709568355
