28
Energy = -159.85223013 eV
Rh 3.105215909804549 7.656207810902507 4.6352333117209135
Rh 3.2804450539148027 8.080282965108537 7.0865189098168395
Rh 5.241155155309413 8.769728364689634 5.3159020125768786
Rh 7.70895567536156 8.164399344910045 5.5621970378273025
Rh 3.638702576451201 5.649115787312791 6.049366900596219
Rh 3.642627999311841 8.474468722725486 9.579275716473965
Rh 6.845246027013866 8.046216985455569 3.2429924155609386
Rh 5.192954355461912 6.335179656299621 4.0892068849581475
Rh 6.893518149639736 10.365046229476851 6.45303184492168
Rh 3.7209234526809825 3.83993580685916 7.872986600590913
Rh 5.667807832274444 6.885720347166377 7.070952145909873
Rh 5.397268968453682 9.278961688795995 8.040006219498693
Rh 7.24981955368898 5.635145202739896 5.440738108939251
Rh 3.858066848036139 6.1509117036700935 8.76184322591682
Rh 5.8452836528896635 3.8091015455315955 6.558879969466259
Rh 7.277065500604425 5.534037147145187 2.863908364519533
Rh 5.7132346378900065 3.8019663825981795 3.9472258257186645
Rh 7.838259388705331 8.45508614348801 8.097728826325183
Rh 3.703040756965726 3.2893559630750184 5.296869127267884
Rh 9.204728222207256 6.700329900748326 4.188683316627065
Rh 6.042907573474908 4.798761903953924 8.868521775466803
Rh 6.062611091171081 7.292442303117695 9.602372375747906
Rh 9.819692309688081 7.377040864610427 6.712530005949823
Rh 8.085895202694807 5.915855123303932 7.8484278643843215
Rh 7.8348079096287115 3.031600763730254 5.171365191248576
Rh 9.33425074843885 4.206574215036745 3.5433259187237316
Rh 8.013703726524158 3.3912775318776243 7.786528020222518
Rh 9.533737640635813 4.817175514592875 6.065308001945496
