34
Energy = -197.15235511 eV
Rh 9.99816645969845 4.914691199338522 8.246167800732708
Rh 9.426728758283955 4.929365956668822 5.749524551358233
Rh 8.15522508646969 3.334819074466159 7.32858106751766
Rh 7.62172030406476 3.1972992373083495 4.871567166235356
Rh 7.179738098836158 3.1539953757379875 2.3559255435691577
Rh 8.850052179629687 4.817086011921837 3.224843924848982
Rh 9.320852254124764 6.825317074628215 9.797860869081996
Rh 9.535168139260364 7.189497343089175 7.050590420941088
Rh 9.040599752712204 7.1315964602256425 4.448276755377084
Rh 5.753296081941255 3.9709580956823647 6.624951380846275
Rh 6.956056494881316 5.652247580211203 4.784519925187311
Rh 7.857582965116248 4.772981493257092 9.637681516713874
Rh 6.419911325501503 5.549607863996094 2.291338609791914
Rh 5.290169386250502 3.8539481944161706 3.944315777719312
Rh 6.636049279184622 6.769892266495034 10.540908541644676
Rh 7.415640481633098 5.853884608118777 7.414659000083317
Rh 8.505210860669811 6.94759425120574 1.928269156033836
Rh 6.707134511152276 7.863923059811421 3.4451927830086855
Rh 3.4702592723553805 4.458174582252881 5.449561617449036
Rh 7.250005232055911 8.082184669742254 6.035588568148057
Rh 7.507448217462341 8.062774229093083 8.584933740455549
Rh 3.5361119437093764 3.777286668997838 7.865723553835663
Rh 5.390342488716636 5.175820130080479 8.908566353169721
Rh 5.015752160255555 6.608679480642541 6.530714014404666
Rh 4.9754139714529995 7.775081989905997 8.870877629467845
Rh 4.486467766977012 6.40937927060381 3.9613153094186115
Rh 1.4035984320903832 4.83978750730544 6.909972052403561
Rh 5.000893738583731 8.78264617473601 4.949352190427267
Rh 3.062353551957434 6.229160423548142 8.26481861328527
Rh 5.693111836963154 9.601555337950497 7.326667732169843
Rh 2.500486854287499 6.747411790614566 5.712844429034647
Rh 3.2630818864398297 8.69228690329309 7.273735096927269
Rh 2.5175929533293546 8.989968591972705 4.840629320731918
Rh 3.8887877307652263 10.816874503149593 5.9251554526433985
