31
Energy = -175.63494082 eV
Rh 10.522820770635022 10.312852399438297 6.022322672828708
Rh 4.3607940285224736 8.35805358817675 5.306924745487232
Rh 7.042210738065278 6.115143351005803 5.416769519289194
Rh 8.032459185433796 7.064818355843759 8.628776793137561
Rh 8.110150718546281 7.126763994405861 3.364323900127477
Rh 5.4014923951183365 3.489185507741208 8.551696031853782
Rh 6.734228365196934 9.132540687508403 4.056181505123481
Rh 6.738641284259044 8.340562140973647 6.392297242428718
Rh 6.9668949172351295 4.984164352527328 9.902365727777223
Rh 11.165495918330063 9.676057679626785 8.447707442275409
Rh 4.983510776571475 5.367057611368171 6.845674541909228
Rh 9.065169450660074 8.417909755678888 5.228239473551854
Rh 8.709597077431317 9.4312525859854 7.582396363083341
Rh 11.209811351364035 7.950524084239319 6.542115783043989
Rh 7.3638703042359035 4.685161223681461 7.376877013789168
Rh 5.046426534034919 10.710052995174859 4.691105903645166
Rh 6.357374275653739 7.283120337624785 10.564298812888818
Rh 10.661255494998041 6.938179897183843 8.918490666282118
Rh 9.311525980474851 6.219413509724113 6.62847206581842
Rh 7.921529256025083 2.830040484869417 9.081290235864673
Rh 4.618733555980125 5.837506165120963 9.37143096410112
Rh 7.43159242912224 9.388017028360869 11.238456325536074
Rh 5.029943391905514 10.13268860051625 7.078902700413951
Rh 3.739111601909036 5.9768424356360255 4.918819085273032
Rh 4.195029879484116 8.38804720001848 9.989879607954917
Rh 4.624039756547248 7.67791548342472 7.688051040680035
Rh 12.849359265480189 7.8451615194015 8.415087201747623
Rh 5.590531631972258 6.891658603364329 3.626350132739363
Rh 9.316115175809848 8.862158955386095 9.926541517936741
Rh 9.430640793948863 4.8276192086078025 8.831214968433287
Rh 6.464794453048901 9.170943334599837 8.895509636404359
