35
Energy = -204.67319729 eV
Rh 3.2529391407406134 5.421564485876186 5.9047669307928965
Rh 2.3296463213298626 7.0276048887013305 7.620253528367583
Rh 3.3380872345093406 4.795161398317514 8.352193024084746
Rh 4.013433919162158 3.8038490180861895 3.9972249907943875
Rh 4.337015362660313 5.009889606360327 1.703463383320789
Rh 4.491296728713774 6.357180858795754 3.799154408513961
Rh 3.555269197103837 7.977323247737506 5.445527922158432
Rh 4.342437821424676 3.104826894277861 6.619379317610446
Rh 6.114090185733788 2.4572542350036977 4.74300872012705
Rh 4.507212582608836 8.35504827934028 7.866002445848464
Rh 3.7581489233066163 6.9592621814432425 9.826564423012265
Rh 5.4654562992265445 8.691385636095266 3.6778723684315486
Rh 5.736194020003166 4.937889930175889 5.557878225058591
Rh 5.4276860389484 3.6338021397628366 9.129724558835736
Rh 5.17878168111452 9.98175898130363 5.915888150942368
Rh 6.416576358432558 4.460443450000596 3.0498048895327496
Rh 6.064949058172977 7.512998048290949 5.947609797157779
Rh 7.761719441663466 5.700694297393744 6.8343671227879765
Rh 6.19023265846012 6.777031125438285 1.9870523128645394
Rh 8.16239740024218 4.0123760548033065 4.906134842323608
Rh 6.924974300945191 3.2172310629535046 7.108989126421583
Rh 5.853395598890483 8.52830307359433 10.034692013750862
Rh 5.4807010319759435 5.967543475329638 8.01938990124382
Rh 7.759820264354059 6.461837944946465 4.088201916532393
Rh 6.961473786754025 9.373028120895468 7.673758173923045
Rh 7.8143357299404705 8.567562063850549 2.656590153734364
Rh 7.586336968985347 9.444176217791355 5.067847557229732
Rh 7.851329928153258 4.566763710662977 9.145614567753334
Rh 9.495079766591981 3.7505408930871176 7.212078540393023
Rh 7.636274054027797 7.2325883524641625 8.909795157393154
Rh 9.953007127875578 5.833297153998791 5.537021779234414
Rh 9.866246624174781 6.098572771636795 8.199144859533227
Rh 8.860187629944217 7.951278786110283 6.684332588192404
Rh 9.716927573588775 8.135506906816891 4.318642433505071
Rh 6.002477905909738 5.923066778385843 10.4752626545203
