31
Energy = -178.36013024 eV
Rh 2.542025030238343 7.549017156125489 2.7905460892033824
Rh 2.9808754696384647 6.025551896171998 5.065166421095509
Rh 4.340521149910536 5.843088128602838 2.793382370367931
Rh 2.984935938661461 8.58791373998397 5.037485488014263
Rh 6.4206520193644 7.666262931513041 2.3284290118180375
Rh 4.525255040078953 9.13071668334395 3.084662949277945
Rh 5.026396718176738 4.516701569508198 4.852635334743394
Rh 4.211310571599635 7.345799756467025 6.897034817865798
Rh 5.344839990450671 7.192720152516633 4.574736115626754
Rh 4.136970185924148 4.869980737965287 7.288175668410751
Rh 7.216944246377529 3.1887349122483695 4.862415754550969
Rh 5.223917555060526 2.659406469567851 6.538498977731543
Rh 6.907589058285358 5.3702109203431165 3.3872577196361857
Rh 5.355017620152376 9.526380765624635 5.531264709766688
Rh 6.97371976945667 9.911886478841899 3.66452798257881
Rh 6.869852779413776 2.1111936054145333 8.407630974114637
Rh 4.309282936930323 2.9142652427458025 8.883039944417678
Rh 6.843531824635778 7.11550099712346 6.606332705651067
Rh 6.2364399518906835 4.237322547149885 9.64323580524207
Rh 5.70659543080029 6.542741916070031 8.825931078026677
Rh 7.959981597974625 7.662846395089721 4.318576608956799
Rh 5.829762672435413 9.014601160525027 7.988317256293384
Rh 6.664485389531156 4.594308514108614 7.206752541023772
Rh 7.794483805132912 9.527018777567294 6.341568359577656
Rh 8.397367857303506 5.349877897059128 5.4533091081082254
Rh 8.732401881838657 3.2133985462915198 7.012960405287275
Rh 8.67422759036051 3.583913238243921 9.595362079419997
Rh 7.821539291991696 6.071333916443936 10.292583593422082
Rh 9.397708209927883 7.506862001407798 6.42742790329251
Rh 8.126761124698703 8.026313662965302 8.629029030057428
Rh 8.892097931601828 5.576221409823307 8.07502344705316
