34
Energy = -197.29948087 eV
Rh 8.85494446593361 2.3504344898407714 8.590186624934052
Rh 8.56141605184686 4.839958238401066 8.240278628512238
Rh 7.152989686251337 3.7303532235498964 10.073085801381048
Rh 8.723840622221022 3.3137555864730306 6.181707664355619
Rh 6.627753402887021 3.0709926528050375 7.650362848516471
Rh 8.48000585981045 5.858180268589037 5.819819038461905
Rh 8.32133837924846 7.366054892032382 7.93706422729276
Rh 6.861082576068704 6.227872678768823 9.789842481928213
Rh 8.51155830210589 4.37737481702717 3.6871534128038124
Rh 6.240275233059842 5.63608019313065 7.34688353606852
Rh 7.279333407733193 8.756558520034934 9.755122314142405
Rh 4.8884897973791475 4.427200943589591 9.183769223084445
Rh 6.43591228943313 3.9837531538496984 5.192919618081291
Rh 9.257148064053695 6.952287917753473 3.6440832504619594
Rh 9.131301218851547 8.440239614804405 5.741358466532379
Rh 4.348106710190513 3.7074439168365823 6.712780987654453
Rh 6.632198731040342 7.77157140855181 5.8453371620613295
Rh 3.994385710055015 3.731730023925101 4.159269590828988
Rh 4.681891013361079 5.983040966964282 5.248724369822009
Rh 5.519101696011573 8.052306281151848 8.182696431557188
Rh 7.436694750541374 9.775199181478063 7.373707261741656
Rh 8.334952250017157 10.756287643719537 5.230738200882569
Rh 3.70892658630659 6.40498674697808 7.629828495743519
Rh 2.494872991719285 4.364780309440168 8.279473206912375
Rh 7.508599482734227 8.859010931279615 3.707186580279979
Rh 1.9859827848256717 4.947623128349106 3.278799378241962
Rh 6.786412060978152 6.281657865953707 3.6410632591692607
Rh 6.0622050325657115 4.032064977059322 2.656090291156753
Rh 3.994232719009475 8.508351064912555 6.097561394994539
Rh 5.86875177135879 10.11080569104291 5.303297037861311
Rh 2.2778563042780524 5.035514874972945 5.785779224567618
Rh 4.29153788841025 5.919098039116459 2.7221289023535746
Rh 4.992655379897415 8.20084102954475 3.7589424637847615
Rh 2.6582359804560776 7.172281993148892 4.326110036194062
