3
Energy = -11.4891254 eV
Rh 6.59473387959434 7.098908077554484 6.589950967290879
Rh 6.594733879594339 7.950054733761504 6.589950967290879
Rh 7.765151208102098 7.0904222213932355 6.589950967290879
