30
Energy = -171.02183131 eV
Rh 7.9306529156384 7.1506277723788 4.082134455289694
Rh 3.5462678190397843 7.260067774776879 3.4955591095562983
Rh 4.711623449728849 9.224199724053477 4.425237916213413
Rh 7.9050941210137085 2.6245923590299487 4.307418264654919
Rh 10.481294364342569 6.799367016580093 4.292914770755703
Rh 9.121854921132693 4.749003397949303 4.307938042148456
Rh 5.6052673400242865 6.513980654833964 4.555331915582449
Rh 6.149404998857633 4.17626695045997 4.870380683180585
Rh 6.86648627977835 8.936949539573122 5.5937869634078305
Rh 4.116241261399151 10.913410437693159 5.953096637913818
Rh 9.177473949279916 7.791709079962346 6.222200476360553
Rh 7.770724707352273 5.747526767446357 6.220241925793851
Rh 3.7020896689739855 7.572901043014714 5.988959137751733
Rh 8.426141626617735 2.361633324759569 6.616012623526307
Rh 4.447332011933032 5.14092151901772 6.613850315741172
Rh 9.903687028247276 4.307692366803659 6.5820217704527275
Rh 11.213829055375111 6.274252665552672 6.672031614100068
Rh 5.8914273367732894 7.29035892077709 7.206315449359928
Rh 6.204739205692021 10.766692853830158 7.12947898306085
Rh 6.5791232476177255 3.77319317880637 7.307158880074207
Rh 3.146814942095058 9.297482089165236 7.523001135053548
Rh 2.646407942390241 6.621217968070419 7.97436772773126
Rh 7.838585943355904 8.90804238784939 8.041629690926339
Rh 9.718203207410358 7.119916566151188 8.586139016272021
Rh 8.48637918805072 4.918286633448143 8.53679101710264
Rh 5.163720564484649 9.17389437051977 8.664826866620151
Rh 4.734323984611701 6.047445567367077 9.019029105178948
Rh 7.318007920208805 6.897028178703341 9.44662801688738
Rh 6.301061492907611 4.350490997188468 9.708595204815042
Rh 5.452471449522676 7.847579838093353 10.613654228343412
