37
Energy = -216.51917753 eV
Rh 7.038012346402856 5.789489471836529 1.925582843091578
Rh 4.522292237177582 5.603153967220536 1.0414579681073803
Rh 5.6225508866630785 7.917227743714063 1.3221606993597088
Rh 2.124900179587184 1.5238225452577607 2.6951332313227283
Rh 5.6536482962181696 3.816349540249012 3.0725553669542367
Rh 5.7017062657684185 2.437832300636793 5.387487917766433
Rh 7.219740401066929 7.8958508082808905 3.434457512113926
Rh 0.71765511099039 1.8398279845771282 4.863983667130034
Rh 1.911854227675263 5.4443263341535015 1.1916280663661456
Rh 7.197395901595818 5.5858681883673995 4.576247479967357
Rh 3.9605796658258994 1.3813565729740638 7.014998483168601
Rh 5.006130598229675 6.454151779451988 3.4051179773723965
Rh 7.835105299819274 3.5006975352073892 5.744702273968878
Rh 3.092814567359058 7.525722599573579 2.1702116322319847
Rh 3.1220954334082704 4.680613017798655 3.2972315485591874
Rh 7.131415389862701 1.5012166550712371 3.6449453381968935
Rh 3.7286944732746705 3.1215385772957362 1.4073385372705312
Rh 0.8960130977487702 3.719651749045791 2.855120512395031
Rh 4.79152055347581 9.010676737184518 3.590877760134471
Rh 2.9453345078109168 0.2660759103164831 4.860514832557664
Rh 4.63109481468087 1.4344685494200229 3.137975703503097
Rh 6.234034896803892 3.7167377811589115 0.6528905844033065
Rh 3.0960043656313165 2.7579676786033063 4.928639989601791
Rh 4.7233365703631005 4.82043685739187 5.3452527001913825
Rh 0.019821910643298093 4.304680932813709 5.142825297972451
Rh 3.1833619048276303 7.452707379841085 4.858334206651427
Rh 2.206856111808142 5.196479495411225 5.791105717361076
Rh 8.17410866386526 3.720311195995916 3.127546672946337
Rh 5.7798790792486505 7.504797351671425 5.587778058791609
Rh 1.5620439539811959 0.4904622132105948 6.961277681712296
Rh 3.921435740912897 4.014656355978285 7.558888326939807
Rh 5.4368791528245275 9.010676737184518 5.157333661591286
Rh 1.2093723285836346 6.326421788611304 3.591236295127961
Rh 6.353256273131002 5.280832591470321 7.104152884968256
Rh 6.100442227074432 2.7593009665386887 7.783021620719618
Rh 3.964653509977752 6.579113348877529 7.134372324180543
Rh 1.5634238963451406 3.009383128384735 7.015079465965156
