36
Energy = -210.4650116 eV
Rh 6.023850340313038 7.290408620123995 3.0237611706193857
Rh 6.651380877296608 7.338336008621237 5.352821290454653
Rh 5.644812006353786 3.05761170891836 4.203929650727422
Rh 2.1619365438362355 6.479569591611156 2.9448650982614173
Rh 1.267081953740013 4.494830532258955 4.269293478437893
Rh 5.559592066005046 2.4369963004320976 6.744702351340024
Rh 8.219360893450936 5.545096099421728 6.335872921212283
Rh 4.786232969271815 1.051667177547869 2.707002310393199
Rh 4.45106852379909 5.252829490011879 3.4480075984230583
Rh 3.11277659494999 2.931237596163181 3.3734746255446932
Rh 3.788167137825441 5.897849007545762 1.0378197629864416
Rh 3.0638336727847286 2.1137809583034093 7.486595810251209
Rh 0.6330581635467118 2.3414992479508174 2.9854209577493616
Rh 5.762058455858992 5.109872877920509 5.874805800410856
Rh 3.877095944134798 7.484597153929843 4.561144848627728
Rh 7.752722682326883 3.1279423525200407 5.654808372680869
Rh 3.5523401150830995 3.908994034719688 5.64376230238991
Rh 4.426316113806437 4.214952443043184 8.143136162119085
Rh 2.612073814214073 1.6244131392236496 1.26609966058748
Rh 3.5850117229415326 6.266617883190913 6.818927434882937
Rh 4.905182766479444 8.399283439742094 6.716580992712937
Rh 1.9423348667924214 4.2495824367495345 1.6542623969668089
Rh 5.928465627788147 6.393981422890833 7.994160610464895
Rh 6.541426985983279 0.8602910682131922 4.852074852978294
Rh 5.762887816241116 7.471510370315562 0.5180803131300166
Rh 1.5986323156592237 4.504978185584983 6.943718485304177
Rh 2.270847639279603 0.3587547133399387 3.4858383497627647
Rh 3.9903774912631143 1.1989528897019264 5.190462963936004
Rh 6.295618519428757 5.19352901136102 1.4990132595220447
Rh 7.331840710490083 5.033518249105747 3.835948451696175
Rh 1.5350937355576533 6.706404107177696 5.449667472474268
Rh 1.5947570076961861 2.1157328041974144 5.397660464447861
Rh 6.879062358107797 2.8333823032106062 2.0854838997802347
Rh 7.068811288402415 4.061574379987222 8.082243159587877
Rh 4.503949028991833 3.3779824306283026 1.318988950369237
Rh 3.887794024023841 8.239292738059623 2.0674165424916913
