38
Energy = -222.67418002 eV
Rh 2.766209049953165 7.4035638813702445 9.629313851489515
Rh 5.062099700455727 8.18929911822058 9.058681514194873
Rh 3.4212721017244654 7.369181464292271 7.176826362156801
Rh 5.68183253340048 8.98114653171428 6.794437520762199
Rh 3.68000737160023 8.720060096319182 5.08230810280133
Rh 4.8195239020104585 6.268739305535265 10.712156738752146
Rh 7.575559193627923 9.021660614950529 8.524177599698799
Rh 3.4194463427355566 5.036000205266963 9.020381377444307
Rh 3.980755976279046 9.780506736976724 2.7894755274335936
Rh 5.798977291044834 10.14479859664245 4.512250422084312
Rh 2.2976901839363153 6.548696566648858 5.043956744341646
Rh 7.5193067205353685 7.125057891520665 6.83906560813783
Rh 7.012665254520571 6.612398964726475 9.522709709037132
Rh 7.71136788274667 10.419037299164227 6.330308341515724
Rh 3.36947076593207 4.708319571469216 6.495946248172529
Rh 5.609270431578758 6.9661119374902984 5.067993379197382
Rh 3.499230495806437 7.336537971407251 2.8714673094626844
Rh 5.867277724401257 4.127924115849056 9.35560787301761
Rh 4.2390302587836945 2.812149076348108 7.928575680621318
Rh 5.381516250533 5.8472554999009745 7.557085691812324
Rh 9.560797920468758 8.548241263435349 6.51404026585977
Rh 9.372570403877168 7.081774351977023 8.68936801747088
Rh 8.121876003013577 4.796678081566992 8.144432329883296
Rh 5.980063734320919 8.183023529607208 2.8341525074347014
Rh 7.051723193902969 4.7740133599985635 5.749810938568903
Rh 7.776987943136293 8.529313948540276 4.6531774974114875
Rh 4.260607275495096 5.201913107696397 4.128282308231062
Rh 6.824722655368401 2.6726668540278844 7.498785699331123
Rh 5.448812188683837 5.845130786287084 1.9307090603587074
Rh 7.473724942873711 6.14644794251535 3.4475378307055515
Rh 9.72397326709254 7.0510713925796376 4.181016454011248
Rh 5.146184647704611 3.159422859990963 5.5657439166223295
Rh 9.673347466829073 5.8542136723897125 6.3752466943544155
Rh 9.229998252763886 4.464827377362785 4.326267890677005
Rh 6.317482792105574 3.8629150340118006 3.390213580573323
Rh 9.373595608304962 3.216159622056829 6.598168359485249
Rh 8.429848516613257 0.9385119398263057 6.876808115085565
Rh 7.66272536390293 2.396781038379755 4.925064539864374
