38
Energy = -221.88157266 eV
Rh 5.596130902732223 4.966036313898213 2.803596221049654
Rh 3.274595898972475 6.131946606747024 2.6439155722374417
Rh 3.45900596117005 3.86143798148791 4.016472959708066
Rh 7.631521272388158 8.91252338615021 2.4044168577543883
Rh 7.784746022963971 6.456489445812417 3.0701197068388355
Rh 5.408751344421376 7.5042677997169385 2.21086328138576
Rh 8.929918608369176 8.209880878970175 4.679575956586987
Rh 1.469786149274916 4.314906585898034 5.3981706341447575
Rh 7.841996213069511 3.9957597699947027 3.6212807689506765
Rh 5.758241963756956 3.5573592682098045 5.083695286649405
Rh 4.542347564577417 5.975618351853767 4.835331116953869
Rh 5.34214327777862 10.037689661126866 2.9855286291547274
Rh 3.719986767205504 8.313103192633955 4.045206953910654
Rh 6.34442830461903 8.066351998223901 4.482472794502329
Rh 9.498519125126275 5.514362679196195 4.962149853439468
Rh 7.420093307484913 10.472346156912613 4.5039473667021195
Rh 7.090063869649536 5.838163678184274 5.583244323496856
Rh 2.0917221555110355 6.674704039021886 5.030144286594195
Rh 3.6463809851518705 3.2151980721028393 6.576486224467166
Rh 8.175599963518449 3.455546772927954 6.063402230645818
Rh 5.026156039952711 10.016782736945343 5.568116946412667
Rh 8.92475717096129 7.066775476076428 6.933653158166151
Rh 5.254382531742052 7.7580786154140435 6.7932757263887575
Rh 9.95817000563956 4.771038746033823 7.5474221247924
Rh 7.429763832326038 9.05883044227453 6.6505685893343855
Rh 2.940338237037819 8.239386020626824 6.716821945680109
Rh 5.1938626754714745 5.1700860679957374 7.131537841828304
Rh 6.865438120172115 7.364823294314469 8.644334718551725
Rh 2.721287087910536 5.561915090623323 7.265591338580743
Rh 8.512067283429959 2.573938745174842 8.390637697656027
Rh 7.48369127655078 4.9142064562891745 8.160875506082816
Rh 9.117489595178377 6.524087826897454 9.430390231644953
Rh 6.022422549398822 2.717308100435349 7.547596320774531
Rh 4.331143345488537 6.658197786060661 9.000710816758435
Rh 8.73394777875821 4.218091166743777 10.376399752950283
Rh 4.272155968540112 4.0130359179403055 9.12275091401923
Rh 6.5446504129249465 2.9424514867254348 10.037376521977176
Rh 6.203284811818422 5.413940545019134 10.26557282023936
