31
Energy = -176.84717263 eV
Rh 8.044948564652607 5.8040650937051605 2.0599482090230055
Rh 6.562578694061912 3.4825447017714724 8.246960473866926
Rh 10.03015360512525 6.173188684824142 5.632059229829432
Rh 6.129395953943914 10.240852962692882 9.188204702991984
Rh 5.966719497669194 6.664738116584616 3.4741522717027284
Rh 3.4085555446985305 7.2986948918878785 7.947761553770352
Rh 7.820770014162042 5.398544429517133 9.48927222969839
Rh 5.2577323494358446 11.756046219981137 7.453721646038748
Rh 2.5604493108259314 8.68330167884086 6.165753926194587
Rh 4.690185042382413 2.345760000462961 5.23347158121487
Rh 3.7857561798731845 5.009143133259373 7.012879478064551
Rh 8.332828238153242 7.351556176654395 4.014822796360614
Rh 4.537413775407973 9.969913972931103 6.075746845460168
Rh 8.143182366132251 8.734868867791608 8.758332807045097
Rh 4.332479186235424 2.739538551036348 7.600864674101261
Rh 6.563942566272797 1.9331574727008571 3.6927364435403267
Rh 5.6923673529597565 5.825047928327962 8.236012952678257
Rh 8.431435981064139 4.771390310443882 7.031106495574722
Rh 6.373179188783403 4.144677274771589 2.7966793809408625
Rh 6.43998286960772 7.499566231782912 9.972692307643204
Rh 6.908439041339652 6.492206723045475 6.1467047949460385
Rh 9.593923339226567 6.7370081088173785 8.20318651262087
Rh 5.6322116767651575 8.42009633517136 7.621902576345664
Rh 7.0709208807956365 2.9914993978395596 5.838189717107715
Rh 5.31417405285441 4.717682481818366 5.013424066411304
Rh 6.456234985531603 8.809308638322724 4.954195726343037
Rh 7.323416828388343 10.277977197120608 6.959387795621881
Rh 8.17817509156057 4.801320840140597 4.435680001965909
Rh 8.962149353291313 7.3315166663388895 10.6482557586107
Rh 8.736969086694844 8.246932372258305 6.328104488987799
Rh 4.464034414938056 7.092559571992007 5.512493588133192
