42
Energy = -247.91438168 eV
Rh 6.333814369770718 5.589995299842683 1.39552970863885
Rh 3.8828871437600423 6.5264218034973105 1.227080627130553
Rh 2.59957596160421 2.200640067589994 0.6901959419115782
Rh 4.419180642711131 3.9676162523835226 1.243931213984894
Rh 1.8196535509596057 4.6167612331605605 1.6049018140497278
Rh 5.862618311274317 7.932060805139175 2.3682211405450495
Rh 6.882480472433774 3.1312949045741103 1.8270174708324958
Rh 8.301401949466621 4.973891421095956 3.085072597798449
Rh 4.746249499052881 1.413094735123712 1.9977782162042244
Rh 6.09962074407521 5.833298614274934 3.8324099222941945
Rh 1.3575695763277436 6.650819329643026 3.2526946726541555
Rh 0.5669552350285649 2.36301643026998 2.4088670939919274
Rh 3.619052142938696 5.380024290576451 3.4917299072327026
Rh 2.3819134564434723 0.46006248112941656 2.700556256875877
Rh 3.56490629390611 7.850772729568049 3.463648720072267
Rh 2.983749668205958 2.9234405771244694 3.1047243212666293
Rh 5.409620055071199 3.3715404513836957 3.7679916219364418
Rh 1.0651626622188486 4.270434286724756 4.1355907015043085
Rh 6.569015723567339 1.027251043801407 3.767464019462932
Rh 7.750182699257466 3.081486642680234 4.7234688063691195
Rh 8.022750965708902 7.492243969131897 4.105833574833709
Rh 1.5486194946810161 1.758156223491336 4.846977196500865
Rh 5.668768638696428 8.251631595465938 4.896325120628556
Rh 4.090084769822831 1.1379171451775612 4.580302783553663
Rh 4.418136738893704 6.095927881822383 5.8543673761797335
Rh 5.9364650721769365 1.4842511519234363 6.2713045204165745
Rh 5.9256548309690515 3.9563392806035806 6.1865182888739465
Rh 3.1638585095048626 8.339676553004743 5.945543444793675
Rh 7.088668572325685 6.30044551951271 6.210168200964705
Rh 1.895747325861096 6.0320913970201895 5.810432512261602
Rh 9.07958962123718 5.125052539924919 5.4673133333609
Rh 7.6361316426190164 8.75569886156649 6.551386433641037
Rh 3.4403329106877543 3.73342064985444 5.502984439229077
Rh 1.0840781245536564 3.5830133110984845 6.622063956700612
Rh 7.7889699348140615 4.395024299964405 7.790078629728378
Rh 3.378835962938612 1.7411346437159463 7.009685111600931
Rh 5.346316208786924 7.997867596789914 7.433042650359262
Rh 5.315061041857131 2.9323667812822243 8.383796171208683
Rh 3.119493672026166 6.782500919572698 8.052326894365926
Rh 5.479587076673068 5.510031174366374 8.283848959845779
Rh 7.510889904368457 7.137566844749561 8.54862847388418
Rh 3.1937444341160424 4.24111387177053 7.905592763704816
