4
Energy = -13.90231818 eV
Rh 6.702687532322593 7.42562231744102 8.255992915070042
Rh 11.070703412021896 7.708856293282864 7.413005784484099
Rh 8.840645206862055 7.5927230331753375 6.775404262695725
Rh 4.609986937492157 7.938507042262724 7.767862024092452
