42
Energy = -247.50185753 eV
Rh 6.440278304744742 8.836741769570462 2.9812247944837442
Rh 7.7211330255031525 6.617063412529637 2.253537785139931
Rh 8.790785463774691 8.45642403012036 3.8750819617312176
Rh 2.5474434160786132 6.845940910033841 3.116065849121002
Rh 5.019413804463958 6.757531946954214 2.375290326393557
Rh 3.576815691630412 4.544729156451607 2.556176564088377
Rh 6.781051798606416 9.110589394018648 5.627147900850562
Rh 4.411477412498764 8.32286703886497 4.535455602176438
Rh 10.124218776328481 6.243449147589607 3.4317887172964667
Rh 9.369084286405553 9.522593613330693 6.161524427089228
Rh 8.329442687944946 4.77257962192504 4.175681800363117
Rh 2.050759930002213 7.212403350924014 5.535343439718548
Rh 11.059517789895033 7.864067289483969 5.130066101121248
Rh 6.6152634858491615 6.759525216278809 4.488020675324406
Rh 2.0072045137888894 4.690647756773812 4.592342822693296
Rh 8.73995260472898 6.785319950734122 5.822986863958371
Rh 6.012690351059548 4.4952862793794655 3.292408055226506
Rh 3.6347797732223897 8.651143542357364 6.945470357613392
Rh 4.253733621917441 5.793899473064722 4.792357034590822
Rh 4.320024050480929 3.267687408644124 4.864690593138615
Rh 10.839814176126389 5.435270001818341 6.026791180328673
Rh 5.695432679179459 7.122369607759226 6.917983314894375
Rh 3.4331461658601046 5.7254480426639205 7.210501778522745
Rh 10.409057630273377 7.473096485436408 7.650399696030334
Rh 6.179431402315809 4.691119983966638 6.195594533940511
Rh 8.856463048774721 3.933358660655351 6.473757556601625
Rh 6.989002978797968 2.710848210896704 4.930742242307364
Rh 7.986219050395962 8.343828040747171 7.856923074353916
Rh 5.683397382982597 9.303059003242913 8.306096649242937
Rh 0.9431902116967814 5.237354455714661 6.879552002058192
Rh 1.6999968288413336 7.396087395117955 8.064638258120805
Rh 7.756103221146493 5.7257266735060846 7.92203986417386
Rh 2.3852776994663176 3.1803882365638145 6.60969466718597
Rh 4.767686930979733 2.956414287429844 7.426505946911604
Rh 10.096539140889494 5.021053238723914 8.512569889873463
Rh 4.092701802018894 7.346056766414602 9.140831251923776
Rh 9.14812394040776 7.049792377041398 9.839580697833501
Rh 3.062656318676037 4.034566727046515 8.941621836769459
Rh 7.170705233803907 3.204017453960233 8.222738045097678
Rh 6.5733525038912 7.230392939439319 9.691775098312846
Rh 5.417349148349713 5.087030011783928 8.818613693370525
Rh 7.705164472323283 4.947031576170868 10.279290178857512
