40
Energy = -234.60607459 eV
Rh 3.8213808697076295 3.8224521676872185 8.454626812044944
Rh 5.205662405328682 5.96060614915312 9.258340589053637
Rh 6.597031688793122 3.867317923038241 8.789687486113202
Rh 3.106461675017285 2.1277536279334566 6.537403214108112
Rh 3.1430532034645373 6.452039493332671 7.844916445218038
Rh 7.669848074186645 5.551331864762715 10.414194349157853
Rh 5.640300918368898 2.669966624883581 6.769701210348744
Rh 3.694208625979787 1.879591721585681 2.934697329477933
Rh 2.2492402431581318 4.484206481842241 6.332828665341343
Rh 5.008453604884657 5.136546440587726 6.726013988434087
Rh 1.778674236766679 2.9382026973726743 4.297295016383331
Rh 5.3016828590853615 7.914805793278252 7.55056028051868
Rh 8.123201905696693 3.337506702514036 6.66106615576048
Rh 1.261110064401721 6.866447095962121 6.176914540394024
Rh 7.121032570108066 7.656729609053566 9.257099820003754
Rh 9.160328162403289 4.297788536049147 8.763552929912311
Rh 9.44709153637244 6.932790615493979 8.470635262944535
Rh 4.239165574749911 3.5297138437726 4.786829255136663
Rh 7.427023791414571 5.804343803562047 7.31897854361298
Rh 5.715409992019074 3.465326451943612 2.6694032952594733
Rh 3.5049199791415977 6.234859461523394 4.917898558833592
Rh 6.6831866799772675 4.408607012166759 4.831573950493967
Rh 3.350827522839179 8.532627495789583 6.1030575566532725
Rh 1.289172796356187 5.439006036650266 3.9698122881883666
Rh 3.189623763321887 4.296928135975483 2.554577538196612
Rh 9.948551406407454 5.259389631366989 6.564624360758805
Rh 1.766288897876604 8.139267836084917 4.038920373757783
Rh 6.063141184339318 6.979220608990389 5.3279261649949
Rh 7.793129971225596 8.33924111972629 6.880719800169048
Rh 9.16425233820345 4.063911321650394 4.361296981168619
Rh 8.535839937624681 6.543797091813306 4.651658244625207
Rh 5.866022495292536 9.447532134327199 5.409710031025068
Rh 10.218192479993894 7.81536838249441 6.088139216612635
Rh 2.868199787942431 6.75806113441786 2.244945880740156
Rh 4.337393791403139 8.333163281998461 3.663372328638282
Rh 7.602994921654454 5.360369032633952 2.617526900464136
Rh 5.1741890826022034 5.942800838026258 2.925556913063389
Rh 10.974668311313705 5.920503526981762 4.431645071724521
Rh 8.534792665879735 9.134319136653037 4.648801012936035
Rh 6.842460942704134 7.93032330349817 3.1485298408017446
