49
Energy = -291.63836641 eV
Rh 5.989267645426321 9.100660681582584 10.449647877246443
Rh 6.674074043358486 6.65703927051883 10.207226832488109
Rh 9.20319036639022 6.301262245708734 10.19028622323379
Rh 4.219488732521404 7.468318657858165 9.506946688897857
Rh 11.581041450637578 5.587376991862985 9.43081819977316
Rh 8.281154319492819 8.580242240487518 9.422103893100333
Rh 10.624892198876873 7.758038754244491 8.72600750028505
Rh 6.948249578675237 10.677276755624392 8.685848843486344
Rh 7.1977590175483455 4.126283792390093 9.893654690877469
Rh 5.299216510763468 5.304525762837497 8.574292128606231
Rh 2.6901795927655474 5.652349239719245 8.498589920176036
Rh 2.2289068653964454 8.28132080763407 8.033845999270762
Rh 4.40305169119782 9.797557602738877 8.562853295987184
Rh 9.743715898557818 3.95897803229659 9.258962533007761
Rh 4.122327940883495 7.0387821892748255 6.879669729747149
Rh 7.912341645110881 5.646750880643149 8.029340364722968
Rh 3.892884919870993 3.4000529545199374 7.642322777744185
Rh 6.49581396975773 3.28193429366129 7.4881893074655554
Rh 10.412369571710974 5.704648779478127 7.1579545286623505
Rh 1.3688084036110697 3.8890659894638264 7.349087135053979
Rh 8.837349678691886 8.019080746814616 7.004787554658429
Rh 4.819010878428555 9.636815868917607 6.245156066222864
Rh 6.350341473146763 8.025060769041893 7.77362054954357
Rh 8.27019976263992 2.0327646751164425 8.7960721795098
Rh 9.101070119276391 3.4440115392226356 6.867320691275377
Rh 10.332553711022467 7.120987872720978 5.035003978312275
Rh 7.910573280010609 6.03865622113667 5.551194669214635
Rh 7.312945186379006 10.076706170790501 6.391059083799615
Rh 2.9113728055492203 4.192134605544564 5.458245616072939
Rh 3.683336628275673 10.711534708175403 4.291633078408534
Rh 2.671686983422082 8.65887122855815 5.41600490479617
Rh 8.240420184910587 8.55905545570914 4.5403487366642095
Rh 5.888015247759159 7.5284102179547565 5.036706605581731
Rh 1.6880674424716047 6.331167149835308 6.215420413988602
Rh 5.39065495023511 5.085762040772353 5.887911514316937
Rh 4.989568653047626 2.6079875228213765 5.333864277856546
Rh 9.904273841114104 4.5919411965524635 4.753482211507344
Rh 7.420368273663422 3.472889930250586 5.05873144274875
Rh 6.153847023108852 9.945505875561611 4.041389635216469
Rh 6.3967055649308815 5.306829959983744 3.48583968142958
Rh 4.137055545348639 4.127280279177075 3.3046307150454384
Rh 4.1694781714274844 8.542951916300371 3.143186344232758
Rh 3.5386137529055635 6.4135993308440185 4.364046259856261
Rh 6.651542338510475 7.850924382636419 2.5547895481639267
Rh 6.210830042985935 2.7126264062840044 2.9867422504157712
Rh 8.79281809472493 6.443203187213915 3.091422261762098
Rh 4.60156965618928 6.34141366179461 1.9620886196787908
Rh 8.451872458475101 3.9151566245824134 2.6707991920443956
Rh 7.212983532250658 5.800728922245761 1.168853846759766
