47
Energy = -279.47347523 eV
Rh 1.6064203066074474 7.847595515971077 5.055669498123161
Rh 3.9645067388163038 8.306628772694348 3.8426510723324276
Rh 2.9845723596943223 9.821872477849993 5.739925930797917
Rh 2.8459632041065377 5.926870053900443 3.9524158462049566
Rh 2.0009106734668425 8.15973896309657 7.751802767970506
Rh 1.0442554355705485 5.538882870731173 5.842847193896595
Rh 5.58154731874126 9.270650610188962 5.693569920112087
Rh 7.049736023881798 10.597557409620928 4.246260266389915
Rh 3.8652528723068222 7.3670988957564 6.21777719391394
Rh 4.834483901733188 6.4196212809773705 2.3478639909122476
Rh 6.524851703107427 8.33129727385607 3.19145335791122
Rh 6.114205205352555 10.979596782642696 7.495601993159851
Rh 4.187467618285661 9.48221478031925 7.919588791172773
Rh 2.2506167843277294 3.5188697082860925 4.863525006291331
Rh 4.124127649531495 7.155917591750942 8.954365433976337
Rh 8.882481858181109 8.91683469662236 4.244319157480705
Rh 5.879320399921326 6.377963203371076 4.683544861099491
Rh 7.3747352577597995 6.028133724100459 2.4909213893078106
Rh 8.164246877509262 10.018709443540446 6.516500884087619
Rh 7.739930462968467 7.591025593124584 6.038636462759493
Rh 6.07944248878309 4.157144778213831 1.5385512686768978
Rh 2.5906959177815385 5.531265672794944 7.712378086413363
Rh 4.398365858960451 3.924095880876482 3.337143479458936
Rh 9.047666112968574 6.310946010565474 4.137205116868062
Rh 6.955053394229331 3.86969522205315 3.882018849339177
Rh 6.497115832176143 8.516269755776369 8.279581725745139
Rh 4.141585737975248 4.848799658034935 5.785240933841794
Rh 8.752719272582226 9.198579579838295 8.906056808486566
Rh 7.750268976860453 5.0090366292693895 6.020048553295029
Rh 11.014543210899184 7.650089977708097 4.772215966620351
Rh 3.2847476075745465 3.0253368797056295 7.4840631615852535
Rh 5.902897166703751 6.168738709472157 7.295365470747797
Rh 4.698920493786101 4.600853935605678 8.996027475798082
Rh 4.364065062421788 2.219597953261901 5.282519613287571
Rh 10.017543714253435 8.271010079466597 6.992433348237394
Rh 6.421887270242974 6.379425324997603 9.830592376960045
Rh 8.495054256494027 6.595651776179807 8.31908255238034
Rh 10.211232233938743 5.800397258587122 6.425719750391476
Rh 6.2392811421683545 1.508212285315976 3.9090490528432493
Rh 9.642641178733202 3.8394685486331124 4.72772439320733
Rh 5.903394474777056 3.4564941245394234 6.90546123946754
Rh 7.418821399148335 4.243741684434507 8.773097625435627
Rh 5.3644776496413895 2.0853371181406404 8.941571209152032
Rh 5.943573820432814 0.8237340752691856 6.67142093176918
Rh 9.472483676438687 3.5293194680239024 7.308770048382245
Rh 7.85208667937064 2.260158871308746 5.703440021165615
Rh 7.808013614206276 1.7700702166227629 8.234569391352423
