52
Energy = -312.16943679 eV
Rh 9.667737923888161 2.5609145581882142 8.04094872153334
Rh 8.721225399856168 2.3677097761698707 5.486152505738606
Rh 10.646271968781178 4.059767134305216 4.595334187937261
Rh 8.340127834805147 4.16750880713913 3.550129305812556
Rh 10.28120336117593 5.060716696427908 8.772036348473462
Rh 7.150869356881102 2.3503749420282345 7.588724637264825
Rh 6.448948037020728 3.319143082275369 5.232000701899571
Rh 5.478045800910358 2.8648792332340944 9.504668241618845
Rh 8.011334531192123 3.616691692434296 9.632857867164745
Rh 9.267823852808247 4.509095862003502 6.595822874904158
Rh 6.153489391227617 5.122587677386721 10.471191589112152
Rh 9.741286690627286 6.304244529106423 4.119187233265024
Rh 10.46965896512171 6.655826828105701 6.675075635615242
Rh 5.814878882159098 4.455466366687402 3.009050602683471
Rh 4.640533981072246 2.876416648231042 7.090928305217921
Rh 7.388359505456585 5.9510475190877825 5.213975100341883
Rh 7.517209853675512 6.410768985833834 2.5597375780993676
Rh 3.7077656668124908 5.60143046544383 10.939818904612196
Rh 10.129188379163237 7.7756745770941675 9.000881624033722
Rh 6.995234525051466 4.9207002611543285 7.640169273369649
Rh 4.9698738523515695 5.249662970330748 6.0503574205069945
Rh 8.244577911067617 6.218502614321657 9.550786576103398
Rh 3.9373288514318983 3.4770374396959918 4.581315456066728
Rh 2.869848386248381 3.2178382109537704 9.156819057926112
Rh 8.148948650608578 7.443834166029711 7.222841750346421
Rh 9.433279060596826 8.592848483022573 5.320222419669877
Rh 4.439154584480058 5.084167067480579 8.57498400195539
Rh 7.800091788597314 8.777731735901215 9.62419849867626
Rh 9.189224564233974 8.390074443005423 2.764805285783753
Rh 5.089493613514738 6.668039768300015 3.9445394011842176
Rh 9.168693656618938 9.801607239268211 7.585792558026833
Rh 5.1697181775620225 6.670842825974725 1.4555403678400596
Rh 5.948114328607242 7.179045957701899 8.637511743531608
Rh 5.58809029069697 7.526208271778592 11.124495753339907
Rh 3.4040456585220262 4.867538359968281 2.3053150543042857
Rh 1.9452643404089403 5.704350122625704 8.969248745914614
Rh 2.534807771000815 4.4351051659355125 6.7798566789146415
Rh 7.123160710070829 8.475608830788273 4.184154209179714
Rh 5.6672014224173335 7.7579079612674064 6.1963768996833775
Rh 7.882848824059872 10.594567682441529 5.4226417485468525
Rh 6.975778263845851 8.614511598494014 1.4269776626165578
Rh 3.5881776236281735 7.706565171911408 9.430510571257404
Rh 2.717798538652694 5.789120503622913 4.589600112808173
Rh 6.624052329072272 9.783277922564688 7.452462821618157
Rh 5.310961965304626 9.5705652796793 9.616629155862467
Rh 3.11130542827566 6.9381936766742 7.00774964095277
Rh 2.9101408945917666 7.4145539513480125 2.562540218594823
Rh 3.344974430683156 8.398985629790303 4.933827066765348
Rh 6.736170589598699 10.696761799784705 3.041565979089741
Rh 4.018969292140732 9.343514261786586 7.318224092000936
Rh 5.3123275694679375 10.117678483549227 5.157911647352975
Rh 4.860215578982161 9.034696970587504 2.803566672734957
