55
Energy = -333.81146581 eV
Rh 7.637032354928985 7.930318362012197 7.488237938985698
Rh 3.3650103396276476 3.99318545252629 6.627216074220728
Rh 7.550139211574824 3.9309801203161108 9.804478305103755
Rh 3.294277772312604 7.930252128699699 8.86497471744392
Rh 7.712596989323046 6.604269674535173 5.212985398456017
Rh 7.567316472756739 6.610000529713947 9.786960650568776
Rh 7.598453124194965 10.53906469992015 7.496714386632828
Rh 7.706476980976037 9.271213971775833 5.160558941517533
Rh 9.673634421638631 10.527481339864337 9.044961356219808
Rh 7.642885910441286 5.28441568045821 7.492004799834385
Rh 7.719124520930093 3.9369434062803803 5.168129809932306
Rh 5.337514901664524 7.926999350653191 10.494912657267253
Rh 3.3000178819301693 5.268098442508516 8.868763354365369
Rh 9.87044370990151 7.942552741243809 4.566826833220595
Rh 3.210726209974465 6.602309616961137 11.031778366849483
Rh 7.615775094935008 2.6747844937010856 7.507795861310518
Rh 9.876856459198137 5.273897601451803 4.570555758301203
Rh 9.795864081104062 5.270337196037025 9.097336266090094
Rh 5.45420181794696 6.603311790041679 8.185755091783454
Rh 3.3756880430166754 7.946924294905679 4.337318748163544
Rh 9.691212709864784 2.6999894579576234 9.055909978135977
Rh 5.442385185115044 9.271465647204964 8.247854434042976
Rh 3.3822213548840265 5.23892981446951 4.341124385472689
Rh 7.538046846986788 9.28905439989698 9.797067372675476
Rh 5.454360744185846 3.935235129269251 8.255561562020414
Rh 5.606782571528116 6.597163219928782 3.6114412958122877
Rh 9.78980123673103 7.958228491039771 9.09346595543448
Rh 9.874080385013913 6.611240125505214 6.87296955251263
Rh 9.949855540015195 6.60533822266 2.344908777263811
Rh 3.5128094608950593 6.590766323280983 2.0819968761082026
Rh 9.810772241839489 9.21382329141227 6.803782184136054
Rh 5.612388086152969 9.301225045364822 3.627800196206879
Rh 3.574410958711042 9.147243560460474 2.0745235527468777
Rh 9.822578052920546 4.008410839329216 6.811202399596921
Rh 3.4776513313864075 10.519242996690256 4.375117879334013
Rh 3.5861895287020955 4.0348019270150735 2.081524225166182
Rh 5.527688411487598 7.914025474164792 5.906222552956269
Rh 5.625071830191276 3.8933997254930546 3.635191112835911
Rh 5.699568667481094 7.914891905320362 1.3890747298105157
Rh 5.551826378663461 10.527556484868821 5.94888133886432
Rh 3.4964036201695543 2.6671384936936997 4.386261115413902
Rh 5.705804085811002 5.274013007720038 1.3927815060125512
Rh 5.533758778673611 5.286664505061904 5.9098541483911236
Rh 7.83980575101349 7.959914346139204 2.9220286248483065
Rh 7.788696312649103 6.5985085659721765 0.7437083102541859
Rh 5.569669080618493 2.673086198516595 5.959787536273703
Rh 7.84630608673511 5.242432988930906 2.925778908338386
Rh 9.614901645158362 6.616232961467648 11.371531266349791
Rh 3.300629385387179 6.596069851361138 6.552411637493166
Rh 5.34323794657078 5.285427152136405 10.498959202675543
Rh 9.565482573850831 9.181250729664246 11.346549328245636
Rh 3.353408606946036 9.199224515060175 6.619925521562527
Rh 7.410181858660824 7.906385863315734 12.0222856315876
Rh 9.576825970248665 4.0507528282872824 11.353379980035937
Rh 7.416080175125063 5.318454716484802 12.02580130386929
