5
Energy = -20.7945966 eV
Rh 9.933242511787977 8.666698076266753 9.157571462951317
Rh 11.412834952521559 7.6943057068435765 10.492590447736609
Rh 7.549311410174564 10.347889937432479 8.021678660241106
Rh 8.102783666172591 9.721065680002843 10.23235855037158
Rh 9.770979995142413 10.949913432311307 8.577436194305518
