5
Energy = -22.33367324 eV
Rh 10.355337993290561 8.053542079573074 9.801459758653227
Rh 7.283386044497285 9.642793812140766 7.919163225534798
Rh 9.535353931364014 8.654086041398765 7.528166193775554
Rh 7.931195535403699 7.800069873205059 9.428813221824797
Rh 9.033013702370477 10.15533317507079 9.615557196815844
