51
Energy = -303.90740639 eV
Rh 10.36267180553373 6.092635393958605 4.006600004762264
Rh 9.127761502298306 7.975975535447743 5.049471095181823
Rh 7.147808788286353 9.06766676129946 4.013204709407915
Rh 7.534728359706927 6.277959183157122 3.8051845709361953
Rh 5.128037383861029 10.206875839572282 2.9382134069489396
Rh 5.4789401790652175 7.704757063342668 2.643497733750929
Rh 10.498405096826277 9.70931982013409 6.386451633417773
Rh 5.607007741435081 5.133549793036735 2.2889980455850956
Rh 11.29152260101827 7.238096224460328 6.324712945264127
Rh 9.017434279150931 4.029623569511266 4.257420073630818
Rh 11.58561623720644 8.541823671973017 8.545823450892925
Rh 6.427288729917582 3.842183804417252 4.285756560520175
Rh 7.888805500115883 1.772631040826489 4.393887802644448
Rh 3.314599856319331 8.988424699721971 1.797313496835883
Rh 7.871233664650425 9.707506716882786 6.64405627800234
Rh 10.708717593214077 4.808620259928224 6.204337464762964
Rh 8.31037188494861 5.471704380108293 6.266500196283537
Rh 9.78111786346699 2.412475892223872 6.08667265863762
Rh 6.641966557892137 7.4578616848616495 6.009567887701036
Rh 3.713615668546644 6.403577239516097 1.3198858489925585
Rh 4.687477292983374 8.940533651583907 5.006097478069896
Rh 9.082965186631483 7.604449155111582 7.582490625474248
Rh 4.977493526109883 6.075026898925061 4.604627242679802
Rh 9.457443155702462 10.030019699642049 8.676331573996007
Rh 10.677597899959853 5.971622937911426 8.560131386317144
Rh 2.927424684657616 7.471635945253269 3.6903529933317016
Rh 9.186986207403647 3.934137593339345 8.111305386118492
Rh 3.0990072162370743 4.91076751510113 3.260924034777341
Rh 5.472913395747051 1.6682397112307659 5.328953906590418
Rh 9.627541251117982 7.855146643249745 10.046159418461254
Rh 4.297920987156674 7.031997239225359 6.998390499368524
Rh 6.966414669543757 6.397975621555275 8.382651500240877
Rh 7.255921133940609 8.810127883823114 9.145540083040423
Rh 5.456288483549851 9.296256440649822 7.469413857839092
Rh 3.2027220087604884 10.200443626399899 7.308710031154743
Rh 5.823797870701761 4.8539399344240834 6.693314173245764
Rh 8.517074910582963 5.478130577773829 10.082169308634999
Rh 2.3836364965858112 8.307233050077718 5.93871602668752
Rh 7.329778427205558 2.718874488440815 6.724812551754152
Rh 2.4505576499244888 5.672022092943849 5.662219206836825
Rh 3.9803107322177875 3.660444864579233 5.352819298049217
Rh 6.782927552767123 3.867312549604822 9.002331885190339
Rh 4.900921635808551 2.682108415524827 7.725269911729443
Rh 5.377215640336154 7.287623189867387 10.118638515043736
Rh 7.520180491720011 7.472998987380081 11.390604481134831
Rh 3.5918110170403312 8.44836064794964 9.11573107563781
Rh 4.413994067321488 5.121323044403987 8.918388830675342
Rh 1.2691645617156249 8.684583153695666 8.157283101689076
Rh 2.19370169406059 6.355250960029575 8.163003277273608
Rh 2.6644685301176976 3.9351604499132407 7.52176285807866
Rh 6.138382351001664 5.130660283629711 11.109230903666687
