55
Energy = -329.39781903 eV
Rh 6.417241056250715 7.900980895701451 2.882749771449796
Rh 8.865515100807471 7.126218414379525 3.5311543246271397
Rh 8.08218130798716 9.57339761085859 3.708235302443514
Rh 7.1391523780008335 11.850972604123905 4.262456406926899
Rh 9.647271379286508 11.327995936120015 4.771432502494078
Rh 5.612454628151382 9.649129212618849 4.654441858693781
Rh 6.688866776694653 6.1876435864113475 4.625421514014218
Rh 11.35687793058431 6.826996129903654 3.8633748754857082
Rh 10.394458077543204 8.857554416052388 4.8041533277564
Rh 10.800727370991723 5.650879293478433 5.9359352141336785
Rh 8.575068740885195 4.643656826463044 5.2694999490992975
Rh 6.532010509950494 11.301980238619352 6.598796685579602
Rh 4.470140794823601 7.3285115567186825 4.587651560878206
Rh 8.314206612256498 9.65694339432677 6.183721406173933
Rh 11.953924999281293 10.519646686774994 5.840009183597269
Rh 10.058200842588258 11.223855102859378 7.362103249825434
Rh 6.363534754976931 8.067659225199101 6.406116747293565
Rh 8.781485386662167 7.11740844901496 6.0621039794225995
Rh 12.230237394230334 7.9199301750466535 6.313516387145364
Rh 9.3780340849128 4.497628967753136 7.773579087013263
Rh 4.411121419773024 6.3908532871821 7.18170444646339
Rh 3.768749084792362 8.754678761390686 6.501332545825944
Rh 8.407868259759237 12.918907296012513 6.381942657013272
Rh 6.979388351811936 5.499482521098422 7.1094144204076315
Rh 10.175838908120182 8.604816513103634 7.618556978331253
Rh 5.337318239944267 9.862323409509637 8.167659025695347
Rh 12.123892131059021 10.02520574385572 8.375562256010834
Rh 6.085190699240345 7.481038251627931 8.905085665938692
Rh 11.243479354315175 4.455161249624712 9.801685805447592
Rh 4.97021326308427 4.161709020406355 8.019485023252866
Rh 11.300757603415043 6.3556562067227915 8.229878637335588
Rh 3.6485252537773927 6.9030943741904895 9.472028612378859
Rh 2.8979813570084954 9.203114422153657 8.744864713165551
Rh 6.685838953315681 5.109259376370541 9.658799813875719
Rh 4.657614234350837 9.025305177250182 10.52687391346063
Rh 8.007589292277551 12.10768795608123 8.705341929908888
Rh 7.947500077901693 9.461403973097333 8.825304813906174
Rh 6.412836603948752 10.830969807381827 10.381369593727662
Rh 6.947610458356814 4.6873000978234485 12.094784702329653
Rh 8.990087731181879 4.822171545171852 10.57549403990418
Rh 4.335501421776574 4.723866023553703 10.362789403888948
Rh 8.745469177032508 6.738037123435483 8.68882163060315
Rh 10.162318845868935 11.140975457965999 9.921203447567246
Rh 10.173738464910382 8.50494922190886 10.151405342660794
Rh 12.524793988706232 7.75725099242762 9.74883795520937
Rh 8.248347404034424 12.427973186810549 11.138005588119796
Rh 7.754803399450908 7.731620847667353 10.83421789718504
Rh 5.464904959805069 6.751685175519034 11.548561765076556
Rh 6.3117335511806765 9.087869688992033 12.397762517358883
Rh 12.11138836222115 9.977703130789772 11.041258956313197
Rh 8.583229979930868 10.008629876992426 11.616850994604855
Rh 12.125401287137365 6.050964817656717 11.40339817110336
Rh 7.705739530606229 6.811706128342511 13.111853461176016
Rh 9.871685661674569 6.657205319840742 11.913299633953848
Rh 10.510619386043384 9.031102120296177 12.698777131425079
