8
Energy = -37.48119896 eV
Rh 8.286574784636425 7.132538332122872 5.996755069333873
Rh 8.452067108923634 6.402971479699923 8.423570615839125
Rh 4.015210686775329 7.247457713165133 8.033916043274248
Rh 6.257474519080297 6.5297916121429225 7.531081682120189
Rh 4.389667225693104 6.58050859426845 5.810818106609679
Rh 6.5805970377700085 5.887747256738611 4.8064702251612355
Rh 7.838191404853025 4.758195173667061 6.550697854913808
Rh 4.578003154743326 5.949339528474439 3.541166166452208
