9
Energy = -43.04509434 eV
Rh 6.5035861121469525 8.160709938319512 10.636147526692966
Rh 9.010207579665877 8.470481632627596 5.643230588473054
Rh 8.96758410922355 7.92369313714579 10.301354494679511
Rh 5.363778388707186 7.860856588325151 8.443047810851805
Rh 7.116221915280303 7.5453579218028235 6.729490020481568
Rh 10.115155162489817 7.945315007385094 3.800121943351498
Rh 7.554851292204034 9.279104100352061 8.570498067659324
Rh 9.34263132020443 7.609641211095334 7.865920273679857
Rh 7.366786436415512 6.335285352719927 9.041790617722711
