10
Energy = -66.49800582 eV
Ru 5.849141875083682 5.240577746544065 3.176635543113114
Ru 3.974328841038746 6.438092904262139 4.025629063859167
Ru 3.744280439134887 3.939726629787297 3.68957411166574
Ru 6.218887296285681 7.434546874688473 4.236210084536957
Ru 5.793036972728022 3.1557928243026514 4.612787109077648
Ru 3.6687781493174576 2.4500352255035636 5.65138744046016
Ru 6.8652600851530154 5.328088245174601 5.3283489670055015
Ru 4.992085386187844 6.529136005717647 6.175154727624244
Ru 5.187823931840463 4.066167321430022 6.7304957771092075
Ru 3.1387354617620473 4.850194661121391 5.8061356140803815
