13
Energy = -88.50111135 eV
Ru 3.7154465851344294 3.9894395912496154 5.43728215106138
Ru 7.327228354220889 5.654912890167287 8.08745602612128
Ru 3.130205234580298 5.711071424363702 7.047850990676324
Ru 5.228631800668111 4.6412544626538725 7.52867437774971
Ru 5.2237245556161875 7.042852730244987 7.704113686184064
Ru 5.044303922958612 6.181379905102279 5.428564309797269
Ru 5.069366933054717 7.239903698063778 3.033552639002626
Ru 7.173799669955966 7.191466951833139 6.187372910063235
Ru 7.112362225044903 4.682285504428668 5.8408927742596175
Ru 5.781503948539906 3.0414906003271547 4.826780949188356
Ru 3.7664718817242644 5.294540007443218 3.4750094680192682
Ru 5.740528552639304 4.239004586036563 2.878423327909785
Ru 6.944869975161662 6.039661269951463 3.7423148381173856
