11
Energy = -74.33666521 eV
Ru 7.239825180559222 7.148006097370065 10.419545533591151
Ru 6.960578408011754 9.923486064516846 8.668784302562175
Ru 8.765601500293387 10.603738864640599 7.095796234336473
Ru 8.785953275346374 8.828411434739795 9.831972651976287
Ru 8.29150211485061 8.22846112784757 7.64490318480522
Ru 10.620867104856451 8.913466377959892 7.134550353553682
Ru 11.069799759213096 9.55226258719023 9.166545022705469
Ru 9.313197308771874 11.153284635159702 9.13018371691719
Ru 8.138405939561643 5.900679765864943 8.691898579781128
Ru 10.075662853322132 7.087734064048449 8.73831727358655
Ru 5.961547607338809 7.883411032787948 8.668784302562175
