12
Energy = -80.10745235 eV
Ru 5.342904268868636 6.762354656819305 7.513532857798415
Ru 6.6621759616008625 7.811929016455664 9.273239988254193
Ru 10.082269449362707 7.441413001341268 6.24738739303983
Ru 7.625234550468021 9.963915473109251 8.534352805905277
Ru 9.032919740773105 9.354518683365665 5.536759541592968
Ru 9.562948452951872 10.425648594523135 7.465450834085209
Ru 7.2662233328666055 8.314129933281604 6.741970159348891
Ru 7.650393208768353 5.9962769285123265 7.939565643100072
Ru 5.919868744784408 4.6791384583268005 8.764964938762656
Ru 9.19693543666736 8.017607147204341 8.37787574181959
Ru 8.251473934279767 6.158806011933198 5.747416847855496
Ru 5.098717878148403 6.33222628208443 10.052000052414327
