10
Energy = -64.46075743 eV
Ru 3.56931735828006 4.008502436721731 5.0679862781015
Ru 6.285326313381219 6.671697604642089 6.766553950739866
Ru 5.66679504490138 8.50135287831212 5.3066118901791555
Ru 4.346551145786115 6.483037486793636 5.162194733434372
Ru 4.5367662478810304 4.952289064639105 7.177209519827784
Ru 5.32343836214937 2.735854854201038 3.9048755888926916
Ru 6.107244919933956 4.6356813617812405 5.315373207497595
Ru 6.555580604924761 6.695868724162719 3.961360282266665
Ru 4.91941021948893 4.982882843922405 3.1965632786695304
Ru 5.07297607175292 2.7162390333035105 6.524677558870877
