15
Energy = -103.10621627 eV
Ru 4.593745802666865 4.848648252649613 2.5511705129558315
Ru 4.7835248715669705 7.464937202100977 2.45345036656359
Ru 6.36313555013161 6.131542411780606 3.6654870621308175
Ru 3.876829056986359 6.366327116431824 4.420058037952643
Ru 6.788974502279807 3.7344907878998974 3.569901109693634
Ru 4.736643439951612 4.045896751899044 4.890475421909927
Ru 5.4374999301049325 8.189227299114494 4.876472284143896
Ru 7.964353441308185 5.038376980691638 5.3256492955206625
Ru 6.570131985193986 2.9612836068701793 6.039431775326621
Ru 4.29374505560822 2.860446270461535 6.950533750701331
Ru 5.889870281836933 6.077863997790281 6.1392775928236825
Ru 4.580973345473138 5.058060394846401 7.8928672392530626
Ru 2.7554638688423743 4.874521379695047 6.16396066425629
Ru 3.715001005467817 7.139113454439398 6.73211579992515
Ru 7.010186008262684 4.569342239009835 7.68922723252421
