12
Energy = -84.22119207 eV
Ru 5.361028934067711 5.364318314422838 4.072252913690147
Ru 5.392890143485011 5.390683162490762 6.512326292776535
Ru 5.373250814459938 5.3653861967973215 8.952945527098976
Ru 7.647310875565424 5.366043800925942 4.065944508323421
Ru 7.627353390462157 5.3929676606141825 6.506522474581146
Ru 7.659576734355966 5.368017082095395 8.94657317136174
Ru 5.358668068769862 7.650060029885082 4.071469677367173
Ru 5.3905993359965265 7.62519743506101 6.511715112845607
Ru 5.371044848485226 7.6518923587217555 8.952120940145576
Ru 7.644833503445043 7.652806147196182 4.065352895875436
Ru 7.625084317776175 7.62744571992821 6.505695751244863
Ru 7.65716524578971 7.653988304519818 8.94588694734851
