13
Energy = -89.81859583 eV
Ru 4.793301720564938 5.37473596621042 3.686544362533696
Ru 5.162810231156454 5.400788999745628 6.064061599359836
Ru 5.541200442647438 5.391207740347192 8.633207811744013
Ru 7.09315622695588 5.3656783931569425 4.577425266475017
Ru 7.434053174180283 5.384628377400345 7.08474647472937
Ru 7.769684093650519 5.390647723790213 9.512395353795707
Ru 4.7789975995554395 7.6358340043136135 3.6908187466958755
Ru 5.14927240156608 7.605926489579511 6.068258051057378
Ru 5.527473368470493 7.610180119773143 8.637527434447888
Ru 7.078812363173247 7.670500892160092 4.581881918525582
Ru 7.420046751751002 7.645996994474152 7.089155424289988
Ru 7.755758543901144 7.634816978920708 9.516610019218145
Ru 9.135107313978297 6.528731551679119 5.497041768678711
