10
Energy = -66.25696298 eV
Ru 5.665570732820324 6.719313114684548 6.849107431310624
Ru 6.82558590801454 8.739756705285963 8.039434677382152
Ru 6.28926128800321 5.116846907124384 8.820155631779624
Ru 5.440953212360146 8.225739579229158 4.720969031427042
Ru 6.185174136482177 6.099246405722928 4.345262207549814
Ru 7.385909344042891 8.598723035448291 5.839213801506196
Ru 6.738269443359962 4.19447995120612 6.790315993327079
Ru 4.90648840928259 4.605543222404793 5.506643806816832
Ru 7.843533338478206 6.714829420309442 8.319312933579578
Ru 7.931560389637974 6.197827888185039 5.981890742040228
