3
Energy = -15.37768799 eV
Ru 6.648909172004772 7.0651333537994425 6.583893703333531
Ru 6.648909172004772 7.946581443411503 6.583893703333531
Ru 7.668943359324144 7.170129499455627 6.583893703333531
