55
Energy = -405.98660304 eV
Ru 1.20219857180311 4.145365831278599 6.377144231157605
Ru 7.051453085278779 9.24271685976336 6.0974500919379295
Ru 11.32211668275481 8.775915719127807 4.957599116219412
Ru 4.31778829625865 7.203254617211401 9.52660545930551
Ru 5.682453482355226 9.995340702505128 4.292809738623065
Ru 2.7998125079399427 8.491619597119115 7.884191696903795
Ru 10.916687023195635 6.1162914185613095 1.2199245251828421
Ru 7.1996724108319805 4.094404720863651 7.503681038851296
Ru 5.327119923479626 5.009152228889834 10.28588938475971
Ru 11.747501896543211 4.003737670177238 1.912965927759242
Ru 3.8286815415472666 3.4086476345096743 2.6790900191901064
Ru 2.9961785127412273 5.377142281758401 10.817198859615187
Ru 1.830865881236736 6.40606131485915 4.19840315644936
Ru 12.70262171314647 3.640579242620691 6.121684742890189
Ru 5.358708142082388 2.983886165066702 8.802540822576178
Ru 3.8874244702212652 5.877255107723088 5.640859065767782
Ru 8.651709206368047 7.160426724915521 6.589004090374065
Ru 1.6682721596991992 6.551073234514302 6.722570448282716
Ru 3.7161534012008883 3.4056377828102593 6.6283907703932075
Ru 2.5667871611546356 4.958314427212952 8.458164499193227
Ru 7.567840284885204 4.229835319362558 9.955940228271466
Ru 11.784335388553618 7.0328780822225685 3.1993652312136747
Ru 2.9206610444312004 2.6697353444368974 8.885475726832674
Ru 3.355429821920118 10.224947235824567 3.988013115270841
Ru 3.308800660693963 7.9853001979663265 2.900125831380155
Ru 6.932726054005924 6.443486303908529 8.68060712712345
Ru 6.686515744415276 6.032539954522625 6.002679398075573
Ru 10.056384595253258 2.6135511277935164 2.6942720881905826
Ru 9.103508440662628 4.39988711139853 5.975846458783197
Ru 3.830488971274407 3.0716749360940137 10.994887741844154
Ru 9.30692300080094 5.3033021443272155 8.40413464817421
Ru 4.9205476216492245 5.211613125892726 7.831602773979093
Ru 1.6633656210777792 7.09312042700162 9.53471613068627
Ru 11.429823148024985 5.257686226232364 7.265960172533814
Ru 10.494495244386583 6.37980869058855 5.293052005203072
Ru 12.25671654414035 4.77772421107202 4.06324452803148
Ru 12.942983132223853 6.808931885096068 5.6078616406801896
Ru 11.616120155582779 10.381508557424354 6.540271847454505
Ru 5.328451534566917 7.626723650695986 4.433716660771965
Ru 9.0677863315878 10.016088754571888 9.47938291893617
Ru 9.50573768260112 9.54593618137185 7.077481350163243
Ru 7.234760271416434 8.943362694602008 8.600737623447674
Ru 4.054053655532222 5.735676531021467 3.13576623444174
Ru 10.679752017778988 3.0991139196729707 4.9227519643494695
Ru 2.6043328568171837 4.004892165126813 4.487061889994696
Ru 9.636925235913878 7.744612760551011 8.853926086429853
Ru 5.074832810460689 9.52977977918953 8.949710288463404
Ru 2.8447119643630767 9.047519800819055 10.377121615581242
Ru 2.9491446389598535 10.844052817312576 8.529874234080811
Ru 2.9762164921664693 12.896899043258777 8.158978850182537
Ru 9.922559211047309 5.03807769650208 3.2437050942252137
Ru 5.154276646881183 7.808606452224288 7.033700705484831
Ru 3.0657581835738252 8.292718251794854 5.406348461566959
Ru 11.400164971987655 7.821181730038059 7.231100872468259
Ru 4.488445550036549 10.180185208106076 6.484192369762385
