55
Energy = -429.06721964
Ru 7.083646666390296 7.470584409522647 6.867776874123546
Ru 2.839034649864509 3.3748285149812585 5.962592420151598
Ru 7.077644694412263 3.4124739791753065 9.230396353410907
Ru 2.701926450879738 7.306132037505797 8.233999204690921
Ru 7.283972295167122 6.001366044056308 4.642696822543083
Ru 6.997001118414545 6.078263855884571 9.256003252985568
Ru 7.023724192654888 9.929492693668035 6.912993802957309
Ru 7.096509241713832 8.595596945131986 4.6118928700942075
Ru 9.069746364291573 9.960007699990955 8.446315115801038
Ru 7.1018512213000236 4.605849236174853 6.915951494225392
Ru 7.128714455073123 3.403821023081279 4.699499195902321
Ru 4.697957032348655 7.317126768112732 9.85870297018747
Ru 2.7201599947737143 4.747428218626682 8.271600681917768
Ru 9.266478851131549 7.286785456426046 3.9665341067119546
Ru 2.6925486748047285 6.056571563798706 10.440072066517416
Ru 7.076827996060259 2.1491071572921525 7.04751870963927
Ru 9.281566626076772 4.718848593263633 4.009927071183341
Ru 9.101151148377713 4.688774215174803 8.5864797146084
Ru 4.701545992634969 6.031559476877415 7.616982846765435
Ru 2.9010118888687537 7.373697041098158 3.6762927688651033
Ru 9.125173408152293 2.205391283073596 8.57921426496208
Ru 4.852094395225464 8.615754139062984 7.566889430020774
Ru 2.918164599016608 4.550441232501302 3.7205323231265863
Ru 7.038778914166343 8.744131996821777 9.137582039466366
Ru 4.8876205796684715 3.448031596775028 7.646041471748087
Ru 5.0401530142165445 5.964569948119232 2.9607703865117445
Ru 9.082593594783496 7.479255776132572 8.539752767723687
Ru 9.182101833299763 6.043099739770736 6.307108029568407
Ru 9.391884327107245 5.967482442521955 1.7965893215923072
Ru 2.9981494716825354 5.932344547290745 1.5675170368223068
Ru 9.161868706280012 8.657851178705684 6.283070857933555
Ru 4.9508957137907785 8.636913427182874 3.038503141923679
Ru 3.0642999653335514 8.405779144935991 1.3597878810451245
Ru 9.197087822246695 3.4298138441602894 6.37279550884344
Ru 2.898788335873108 9.859017899723323 3.675840106556775
Ru 3.090623221329283 3.4581740129536085 1.4353499066468423
Ru 4.889359643697779 7.442248811381246 5.3336103043489125
Ru 4.983308335630289 3.294812745932607 3.1208591057561943
Ru 5.2271063260119135 7.284796957809679 0.8765270924989109
Ru 4.916470908412569 9.897975661747658 5.238909413355669
Ru 2.9470424218299773 2.0663761811272123 3.792747130786934
Ru 5.24132814347898 4.585567457572849 0.9184531484855217
Ru 4.907547854156197 4.554184248260545 5.378011393698802
Ru 7.315331115497634 7.2020593079332995 2.3444245697782877
Ru 7.194302492190684 5.930461668192524 0.16226142636391241
Ru 4.965330081514356 2.0973141917621945 5.361076576743573
Ru 7.3282772816958355 4.726936134545993 2.3859118452716466
Ru 8.985283443038437 6.121983053362745 10.705996084718842
Ru 2.8084288644903816 5.994674094645618 5.931392448762954
Ru 4.7185121322469605 4.817179719688266 9.895048049147888
Ru 8.839062480045028 8.582855362773591 10.834418103026916
Ru 2.8058449198566473 8.613025280221105 5.88317938531896
Ru 6.656018810758407 7.409083717939363 11.317613572212364
Ru 8.876974223892665 3.664085287161919 10.920699879717583
Ru 6.675559688305466 4.812399602528343 11.361674276394426
