6
Energy = -33.33767146 eV
Ru 9.44262123597339 6.5000773119263044 8.695708257596731
Ru 5.922205315647536 7.680771140646164 6.7199783373906286
Ru 10.332930229792105 8.382779465291819 7.773830665828657
Ru 8.90908585579587 8.4470884014777 9.812498741163719
Ru 4.061424459800394 7.513786078028773 5.88307929487689
Ru 7.739374342606034 8.023432932118189 7.568019111091753
