7
Energy = -44.26208409 eV
Ru 6.023218809666205 8.686149599674208 5.827054170110276
Ru 6.502504957608878 6.94558255568471 7.634810725725277
Ru 8.18909817787194 8.043506421330514 6.043336168844978
Ru 5.402795520923516 6.469179561348057 5.5105143946386805
Ru 6.984575920854363 4.431416117904544 7.4743786377868116
Ru 7.5555595621594565 5.838753204810156 5.724929016690979
Ru 4.81403262996613 5.057198118298447 7.2567624652539084
