8
Energy = -51.09857248 eV
Ru 6.796945853861788 9.057192138493345 10.028578288052227
Ru 10.196502129068906 8.095767168445812 7.631239994143095
Ru 10.75158631987305 9.888247945803103 8.93795285455209
Ru 9.018549143728203 8.987678869738376 10.594239750930996
Ru 9.723900256967916 11.17584382792657 7.403581715630732
Ru 8.270563242774923 9.575606930143563 8.189373268087747
Ru 9.218465089117357 7.02820300408393 9.420967325559698
Ru 7.110199911494849 7.260221516386596 8.708490524760316
