8
Energy = -48.17840881 eV
Ru 6.362087327536244 8.964468131819546 6.513417613558773
Ru 8.220964869773965 7.446461812806594 6.566704030586739
Ru 7.140551333019739 11.241587468555851 6.6226245387056295
Ru 8.147772642357323 3.8760847043292923 9.027076757932182
Ru 8.28027252925572 9.565840790122465 7.754796288972856
Ru 6.742852267752956 7.891297273014298 8.62309739014639
Ru 8.054763699353838 5.831763700295096 8.459026838599696
Ru 9.387001801198496 7.715324249787073 8.8942684584572
