9
Energy = -57.67757227 eV
Ru 5.098581150433469 4.124872199898362 4.17831484501599
Ru 3.6366159618258487 5.681889054066454 3.1887907713070405
Ru 5.664155696171309 6.656516655733784 4.1954887265441965
Ru 7.371355253445671 4.4484234361745845 4.417451691591172
Ru 3.7783954365355115 5.571994009497354 5.589172508769185
Ru 3.642763417473707 3.241174587664182 5.877195406177498
Ru 7.113613079618885 6.14737214204799 6.054823038435883
Ru 5.735406571249857 4.263494365552255 6.6781717316554365
Ru 5.054644658722154 6.959794774841583 6.916122505980395
