9
Energy = -58.78788161 eV
Ru 6.502328336499793 6.2615882381877075 6.016384979354442
Ru 7.931322839733765 8.266926613133888 5.470487937805843
Ru 5.83585528215513 8.643959501174113 6.502615000232888
Ru 8.884871141864059 6.335280550833467 6.778682766001288
Ru 9.018477183588656 8.740461670460958 7.519820529376719
Ru 7.23407326046285 4.979210530966386 7.96969025200175
Ru 5.749633377216229 6.896023635338307 8.317550988015272
Ru 6.921339591509539 9.116089862837304 8.554079604780199
Ru 8.129758529734676 6.968118939832804 9.078347485196183
