10
Energy = -39.37849253 eV
S 8.166627894804938 5.973390990985426 7.626207284033061
S 3.6158273307418627 4.557162386012726 4.223831852754017
S 6.150605200052549 2.854277605135512 5.695668111662697
S 7.464894887916919 7.653011662272462 8.266702537971257
S 3.387132376284303 7.871045310424228 4.300077319947871
S 4.801359363548109 4.265050490493115 6.009800877731996
S 2.5724291761445843 7.178197229667424 5.891649514217546
S 8.026906397528128 3.9244007468952278 5.052270666725648
S 4.319057802689874 6.097981616803047 3.208298271459124
S 7.7111087165633645 5.819247572189209 5.469537778819067
