11
Energy = -43.48710651 eV
S 3.6337264156206 4.402324811546663 3.1464413943572382
S 5.149680553464912 6.058527670128949 2.793847534760809
S 5.4262907584505236 2.6816612247572778 4.298164957755453
S 7.0995857035612495 3.54532495199283 3.9211982585529994
S 4.515465111202603 7.468380784682484 4.03299772336829
S 6.072210688754213 7.865346460428549 5.49015836990048
S 2.1898621091439825 5.084045006841711 4.187905989027878
S 6.798897688727391 6.1594498343278286 6.27386394116799
S 4.18176206246531 4.353577847584067 7.143653767791023
S 4.893948113760263 2.580694139735952 6.4669829305510405
S 5.7240018787998395 5.4860983519244115 7.930216216717396
