12
Energy = -47.17889229 eV
S 6.016041267158024 4.889271383879531 3.5278289036068937
S 2.9965004638877404 2.501655663201399 8.006298446227705
S 5.754361757384092 6.969559142643394 6.278297256193086
S 7.738662351712072 5.841536439504722 3.604915973209021
S 7.5948498240920985 7.6195823289687565 2.3331843892320627
S 5.790456577129305 8.469460022551443 2.531841366319374
S 5.813157093353748 9.642895292232785 4.282191580837796
S 6.178997640668576 1.9431128879369193 6.877052053261575
S 2.3657016238984534 0.6848453134321765 8.106762014021013
S 4.633581243686945 8.628896227218224 5.607912954951417
S 4.969915194548925 5.330113621646878 5.459778669409959
S 5.220449046848811 2.5533975361555346 8.427537716217007
