19
Energy = -75.87614244 eV
S 3.790312790357397 3.7796597090097572 9.865368345259334
S 5.4508883373330645 5.701641516028005 0.9912136186119807
S 1.802310956913724 4.160660421214824 2.1918338486144253
S 4.460196524716649 2.5408014878933005 1.0672061013178264
S 6.24430967538272 4.340248828037484 2.1095953600607746
S 4.090123326697436 6.973089072108092 1.9751756078027844
S 2.860828756547051 2.644941221866576 2.7819763962806023
S 1.5532131993635714 7.240990565998718 3.9629441790874624
S 2.8357720465280827 5.9161687232525955 3.431267805881169
S 7.86804831631205 5.4209844692934865 5.628405340591327
S 6.165651155119942 6.768705025510412 5.856219935341891
S 3.8317354969368855 3.971016892900646 7.1389386706365645
S 8.175002017852291 4.398641732818478 7.272404127854709
S 5.497326536726923 2.96806263296048 5.83490908495441
S 4.901502709097634 6.885711130933287 8.985601855248166
S 6.375936945591052 7.636571131986816 7.658933050884117
S 4.311129421955135 3.559985494993119 8.974373311454798
S 6.8865678024104415 2.5196408060266484 7.108026894589209
S 5.529526900855774 5.202862053865934 9.865368345259336
