19
Energy = -76.01374961 eV
S 6.889544600144503 6.052107679477977 2.187985930408371
S 3.2334275772875922 3.7856944509259236 3.4608061591096146
S 7.617910677482569 4.3298532434180785 1.2125776686767678
S 5.72958650828739 1.8220135120880232 2.2451458665121256
S 8.407710875874907 7.266687805622625 2.626914734943312
S 3.8500682676800277 5.305566189574683 4.73774349806073
S 2.8396921978517713 5.025396678807746 6.481092262667577
S 4.447140789603001 2.1388838276782005 3.818578021404479
S 6.752019104046963 7.68300690408308 6.54203472395885
S 7.747727427961816 5.819357628866347 5.581145039221893
S 9.222161147435969 6.5992607260768645 4.582283441599685
S 4.157415809016209 3.768551598964974 7.6112610810672
S 7.550902891947234 2.7776176904944916 2.5451769054469047
S 7.884439605897816 9.154218411794625 6.099515585478859
S 4.076819675987119 8.696968769396767 8.744417131624191
S 4.118626881913086 4.383537261188794 9.527805508193909
S 2.154297395965357 8.85053342570008 8.589330251073807
S 5.580392867979059 5.892085964989851 9.847018632672857
S 4.588850732380564 7.532741895353581 10.498717870023322
