22
Energy = -86.45298345 eV
S 9.108936858152823 5.231868462664186 4.574911341114471
S 9.518331633880454 1.549975492258453 3.2964571602141843
S 9.171898553656955 6.498491344379152 2.7671733310327586
S 7.809784339228002 1.1504469737620535 4.100969947528974
S 8.810910398186932 8.81400454826334 3.8039944439943394
S 7.573064175304362 6.424887930091247 1.7062213059763323
S 5.843863440868993 10.016559539513363 6.814060010912997
S 8.11916917121859 6.060615656353873 6.163055138197254
S 6.424945731623377 2.7507808900279893 3.4707863002829114
S 7.170315391972854 9.107336252842906 2.812587043555745
S 6.014112406102191 3.5697398603221853 6.755144926257923
S 6.125830672594305 5.663193309673953 6.144429340415258
S 4.292317907898584 2.900546013423602 6.117183027509719
S 5.473779937332248 8.407455907775844 3.888711702883907
S 2.759528352613928 5.806787458567041 9.51757470365875
S 4.627786647636653 2.137403023500982 3.9689824128758833
S 2.1449159036525987 2.587909268446998 9.15441648149444
S 4.937405769078843 10.056376426064485 5.09826948030089
S 0.4950341635487985 5.1509859082325224 7.139458891332505
S 2.192952246243757 7.373550427863878 8.39627668873663
S 2.0731352138016987 6.287099326028738 6.604337900508296
S 1.1453019124076702 4.2207072372953185 9.177787657561977
