24
Energy = -96.10089726 eV
S 4.336067445010452 4.405867966799195 0.7764603409658211
S 1.262044840881626 2.664149938389332 0.44443276671886256
S 6.303165777034502 4.957331491475937 0.955470219580298
S 4.058204981064112 3.4136633654875284 9.228830459304188
S 5.217158324692303 9.384809147398173 6.1339685611560215
S 2.4692734573451447 7.877277375331243 5.866296472139688
S 2.1619110815176534 0.99702530475526 0.1899521735799656
S 3.606565519855151 6.328540615157509 4.922864838918717
S 7.429047738567174 3.3783074670981383 1.6779965381011595
S 6.69709299585354 5.439870257480673 6.761479611048619
S 7.3423011171850465 7.326500423551201 7.624517848640917
S 4.201427801958249 1.459913143688789 9.569069300791423
S 2.3257961274079486 5.018418417694107 4.051019799045434
S 4.638325875404866 9.31103921969948 7.944797807973487
S 4.121976287663913 1.380052948455436 3.932325306983153
S 2.6867955183240153 7.840970296895992 7.8123650808034775
S 7.057014133337798 3.2067429945243338 3.7112673046324525
S 6.153307746309286 1.373578235843939 4.0815506923055
S 7.534210651807928 3.9859860780674468 7.810393383837971
S 1.8410256906998257 3.3861202809961797 5.294708271522582
S 4.32308088193237 4.405673336125178 8.776346410263109
S 6.149011073284081 7.89207775968205 9.075571164226417
S 3.499293647145159 2.3143888035448184 5.744573025779832
S 5.858404206972556 3.362976071668261 9.228830459304186
