25
Energy = -101.59598779 eV
S 0.9091607086582749 5.408761376577991 1.4474681685737423
S 5.026241749562565 6.403550314638651 0.3224159837077271
S 6.90068301946577 5.897040969108916 1.01741361294139
S 6.391769636186114 2.758518026012108 2.0048139979104933
S 9.184469476425917 4.543905560059286 3.0204387781524282
S 1.1694999376718513 7.4058503405987794 1.8905174694612539
S 4.351127999159529 8.126778460866948 1.2577326601259504
S 4.421597939652185 2.3121971046761076 2.4188023746725746
S 6.80366907507768 4.677887670561936 2.6844367181955144
S 4.439266512713227 0.9409964325049877 3.981507129816673
S 3.0415164086535933 7.604758206013758 2.763329950380101
S 1.1429115932743463 4.040528682003598 4.483779320744621
S 8.170091974802988 2.3027663126518303 5.554436162749407
S 5.2080005838817405 6.170950055448767 5.557426470145201
S 1.0377091082994148 5.877594312596251 5.680897140216727
S 4.043084954685257 7.094653345070904 7.063167730253828
S 7.140192162191051 6.582776441355895 6.1111697433260606
S 7.978510278579125 0.7626952252300401 6.816288063322231
S 3.6795559532860493 1.6886321310996963 5.736954709961626
S 9.184469476425917 3.9075841973390544 6.460706741133533
S 1.1591303885811135 5.457389013556574 7.599796657919972
S 3.2842903330715627 5.659243784009341 8.229904290999743
S 7.854535226289575 5.134634830609713 7.432045218203622
S 5.15169315966117 2.5581737412899974 6.965223650865179
S 6.163732902302717 1.1759541253121863 7.993147915415137
