25
Energy = -98.58417124 eV
S 10.403630830686817 5.613952842022328 2.0544884086726176
S 6.639208006398742 6.859893590173791 10.989381263619393
S 9.495171077189333 5.102267301148366 0.33464413395498427
S 6.444143670094823 3.4841633877370044 0.42901046493153183
S 10.626925874217932 3.9282541989417386 3.2981681402905547
S 5.082533143417894 3.33424701222925 1.816331739607327
S 7.346236419183425 5.6192333182430865 0.84467821618914
S 7.96941196411689 2.054281862432428 3.09231375124225
S 1.1328343169088186 4.578379825072302 3.2178721355061417
S 8.903809669962852 3.6225513096668545 4.303923426304522
S 6.05015947033117 2.089103395913457 3.4626273286020024
S 1.970511760103854 2.8545492717051424 3.8481705030676165
S 0.9661528785275482 2.2005589503057275 5.515929122689278
S 2.349640472081107 6.167581893970672 4.176022144982088
S 4.079478876621557 5.474741920017565 4.652216078286331
S 2.4485624487905797 7.300850996068259 7.8162120520425304
S 1.9658186361125245 3.2140842523796906 7.142232631394822
S 5.077177522588028 8.13226565432251 7.451460325869471
S 6.20750802758144 4.753817177347547 7.4144547538801655
S 0.8004678607358894 3.1409882337259614 8.677255974997857
S 2.349425437067918 8.529909098313832 9.25053702391222
S 5.956580746012058 6.201010256578164 8.648187493982011
S 4.821406647334378 9.491995787582375 8.772857987284665
S 3.937464920924164 5.685395844177366 9.753286244764164
S 3.5084052187964736 7.098588515711419 10.989381263619396
