26
Energy = -101.17627885 eV
S 5.385486639108586 1.7106383052566392 9.511659490436012
S 7.913004010628466 3.5277207161930146 1.6134615653935656
S 3.9262997936852084 4.1874736572367315 0.18047537380783799
S 3.6853274864307815 1.0294337783232477 10.035487286348527
S 6.704493691366679 1.185575597131619 2.3692130906288567
S 8.647184927724265 2.2649230238329174 3.938796575527594
S 6.603489114107779 4.501181852606885 2.570609103618015
S 5.395330221633953 2.166556372229309 3.318015648613069
S 2.6435447273894597 2.789754370125837 0.4002507723791171
S 3.584350701126882 8.624046908071131 4.9786694105375195
S 8.74245567167487 6.362172406591682 5.845473766028443
S 7.338803659391967 3.268410420635688 4.865891958075899
S 2.8708680178031174 8.78127370075393 3.156266394648038
S 0.3484831894509649 7.735153802320389 4.481871575744669
S 3.2684465801990736 6.982571171583886 2.103191268264216
S 2.698205437090319 5.315739035536494 4.913892703076273
S 6.795911501463549 3.826584951934447 8.83623278650396
S 1.9918442960162892 5.609308074053837 3.112834745365529
S 7.088015834274847 5.93122925863806 8.767597191988502
S 8.934771078988426 6.255055677069155 7.773393763229891
S 1.6199629499231711 7.3875480026346345 5.84778544402064
S 1.163578363119136 3.829734007092933 8.161508738040215
S 5.392697756127724 3.2370552643098778 7.61990835354841
S 3.495369306970489 6.345166851095262 8.7517860247695
S 2.5776159547428543 3.059993984262702 9.48612729992166
S 2.1674264805891683 5.215412853919291 9.511659490436012
