27
Energy = -107.59571888 eV
S 8.893127650587127 7.007939269463711 4.126999339313203
S 7.661320941074136 7.385247736265503 5.722831251493127
S 8.052029521768734 5.95847052096145 7.153780053627032
S 8.774381664602979 3.7971403158938215 3.163617248518654
S 7.660652773864504 0.6535271227651267 5.298953660149197
S 7.91064538355332 5.518840432340775 2.9224216949097084
S 4.954885766268103 8.885485808049118 1.1013603637752556
S 5.003883969007371 3.55174917912171 1.2874037685078812
S 4.371654666531248 6.526149032891113 4.2106549962022255
S 6.619898489501856 4.4511370274138455 6.828013910813126
S 3.3662022284196103 8.522448920335394 3.787052513182716
S 5.982532396711877 0.5789042384998405 2.3519503290799633
S 4.445895996644075 1.4682260309029491 1.4928752421980807
S 5.581939943383742 4.24169741220027 8.57492016602162
S 5.842305737947509 0.42467711629576554 4.725517387147523
S 4.065141648904798 5.686427594574362 8.858717798817029
S 3.3569204051923967 4.675055876988736 1.5466238276214972
S 3.2170458112275964 8.435332547775007 0.4677856235762018
S 4.661018856150422 2.295140339191719 4.956555890646722
S 3.06185530310251 5.165082141467424 3.6243877392462
S 1.9761958291724733 8.175334702403047 2.4935001856210253
S 3.3103190319120164 1.8490562449891537 6.393508440606553
S 1.166535555307681 5.600680582163567 7.056021877827445
S 2.177809758434447 4.936137284957588 8.811509897461278
S 0.5961994672088944 3.0362069369483926 4.879106579965017
S 1.4773153222298467 1.306730632802215 5.560172844143904
S 8.893127650587127 4.1194668376004975 6.504033130304755
