28
Energy = -111.40459266 eV
S 0.3509078771313024 3.369443649817584 7.0046850653312
S 4.9653916575003345 8.034317167067737 1.8988947895226236
S 5.601558914947173 3.81136498448908 2.8085271860625634
S 7.510932936436732 4.1534965322318005 6.787658321435387
S 0.8278316345031987 0.276848779164892 4.500981613230405
S 6.800391349238833 2.573788520053585 3.9764983611724576
S 5.802031377988667 10.085995005524893 1.9784534150682356
S 3.0067104766869455 1.2631257717526445 6.901047752813134
S 2.1211751969035553 4.134717280996266 7.171447464792829
S 4.258024815889145 2.595258574797618 1.7705578165590259
S 8.16509943782148 3.5263757914293694 8.484764309361607
S 3.3710741638012722 6.837183241183309 5.920328594202612
S 5.495461879884087 6.900902589824062 5.915239643453663
S 8.334459502397324 6.145562075454209 12.445692254115059
S 7.382612051224626 8.631178830865379 10.476872253134694
S 5.460138887403292 7.344917666212049 0.13608908564041408
S 8.816949979185411 8.824076530819262 2.466200647170651
S 6.1510457044292055 2.5909917683138817 5.88652688771315
S 6.247903711097573 5.91008919120289 7.493517562895644
S 8.268704708964782 9.483129681521024 4.22573105874441
S 2.691639350881848 5.058223591514068 5.266382628293431
S 2.6242845696527417 0.5601288312743378 3.821287444447646
S 6.169944430628979 10.413083226665623 3.871194377402412
S 2.4919427708833406 2.4642351134888805 2.729911009155145
S 7.095971125018856 6.849911770019704 11.151672637738406
S 8.001943277765935 6.7768799865626805 2.3103524818947068
S 1.1315614175509603 0.9667845391503614 6.817496733366477
S 7.613440137663959 6.528412275152433 0.4074982564666399
