30
Energy = -121.83325152 eV
S 3.0086022075588232 1.500598354574865 9.459766510842469
S 5.1858857737047 7.710629820823107 0.4837323532595987
S 6.523092283634843 7.237779725865902 1.8710283594188273
S 4.285644484677672 2.644043733614605 0.8598352953893517
S 3.26510172966557 8.038699703125284 1.4008415406508223
S 9.591632732107012 1.1704768218854158 0.8869440690037772
S 6.012528203158989 1.4545164477935144 1.0871479831718764
S 1.7580091389193067 0.3292385952376233 0.9077101930429802
S 6.472204001271928 5.094019750122707 2.2846671881267535
S 9.384638902435675 4.099739493566296 2.517256408514745
S 1.3518341956471451 4.523210408749123 3.6083108403623716
S 3.567479130391252 9.207237113485244 3.0569645632347053
S 9.079736440171658 2.048674837982751 2.6796065551135544
S 6.45281096507456 1.1814152296136782 3.0449034300276554
S 8.349922693372347 4.865870973552134 2.9862094689131267
S 5.394392272558332 9.207237113485242 3.7993797102314972
S 2.445039243795767 0.7795658657137801 4.67936853278912
S 3.330664763262002 7.990079933030215 4.672585279473582
S 8.420540663693721 5.420225017308115 5.013163223052138
S 0.7494314230386566 5.237546607633914 5.457698972772348
S 5.287820065719649 7.288454333829407 5.200284791628502
S 9.683847685626134 3.7257202628946793 6.611425709907539
S 4.3841306696978695 0.1166851651464304 5.402283288491797
S 6.4603450004704515 3.1409050700451364 6.649864902077754
S 8.38370322555176 3.726927132753273 6.182532507235419
S 1.3490431557145668 0.7272006722012114 6.370622422222328
S 4.398800905713715 5.497453533603111 7.853829218383436
S 1.4666494533266725 2.5491826530879433 7.395170208241138
S 5.253940345962147 7.312252782896163 7.226586931101573
S 5.885454237921043 4.182173209132178 8.35803990607294
