33
Energy = -130.55685244 eV
S 5.92421110370182 9.31876961052025 7.546882485051121
S 4.4865085689452116 5.484553100799116 9.96862158611344
S 2.142501225003346 4.254206827862298 7.830781699669872
S 1.6322090143112478 2.256375919645518 8.44948697744323
S 7.668464202563843 1.476229181396489 5.858095536313763
S 8.789703703087401 4.589873473914602 0.8346224069107623
S 6.933043660059671 7.1692266940085485 3.482272165477107
S 7.987946877671252 2.4586275176334196 10.295938007326567
S 4.139117943740604 9.160841648057525 6.413851753386923
S 8.650556128280035 7.756159096475589 6.419609790769899
S 2.461196892923085 5.288246088247938 9.573792541928794
S 2.0979455311450055 8.679194414629245 2.4247828753166827
S 11.20364816939141 6.495617854171077 2.1777955815385477
S 4.886138058359802 6.48867706189173 4.198150486363587
S 11.203648169391414 6.6546126374687375 1.7830858264866383
S 1.4082784456536634 7.119057422634637 4.114150803160425
S 3.880876925744783 8.594957223991074 1.714993154618404
S 3.921466244168262 10.648084391313876 5.189779072438158
S 6.636882039718843 2.3221739805086186 4.262167132456711
S 10.020133556786432 4.001498378488162 2.1526644332612452
S 8.22933177973509 6.360271592274603 4.675730249066024
S 5.25620012307199 5.175428051511422 5.64685736405433
S 9.250610000622556 2.729341990317692 6.257868534057708
S 5.995505281077188 2.5528468287089683 9.895024393010477
S 4.928010102604069 3.1977319012434355 4.972462569384958
S 8.492054037421411 4.255215275101397 7.457662845066274
S 0.9208275506255884 7.623414101066625 0.8216229237009256
S 0.7438199753344303 5.567265266618288 3.0376523845235344
S 3.0934023450140056 1.0166449516648617 8.167435827970724
S 9.965928970599325 7.101031595398508 0.8693154397510644
S 7.566367488034697 9.41021722724117 6.234533170389044
S 9.05994549246579 4.035968939303033 9.407022366205302
S 5.068435806283713 3.9207346858140535 11.178113091244219
