34
Energy = -133.78302297 eV
S 4.249756860332392 2.078056132239986 9.031643931045059
S 12.067568026890712 6.546587522508676 9.429931655875828
S 11.334537776376377 4.834291282399593 6.718626069916746
S 2.9518808501942284 3.759991915086307 1.0430110318074806
S 7.411240069557217 9.149343608059697 2.865755238096728
S 7.97216965101096 8.473293705650622 8.764699331266161
S 6.194902189947621 10.731418066910702 2.4702994858296212
S 5.02424479412779 3.134703602902198 7.339036905865075
S 9.998331441945481 6.216256122118424 5.680007011194234
S 6.050825955865843 5.981272313911348 9.760430356023353
S 4.869353514028786 4.445882556392185 1.943955993345441
S 5.679172877178958 5.818067033547826 0.8929099112917023
S 4.949045231191237 10.263059898078359 7.94484936103386
S 7.285788919427726 8.72600438454741 4.900745260552929
S 3.3690855737903944 3.2730232031678383 6.139114053513369
S 4.3267363384052295 9.8109221022391 1.8602903726713134
S 9.954961247070635 9.16324001126369 9.122574993598468
S 10.856481475423212 7.855461412042289 10.439508913414356
S 3.8201276206803856 8.483515381232591 7.554078205798976
S 2.1708761844766173 4.739098316961293 6.934263056042818
S 4.675200495292596 0.829088961184015 2.0247954989066934
S 2.8422408138660504 10.715949982722403 2.7038844559487076
S 4.987691236500131 0.45128689818845413 3.885666746717205
S 10.92052584382522 4.919518467535621 8.683406913057604
S 1.312893542574934 3.8002339983509468 8.653970276068026
S 2.55836552458987 2.236681038883019 2.182063711210888
S 6.056429155955064 9.948371649529332 9.544672345015556
S 4.1089928001498075 3.3487381960290232 10.539827560602028
S 10.766009936702083 6.4039732608800986 3.9183704790674017
S 2.228253021217867 4.535647923162177 10.244235868500546
S 4.06430076791909 8.206938869059575 5.550533412039344
S 5.88384078633364 7.246402271161115 5.202490102670062
S 5.767610129135394 2.322929223818689 1.1749731961865162
S 7.797419174722096 6.771822438259959 10.042169182543534
