35
Energy = -140.15042265 eV
S 9.319164055083649 3.94671052162651 3.8966390254970165
S 7.142595342696843 9.122706294376284 9.299932879573767
S 4.948908889294212 6.050280780197439 10.559515070466375
S 8.82991956476488 2.1463444027229936 4.678414594632554
S 1.919855159866677 7.299333662012304 4.572619171638349
S 1.0258481936644648 6.4455123670764305 3.130366360804364
S 5.322908333685545 0.4432819323278973 7.03915825559945
S 7.205437131118401 10.713490899829576 8.353931817789118
S 5.25750981719615 6.074793714493117 10.559515070466375
S 9.935155242091737 5.2111738373434555 5.444890998805217
S 0.961392245611962 1.919268563414579 3.372882494811916
S 6.3483879844540345 5.227207172518583 9.142146238888788
S 6.7633497374862985 8.428877017084604 4.254902335262107
S 4.02897839032676 8.536098313663748 8.389786750386753
S 3.469094504480031 6.697085657819229 9.384953832749082
S 8.374663640711603 8.236838982611776 5.534279746619018
S 3.0758665693443796 9.148978666246053 3.7326104153892077
S 6.069500802465173 10.359200453905048 10.283571581486
S 5.534200756064915 2.332086654652258 7.028225908798278
S 7.861887263953441 6.689646986183578 1.55807453847728
S 6.6408784788545505 2.0346999751322326 4.422260779633668
S 3.7779990376549994 5.668269323916339 4.996447566823136
S 6.1888226481910396 5.525299723774884 1.3630304491728573
S 1.8343634918172138 3.0232830407029585 4.685323522672412
S 6.204917438690369 0.16275296951986573 4.530631988907089
S 3.900606347031646 10.069976141787293 9.63175174331095
S 7.409850669177338 8.569545229414464 2.304116669203681
S 8.391972910397813 6.302307268575064 6.271932151407633
S 8.091069689231754 1.4073182498543126 8.693887068147086
S 2.291703219310115 9.316699735184313 1.9047560343298238
S 7.719934166353819 4.2264121906271575 10.27383565891334
S 3.40716753059856 6.809071677752661 10.939075376723466
S 3.6143844961350733 8.864346815706327 0.3766798666665248
S 7.240241525001822 2.2555912182831546 10.514526838326834
S 3.251070502610775 4.388694667822076 3.6367479368703473
