36
Energy = -142.31195317 eV
S 4.419466246903201 3.629496535603724 10.382875932890798
S 2.8636517566197135 0.7280763953015255 5.3370225678645635
S 2.052104664578587 11.630037344406865 5.212594831624782
S 1.7862523949332354 6.9021234793757955 8.788442796839883
S 7.162825811339853 5.7010182885483065 6.46006476004625
S 8.996169531410814 5.163490722274211 6.836210206138612
S 7.470343959565581 7.678552996186742 2.459803418981298
S 6.345720861986576 6.756774521402243 8.218110403090574
S 0.5383702729119441 8.203259991427384 7.772444117925439
S 5.883994928399475 2.276952164032735 0.27886758424950947
S 5.952359105861516 2.553308989783253 4.537389125355719
S 9.823936859878778 1.62724724235254 2.7156154103038297
S 1.887099732471658 10.437772514581965 3.558315402633127
S 3.2607659909330224 2.989448639443801 8.658783251936375
S 5.886735423542887 8.276026711601064 3.6120719553984553
S 10.542879404306728 1.149984753954855 1.0233199734458358
S 6.45178327576962 1.4450265297005895 6.129766108063597
S 3.7406548061324885 12.18582197617788 2.429471590055467
S 6.091048722402182 5.529262331431806 0.3228325381274345
S 7.299964883346219 5.008496109366047 11.600686608669111
S 6.9215758712315045 2.697548240055633 7.808872665099247
S 4.737688394721859 7.5732172022407145 7.332368423093599
S 3.664366897845493 10.58920982869293 2.432045303578982
S 7.1241007707925075 2.715161524130557 11.648414190657855
S 2.1458737547363436 0.5246404225143055 3.55455457384541
S 1.2046788000863562 10.128035963253897 8.123546022338784
S 8.851328328553722 3.1275283004476884 7.862383066364392
S 3.8053486612295715 3.092601223140084 4.795361744518056
S 3.603616598618993 1.613155979114458 10.205703631712185
S 3.10476820361419 11.822242429825554 0.6488711332817256
S 3.1211728202009468 6.2083108067053585 7.388155379926831
S 3.0706506726255687 3.2199754772363565 3.0309303916676407
S 2.7799078782007345 10.608438082304573 6.877318744411708
S 4.354701336009028 8.697548578259413 2.1979354405878175
S 3.5459221542806785 4.804161946615263 11.600686608669111
S 7.206537464764761 5.661570941554436 2.1238231948226987
