4
Energy = -14.87109543 eV
S 5.560948777594782 6.099154288378875 7.211230025561123
S 8.828701885464701 6.442655323481508 6.444111330483242
S 7.118441020890001 6.333145891016615 5.561895721149278
S 3.8791324211815117 6.6773028602067805 6.469056417678504
