5
Energy = -18.1545591 eV
S 6.499291957513136 4.681779819198779 7.122307238110507
S 5.005628357927266 5.878103856231047 7.343208920057904
S 7.021707937957123 4.192186112466292 5.333591434394571
S 3.7188433169743607 5.471316963420242 3.6713065327529635
S 4.908781716244628 6.94741106774593 3.6220034635310103
