6
Energy = -22.62985624 eV
S 7.43531591824063 3.836292967249582 8.458011550360649
S 4.022850101846206 6.246531091880286 5.216446949311287
S 6.6731469809056705 6.705288685084988 3.396220108431266
S 7.121986564642228 5.521745480118471 9.280744435727728
S 3.668048843997598 5.663904583653281 3.4361277165869932
S 6.076375632615066 6.959474870480543 5.189271542054629
