7
Energy = -27.02447631 eV
S 3.8443446265390584 5.510034042913899 2.497855859711438
S 7.6087933488921955 5.832826589281983 4.236884015757121
S 2.784000197083652 4.768057901554246 3.934469822877275
S 7.282099804723812 5.231159905416374 6.048688052504792
S 5.350055538277762 5.936869859381494 6.654703039570719
S 3.9981114229850516 3.3778036709410304 5.019720930369363
S 4.230168240683813 4.231431107485439 6.8718716762366014
