11
Energy = -41.8064345 eV
Sb 4.996264623360962 6.714775738488273 8.373629170194647
Sb 9.198797691651913 5.665115840943497 6.790060696751415
Sb 12.018464081724497 6.564420826654735 8.33628035891951
Sb 6.583535948972864 6.729298370991984 5.962810565272128
Sb 10.863310903420865 7.925624125482968 6.196658791623813
Sb 7.110694837064106 9.528393861945382 5.945302822738532
Sb 6.598155327874035 7.381850728890314 10.700748995296335
Sb 9.226375963779349 7.243929952846339 9.17272032074775
Sb 6.731534584080451 10.108142646340367 10.001725927846953
Sb 4.876630745225441 9.603334967369056 7.846570226054892
Sb 9.128549317274 9.868109804893233 8.005806148982623
