19
Energy = -73.55643221 eV
Sb 5.027592486974788 2.7110778506333113 4.029735928466481
Sb 7.855553467721037 2.9953863115379713 3.9786494943956936
Sb 7.455912473699903 3.2685854635117764 6.80178891635577
Sb 3.3640816871057493 5.205307260655194 6.264902671874293
Sb 3.972736352563459 5.265477800482255 3.4524732965380998
Sb 8.558184375112813 5.652487675030302 3.225170866193088
Sb 6.1527073439368225 7.0990860396868145 3.0459783488251793
Sb 9.924283964471593 4.6068266575333485 7.392177593464957
Sb 6.044965263675379 5.7622991670499735 6.971405420313762
Sb 9.830148627891564 6.9205005712049985 5.658568157632861
Sb 4.282187929450047 9.804762995607184 5.706109932206065
Sb 2.284205570023599 7.916207315503184 6.391666645575402
Sb 6.200582969918578 5.841748492656724 9.791236644887224
Sb 9.08381873318754 5.899981451987502 9.877685840950969
Sb 6.884778030567657 8.238409669828107 5.746020350393236
Sb 3.4349892877427437 9.58995096515975 8.432796732016197
Sb 9.86649750258235 8.263593406647287 8.43424854157178
Sb 5.718162726574635 8.653715293484208 10.057889729191448
Sb 7.5586112068004105 9.804595611800778 8.241494889147866
