15
Energy = -58.21623992 eV
Sb 13.423839604849377 8.123208044076504 6.210073908606585
Sb 12.572005228156836 8.103322777953125 8.957008056533093
Sb 10.424364071786277 6.222129111672733 9.231925678921012
Sb 9.934618291252582 5.717294262146484 6.482981900852405
Sb 11.4975058035791 10.073612413080761 7.155444214834919
Sb 10.72594596007717 8.137836615308105 5.187049855478715
Sb 8.804932871748234 8.375206852726361 10.247327962794818
Sb 8.12898621514258 10.096934238151167 8.089874213786956
Sb 6.338791198504088 7.092546526197891 10.7809218382904
Sb 7.080141439426235 5.860763683404686 6.476509250874811
Sb 6.312679690485633 8.585573297545462 6.444531468222702
Sb 5.375059163276679 9.626700684255576 11.821742888162545
Sb 6.156536097136715 11.450114125400754 9.73495551604946
Sb 4.667006767466472 7.422875122985359 8.443693722206833
Sb 3.71376254060533 9.988367705227386 9.481308136195032
