14
Energy = -54.46917808 eV
Sb 6.7619511635416565 6.9253679355321704 10.251131723340665
Sb 7.975619009070468 8.774209958250381 6.613888859456776
Sb 8.528181073099484 6.379106773212843 8.082239598214443
Sb 5.701324770672529 4.353945521863552 10.838122016640563
Sb 9.529165680249571 7.7234107584761675 4.456626427339948
Sb 3.9780498756847553 6.4888899675119385 9.813076663972772
Sb 5.284505215835918 8.461953607051504 5.710200650787429
Sb 8.44829025490763 9.19102118832478 2.249149822694381
Sb 3.417637722223351 4.730806233982432 7.580470623214642
Sb 7.740678009839084 6.4215125614113715 2.6136609211670283
Sb 5.626283936907176 2.982218594291151 8.252726596825498
Sb 4.943768021205639 5.651084489320778 5.285893716435264
Sb 7.327228087322112 4.436445394687975 6.381180302043322
Sb 5.737317179439278 8.480027016081456 2.8716320778659172
