23
Energy = -89.86840367 eV
Sb 9.64519638637003 7.291703367904765 3.0113732432035922
Sb 10.228861797933343 9.862986301539896 4.160519868380844
Sb 9.984822357189277 9.524350142484687 7.022118178725729
Sb 8.45466435249364 5.9758020602177515 5.293028752907858
Sb 7.656205572725178 9.461353998472859 2.9506793898234216
Sb 9.619677378603594 3.3823180556629615 4.775680957191192
Sb 10.489788264913294 6.705370759377792 7.141448348151178
Sb 7.161946045280596 9.901190104172445 7.195703711362061
Sb 6.009050382420283 8.32719697764919 5.0444196586070325
Sb 6.648299635377535 8.123325812162518 9.396670942135646
Sb 9.53174945684069 2.2708254569380046 7.4386198297391894
Sb 8.893577684196439 6.2648091604928045 9.48252313735173
Sb 7.395382672089505 1.6846853809010343 5.574814980551917
Sb 3.795961568231008 10.220635172430597 5.161871150819785
Sb 3.1316286664017556 5.908591878265176 5.086434930363209
Sb 5.90660562637874 4.0139603478686325 6.510825060206008
Sb 7.543455904135027 3.7623360231937233 8.901652227545364
Sb 4.56439901157249 6.869920682781225 7.739251859065329
Sb 1.6152826726670368 8.335416354222273 5.399769379284652
Sb 2.951124721234091 9.276253947450831 7.781622914741852
Sb 1.5779399783414254 4.399764231504081 6.993778494382132
Sb 3.741147372089274 2.7684019237364037 8.011418040929895
Sb 2.953232492517936 5.168801860572541 9.425774944532568
