26
Energy = -100.47413671 eV
Sb 11.836763106562529 4.7592403920153945 9.065458331835961
Sb 9.453563967668336 11.825354945145717 11.303741503526554
Sb 10.163914867954738 7.228088635610186 8.073483199782476
Sb 12.213537583733089 4.0632438821599335 6.311280853063511
Sb 12.471822674586951 8.747283390989352 7.188535340122472
Sb 11.917672102006232 11.48270320766218 7.849119581180447
Sb 8.436591458620137 12.780898378382762 13.806120235412942
Sb 7.824933363658907 10.119251121618802 12.927419152416705
Sb 10.34676433365215 2.6992801965944597 7.988465697116708
Sb 12.506398482158966 11.898459734116498 5.041710596245891
Sb 6.3327202907560896 7.18334632386702 10.724748001108903
Sb 6.661941315190614 12.355873471845502 11.58815860043273
Sb 10.100204950463345 5.975203155549252 5.520112382075471
Sb 11.758441561598229 9.07560472057174 4.444713693991849
Sb 7.738527840253908 4.877285922737109 9.423169493180735
Sb 7.827561244844093 8.733771956094714 6.87363474359023
Sb 7.9451442404441135 4.3205883662106706 6.597384019324185
Sb 9.8501920646252 12.358798904846765 6.065407160210744
Sb 5.746531994440823 9.574335316797598 9.299267021484205
Sb 9.055357509477371 10.026721356879174 4.596647063056482
Sb 4.8273197136108354 5.066494743868809 9.562071714256199
Sb 6.530937876648701 6.659838714642666 5.433105005326672
Sb 3.7343195329316905 9.212108557784905 11.4218452033379
Sb 4.149146314443224 6.084226666780352 6.961075870806566
Sb 3.6294352189732897 8.848584930731729 7.445595566750454
Sb 1.8140663682607425 8.542397909749607 9.624576357519564
