26
Energy = -101.4802137 eV
Sb 8.596021670920047 3.185005322798375 7.443625339170868
Sb 3.6935889537027795 3.542681553969437 3.8756152247757414
Sb 7.295454939279027 5.0562179241476874 9.225846317051111
Sb 4.784018037195253 12.080376439217293 9.991224260748439
Sb 11.000281467127305 4.592876560856689 6.780199507562843
Sb 8.062741906831262 3.0017654326607586 3.8398327148472813
Sb 4.848389155145008 7.396597457495844 10.493629764362407
Sb 2.1818161513819123 10.902507254627137 9.790425273108424
Sb 5.03802198284561 5.299804173875286 1.95714467309658
Sb 4.062914035020956 9.882941623453691 11.706953530307144
Sb 5.4967874143755395 8.227955381205188 7.842314646346351
Sb 2.1276334372357892 5.7429620302595135 2.8922884821332926
Sb 4.02545853983326 10.68578586817998 7.589954387962133
Sb 4.668665518038286 4.274401590846781 6.439596839674388
Sb 9.265775822694359 7.118794104629582 9.535628420391776
Sb 7.296223125965803 5.200113040821145 5.461852236126485
Sb 3.3066637490379867 7.881081979310639 4.23578727408898
Sb 6.236356379741473 7.333161466681664 3.54205629359146
Sb 10.873312290208375 3.5673519589434384 4.032675079729427
Sb 3.238897802624082 6.710052538046275 6.835674568686676
Sb 8.542086636803296 6.6881088482282 1.622216027028237
Sb 10.80838208482918 6.383019784498055 3.402258580410424
Sb 7.477968151818248 7.903969906985117 11.657002365415751
Sb 8.7341306344641 5.303167262197405 11.707952895150742
Sb 7.74113976487411 4.065305843834295 1.1612325874701248
Sb 9.59786379279502 6.974588097018271 5.937606155550979
