38
Energy = -146.96222643 eV
Sb 8.80127625767355 8.875563200513806 12.307650538833776
Sb 6.132586140420006 7.822595505558139 11.78756340481388
Sb 5.4643771594444015 8.258212494245335 8.963807672894141
Sb 8.991695714316476 4.425057839873309 12.215920468674717
Sb 3.8543367115546308 5.28884298163517 8.481029409225522
Sb 6.361089282210848 10.972764999633888 8.516367267004375
Sb 10.662282261097005 6.7239160594395715 11.819145563630633
Sb 10.333986513701035 9.847198322633375 10.021917340506937
Sb 1.8350182447714514 7.329322692157017 8.786355694691578
Sb 9.102827369400593 11.295526780638834 7.818755092988927
Sb 7.667883298870485 6.468395903824827 8.621417004747082
Sb 1.9808389951881813 3.623193628301017 7.010969815607995
Sb 6.531129286867338 5.089795360802435 10.88707783391223
Sb 4.6611481872414995 11.946354201887633 6.401593198455432
Sb 10.163005206159882 2.903566841714652 10.07946408921726
Sb 10.437997382653997 7.182599143396326 8.942140621932765
Sb 4.337437630582636 6.652855623684635 5.568581741856417
Sb 6.038028474913699 2.835795108820396 7.46455411825807
Sb 0.1804561224439013 5.886048175160941 6.913141479060576
Sb 10.164207872897022 3.6246413337744365 7.261626197774446
Sb 8.504213627903077 1.4292145559254623 8.24707933269217
Sb 7.282774457647717 8.446360663959641 5.516921247179906
Sb 1.8885001879834689 8.06031472171849 5.952607701617784
Sb 6.542644571002608 1.6794368692235133 4.826633561640827
Sb 10.02575333527123 9.382375879592214 5.896570395843631
Sb 7.680136399617335 4.831717557946778 6.225700121117902
Sb 2.708959571233919 4.5978094742907345 4.400201038636944
Sb 10.027178668914852 5.095799911068997 3.09960507820878
Sb 6.697128777682816 13.018670936966657 4.698893963304299
Sb 9.22368422411227 2.409164581210442 3.914511632897662
Sb 7.780091777541162 7.0729225824162105 2.93040598800637
Sb 8.237290792417163 10.640613201606477 3.937181139000737
Sb 4.535038065243311 11.506964819696805 3.5474358141207483
Sb 3.955353066156506 7.422369228780123 2.670560302991495
Sb 8.542327273721295 3.482614205486304 1.3458253694079612
Sb 4.719654423963558 2.9836658366625635 3.025311066652103
Sb 5.919659960554325 5.23899194845425 1.6903599726504959
Sb 5.779264853401635 9.40000897407516 1.9563798667200076
