34
Energy = -132.36042528 eV
Sb 10.19683526252808 6.948221713957592 13.321223037133668
Sb 11.591708813748177 5.195761167802387 11.463028293528389
Sb 8.923066011498817 4.486069495324512 10.697057744509129
Sb 11.84595994292848 9.288662001405203 13.608729425123963
Sb 9.870390539375755 11.365681728607942 13.261296335285126
Sb 11.169283285819164 3.7686156736233505 6.582945640628556
Sb 12.55438846313706 7.239276162755286 9.696594311275845
Sb 8.425692899884055 7.71377663151678 11.221758484370659
Sb 7.400349422193024 9.968837162669363 12.714277129274372
Sb 12.997039077854305 5.876345475889295 7.206357104504846
Sb 8.705115621113904 3.9311297593300125 8.047561791361314
Sb 3.44173796799095 8.346438402727445 10.923687662456114
Sb 10.274553603704275 8.985126486094872 9.415612461526843
Sb 11.697111714886823 10.784991228835862 11.149204504173177
Sb 2.252668726237868 10.248718873872527 9.340783275685903
Sb 5.076798954553412 4.467320325234963 7.196423529791025
Sb 3.8542743415961764 11.091745590963178 11.582198139402694
Sb 10.863032188088573 13.47710999630909 5.030728070768863
Sb 6.501109260607826 11.656046187666119 10.521569723721003
Sb 3.259259162814758 6.619883376420723 7.76931539727882
Sb 10.97787997360882 6.301985379757177 5.181778236136989
Sb 8.606169893656702 7.142534493612578 6.648700921282539
Sb 11.742443884830449 10.08272982880991 6.372572355671366
Sb 7.049524493224944 5.170879337721249 5.228913153793779
Sb 3.064620637936527 5.338403307217682 5.209888496741112
Sb 6.817945272113555 9.527053564703479 8.609913091621467
Sb 11.23157721187087 10.97105903786301 3.646439650517213
Sb 10.122694828433131 12.166025759023906 7.549147088028069
Sb 13.410715331046822 12.126273924449846 5.0933479649764655
Sb 5.108085129423728 6.561798864399173 3.566672043570222
Sb 4.266006429938488 9.267160767295168 7.258649143415253
Sb 8.045870157009286 9.30629973295747 4.715124841051942
Sb 7.497758296047381 11.455390446355572 6.577933749414095
Sb 5.184284165148444 9.287266661721752 4.41400464960335
