37
Energy = -143.28346824 eV
Sb 6.879043358234723 0.8210031502351305 7.12413497326035
Sb 4.616856972900623 2.896257762110766 11.643210386452036
Sb 2.9770783701681114 6.45334342568787 3.7587246881639085
Sb 2.0229401818438806 7.271499243652088 7.935803194012969
Sb 9.683370535209074 8.04109379578155 5.621027159101482
Sb 3.201404519108016 0.7741692341054479 0.6300646377695083
Sb 3.602312311149442 10.04710901391582 5.22467614041733
Sb 8.456909639818702 4.014856049177766 3.4524023682928116
Sb 5.1747413617898275 1.629591520720095 9.375816275984048
Sb 6.696051082309214 0.673270519673449 12.378881840278202
Sb 4.902323077271921 6.899872390148346 1.2879035053593093
Sb 7.022915292899409 10.423144321530096 3.3480721901239257
Sb 6.315850748016984 4.410466708929316 1.2294309718159144
Sb 4.297297141815004 7.380433464535181 6.16643228815943
Sb 3.752190623101016 3.2053019546042383 7.279121120284892
Sb 0.6252453211856124 4.681188949627706 4.938495650038886
Sb 5.371448242048354 5.221021235172744 8.96599984349617
Sb 7.505308918500516 6.570703156574356 4.42134940747662
Sb 6.408215700007185 3.069076523277164 5.304405237041518
Sb 4.001111756570489 3.7874471091553255 3.147072596335648
Sb 7.738473254475672 10.098020445231846 6.147328979172549
Sb 1.1762582987570953 4.504221211458921 7.750033842312734
Sb 2.384531030602166 4.299036838071565 0.7328465325668123
Sb 12.34942532685955 8.17888088902927 6.184839760408053
Sb 7.5221295146299445 7.961235556400544 1.9458778900648124
Sb 2.4797320639331577 0.3570641936646854 7.309076230529372
Sb 7.665948906001795 4.8201339991435415 7.243486474157246
Sb 1.1443045647215313 9.360229699684048 3.842544220555419
Sb 0.6801827940512404 2.1951324624337984 1.5890934931184666
Sb 1.7215164902957287 2.16119265924975 4.292702817830893
Sb 5.0310569807120515 10.846712788702327 0.061264665912818976
Sb 5.358664022553292 0.03942853026248148 2.4147483506014145
Sb 4.763322366738383 11.475317857257515 6.197567358998754
Sb 1.0351008873113963 10.846712788702328 6.309047503144992
Sb 7.457138163532209 3.5283901420446355 9.842795155336788
Sb 9.78471199469643 10.579350135095854 4.212550600770496
Sb 4.102061475724197 11.22408936835609 9.017759763742465
