38
Energy = -146.94355174 eV
Sb 12.84212845286489 6.680512901108534 2.4862453377628477
Sb 6.762330946710035 13.01297161604831 6.749269105029222
Sb 7.072806145238894 9.648503971825631 2.2722092022640465
Sb 10.904323353157794 8.63357922781959 3.446302569229939
Sb 4.65693223492929 8.231462308195322 3.021478110500674
Sb 9.004707310802216 10.640522316239425 6.370133247787002
Sb 11.483530228477425 8.957165718098434 6.230477526363694
Sb 11.04742797279503 6.17596366573128 6.6472057434763885
Sb 10.072422207402374 5.966759522401595 2.698468012578452
Sb 6.146182710994591 11.732762828525738 9.220573952546385
Sb 12.029592581442929 4.685732766544317 4.373787527227446
Sb 11.53349480626438 4.983695613471015 9.231723450873638
Sb 5.3353986045517585 10.857576259193833 5.645198347513082
Sb 4.71716128063882 11.110690766038116 2.8064927219862947
Sb 7.260697826154499 8.617295087929977 5.235132160324181
Sb 8.275627964145546 9.634733551929655 9.002546164570045
Sb 2.2725812483343586 5.491323306425685 3.366879518842762
Sb 8.23617699717849 5.513432316808469 7.063905541915722
Sb 8.98301432637853 6.353753218339816 9.799733333498148
Sb 8.308533721415632 0.6360043743871113 4.566690268947231
Sb 2.077363149932877 7.817478172144898 1.6405125593554413
Sb 6.862129797343124 3.1076953684992343 4.434862021927596
Sb 6.065629179781531 7.918340068982578 8.165090155637715
Sb 7.945869478889621 3.7604495837483523 10.749206476962174
Sb 9.461541444979725 3.1054174663054654 8.344339458507946
Sb 2.9186452618895418 3.6670680690908513 6.384348768532375
Sb 1.6517123804417972 8.054781840101404 4.496050730412591
Sb 6.451684283634912 1.3240484543402062 6.640066527900359
Sb 12.84212845286489 5.979916833228735 4.418637757034291
Sb 5.502397868860421 0.6142965368170683 4.026038602288342
Sb 4.080058760441856 9.962585106161432 8.1645977301216
Sb 2.9523707183483006 6.3330586560120805 7.498901068644012
Sb 5.69350488969583 4.077688408218794 8.972472934332927
Sb 2.07256269760604 1.9154182636889636 8.534519315577702
Sb 0.4214693512340737 4.9468805706456696 7.066325116381074
Sb 4.431735351477218 1.7463063859982753 10.176199971049977
Sb 3.747559716157047 5.805473539936912 10.231477785176148
Sb 2.1985165921278993 3.4245543854503704 10.947800223353704
