31
Energy = -121.27857826 eV
Sb 6.500413042727641 10.906441331681869 8.780677618165885
Sb 6.664472198007154 11.900124338711041 6.02130266074333
Sb 9.284396637070383 10.270494001778482 9.275154100278346
Sb 4.295442278363871 7.230519920576325 10.997869193240515
Sb 2.3131562426898915 5.414130937246082 9.802114750812436
Sb 7.986228530479548 8.168648129312581 10.84554734229593
Sb 6.031371139257686 7.983981043382144 8.76646919642412
Sb 0.80313735322568 4.496488737833534 5.962990437312131
Sb 2.155397010969393 6.693352737293199 7.241507079043141
Sb 9.293932522716663 11.201020545136199 5.122883028448273
Sb 7.017606560723758 10.464835363799606 3.5103714909630885
Sb 8.886607471466855 8.856657145633557 6.807573546649147
Sb 3.532229733913958 2.8123343913112784 9.317676721292743
Sb 5.976276296434856 4.892418956617893 11.435064984744718
Sb 2.3840126148483525 2.242808319035278 6.762756003911799
Sb 4.706780584321452 6.461297149138025 5.94228601572636
Sb 7.457342467873796 7.632340202264772 3.9579341916837616
Sb 5.851248914048467 4.398850116556233 8.606824038927762
Sb 3.294836075683945 6.979677012228449 3.43508940624084
Sb 8.832000117315465 5.399461229223604 10.971212053246287
Sb 10.953821674831932 6.812528186309552 6.609921969923909
Sb 2.4501888309275683 4.232916893953533 3.5810879597044267
Sb 5.741264580670513 6.424127791873662 1.9775029701772506
Sb 8.438517429636185 5.431494842886343 6.392636965407031
Sb 9.662412090044162 7.695649902478059 2.1034650521158897
Sb 4.7339183159642815 3.608526848513082 5.2940454482061705
Sb 11.83519170295834 7.062478112180803 3.8719837809034026
Sb 8.657967210945689 3.6094894469024617 8.672920991820233
Sb 6.360087876949008 3.700492067583486 2.8029104625457966
Sb 8.855742851025463 3.544202401656507 4.245313823200831
Sb 10.543999643907723 4.972211896902026 2.3849067158444592
