33
Energy = -128.16235989 eV
Sb 8.669194576152272 8.85492722580941 4.093434407135287
Sb 8.364858333864147 11.626118288453684 3.427049328620289
Sb 11.111495245965909 12.395914970107187 3.9848897503413867
Sb 11.18043179629109 5.878492855435776 4.940596563223846
Sb 13.030818512602083 3.7058003965801047 5.488459639387963
Sb 13.778670661905034 6.4041999468739625 6.048278550676684
Sb 6.066006790136216 8.597649659246846 5.343920115794051
Sb 9.474676943854785 9.35332559762149 6.755028500893506
Sb 11.871287139846057 10.884727778252907 6.301594938734302
Sb 7.57927949640889 12.832957883768872 5.927154305376154
Sb 6.959172084733376 6.213338386319377 6.74224173036014
Sb 3.78426391629474 8.156800119018522 8.375775239656758
Sb 9.789005481743303 6.555065865117909 7.454608598799863
Sb 12.611846074555087 4.814365326647527 8.152228213657104
Sb 10.371237799201753 13.297690289734359 6.685018317262145
Sb 3.765634321976279 11.017763994677805 8.30267523394355
Sb 6.585067475694843 10.581092694085742 7.492419870635576
Sb 14.317255860391938 4.854009915253994 10.59529245570514
Sb 2.749600439151405 7.446645114610007 10.97742943647569
Sb 11.339980793124088 10.755184068064256 11.319741110578738
Sb 9.844700867750305 12.484029426968947 13.008859612690769
Sb 3.619142071909894 9.649834764271525 12.676146907461295
Sb 4.777489242935197 11.63682597038615 10.934834395958399
Sb 6.477344484949241 7.599714777865481 9.308186895104583
Sb 11.547872119986128 5.137377327626213 11.366525702953934
Sb 9.394810459354801 12.57594750495581 10.241826924797614
Sb 13.006278699829723 7.4283142695338125 10.44373151048985
Sb 7.39843980893114 10.434754924270365 10.638110144204854
Sb 5.216420085878015 5.930301111992487 11.342909107898263
Sb 5.762505195289 7.865928332647519 13.45222444441703
Sb 9.767642569173754 8.272890176517205 11.82611724568542
Sb 12.16135528656843 7.282825778036171 13.206946546832038
Sb 7.974295672119386 9.82326556781625 13.493824562815645
