35
Energy = -137.33591801 eV
Sb 10.184942274508392 8.678376614749812 10.324701533052865
Sb 9.409750653217813 6.000543148609179 11.119089872431394
Sb 7.668453225547714 9.866075014768596 9.444336838935406
Sb 6.53380124875874 6.470955150893959 11.072868071836549
Sb 8.721682269490307 11.198598121282572 7.092474146214441
Sb 10.915651018493211 6.4128556031379365 8.703690019626906
Sb 10.353605434393893 9.124746414629108 6.0188963292926685
Sb 6.318035783516758 7.538788902269863 8.40477074429747
Sb 4.867554017221405 4.2050868862880115 10.309416417323186
Sb 3.9938958575859975 8.64557373286866 9.747562892773061
Sb 6.416047407923474 11.716470502069932 5.372299883091445
Sb 2.6905869141138976 6.157387868740693 10.45637732063528
Sb 9.98951503476084 9.703495148117607 3.237442428249368
Sb 2.511094308715307 9.699458840973135 7.484843302750465
Sb 4.890347324066059 9.327136458928129 5.863849564447047
Sb 8.270166476951765 3.5417857742786887 8.352049012898675
Sb 9.002651948680777 6.592583975966663 6.511696723779715
Sb 7.345825170373187 10.845899879262747 2.7741083482623843
Sb 9.96825884000021 2.371592006304214 6.3807521092859085
Sb 3.4383952545809113 8.847471908853912 3.4267243701683
Sb 5.214909721817034 4.316281226042082 7.433129071735698
Sb 7.906589629234265 0.788320341094691 7.570415137737909
Sb 0.9296709448732589 5.5455685922974665 8.23559293227594
Sb 7.016345492794087 6.748715286649321 3.8838875953429786
Sb 1.432716829988937 7.402592219559003 6.120102196472506
Sb 3.8796271888757876 6.347796022525117 4.99345178697291
Sb 9.46971662531793 6.993425537081947 2.36679433396104
Sb 10.871012129056572 5.616076810883998 4.483609367261657
Sb 5.868013115311638 8.510803639148715 1.8998283091664303
Sb 5.234716345212048 1.5106789429351397 6.6943610566851985
Sb 2.381417264848896 3.324971297725401 7.111249094804639
Sb 9.487311807429242 3.2148717073142947 3.675372456680077
Sb 6.872146739028955 4.077151540985625 2.7391409426356508
Sb 2.5043548657685553 3.900595215047737 4.277780649497064
Sb 4.941190837542342 2.2572696677176105 3.9173351394188054
