36
Energy = -139.44306044 eV
Sb 13.346317487430806 8.081918382690427 10.723483603276893
Sb 13.861435808738102 3.050704484212865 6.310270857935594
Sb 11.003370078494056 8.868285751640018 14.260290687238566
Sb 11.150635199660357 6.898166570088271 12.183911383073482
Sb 13.077929098097364 10.8809355652409 10.153353864509507
Sb 11.839609239380232 4.399290117918501 7.815729360659204
Sb 5.8745397731739315 5.973165504473564 12.942112322851678
Sb 8.262173393052514 9.704958594855553 14.327757071463985
Sb 10.279318418982337 11.529553761114371 13.406560802632079
Sb 12.942671339508344 5.683319160272003 5.515852825057506
Sb 12.92918679814138 8.942773925155766 8.006084578992128
Sb 11.237233477374835 3.406038089291315 5.20359275596163
Sb 6.945658837358846 8.593147232502371 11.992926949466383
Sb 10.471752501463762 12.045370941674927 10.570649545497414
Sb 7.614461992051385 4.649705448249991 11.115665436079105
Sb 8.909715693508664 7.222240695118646 10.401903005610038
Sb 6.805794199571523 12.884612724334646 11.07878985669261
Sb 4.98650733342802 5.491194610682743 10.264470672735662
Sb 8.095149779176175 10.57149254055149 9.827963460459198
Sb 10.106235966124247 9.073473467642021 7.448774147256609
Sb 5.850431734557526 7.9027332772915235 8.801397216976804
Sb 10.3334693431133 8.081996685803265 4.775901388762375
Sb 7.661247950914592 4.504262202221903 4.145743544759232
Sb 4.087581710118947 12.352431979016815 10.343280375340054
Sb 5.771176973413334 13.94931553202521 8.60087357208019
Sb 3.5846095590664415 9.697677650658305 9.210421914357433
Sb 5.16528668481214 4.506949326601985 5.6366258878569
Sb 7.2369758631378085 8.451470109278947 5.262173359654928
Sb 6.7210305546393485 11.55143012083008 7.262194641603897
Sb 3.9661875806915514 6.866362314626166 6.808109128419273
Sb 10.580935602150975 10.895262386404497 5.208634823398237
Sb 7.279268460164086 6.995928218141159 2.763051944779223
Sb 5.1637000303807845 4.989775161430668 2.7991980282596924
Sb 3.9683914800817277 10.95395350442335 6.647676461927078
Sb 7.753211306626435 11.266675275022067 4.591784326216499
Sb 4.283058978115289 8.845198945768553 4.7792134186822
