37
Energy = -142.73175234 eV
Sb 12.397348230948532 6.190177108051039 8.131256303094238
Sb 11.140481199659112 8.725351376395368 8.750508391989065
Sb 10.999945670055043 4.164176101222051 9.587568222726834
Sb 11.396990703815982 7.2975866281283945 5.348317809701989
Sb 10.089579981040977 8.369585662488797 11.39715124114689
Sb 8.960393107530736 5.817179286741321 10.741246173469365
Sb 10.695503550544576 9.825880525838736 3.663138675202595
Sb 10.22390725959443 5.192945436179735 3.7533452424923976
Sb 8.979277350444763 10.657605101137179 5.772593078489443
Sb 9.137101637250916 2.602193283203837 7.944416653303136
Sb 6.8467770943791475 6.37966523517102 8.721770434164974
Sb 7.2871999734542765 5.015785849023226 12.906809207258764
Sb 8.55194731937013 3.2941526725043206 5.162097381862228
Sb 9.058063686961068 7.956431931617972 6.912338331495789
Sb 6.747903236413876 3.3694576237573903 9.364023457711166
Sb 9.122137228997637 8.890547036361456 1.4738450577386957
Sb 7.442016605577977 9.570873993604614 11.361294770520797
Sb 8.005724255775867 6.407848370037251 2.3968355915012927
Sb 6.187700542414989 4.8745098151455455 5.504528583724494
Sb 5.949605980596663 7.019265702277467 11.470220814879493
Sb 6.469702119203291 9.984798620048394 1.9203871783757973
Sb 6.335514718117699 10.41437630285316 4.737524827366431
Sb 3.417870700431798 5.691025085874634 1.9719533048776456
Sb 5.815769594510222 7.763393651058556 3.7806544018722947
Sb 5.048545763407654 2.772983781007479 7.104133857716758
Sb 2.3600494110577546 3.65104102332119 0.10683107375341669
Sb 4.9882508519351605 3.589657062361464 3.179811389484147
Sb 3.8909503534567125 7.016121156488787 7.236226435586662
Sb 4.017704928806341 10.417833363664911 9.91394469294027
Sb 2.1512703570808966 8.350370342572282 9.124490826401612
Sb 3.1622582680197358 4.490588989799685 8.462785395061754
Sb 3.351660895957719 8.271090733401772 11.74811384666447
Sb 12.51013250831622 4.660345848975608 0.12598222727339983
Sb 2.21254625203119 4.01283665341663 3.9215307592675703
Sb 0.2618570143711941 2.618372496236717 1.8091715755173878
Sb 1.5476314537119733 5.533207850131486 6.319286906135781
Sb 6.53060044161713 9.632680413253855 8.665807992584462
