46
Energy = -179.52544304 eV
Sb 8.372985717932337 5.787997607973159 0.3636378303250422
Sb 5.666223262885 3.092966672941369 1.4295058859133563
Sb 9.40652655108974 2.5484000726371443 4.25695693764873
Sb 7.317367831191978 12.48911650942873 5.044218049081456
Sb 10.578574740129811 4.982853664745403 3.2008512044418387
Sb 9.56589249684423 8.355494038319636 1.0292003235290224
Sb 2.9436046247848604 3.973362718772274 1.9234874901429897
Sb 3.4512606679370728 1.11810833876171 5.7948952974849
Sb 8.115988714664082 0.7264423236888149 7.222878032935347
Sb 5.714819359783636 6.975530280992237 0.07883833555240854
Sb 7.360921920000502 3.3966159964103575 6.127392659627343
Sb 6.398929412817599 5.655894620429904 2.551956406093207
Sb 1.660527569876201 2.988836648853477 4.323516454585407
Sb 5.721003281861322 12.718319331391324 7.273718075844752
Sb 11.722866031138055 5.496583139253453 5.854026196168553
Sb 3.358197059416754 5.345081041357683 4.428113007122944
Sb 9.012320032537453 7.387115253689744 3.670132622556651
Sb 7.019925822015122 9.543105943705191 0.2936461036822838
Sb 6.615100610261556 1.7592378044813648 3.8474108660526096
Sb 9.206016978980339 6.4491418542468955 6.935784737747593
Sb 1.0742777000329948 7.132162962086532 4.24616682080408
Sb 5.064727375588773 1.8861681718580603 9.763820224780893
Sb 1.1642746252631946 1.0989945852298117 7.603692338529359
Sb 4.274824953050398 3.3898192043935564 7.4249876179213405
Sb 9.398720919247353 6.732626674260876 9.800946614754771
Sb 4.556588141861658 8.629989964860487 3.605329993009345
Sb 5.600121608161341 11.034622017826203 2.359019445370973
Sb 2.025479211420832 9.008589819163893 2.274767154752451
Sb 2.420079349637878 0.7105208158437769 10.209371145903624
Sb 6.876649881575994 5.330509155922225 9.514095177620153
Sb 2.277293379744706 9.656460135707492 5.066554379327088
Sb 11.040296315358782 8.289079413250182 5.643299697876328
Sb 5.332527505872255 6.628353166468261 7.3945032293932424
Sb 1.508412806481892 3.9851558464096013 8.015956375137314
Sb 1.376362910237888 3.3678445810715143 10.849848019608833
Sb 5.555695869048762 11.792444505535423 6.109619075773638
Sb 4.040762778590254 3.5430023845554106 11.909930043938402
Sb 7.727987295503428 11.773449975462162 4.183353176655008
Sb 7.272494253776637 9.462413283503967 5.847161987247129
Sb 8.81033566274884 9.54929536274053 10.153909115303673
Sb 5.0410041919006305 6.2692820943939545 11.525693355130334
Sb 3.150096690676853 6.793103779324667 9.429130647697027
Sb 9.195980515476117 10.787197426758672 7.5964766156034615
Sb 4.346548313302738 9.182858797317383 8.285713147279278
Sb 7.005516063623085 12.48911650942873 8.560705836752295
Sb 6.033316585802153 10.328833635304544 10.30908344233299
