43
Energy = -168.10877197 eV
Sb 12.29790860886917 6.678380301769156 3.704623193030015
Sb 10.297462608795232 12.113210809732946 3.1205097586771555
Sb 7.893639702507985 6.176459291819108 4.044925968392654
Sb 10.322906052672382 5.410916738501712 5.347724602619886
Sb 6.942054604596579 9.942486879756773 3.692787721227912
Sb 10.868153679144632 9.329412055734215 4.11912894729802
Sb 7.55021605061171 12.686593194921173 4.45420738155761
Sb 4.230791243547439 9.74439826570557 4.688628657860246
Sb 10.116495260797931 2.62320308187819 4.843881223575211
Sb 13.738216669445938 7.270032799298306 6.052474292713903
Sb 6.353386652320286 4.494863106388218 5.836341381361269
Sb 11.514371420016358 13.011530097729267 5.448967120556438
Sb 4.012392178419908 7.102104236613386 5.750880792297301
Sb 5.522182522069286 13.573803074124733 6.744333886104314
Sb 12.994749608702836 10.304150001474152 5.840774691692345
Sb 9.141855698198938 11.858200373135665 6.677752121724734
Sb 8.213255394015865 2.5109349738796034 6.963404183314122
Sb 9.288579306045639 4.645443865636204 8.629191285830494
Sb 6.167127032227049 6.726294022407804 7.699051450648097
Sb 4.647123396242407 10.962180857733662 7.221716032193886
Sb 8.518215379412533 8.65260390077633 5.753679452199575
Sb 2.121171100077009 7.520556153095305 7.968229577938078
Sb 7.149675445849389 4.32938530193201 10.549418771913436
Sb 6.7912708193446045 10.029758813300317 8.933011753893718
Sb 7.437481021495155 12.935104685258565 8.814601869519695
Sb 11.57099050735813 7.267062907019789 7.99419902744513
Sb 9.777358470727473 3.2771245110681098 11.139974887166444
Sb 11.697459291937152 10.156054547260862 8.455295659062804
Sb 2.505941514980855 10.15532887909178 9.059620262137182
Sb 13.41005366697339 8.339924021541206 9.956415987934763
Sb 3.9705331820994063 5.794409050942022 9.380314664528463
Sb 7.457760561473737 7.081306057517408 11.370939597097081
Sb 4.655002123750314 10.048153183580409 10.978634255596832
Sb 11.498227599496802 11.607512987143002 13.001209078179611
Sb 9.095152998898866 11.161063449755657 11.458455480660925
Sb 8.982421377536506 12.682735433912011 13.931220438770069
Sb 10.944414488712596 7.980367699087458 11.44316736972297
Sb 10.984785817072352 5.358936248524102 12.741813496786166
Sb 7.6024155506780335 10.172176875867523 13.724748332604664
Sb 4.568753468859543 7.284700247026172 11.779334744982789
Sb 8.43864206631884 6.049816960582837 13.909065938833072
Sb 11.858988673799075 8.940343599720032 13.994511098675552
Sb 9.330347174193657 8.490906448050305 15.260763551969054
