49
Energy = -189.03646944 eV
Sb 10.21929750208287 8.361138053678184 2.6561945144960757
Sb 4.659373086300575 8.032542247280587 3.0735180879417565
Sb 5.154968942024802 10.780178506183914 2.53558984053142
Sb 8.135548204259203 6.463742204844637 3.177253158671646
Sb 7.9709765168732165 10.22835026332551 3.4689272266897624
Sb 8.351172523216082 4.195477720465952 4.95406464267845
Sb 11.713107578827794 9.269845755916723 5.078749237965415
Sb 2.219957430083761 8.17769046974833 4.553293357874396
Sb 6.794704622007402 8.112652603709245 5.109070222502931
Sb 13.380021889461206 7.165901907693719 6.339220450062169
Sb 2.9141312117627005 3.6967121760017845 5.940348177933016
Sb 4.654798639397167 12.12940249428588 5.042697039111836
Sb 13.17360276790603 11.644798781035496 6.905218768441716
Sb 5.29078469393377 4.975323197305442 6.2822493556458054
Sb 10.677186042953423 3.7324632595813134 6.70636416658849
Sb 2.7416863745796185 6.337777282375664 6.8015868181255295
Sb 2.630258996414459 10.478168865201278 6.280898504809147
Sb 8.738854927113461 5.901784127621811 7.259438751374888
Sb 9.256183474805805 12.016781988404336 5.63499022617614
Sb 6.806483641641321 12.730934231666282 7.011458084006721
Sb 9.44254134318194 9.353184380903745 6.810147177459268
Sb 14.450246133322153 10.839182631024169 9.637303001071436
Sb 15.220103786630222 8.351427612631133 8.307378822806516
Sb 11.196498274195998 13.591307051521206 7.232601435861929
Sb 11.565871101347563 10.090224685265024 8.828854432987182
Sb 11.848464775312113 6.075213320073758 8.667948560060346
Sb 7.285667233081619 9.561300338795645 12.720191546942493
Sb 3.930509089910213 7.677567315657329 9.993542062023653
Sb 4.843660034206711 9.510564471982006 7.884383299755315
Sb 8.992216493286186 2.426030153642092 8.72533279349697
Sb 6.9001660300753525 4.455311131355148 8.9415452852092
Sb 10.15913726888105 12.41199971474661 9.827836135553266
Sb 7.515298491911842 11.103785377977399 9.384076517714822
Sb 6.814101620978897 7.661863367622586 10.55320365692289
Sb 3.6818513253633762 11.839257003998192 9.287147245078282
Sb 14.438868016306184 6.1523304632158 10.020429721429062
Sb 11.227727235239248 3.431748044733637 10.20194934602686
Sb 13.510318328641496 10.539951948053677 12.43414810627455
Sb 10.249436252581987 8.192503435744978 11.154654066762294
Sb 2.861332376907708 9.983373438103431 11.414063498870497
Sb 10.800890751271274 11.157607637597849 12.488911744381264
Sb 12.973917121988704 7.592437994565919 12.076575805960285
Sb 5.866698120212865 12.918829781672077 10.923563596665362
Sb 4.936555600376495 11.15834657584092 13.037366632573116
Sb 9.925482204222002 5.24669108585538 11.979916282712443
Sb 7.37630397326684 7.288129458191209 14.52238128178248
Sb 6.955202997563351 5.371406890229269 12.31384578721738
Sb 11.823259850944572 5.7700274787160115 14.060102016678663
Sb 10.100346483800802 8.192502454610434 14.135240888748331
