4
Energy = -12.15438306 eV
Sb 5.053350859825169 6.383135047653591 3.1449231734647207
Sb 6.597685847331396 4.118176333332725 3.580931186168248
Sb 2.556930462524623 3.44119840858413 6.69849233722567
Sb 4.147592484695531 4.416142191634118 4.931688507367823
