4
Energy = -13.44694718 eV
Sb 8.900932271937494 6.632895257914391 8.885237827621642
Sb 9.146501006064742 7.883938238186169 6.403160386473011
Sb 6.904335597687209 9.383222715526259 7.11920717589673
Sb 6.178944413185855 7.230160764715351 8.739272293881042
