40
Energy = -154.95274173 eV
Sb 1.1318351742386388 6.303401634894218 1.5278935209905513
Sb 3.6491689813241646 7.12120618076431 2.8258440193935606
Sb 8.50879145248628 8.213217611830935 2.39802255324588
Sb 10.359015423458427 7.235206956806938 4.410423571229363
Sb 10.541542843206487 4.365503150562246 5.063033031717594
Sb 6.44917439308635 8.729474413665596 4.38415030910493
Sb 8.47276114622057 10.738618694515935 3.7535156110059136
Sb 2.787393643196952 5.773758126963286 5.25695540640785
Sb 1.3465554965956417 8.862531158217882 2.7899364046501445
Sb 0.18801577044539997 6.639916631254826 4.215771811306061
Sb 10.552634844163025 10.666025244566386 5.739733637996752
Sb 12.597057547890557 9.053329323173548 4.607478333654807
Sb 8.671272973725278 5.016372072375904 7.088150614964618
Sb 5.097469161504476 11.726882827587911 7.549691018620632
Sb 9.49234300058874 8.05867537345824 7.018156129960896
Sb 3.4525013402865037 10.18419083144842 5.741275000213674
Sb 12.868549044133427 5.028139466087927 6.636951289977302
Sb 12.426932974897317 7.827890631352118 7.263869723586189
Sb 6.425804848732683 6.051531340259927 5.637577002090079
Sb 2.4379933217261467 11.965118232203531 7.803004140336685
Sb 5.310707967663015 6.590004973729021 8.22706521493545
Sb 9.798482036961293 5.730559349704247 10.24769126081915
Sb 7.762269300400982 12.656919383638638 10.586343980670403
Sb 2.8633190173399763 7.813680964850718 7.298798679183454
Sb 13.067099545305236 11.315217197228359 11.913693956426759
Sb 6.548946282021696 9.072803692588339 9.010128699404474
Sb 12.50658222826908 4.923524452739869 9.534639923050037
Sb 10.653918894172252 2.9897773874900038 10.564979420285436
Sb 11.635897602206143 8.912730647993495 11.009129939034306
Sb 5.100475224278817 12.124039586390534 11.510153756335708
Sb 15.315534160083255 9.67148053685457 12.671446092936481
Sb 14.16713040312273 7.440949026308344 11.148175881919217
Sb 13.24599211375709 10.21353463055653 14.570599964824542
Sb 7.2094865235197405 12.54280033794266 13.419313395817689
Sb 4.726294350070475 9.283240362345879 11.247508659159358
Sb 8.914680283891894 10.557188181446081 12.191737026523102
Sb 7.330685260214591 8.222728851849961 11.68171831717209
Sb 10.65209505196219 4.767523828042181 12.853204664616284
Sb 11.255262629485037 8.233373432058004 13.80363511799737
Sb 13.167234692183463 6.06584022307009 13.487509867251944
