41
Energy = -158.45655149 eV
Sb 9.479188356685002 9.024314450109086 2.770100113838614
Sb 10.987740059068868 7.096957519822707 4.294127881223592
Sb 6.242241681285412 8.086504807794201 5.544475562092148
Sb 10.962339810863337 11.393761129718412 2.240788119272605
Sb 4.359642408718229 10.331847757961278 5.745239727258237
Sb 5.9651364730399 12.40785597811676 4.556679813086259
Sb 11.718770902044799 12.365995830695656 4.891836695390707
Sb 5.201777762088944 5.445731809419022 6.157392744289738
Sb 13.177535172345149 7.989108063927592 5.960135093907149
Sb 8.875172293140366 11.363444441938782 4.356275315698169
Sb 8.049473883324014 4.9360995382847195 5.680438124317869
Sb 12.80937883276896 10.66657859863977 6.90378437714227
Sb 9.401162716422952 7.3292831853142895 6.661126315488223
Sb 6.630599207204734 14.319727230288533 6.650210130247519
Sb 9.521082536717623 13.848092027374012 7.074842228787969
Sb 4.612499304643117 5.295524498116557 8.969579625930178
Sb 3.5811545003713796 7.973044237669712 9.175057856491279
Sb 11.765732481047065 5.898841936236612 7.664802716325622
Sb 5.843143757544738 9.409694386938662 8.055910778383213
Sb 9.670508879152283 3.4830082062674452 7.5723489605721825
Sb 13.913099557736066 8.058780448461192 11.000486628796265
Sb 8.571381615821956 11.143432160811265 7.53325927564172
Sb 13.391139690630313 10.866807409079339 10.67327958618896
Sb 6.673380053205819 12.725132357314397 9.105227468860738
Sb 9.090950938549751 4.224938702541554 10.16939647739216
Sb 10.82521856476941 10.075063567405836 9.12142755958999
Sb 8.884315710112844 14.427240928164078 9.894040988639134
Sb 7.029927896331213 6.2275879666651655 10.216355428213333
Sb 11.16734768725965 6.906431315624483 10.388181959380631
Sb 4.674932713908915 9.268989760824564 11.557284564504043
Sb 7.6263580998367 9.287141631944435 11.301405285497424
Sb 13.117723900217477 7.6085503658983935 13.738059575086583
Sb 11.997058213415457 11.856151818415663 12.969561388883404
Sb 9.641945431472642 11.900640732191757 11.123893542896656
Sb 11.726592748736284 5.229652274678816 12.736043074997475
Sb 10.834561052235486 9.228686583110115 13.09719058829639
Sb 6.435224152729264 5.200097890148908 12.856146356096438
Sb 6.986362149062009 9.57888489619527 14.14435093269512
Sb 4.973594145862426 7.48775946369275 13.815604468236542
Sb 9.062455535339641 6.509693218070889 13.011998882734856
Sb 9.232300627872037 8.233072377709155 15.331805291211234
