42
Energy = -162.76873937 eV
Sb 9.044400793929995 9.112700765781218 3.0136263972987085
Sb 6.26708430346907 9.904904200736452 3.2926545968023695
Sb 9.214736651472892 6.22772617469068 3.428153779845903
Sb 10.059984087389804 12.559481885407482 3.067830814425609
Sb 11.53168480112996 7.00579876482196 4.948957859740397
Sb 7.626681201585731 12.128995112617488 4.601550217352804
Sb 8.561098749566414 14.81284264679071 4.030992523814422
Sb 4.854022213507524 7.1003437372910785 4.964449000673678
Sb 7.484567158194627 6.166430023095634 5.719443321876144
Sb 11.945251486089683 11.6491174357564 5.033761993416317
Sb 6.2568728377817235 9.380553523960609 6.242614716191964
Sb 8.742544492150412 7.392701029212868 8.196693200215782
Sb 11.57221472101436 13.597842287040578 7.091447556157841
Sb 7.225670721918885 3.337778378487956 5.896178990113028
Sb 10.060662978706869 9.448263105327397 5.733887298084884
Sb 11.030737395600685 5.8118136386069965 7.590593936547097
Sb 8.879184265926309 14.677261042884307 6.920992632202397
Sb 5.055025658702396 11.798181563456307 7.509203516292545
Sb 3.602903675616808 5.904732413046766 7.302074535807749
Sb 4.981423881271691 3.3911283264358207 7.750269462814604
Sb 9.800232471250334 3.2205542318698392 7.28439016506954
Sb 6.761914112126523 4.804503884137417 9.58629883323559
Sb 7.9906659419151715 12.039735421665831 7.856058775746902
Sb 4.636340699036971 11.295394322908301 10.358458520966886
Sb 10.085610915198215 3.044823764717185 10.247900715789092
Sb 3.7439598196781483 8.565501759725725 10.962950618307781
Sb 10.686654114655148 8.62976334222465 10.290619394778135
Sb 13.487821781775589 8.703856759706275 10.577052170998044
Sb 11.137764532783844 11.653668714193273 9.30962702554688
Sb 5.4706890332203315 7.370788303735835 8.95242329011818
Sb 9.206448503745259 13.545786023457183 10.22367616754845
Sb 6.003211674806202 4.224231222528802 12.365007600294463
Sb 11.338982559588876 5.314165597354027 11.639142300869974
Sb 8.149328300728756 2.3206640495891953 12.276437686210974
Sb 7.165982955620643 10.139570419244407 11.081573888023987
Sb 13.061687771078548 11.338838183848422 11.539252377729017
Sb 5.690837133716647 8.709978143679844 13.11959088228113
Sb 7.49686405676991 6.660938945254554 12.079085230289664
Sb 10.700749162681745 10.195202263849913 12.754605642679229
Sb 9.775762111608607 6.334924805837315 13.823661081129398
Sb 8.512543382024479 12.110348386660435 12.652050080752419
Sb 10.254839987894398 3.523808495293617 13.840404298889501
