45
Energy = -174.69225574 eV
Sb 6.814908146111305 4.102805460653896 4.496790222857311
Sb 10.445648902533321 6.052764125207747 4.349088335002479
Sb 8.459003987979358 10.470559228957109 4.500683273075721
Sb 10.066388607363692 12.82427243027142 5.035089914499351
Sb 10.926478892097652 8.902759563770756 4.403497470748037
Sb 12.923115580027503 12.358548604177571 5.511836879119581
Sb 13.189372042706307 9.550368226091853 6.0972944996406255
Sb 4.065766341281164 5.16074806531429 4.60338161759972
Sb 6.1902199184049715 10.61983374278759 6.433461490358748
Sb 6.279644119275527 2.9680359049117158 7.102718837122081
Sb 7.84191864124825 6.689889071561831 5.427961239189507
Sb 12.058896746494849 5.7517084335712445 6.891990733313993
Sb 4.655664672873174 7.193328140690051 6.5343798999950815
Sb 9.810745126699736 12.44643912308009 7.878723094551423
Sb 3.8745338936405864 4.599796600742341 7.435664864978585
Sb 5.595372818291576 13.173292213172484 7.7315869825251955
Sb 8.042849290255175 14.724253942793148 7.984705972631681
Sb 7.057332804164612 8.689867520490482 8.418149346223116
Sb 7.890327822795765 5.129114578116298 8.080346326565119
Sb 12.25621718181006 13.965425136202903 7.893988628162355
Sb 12.28461569043732 9.57681903258063 8.855502905207365
Sb 10.227799826743489 7.876633647842236 7.630145465617451
Sb 13.93560829159559 7.230188068470906 9.062205993207536
Sb 10.452774013442314 3.725886016540191 8.229403254212498
Sb 12.95849930833951 13.999850205759948 10.770292813117937
Sb 8.593975802266105 10.32937007914306 10.354281435202616
Sb 4.8252442530641 7.905740254395314 10.045466910507926
Sb 6.1414279769010225 12.010843056354952 10.32107598712294
Sb 9.535959875675628 7.36237954822998 10.624615685393824
Sb 7.13670825219128 5.751608493873552 10.964126465710189
Sb 13.936674784267531 11.734935959379415 12.350048355997004
Sb 8.474440622682115 15.46161009345088 10.779906073858294
Sb 10.910873679726095 4.832218571343164 10.878411137175835
Sb 13.647983610262166 5.8541241271949405 11.478214019128348
Sb 10.23354537085689 13.22334990270258 11.220466935067567
Sb 11.728415580853465 9.87209953920066 12.271466563301578
Sb 6.284684375532772 14.181408018380887 12.19972884734946
Sb 4.604704291139754 10.116022451678996 11.880179588430275
Sb 12.69507647313429 7.506059862757401 13.643081128611634
Sb 9.026118909753366 4.471213441023024 13.059135831324454
Sb 7.297317565447978 9.749466355062612 12.93526634336381
Sb 10.122547124564942 13.611405767697242 14.028560518714041
Sb 12.092314249950725 11.560426669170955 14.593067206081107
Sb 9.791286718342437 7.143354974152779 13.680481612020909
Sb 7.473845652827294 12.396023587102185 14.190377132169129
