53
Energy = -207.32758088 eV
Sb 10.847439522463867 3.6552212680596385 1.4134724200745594
Sb 2.998486312694371 7.982458630131528 13.13240905414375
Sb 3.890930256474074 4.3596871112457105 1.03826220698644
Sb 9.747302049364837 6.318266616295745 1.9353368522033516
Sb 5.4879336468113165 6.486069948476846 13.350256387316618
Sb 1.4630723495893636 5.979864805216991 1.0825744508185033
Sb 5.687192352600406 1.5021099740401844 2.45682765165986
Sb 12.606193226563564 5.909630077184489 1.908815179763916
Sb 6.303274864215835 8.42806237605598 1.812037830121426
Sb 1.1799746723467623 9.657028372312215 3.1020952695413064
Sb 3.722488238114344 9.801145524428293 1.763351097256952
Sb 11.019235589945161 3.054493805995443 4.2511284381599195
Sb 4.2529332785939795 1.846982545168104 4.901252325930191
Sb 11.365193003015044 7.124356330871899 5.819235887143978
Sb 9.050261330331942 9.277172784965773 4.021873818836457
Sb 9.258989946686503 5.486030739792534 4.656227109557213
Sb 3.122038933437672 5.756242665903737 3.430640714529685
Sb 1.9514805763302947 3.1217529612040247 3.667478763824612
Sb 6.271888152133773 3.7836006671932263 4.12143836415847
Sb 7.677589236500714 11.758644573172923 3.2190773842101184
Sb 6.834476800431926 7.535152890735109 4.514409678525848
Sb 10.13447780367251 1.6437418577846588 7.445853150224915
Sb 13.094737605616906 7.973301724699285 4.866705631189348
Sb 13.094737605616906 5.1191033500314544 4.639172485461616
Sb 2.0253091624098714 11.121429817967721 5.427595035908703
Sb 8.056228340424678 1.4926181826751355 4.195982108267665
Sb 4.429140044529296 9.506933305319807 5.806540165278665
Sb 5.461673850902239 12.095910247044198 4.990657060456121
Sb 8.099667956560957 12.635271432308913 5.975755572129686
Sb 6.1078411425894865 2.4174489907523804 8.201661002261694
Sb 0.3047139851337483 9.544102502038385 7.198349755792075
Sb 0.15774043349372388 5.912468055498845 6.738210708393587
Sb 9.574508626980423 10.220277241902254 6.714863645569127
Sb 0.30058290930185905 3.110803349466862 6.0535799399718675
Sb 3.002372194156388 5.9555488041522695 7.094066687982318
Sb 8.964918243547135 4.253533234298032 7.941659973549939
Sb 11.366209931258377 5.7448257479701725 8.398026709608523
Sb 7.763370512808418 8.287644479529757 7.859904419711495
Sb 3.9503455610123166 10.331324044208003 8.513321017775608
Sb 6.533144194668857 9.982300453220944 9.807607077277254
Sb 7.577896886199213 0.320714326598531 6.825804253298617
Sb 2.2079084641999627 8.051639711457877 8.944866237905607
Sb 3.5383201305013876 1.2365263941035396 8.672463379385093
Sb 9.777812200459113 7.73320099156435 9.845696797332863
Sb 1.8442709679940053 3.591044967242039 8.476841988814567
Sb 5.747195831086836 5.585355888110191 9.656858894034267
Sb 9.703437767813693 2.5853249086346053 10.182676898008774
Sb 5.75894042745246 7.805584576067394 11.547609108132491
Sb 7.274545092514757 1.0471392322734447 10.433695008968785
Sb 4.4146688414981945 4.493897873882171 11.994345039810742
Sb 3.2446279491320644 1.8927336449840388 11.498450138668618
Sb 8.024334690173955 5.995171679732061 11.393392162497777
Sb 5.856185905489931 2.105514007136384 12.703656566155178
