52
Energy = -201.94851805 eV
Sb 5.370139449303551 13.300306201744762 6.045659509828717
Sb 2.9845932865730287 10.44054226770864 3.325125305842085
Sb 5.328529283642861 10.523192928080814 1.5635688557261804
Sb 5.2630249742189115 8.005777801231835 0.16374608632649332
Sb 0.22894288156495884 7.9530188010818454 4.7819787591431675
Sb 12.408091836007117 9.201064874066194 6.1987090458738106
Sb 0.7363799723784447 10.404437357746167 6.302415552054289
Sb 3.8164853902163625 11.577303853568813 7.826626885133641
Sb 2.710360720975275 6.955802104943856 1.0391312980680236
Sb 7.804525908805319 12.735130464639195 7.528946674785202
Sb 6.315941134375047 8.120056498427221 2.86398428412024
Sb 4.986529147412681 10.509913839790123 5.413118931891194
Sb 13.870720702609107 7.0124613174858625 7.427753290584158
Sb 8.774123852624538 3.3299726965727032 1.532875915605902
Sb 3.5163606908507563 7.619109528307074 3.741869044567665
Sb 3.519353705758405 7.437836383589149 7.7904731011685024
Sb 8.590106604401287 10.766197024307264 5.517128955468936
Sb 14.076267881624627 4.477708674976398 3.122117394457365
Sb 3.750465157612432 4.269245074596363 1.3757188059385017
Sb 6.3107338152460395 10.8402468371025 9.18901031890133
Sb 1.2736391630990729 8.945653577194422 8.75252800707989
Sb 5.229374999545279 7.444832938420154 10.14214096339297
Sb 1.1015260430880012 3.203771179045906 0.8963546983001017
Sb 7.338290746877304 8.800785153605341 7.3125322961720345
Sb 2.447657422123214 4.190384231329911 4.133974925681315
Sb 9.959767490467618 6.807405503232967 3.0110350710075298
Sb 8.036850517900422 4.852826873465083 3.8895704453401048
Sb 0.8823139461452351 1.8524748419803263 3.46346687772195
Sb 6.668041892475194 5.53982156372354 8.468507001169263
Sb 2.3086238370047516 5.14370927763045 9.09707565889813
Sb 11.399139213020021 4.403317851794669 2.2323743741800683
Sb 4.709112910794697 1.3609901014324577 3.15377159108594
Sb 9.752244780209002 9.151919199197664 9.00674336119753
Sb 6.799490976621504 1.8400962092108555 5.159614303318269
Sb 2.0403012954155306 3.1748608482820107 7.006206515880988
Sb 8.904976836913553 0.9804226181661243 3.2498044254500456
Sb 8.771222298114495 5.755823734651873 10.446050213133066
Sb 11.143904621938752 9.756021469112905 6.557857235059098
Sb 9.950428543210023 7.159703101707322 6.088742234644536
Sb 4.8124347735963235 4.563737801296042 10.451565298814778
Sb 8.864019411956033 2.7405982605746124 7.688808846476991
Sb 3.62308907024029 14.168119056077304 5.440886052740438
Sb 10.644293639096494 4.075235547111369 5.029999072786225
Sb 6.6489130842273765 13.575208305340558 2.5262267543012604
Sb 11.020028825422088 6.483183255986462 8.778027236113966
Sb 4.349420644659271 1.7655500536838284 7.4528444019616495
Sb 10.729478799145395 1.285243769493934 6.06304276129105
Sb 9.087734862261334 3.2019304760756766 11.788032530152332
Sb 11.712546928829891 3.2293531844642054 8.100351132194604
Sb 6.4347439684710475 13.300306201744764 5.415915927975125
Sb 8.75150150017318 0.9851462231035623 9.992662555037022
Sb 11.398791474646044 1.8876278280208094 10.674525570605526
