52
Energy = -203.34720304 eV
Sb 4.057869336418922 4.127409773097914 9.491339376681305
Sb 5.578851500208483 12.989017501571574 2.6361871757892428
Sb 8.549653047829597 5.176074065238447 4.270650379316451
Sb 5.50285969904533 7.5422866101342745 9.75067301857123
Sb 9.89802081699632 1.0284289211553372 7.006559560992773
Sb 7.012738446007779 5.463185924675323 11.102233904182436
Sb 9.398057153416461 7.0084751449559795 2.1681690553357016
Sb 12.944395711879443 1.6430912960069888 5.496342915756423
Sb 2.0274758480498187 6.743651033235585 3.2138640692195297
Sb 2.7638471845988914 6.67939637793755 9.170329897735998
Sb 12.59235768938357 10.206130795843812 2.8724092432775867
Sb 11.310957797153575 4.098273099080009 4.069970554724973
Sb 6.8518763751478655 1.7998663171083031 10.461560844045604
Sb 13.40101986344475 7.939398272080751 4.432628511168276
Sb 2.2279863794961425 10.080639446437543 0.23763011448295668
Sb 1.5218861728872217 1.8928935414745152 3.6322879860461654
Sb 8.991109496058334 7.588054860835699 11.203420605592877
Sb 6.477224047747012 5.5048615067399185 0.4083566525471581
Sb 0.1264676808904009 3.238114221784916 7.696850255449846
Sb 3.9108193569628833 2.420041411934462 5.228072385818046
Sb 1.308281133306565 9.284047436684778 6.4645437220201
Sb 13.059003022969474 9.220254686606756 0.17840910764989215
Sb 9.137063776001577 9.171530484446384 8.782447830554338
Sb 3.5216648352981603 7.418395055669763 6.439430735623104
Sb 7.634315396530509 12.75871926103964 9.895519330986957
Sb 4.598902684080784 4.037735118304364 2.0794443409721937
Sb 12.146672700999348 6.471761411614473 5.501317147671446
Sb 11.752288971750708 3.2428585927399047 6.812762873423495
Sb 6.516420282896555 5.1934352979533775 8.286007208047572
Sb 5.823212424336643 6.521218377092301 3.018148289582373
Sb 7.413969763798093 3.399455152093022 2.1533982364267774
Sb 9.602160067310024 1.1804443786153314 9.86566248223955
Sb 8.086309878254283 9.59217143917025 2.294430287026032
Sb 2.4840379867213196 11.552624183012286 5.0894119584201185
Sb 0.28271723185705316 4.427411064907205 3.0019840202184955
Sb 1.5116134310528873 7.331548100571421 0.44834569235114147
Sb 6.260441360566192 11.701426042580428 5.113974685568336
Sb 5.185396991110053 9.244944448506496 2.155738859209457
Sb 11.227974462666582 8.607576516526143 3.763805641998988
Sb 7.908034313525167 0.17583086300425926 4.126751451694001
Sb 11.204622156086028 7.238407715597052 9.422778036893805
Sb 10.082772815056574 5.573612999294715 7.348128880673789
Sb 1.3095483817075202 11.70142604258043 2.481772111685224
Sb 3.7781655291939953 13.204219053110876 4.856840248350679
Sb 5.223213760881467 10.921161391693632 4.480820561825288
Sb 5.400011432201956 9.570201943161758 7.04091043686131
Sb 2.767963464248247 2.0976697010395697 7.856172427505827
Sb 12.535239754450572 4.570950367873598 5.498792829105397
Sb 9.035073782289555 10.09975716410755 5.001930310660727
Sb 5.9105561807680465 0.5041950565261089 8.009649745101976
Sb 7.409825084740365 2.1918121667268644 6.193435784395172
Sb 7.745150410288356 7.963374264045585 6.4526394273717855
