50
Energy = -175.30093979 eV
Sb 8.964083736830226 3.1519901850569094 8.849303761314815
Sb 6.666272066326879 1.9851171936960337 7.416259101402956
Sb 8.420423290465996 4.785038126443924 11.26385985310393
Sb 9.037965755579945 3.1699226439569688 5.81470779921032
Sb 4.2466723146935 3.7313298711081777 7.138500597639093
Sb 5.908383815981263 3.592125771224464 9.942918426779476
Sb 10.927323546920716 6.514966031189236 12.344695547443886
Sb 11.249737527898134 4.224299307271808 10.400306242469666
Sb 6.1843958278201345 3.3015400891600652 4.757878292579728
Sb 11.208461159019368 4.692555614875253 7.404468074064166
Sb 5.701848556603185 6.003771239941456 11.731472941688263
Sb 7.9792338237636455 6.616052041259737 13.62270226865943
Sb 6.88854242536668 5.207804807860449 7.731552110094194
Sb 10.7001910123442 5.332804856489046 4.472159926422911
Sb 8.663180983556972 3.658273107633912 2.8583468193015102
Sb 6.097757184584762 5.112952232980706 2.3334818479587316
Sb 3.6732949562913495 4.961749688870088 4.3481407423623795
Sb 4.434719783583994 6.937865150591595 7.308267346712638
Sb 1.8627769972336814 5.577398745849398 6.7349399018212575
Sb 7.786715720336251 6.073010088161444 5.031118225669569
Sb 8.944400478742606 7.600853590159758 10.391153067986462
Sb 3.5344986691816063 5.469571976523615 9.73178385494355
Sb 11.845711326208422 6.971595774614682 9.313542242522896
Sb 9.596591484928375 9.146607183094213 13.254248029568926
Sb 11.868481624625428 9.29174816483348 11.285427884499176
Sb 1.7354724173556675 7.789835288269246 8.937064225966814
Sb 9.311244813310505 6.9642661300867195 7.4293250434375535
Sb 11.278708647912953 9.809179533551214 8.391392240662917
Sb 11.907077230377874 7.612195445015375 6.247504753802958
Sb 5.248674289312002 7.489606485020687 4.591086639069324
Sb 6.807839075382448 8.917695179784035 12.04525121207293
Sb 11.180253474481791 8.135459736397246 3.413544735468701
Sb 8.773647562054762 6.691702274344902 2.324290629352534
Sb 3.5029258359188304 6.5041865084616886 1.819450256973375
Sb 4.333219451307195 8.405375080128367 10.516874636907817
Sb 6.712393298478541 8.093498785572665 8.623137776722558
Sb 9.215366623152052 10.544687619440579 10.497082143092925
Sb 2.0507415961405644 8.467732966915102 5.973145293902998
Sb 7.510499596417434 8.953150099508694 5.903544251809393
Sb 6.271651716665549 10.789620726216 9.666012344322755
Sb 10.446244426468885 10.143104915138556 5.534960011047845
Sb 3.1833948332332485 9.047334308733875 3.2856192322102404
Sb 8.518295032493809 9.574644792967371 3.1118662180002525
Sb 3.744753946917636 9.989235205927258 8.042770299089826
Sb 8.680793127530757 11.324811613333846 7.723039519311615
Sb 6.074528948132733 8.165124369228977 1.815791060931766
Sb 3.2087899623232667 11.183954880262739 5.335287066527996
Sb 5.885451803854861 11.498280201419202 6.693282726398464
Sb 5.754161478794622 10.641256395506757 3.727506094907275
Sb 8.224840374186888 12.105751607014856 4.82257031288059
