50
Energy = -193.88633514 eV
Sb 8.5803407528893 7.939819187118113 12.122527544284305
Sb 6.542445977177942 6.15547130078523 11.20582490803139
Sb 2.3853445452684348 5.0311380335562275 11.208400842925013
Sb 7.745323467411024 10.174625758941714 10.10070822166365
Sb 8.810824860197119 4.454712692770495 10.717039741366905
Sb 12.646585082575353 6.212119680681426 10.352451094052478
Sb 5.27715036638652 8.667527778496035 9.826857217231106
Sb 10.86281376600503 6.530708413666687 10.980619295974337
Sb 11.21946798508973 8.245524065377095 8.62656267908606
Sb 2.157250514919688 7.889605528891545 10.974979280154527
Sb 7.656271366341473 12.204287202036733 6.554652123496072
Sb 5.686072672643029 2.862518832124934 9.990370215068095
Sb 5.809612009120827 12.167602025944067 8.734037941635867
Sb 10.416746806648478 1.4099677197805285 8.922610744047327
Sb 3.200302486255805 1.3489656480465968 9.625118007703376
Sb 8.416782489342575 8.02022536642986 8.297564643464884
Sb 5.799545659340259 0.10044291618800354 9.147332831010726
Sb 8.340870854254709 1.2100845525504866 6.950315057215207
Sb 2.6800744186348435 4.568952060686939 8.345225759545205
Sb 11.695877859504316 6.890023179598289 6.080533484613571
Sb 7.851482461907727 9.375634004657305 5.809170468533167
Sb 12.138322227684183 4.377813649373371 7.266920238850655
Sb 1.5431383550435778 7.239066102936769 8.205224019095436
Sb 9.27326039561663 3.9174701568593955 7.861139006278767
Sb 3.8121345471159627 10.318490668085582 8.001785605671316
Sb 5.515617583746146 4.653812674084005 7.743034773557147
Sb 11.089522443384128 0.5074712393203642 6.2724554727797175
Sb 3.932297001427634 0.4897423488402437 6.988637110517135
Sb 0.8873216501061636 4.3010746199085785 5.560356118739883
Sb 2.310758741593284 6.943392306518016 4.691393875400877
Sb 5.83685902671827 12.873909979077109 4.475609077566228
Sb 8.970988376935365 6.236785155296883 4.81796604517354
Sb 1.7433979915041624 9.668781604538871 3.5398842281630056
Sb 9.875710016929055 10.344487387064618 4.007837759549324
Sb 5.300612059705275 2.6472283326188366 5.683935962499917
Sb 4.182612949123751 10.509788162268741 4.964472038552333
Sb 2.9193160153608932 3.090268523798025 4.094491117322252
Sb 9.147438959506246 3.347008991422171 4.241283765821256
Sb 5.951169444411021 8.843529478707682 3.3857525476502093
Sb 10.72952886956133 6.389934989714122 2.556524965489606
Sb 11.954622356790715 2.8800120204453563 4.834072131113387
Sb 0.31200736654474437 5.756541871284061 3.0531676856268795
Sb 2.547732608505347 8.339759025391922 1.1700550620794434
Sb 7.463983224242165 11.231981845648544 2.619097785178907
Sb 6.712139075617542 5.531194687784733 2.5176636799779875
Sb 9.06042080168709 4.254011028220475 1.4488057853867164
Sb 3.1402532463591646 5.515382286000965 2.246294912112644
Sb 9.692749261140351 8.868022892528415 1.4651236036597886
Sb 5.104331529041271 9.53914629122877 0.7053876225789862
Sb 7.226823509903508 7.499127711771447 0.4817624065186196
