50
Energy = -193.29229795 eV
Sb 0.5951387202454159 0.7427125349542675 6.76379899547429
Sb 3.078340662776779 2.594014149122081 4.609086378574023
Sb 0.03210634556690462 3.6539250313600373 7.230222323252307
Sb 3.495373197732954 13.879094962029916 6.528646429547062
Sb 0.7510766732219114 0.5597937025289856 9.614155566975507
Sb 4.070555063328739 2.89103686705244 1.8968870549574814
Sb 0.5839378724976955 7.0141003128698935 8.276456844996153
Sb 1.6157625562538562 5.029491058551208 5.21626530978911
Sb 5.8967926476202095 3.022417261446308 4.0894887953645505
Sb 2.785281532136725 12.839543558282728 9.16722345920832
Sb 2.4416878111997002 2.4646344399126736 8.280645889708593
Sb 2.5619869221598717 5.471359506744562 9.714817836767457
Sb 4.359207178605631 8.247400238310338 0.29122071985462783
Sb 5.727014098605758 6.458584210936877 12.93470951708872
Sb 1.1391903907981988 9.293824089304554 10.09460175424429
Sb 2.043546540562132 9.984345879946046 6.257036197191025
Sb 5.176523565067804 14.278623191722282 8.687534580815472
Sb 3.8024987633538867 9.254284931332915 4.070898312523028
Sb 4.981488396212569 2.4215009776739733 11.888715984698164
Sb 5.193096600939146 5.446943690675183 2.661356370693384
Sb 3.718828954629024 8.012327139017943 10.629931121920944
Sb 3.2083896110859538 6.577064160560071 7.148401574840963
Sb 8.245157217697194 7.7480221594139564 12.5983525340117
Sb 7.614661114029278 1.6780873563263339 11.047537515088953
Sb 4.972965026722243 10.789414572534248 13.473126020501496
Sb 5.8597488097954935 3.0310226353097827 9.191479315595874
Sb 3.585015563279378 11.95605873477783 4.859532374687648
Sb 6.983609680299079 4.660362464361404 0.49714073695262595
Sb 6.291194706735309 5.757655821239329 10.43595434770548
Sb 6.277274124284695 10.000744841851825 1.5440322656072767
Sb 9.333619525562023 6.397841792603481 0.5604911773041191
Sb 6.371576433288398 9.284116060791018 5.599338637147037
Sb 3.4961595564483527 10.207565555847742 8.748748825587878
Sb 8.259899307533063 7.3753705272010786 3.0734956689332953
Sb 7.21803213465487 4.127164857206107 12.5983525340117
Sb 7.812912098254637 10.39739849025705 13.532644653138693
Sb 8.080427967912367 7.111923716074761 6.765525200702033
Sb 9.451835729268264 2.6951891490068407 5.439644254400016
Sb 9.673081065194186 2.902384374966494 8.294363119854651
Sb 8.512824312493052 7.405173373938477 9.584482221690278
Sb 7.999457379746985 11.46114035495248 4.5796226315113
Sb 6.102653222425085 11.89235110344118 6.737359784687848
Sb 9.577614940088672 4.723437788198933 3.3806102832622016
Sb 10.76491847100538 8.694238863730405 3.8011170387238415
Sb 10.582565151802564 5.431508214348102 9.303199637199548
Sb 12.074796068162241 2.9444088594001925 6.611435978064816
Sb 11.962142405496975 6.063058205323061 4.203549516261408
Sb 10.444364527745687 8.727845602591906 6.669563121361169
Sb 12.367649426621186 5.852433683722512 7.056731043191068
Sb 9.161251906448255 11.295771358136511 7.149017422372305
