54
Energy = -210.62937959 eV
Sb 6.264836943050039 8.309839315444597 1.693345241435932
Sb 10.159689890093578 3.3377306057855214 4.318265782579449
Sb 6.888177263646239 12.580502298382738 2.5830624226724943
Sb 7.951987644372134 10.027912752845577 3.327445780391666
Sb 10.685902391944246 9.845852435955356 2.342747366430091
Sb 9.668119500314459 5.267662975558653 2.208319004585656
Sb 7.077157340757129 6.028584223476136 3.25598806235096
Sb 7.466143579706283 3.165785402604526 5.403266192440642
Sb 5.008932267947024 8.750738034292896 4.385140547624537
Sb 10.715657727050102 7.4242745480447025 3.876168393533686
Sb 2.158175099907742 9.221539117325435 4.410767914864162
Sb 4.368322346727828 11.507192762623916 3.763879982675351
Sb 13.337367374253006 7.32332531540537 4.9978117286015475
Sb 8.278223622392895 7.487598992950499 5.521206294689431
Sb 12.006177363059436 11.475840357672137 4.348448107534774
Sb 9.338068635772094 4.976743693849719 6.5958077297664435
Sb 8.107386442695454 14.25106631410389 4.583761539128509
Sb 7.97014697090222 11.046612418011236 6.593519106975677
Sb 12.49140386408388 6.12022189272277 7.597009116162055
Sb 2.46787190468349 5.267873214811977 7.531171264064313
Sb 4.141468277778126 12.50111220560096 6.481295295171328
Sb 4.9867581682027895 2.3813855595786535 7.917247951101334
Sb 1.746538249796931 7.994592234312027 6.960078666151088
Sb 10.197529373347072 12.845610316634458 6.1211034597828275
Sb 13.026839774187156 9.784969712756599 6.506409192777691
Sb 6.753429500976986 13.571095854082822 7.071014463401625
Sb 5.636098276119225 5.069433182034493 8.875253743862315
Sb 4.759238151369037 9.870515194662191 7.58663557497832
Sb 10.81205394460289 9.004400934844647 8.274935218781861
Sb 2.2748862789565982 9.85797479974753 9.10698927528713
Sb 10.935109556949783 11.773275479668872 9.481759339942439
Sb 13.678510369417564 11.587389536156943 10.121818194230698
Sb 14.881075515426064 6.214545720884767 7.84553492759405
Sb 7.2342855043820755 9.779179877777098 9.151215532169607
Sb 14.881075515426064 6.99943106018527 8.900714608694098
Sb 9.090228183313215 2.4541772123623264 9.701866393396216
Sb 7.591842954687164 1.2195128935192623 7.5790282212382465
Sb 13.04470535153924 8.86059670080404 10.16306832959009
Sb 1.3081894331204267 5.598272333415711 10.093403272173846
Sb 7.162387161002952 2.0005151182078325 11.78993131923325
Sb 9.757892048756537 11.131906575153028 12.112771737466998
Sb 4.712428564953518 3.0528587349144853 10.692511133611273
Sb 7.068595620645485 11.736562232497151 11.236820148687613
Sb 5.336618743449707 7.609510177100865 11.113284274960122
Sb 8.471074356829712 5.284005072772401 9.791251370486636
Sb 13.889766192124775 4.4261699887891135 9.692873728568513
Sb 2.4653071955752277 8.015674749645907 11.26733684868419
Sb 5.6839953642521515 9.844954856156571 12.976050404691188
Sb 11.620264468253174 4.975049125362328 11.243909655624583
Sb 9.353079955943286 8.312013655102655 11.637279069702526
Sb 12.007483060877485 7.5058011553715644 12.504442018383864
Sb 8.19106051069853 4.5823044973085265 12.642735832792107
Sb 5.933659003433128 6.117347002984965 13.546567430538541
Sb 7.827807039947602 8.261423221046707 14.116195431047144
