7
Energy = -25.38450027 eV
Sb 5.269119525722023 7.81537457217321 5.925121466193153
Sb 8.860112951551407 6.848809174557605 8.657266374434782
Sb 4.283668978321802 5.742007341505135 7.6035453778508195
Sb 2.685439766141401 6.630609363665161 5.391409216810124
Sb 5.075114497435789 5.139002119825949 4.9331060782317
Sb 10.56808449218715 5.601126223842805 6.897871368532434
Sb 8.761879937752404 7.726491353542561 6.095100267059123
