8
Energy = -29.99950542 eV
Sb 7.0374807316732575 3.6126365281817145 5.711531833017128
Sb 4.746172440638059 9.241071025985432 4.767606352600759
Sb 9.026159282493778 4.805691892921592 7.268008306844294
Sb 5.59195252105427 6.354968177817824 4.778951368059838
Sb 6.522538900266016 4.047005758356417 8.437647356708556
Sb 5.937426948546295 9.79188795079384 7.0708963443611115
Sb 7.789816081265939 7.425303131773985 6.329483672491485
Sb 5.348453094061428 6.721435534168236 7.635874765916138
