9
Energy = -33.73132215 eV
Sb 9.347169954709845 9.716776814644817 5.0299361085744625
Sb 8.377477479564856 7.041372799399964 5.421433954207423
Sb 6.601504689440315 9.266493288938063 5.780756696607005
Sb 8.385833661230935 10.598862851631841 7.58973172456621
Sb 9.464907911035482 8.683102154347516 9.45099463558356
Sb 9.413776109085049 6.249787947296169 7.990329621173733
Sb 7.129930297357292 8.72443035350904 11.03909546511652
Sb 7.0147894635685955 4.931842246375011 8.684458422013869
Sb 5.7368341323686645 6.4369415347740855 10.5561019742284
