9
Energy = -33.78011655 eV
Sb 9.161866760412952 4.895268103434025 5.54102838544049
Sb 7.970223769724341 4.2832896430591365 8.010055536937193
Sb 7.995701113231709 7.0846170442535765 8.63980993577972
Sb 8.971264330408568 7.7455226147927885 6.007334623306987
Sb 5.4906205432038675 5.250478342983276 6.510032800096215
Sb 6.871616110707945 6.659297038126287 4.370971573616748
Sb 4.8022714047036485 7.603700456405823 7.99038616359298
Sb 4.506151228007791 8.458415018246113 5.258422529618887
Sb 2.730284739599496 6.51941173869957 6.1719584516115145
