19
Energy = -93.31292668 eV
Sc 6.067032088434812 8.54798356193469 3.9936754174794538
Sc 7.236703425417104 5.857480502341588 3.851290189182843
Sc 9.175939913788714 8.168247667864218 5.203322044957215
Sc 4.131084126842591 6.371281583674174 5.252458040951561
Sc 4.308453457216907 9.52293338723233 6.2603892008370154
Sc 7.117244678203572 10.142532804034484 6.2414585851366695
Sc 6.131050489331136 3.9025792069049143 5.79809849807017
Sc 9.317848931824606 5.293971391552709 6.401839069180785
Sc 6.580345298734684 6.812981723578126 6.4592943840041555
Sc 8.410582773012793 7.735929710233757 8.171772871238872
Sc 9.757235988955717 5.6997532886297595 9.669996923206607
Sc 11.183772197820538 7.6934210339329745 7.927571431155086
Sc 4.641191183455142 7.725337503804824 8.424671059000225
Sc 4.485643006362016 4.8607316214108796 8.141409112667864
Sc 6.579478461797711 9.839094289241014 9.1275351641471
Sc 9.56292552297391 10.311410828174582 8.020356624406064
Sc 7.311287424752037 4.43033145584916 8.490260490589053
Sc 9.624055668851762 8.650166601296387 10.522175110690615
Sc 6.629184575580437 6.6848910516658835 10.293484996454673
