13
Energy = -60.76753309 eV
Sc 4.759246894527078 2.7235494377317977 3.985533689247455
Sc 2.3460761398853136 5.927215960064501 7.068852615682097
Sc 6.0886053471023445 4.797160602687968 2.1243875233810825
Sc 6.841548207795112 8.071323139098713 8.794666779190027
Sc 7.053770928468917 5.285795256589515 8.035797047010407
Sc 4.473518982768941 6.102209707574529 9.298805637168947
Sc 8.732889393839443 6.0881212565565885 3.1638792007247503
Sc 6.177673091931097 7.349463909804928 3.6728763928006365
Sc 8.175894793860381 7.332072858617348 6.021074805087416
Sc 6.784173545975942 4.718223085353316 4.959886240509775
Sc 5.098477657179685 7.0397722301870855 6.604532720660128
Sc 4.507237114839347 4.0437584998911795 6.9297402504213945
Sc 3.8823571622050332 5.442802500399095 4.261436358494778
