19
Energy = -92.29350022 eV
Sc 9.285824618362 3.9704670910430204 6.767876394775999
Sc 5.713325033594532 4.760075964772934 6.704220933211098
Sc 7.6060642584302105 5.124234808689142 4.601769874325501
Sc 10.332051013350078 6.092673864354109 5.026859794296399
Sc 5.424677373558806 6.926832086908622 8.891948981955283
Sc 7.852985896161214 4.96784944911381 9.032656575537516
Sc 3.1477102711307636 6.457057607545837 6.8024084463940095
Sc 4.708887221722391 5.741727065823196 4.09810239268803
Sc 10.577942501906948 6.440426615868263 8.326222425518052
Sc 9.563649464007346 9.498902295216688 8.732454879218052
Sc 6.634557795482804 9.752360425338217 9.19697371841911
Sc 7.604736429524049 10.126526630315215 6.36045522021926
Sc 10.452277582871043 8.864976145016723 6.02231169778382
Sc 4.863145065654983 8.61814980410541 11.097344303648113
Sc 8.069959064900637 7.558725123849149 10.509745788037474
Sc 3.925912824168321 9.30326039867953 8.164745580827887
Sc 5.457136782111601 7.924773601657599 5.906873500439441
Sc 8.112093054298708 7.177250414326874 7.024266533004408
Sc 8.017051896780432 8.043718755392243 4.082751107717138
