12
Energy = -55.63034811 eV
Sc 7.260505103304283 7.005622609293143 3.2336830945141624
Sc 9.980868731252103 6.163218221732401 4.260201431016576
Sc 7.699770736423529 4.577795486420481 5.039189258339225
Sc 5.58736889709839 9.180480709866972 6.501725195066012
Sc 7.94778294190191 7.336086183974459 5.965782886297908
Sc 5.179911343600994 6.370706610131405 5.395296846977307
Sc 6.558421660928156 5.161293478406004 7.946048416045112
Sc 4.391153548283047 7.153105180891313 8.175786277586118
Sc 9.495548136521347 5.405123737262135 7.34580650867505
Sc 5.078178224385894 9.50419111585783 9.688423848015645
Sc 7.351486305742801 7.882347086323211 8.754997995480789
Sc 5.687882888689206 6.724683344538146 10.745001056979266
