10
Energy = -45.48682005 eV
Sc 8.438676255892956 7.787065370398807 8.47310328033425
Sc 5.079833211421413 5.726510826044615 5.042022854113272
Sc 5.11539965673323 8.668284609715538 4.401771799479815
Sc 7.833671639024607 5.885566352059919 6.2316936084450765
Sc 7.236825388596751 6.953176949558901 3.355841740781595
Sc 6.2647525813467055 6.574443408966992 10.159859773625612
Sc 5.688619972643911 7.618583307385763 7.282282862735879
Sc 5.65654806195221 4.683685213011202 7.902401737588696
Sc 7.866871344525781 8.827264488317867 5.610936882121763
Sc 8.39805313176583 4.854670718443206 9.119336704677288
