20
Energy = -99.06781062 eV
Sc 9.71811767992277 9.523301465618124 6.418727767304463
Sc 8.226534879930265 9.715932701630786 3.8174823849093955
Sc 6.842619808045014 10.671592896805342 6.299310173374689
Sc 9.429052862372025 6.975513860757268 4.303099824415131
Sc 7.802648503753768 9.156638757244318 8.926556560411768
Sc 9.733321552624625 6.649265258331465 7.870912632930683
Sc 7.376713941797094 7.805240046320214 6.110316815974477
Sc 5.518114653922183 7.864641318554858 10.689382681468864
Sc 5.446996309835915 8.566360115693197 4.137481051840867
Sc 6.662907633668124 5.789876430052181 3.7863416722542063
Sc 7.5093270666259935 7.735432766773157 1.8380649954826653
Sc 6.672476910063369 6.270865872117667 8.472768494094925
Sc 8.45510367952166 6.694712373457286 10.797762202531109
Sc 4.758550163650406 8.629612295286538 7.680051483242365
Sc 4.686705813824962 5.943665750957486 6.0604071111263895
Sc 3.784286488795995 5.9198145515333565 9.020078012112386
Sc 8.481702587223014 4.041821098614582 9.193265952753132
Sc 8.042671513562972 4.607018120483814 6.190231112214177
Sc 5.968915006631939 4.743768699111164 10.890184869964296
Sc 5.612701772782701 3.5656355974346976 7.976222942139889
