27
Energy = -136.21234684 eV
Sc 5.036451968410854 6.22446400849299 5.107682134283215
Sc 3.162527220654271 7.502442047690912 7.217705732136192
Sc 5.831496880855558 10.979684541847858 9.387684023779213
Sc 5.673108769891107 3.1682163746381047 6.025884504282275
Sc 7.140945672783301 11.286753284027343 6.684568544373625
Sc 10.256705689952033 5.935598658303662 3.685027284655681
Sc 8.818656264077847 7.562085945602985 6.125714321096045
Sc 3.2635931853716924 4.5110283351013525 7.022443043010206
Sc 3.6069281715185273 9.11392887018215 9.595918517626483
Sc 6.373925376239612 7.808666488540992 10.400586159408364
Sc 6.795192236834173 4.719124903773803 10.645008003239369
Sc 9.973084089787656 10.30164956124086 6.078715322390604
Sc 4.16105055029737 10.562042470828555 6.842557938279236
Sc 9.377903392379732 8.859047684081647 3.3755533178636346
Sc 6.484404947251449 9.094275716474183 4.7054488048882295
Sc 11.256110822591884 8.158389865188417 7.971251822951861
Sc 3.951908391430857 5.911315174650212 9.763322577161796
Sc 8.937037942295142 6.374251607512076 9.109339969786728
Sc 5.080493664584677 2.9634140431358813 8.941124615932836
Sc 6.00335852535836 8.630896571745703 7.63171860691761
Sc 8.64317729057409 9.544885921501233 8.788218593195015
Sc 7.346928027062157 6.608658465509917 3.1878763555522407
Sc 6.232439957929318 5.603751914278754 7.8305451112951046
Sc 8.163336030334166 3.4149324456933536 8.145111927070074
Sc 11.785644678380647 8.001804046854597 5.113143694757922
Sc 10.774778264773877 5.342342710363239 6.755990927911973
Sc 8.080768556196862 4.715312461998523 5.383972548526409
