20
Energy = -98.57653268 eV
Sc 10.207349693630233 4.450417151201075 7.949717166435461
Sc 8.642621705908 5.307051779171605 10.570839956130161
Sc 7.472440708934124 5.334807256973937 7.989488187204418
Sc 9.79756525229141 7.289077812818448 8.614636819597592
Sc 8.170852430075358 3.993436452581632 5.523773133883442
Sc 9.509795205571205 6.717170594693639 5.773895033135485
Sc 6.586586396458249 7.6678474745399585 6.427442008776388
Sc 7.067563329940764 7.896979141937389 9.590173661865506
Sc 5.373298282108922 5.282691120522727 10.020564738019836
Sc 5.597468669974388 3.2888869497267956 7.297425329830475
Sc 7.9197802303273495 6.2006021303507906 3.365117450469424
Sc 5.537722278819252 5.18219511982196 4.833869890543018
Sc 8.572835191760845 9.663820469432792 7.019143795936861
Sc 4.101042702668176 7.983103258992183 9.231813077403556
Sc 5.709247575046706 10.208996311516104 8.029219206713357
Sc 4.205119770344665 5.891766539819246 7.34642040217266
Sc 8.487082724269715 9.139022170436277 3.9253543184257653
Sc 5.647779543781922 8.13958179947871 3.701652645061077
Sc 3.780767905003278 8.778888111576567 6.178665811521031
Sc 6.266457994981307 10.656491980319965 5.2125112741625514
