29
Energy = -147.02063932 eV
Sc 8.511702555814258 2.0871457097782753 7.267566460092873
Sc 6.81404418097074 3.9644535171746815 9.02592301160973
Sc 9.71539524125537 4.722236896225378 8.22754015938312
Sc 5.51084490274838 2.156564344356241 6.788174792980074
Sc 8.301712345590447 7.402638524849854 7.4725385842430825
Sc 8.564607880660482 6.33107453713516 10.473130643980676
Sc 10.388311113798178 8.363414037233692 9.007571483729617
Sc 5.73135154254921 6.801792261017257 9.384974153440472
Sc 7.4266607080877325 2.129457424800403 4.461802398696828
Sc 4.168371792695509 4.729856881988176 7.5920912121064195
Sc 10.00107996866552 3.954747448605759 5.1547394026423285
Sc 7.311324717844618 4.695214754292013 6.104410961691142
Sc 7.7196593733606615 9.274494527192173 10.483881634748757
Sc 11.22640363503686 6.579492321067582 6.545920063441239
Sc 8.727344880046651 11.00018016380119 8.098873954197893
Sc 4.506186334840975 9.563190367313691 10.513981723760459
Sc 4.936841936584462 4.204760260486544 4.4396000966193965
Sc 7.742379702804292 4.665753337388383 3.0079907078697263
Sc 10.330449700143088 9.41166209123153 6.150836605067816
Sc 9.132423082457997 6.949014222924423 4.472335599400382
Sc 6.267042921226701 11.94512861020954 9.628652012885548
Sc 6.01883911340858 9.548018364683877 7.964013245275855
Sc 5.353765867350389 6.998214221599636 6.220418073185421
Sc 3.2093302102848016 8.209504390295601 7.984484438194802
Sc 6.186995085732202 12.10660892562442 6.4833246342615345
Sc 7.396716760973651 9.483618172409214 5.19495249218311
Sc 3.617677862056681 11.326043793350257 8.110236295419025
Sc 6.227310224145923 7.1755529471895745 3.49740806670614
Sc 4.284620598089018 9.761963428461105 5.429528343348931
