27
Energy = -136.21220571 eV
Sc 5.5717989429884325 3.8410347499530078 7.988855516175838
Sc 6.330327165626358 5.901852381907692 5.848665012529626
Sc 4.40173215884817 8.158750475783968 5.28824109745582
Sc 6.555834723377174 6.63483336555522 8.925765447943824
Sc 5.668020478596142 10.904151930664643 5.801033008079466
Sc 7.0987658338916315 8.493366160041427 3.932430804663177
Sc 9.818631494418174 9.386994905195207 4.911211962867874
Sc 8.672857070545867 4.649848222297154 7.706701560656674
Sc 7.764882632054552 11.381005114544134 3.7011510474740774
Sc 9.379998653659626 6.471447510933208 5.379943517216094
Sc 4.3797488180171165 9.047476212923463 8.06632448125797
Sc 3.7539178501264128 6.2005465281354635 7.61724742565279
Sc 12.21400031182558 7.492771659396555 4.907838256346707
Sc 7.260662250657761 8.757982565264449 6.818696330515833
Sc 11.761107890029011 6.186560683954695 7.647785839978741
Sc 5.021612257612474 8.371786069271906 10.895495752240151
Sc 9.505785230753277 7.613271723391182 8.206080010491009
Sc 7.269009196644259 4.081832854262428 10.390594971955375
Sc 4.459459424860125 5.356744617157034 10.526257826446223
Sc 11.703698480888807 9.3991715349315 7.207432999172556
Sc 9.646212507348842 10.477614171497889 9.007876261284737
Sc 8.65003705367966 11.582505490361587 6.538222681274067
Sc 6.6915813387347995 10.611146764078248 9.083824983141842
Sc 11.560261412600982 8.309812970302689 10.065368137334433
Sc 8.181087213433674 8.570819933742904 10.873996062351472
Sc 9.69352492244597 5.846303773614861 10.576195702519582
Sc 6.801510710999984 6.295493369952788 12.274603218161557
