28
Energy = -140.45845269 eV
Sc 14.201960348489346 7.632064214238444 7.111551230725607
Sc 12.654889124907577 10.255986317318952 6.401141787870184
Sc 9.670393857099087 13.082411320767962 12.072953271484609
Sc 7.032533032197509 10.15768084675561 8.147119578108082
Sc 5.330821531410094 9.34227540413146 10.57881793644057
Sc 8.24391536276453 11.222488032328974 14.233500569779807
Sc 13.580494000369251 9.469986561591499 11.95232671799056
Sc 14.368601312114203 9.860861240605827 9.094890154705544
Sc 6.357786019257934 6.875294879666514 11.906878324930428
Sc 14.198020398793338 7.074901719765554 10.20444915610539
Sc 8.492310661879639 9.114007316437378 10.566300947327974
Sc 11.77955269184749 6.6884104535319215 8.584900089295289
Sc 6.409956738572955 7.147115828791281 8.965590081602585
Sc 9.610416370483476 10.19139274510129 6.462799441979425
Sc 8.97658791537251 6.105402366092921 10.398568804011799
Sc 13.070679405472335 12.454254637745096 8.212000756693277
Sc 8.620596057927152 8.236873039027628 13.364006191504258
Sc 7.039670459413402 11.629656347474434 11.528931292285247
Sc 11.422553868143039 9.675804786444472 9.103572640969825
Sc 11.027515273879343 14.422840742935811 9.396668417563763
Sc 10.651574965103022 12.902505474370427 6.7435167920034145
Sc 12.30187904021956 12.108129121498383 10.902345197489069
Sc 10.645663777146387 10.365387166332827 12.599676509729022
Sc 9.051873904846488 7.726371239095157 7.8406297094745145
Sc 5.924728251648281 9.525948703465929 13.478759837084647
Sc 11.438791139329958 7.686262491453759 5.82281864100852
Sc 9.38028201232313 11.91966465406356 9.259024786807553
Sc 11.341882939038609 7.636638963137199 11.527253351156821
