27
Energy = -136.27920252 eV
Sc 8.230355884993577 3.124509784114642 4.4284873341883175
Sc 9.966927909265465 5.607941629378763 5.366643623659573
Sc 6.418298547640519 2.3536714887149115 6.746434938673369
Sc 5.223686080723722 3.8398379202248343 4.337444465993504
Sc 7.1015170264877225 5.154608743143915 6.206689653058588
Sc 9.283461756054507 3.4296811099688096 7.462316250412523
Sc 7.234251311851677 6.120604364603448 3.409036810029552
Sc 6.98819784572049 4.262500468596802 9.23601238856731
Sc 8.76564379839118 8.204395643839264 4.764392967333913
Sc 10.623199583535925 8.059396248901095 10.290418948284326
Sc 4.328176615521848 4.92411294931161 7.20436507353739
Sc 4.648112636613634 6.906145575938953 4.892443435908021
Sc 10.702138030376641 8.518071299577349 6.926491677737923
Sc 8.966744851479998 6.488249436189581 8.262675760341196
Sc 6.721563195645221 8.139286958560318 6.898939735558465
Sc 6.18472450287134 9.403911360653982 4.044487054967937
Sc 3.2499709455584886 9.603349651508132 4.793306824800888
Sc 9.746567008701424 4.9882844773599295 10.50455900964536
Sc 8.733294665042227 9.623169054432106 8.736302792554705
Sc 5.44434052141163 6.757028358223906 9.249809636957105
Sc 3.6211664440973257 8.232394633435922 7.440643604293181
Sc 8.33129838174565 10.808079530460802 6.074576905227243
Sc 7.828545703662238 7.436450927683455 10.879011605094247
Sc 5.835341882865982 9.67622994620761 9.621752539202653
Sc 5.342961760910068 10.731077442404642 6.737190720096488
Sc 8.386992317206131 10.448173467869909 11.376286055105112
Sc 7.284511243212261 12.121684084939687 8.87754917988731
