39
Energy = -201.34984649 eV
Sc 8.328075354822067 11.34323938430047 11.269008846708346
Sc 5.553632935151988 9.76294110175303 11.135763283463005
Sc 3.544376828232028 10.309536554941145 8.86789897226854
Sc 6.482002146992432 11.538088728539638 8.66504893134143
Sc 8.44831826332 8.403871218072808 12.52080878050736
Sc 4.229761635564792 11.221192929719201 6.131303044000491
Sc 9.62527165035496 11.167041317357956 8.323508303382754
Sc 10.834638223269403 9.683984612018932 11.016164975244196
Sc 3.032001952431779 8.334309282547839 6.5744358465795685
Sc 3.7882724028092944 7.336312572756519 9.600754966333815
Sc 8.117942907869606 8.932252381516026 9.688127554304993
Sc 3.0286583848035313 9.281488062989594 3.58919277124971
Sc 7.661115565486235 11.055159094408078 5.850232867521173
Sc 6.142772472779218 6.906037712765723 11.259938946806725
Sc 5.802399246918453 8.709854488888325 7.691555996116451
Sc 5.593357931172762 9.209564657711091 4.744938944974616
Sc 10.08889198424261 6.766528207718273 10.292635657406546
Sc 10.959187185699152 9.685302923410775 5.38835694432752
Sc 11.509402367859574 8.733885433992343 8.22730395192989
Sc 8.381677007458826 8.820782842352282 3.648036629116228
Sc 5.634118946273956 7.735029971851323 2.255346986833243
Sc 8.811610147383393 8.422175180579673 6.779611411359666
Sc 12.945970345637509 6.352609348963364 9.229433882658899
Sc 6.929326277652313 6.597895330248638 5.387093636542053
Sc 3.994348743726755 6.404250943171479 4.3283375813393254
Sc 7.5813982410078244 5.890725228509367 8.52117922602379
Sc 4.713143479135098 5.522455374379557 7.221994168580031
Sc 8.092199145078197 4.780406038372797 11.461972448992373
Sc 12.924435466012739 7.158119803232213 6.214241268003249
Sc 5.395856601433306 4.2935075218726775 10.06073870065594
Sc 10.232557396790057 6.776515869574632 4.596362451702584
Sc 7.7665894186336155 5.596000621316664 2.786569563249015
Sc 4.9271058249593445 4.910489459619589 1.8099301272383086
Sc 7.399534872119101 1.9997610469270548 10.429231244856531
Sc 8.795880329190174 4.245589277285599 5.698513239254781
Sc 10.586544693960676 5.92697638420124 7.494993494050515
Sc 5.880378718741604 3.9439690147968767 4.597017479787369
Sc 6.7815287330266605 3.107726901989469 7.644696486303578
Sc 9.603482078932423 3.5807851894447023 9.113413033245614
