3
Energy = -10.11864598
Sc 7.449474000000001 5.253830012129346 6.057214463575602
Sc 6.057214463575602 7.664034366468051 6.057214463575602
Sc 4.664954927151203 5.2537790121294075 6.057214463575602
