36
Energy = -185.38804908 eV
Sc 7.655809247496006 7.201466360459238 12.102016479831859
Sc 7.037440958291997 4.1430177762244185 11.654695275953523
Sc 9.061059754942612 9.96058831272502 11.610411492489773
Sc 4.930249430864096 6.452864424615389 10.878502635627667
Sc 6.049517596670152 9.585240729825824 11.133352914975378
Sc 10.916948088730349 10.672869736420266 9.140969829891379
Sc 10.070654712256141 5.616079119044532 11.189703988827798
Sc 7.669180132535407 5.72006988479056 9.520872169784264
Sc 9.366984160032374 8.104755070062888 9.457448944606451
Sc 8.824254939134637 3.122228420737234 9.179092861268053
Sc 6.205519294066766 8.086387655546467 8.620534410340744
Sc 7.7825104783185495 10.855568509448315 8.772052015929875
Sc 4.8705326729287295 10.664579096926134 7.54925811429821
Sc 5.500765062715227 4.005669838963877 8.793046464445496
Sc 3.697938232028788 6.423258525619359 7.863876410102143
Sc 3.450919847413372 8.91105681283317 9.63806110040447
Sc 12.197268605498287 7.764855206828224 8.771354987659297
Sc 10.612938269586559 5.269854515770176 8.247913726877483
Sc 8.837004353735662 8.832768595399385 6.662096270898139
Sc 9.788346821587714 11.859492835094986 6.523650466455657
Sc 7.956771412384556 5.716960970590427 6.533443191453092
Sc 2.7122370034102743 8.954274561685855 6.705689916053597
Sc 7.285208027314086 2.787573833674711 6.655934176345501
Sc 5.75076469707078 8.107301908460782 5.620268976632561
Sc 7.052972709839746 10.987497852314434 5.463416519168718
Sc 11.768328555088596 9.70657102389111 6.467068085959537
Sc 5.144534292772162 4.878242651509985 5.607450208178034
Sc 9.94753420259374 3.7333932039496123 5.773510367565901
Sc 10.99912894304243 6.829045707575407 5.799609358817475
Sc 3.192245758309497 7.150411773028218 4.508366524618513
Sc 4.149451633519828 10.130519759219158 4.32697821580793
Sc 8.552000256333994 7.054551954464508 3.849660354981101
Sc 9.7890228652639 9.888911718934997 4.121612337198848
Sc 7.532495637991095 4.103333732864726 3.9458762939426237
Sc 6.815538890646969 9.34047030631648 2.9793267309776015
Sc 5.719127683433971 6.477821732775879 3.0259695241310443
