38
Energy = -195.09636348 eV
Sc 10.9748020528083 5.833919983565704 10.077702856951012
Sc 8.812562421128831 6.384487442979771 8.427683896634376
Sc 11.529148630728622 6.383050196976579 7.039092314716181
Sc 11.795190420358214 3.3954777723958602 8.176815419037377
Sc 9.695473819777296 4.133704757828916 6.3548248715387325
Sc 10.766278235378158 8.943549497268124 8.411153573905477
Sc 11.429473050605218 8.910934162641098 5.132914059277121
Sc 6.2715886597600194 8.106762795754438 8.524297556688111
Sc 8.984957034203438 3.3975764532018125 9.19118596206836
Sc 7.195122193774271 5.617220653292731 5.889049952326901
Sc 10.02614560579179 11.194135418575215 6.084488537382248
Sc 9.776849715172357 6.41818073597602 4.330086298298163
Sc 8.431860019176323 8.501260820433583 10.671029337244997
Sc 9.356887441410386 1.2701139217522914 6.352835943592865
Sc 6.644857294493387 8.271149188911565 13.18569066718754
Sc 8.106888657269483 3.2982280288890347 4.037933657277909
Sc 8.070926598711372 5.634250151276893 11.390851540127418
Sc 8.58845911890415 9.209219230651968 3.608929362412334
Sc 8.728154875856752 8.529100561094419 6.364734786263762
Sc 7.960118288131132 10.681363559267675 8.443352651052347
Sc 3.647580590469474 8.748603091919781 12.53252411137003
Sc 6.84064642336021 6.476590077141831 3.0724351442213127
Sc 6.603324095332519 0.8579904013591582 4.670581595566601
Sc 6.98459725744987 11.108984805709301 5.4986170545452895
Sc 5.320381145796685 6.854973300469958 11.084648893813876
Sc 6.877982825632899 2.770382944363957 6.851001601441103
Sc 6.290185024185315 4.926136516621623 8.950977851832375
Sc 5.798203317541298 8.41303432525063 5.4132933499978275
Sc 5.684583106394062 9.996352836841371 10.822824142014294
Sc 5.371653425291881 9.356894598858029 2.6816260441167157
Sc 5.215562891923757 3.8919728268643277 4.525590564366134
Sc 4.266497556490961 6.164547104300595 6.881784466462345
Sc 4.851004117670042 10.620301695847777 7.6488344192531335
Sc 3.405922746158531 8.415198754021969 9.281107920363299
Sc 3.8764352819028223 6.846670425394788 3.8328531778698207
Sc 4.032171491567867 11.154267036384564 4.653690805706628
Sc 2.9020101419121502 8.782905445615501 6.005210422575276
Sc 2.3601967274823807 9.395488589927385 3.017859864553231
