35
Energy = -179.39973573 eV
Sc 7.616315457645131 10.689068987491186 9.326226969443011
Sc 9.227356098539156 9.692315035641045 6.95191540417636
Sc 5.178619766549353 8.884601417384815 10.062766284746937
Sc 7.817850711552546 9.052359026172942 11.737601111634557
Sc 10.283558549664285 8.991341675533768 9.74420999164037
Sc 6.079354931462922 9.332253516796287 7.014384899306033
Sc 11.666568287986697 7.880666247745131 6.389054933183036
Sc 7.360369982174225 9.884093277628997 4.343532471312955
Sc 10.536984890454816 9.647120499447112 4.1402127975418015
Sc 3.1155462598514916 6.244811586586993 10.368141559389926
Sc 7.7181550250743145 7.590425473817677 8.882006989370076
Sc 4.16715305126332 9.918960069084374 4.930583132245079
Sc 8.923863880244227 7.2691283635555735 5.077046690074061
Sc 9.284801605553996 6.515239806534061 11.340758295540466
Sc 3.3560880765798 8.301932598319722 7.646274996729667
Sc 6.203873680019664 6.363645640026267 11.467467040437924
Sc 10.383953330868483 6.1556286348459865 8.515625543596213
Sc 8.708466527746905 8.301905037641331 2.1880083973623896
Sc 5.112780888601063 5.788688810538396 8.235663777381774
Sc 7.859913484350488 4.341360850262118 9.652380911964144
Sc 1.6196871924144831 5.983654097572921 7.568018394050366
Sc 2.811186534333416 7.3093690383706695 4.923233815405844
Sc 5.777450315410435 6.8554227883392365 5.195828487482384
Sc 11.300245075126236 6.775637439745218 3.363073540416592
Sc 5.386740612888604 8.333025386282543 2.637379604402711
Sc 11.141989190872918 4.957448020586218 5.843427823073283
Sc 5.051071227821189 3.698198822300711 10.568819829621921
Sc 2.869779182078982 3.578150614308924 8.645207450239687
Sc 8.011814605910859 4.8921963623695195 6.692650029228796
Sc 7.057253981527784 5.916121868735547 2.4879272054926473
Sc 9.2062456160723 4.481471026401081 3.770347432342032
Sc 3.535287412873263 4.472386421993173 5.815311864154466
Sc 4.135086230547633 5.49889680606008 2.87270635691894
Sc 5.728263920183952 2.92250370494629 7.563483819961353
Sc 6.175764958704324 3.862773212737725 4.46459825171699
