37
Energy = -190.30195602 eV
Sc 3.4699273471106284 10.135229433332153 5.448571915843516
Sc 5.690821692455054 11.806816594310328 6.610416981708547
Sc 4.407741337084337 9.18668363288592 7.996115990792729
Sc 2.0989437274342397 7.491842202251839 6.192912974021142
Sc 5.808715530490738 10.600118917308615 3.7862445179169693
Sc 7.291049457619063 10.494336874714682 8.89467801227402
Sc 5.891344211100425 7.896851108294928 10.259303255246076
Sc 3.618387312830896 8.038443344805701 3.4603584823641573
Sc 8.706794552213598 11.412378139510489 6.304348062786529
Sc 6.967453341924874 9.087628690645312 6.13457603093987
Sc 1.5503352521791718 5.8507807415847255 3.7170756848732647
Sc 3.0368208690238614 4.517378532682883 6.0606488338251365
Sc 3.617737351134638 6.114412910731512 8.680081745510202
Sc 8.873862079155952 9.027259501279826 11.283964567637678
Sc 8.666191469652926 9.841343855708345 3.702649802800621
Sc 10.388438690651698 10.081605005548825 8.770696965706675
Sc 4.944170971269368 6.742960115078757 5.90837863381727
Sc 7.579946578265977 6.33205023356569 11.982963594661511
Sc 11.865245623661346 8.696586868199708 11.094102216897527
Sc 4.721109547265566 3.2175185049510184 8.56362835767412
Sc 6.642654548717678 5.389207282061174 8.4713935619567
Sc 6.703469645907098 7.522785026041094 3.26176498185897
Sc 4.5042018509810555 5.147456041386462 3.4103466245180685
Sc 10.219642292377518 6.180015560749949 10.827150004112193
Sc 10.245496098576325 8.64451986203487 5.94852278889362
Sc 11.653342586726433 7.274965739963241 8.400183088937258
Sc 8.254446061382342 6.087047779765868 5.712911707466339
Sc 5.078386219291861 4.903683995870331 11.089786663450047
Sc 8.700414550186714 7.692321070194491 8.638645557530186
Sc 7.614494131426765 2.512074411746153 7.976034160231204
Sc 7.891319765524115 3.7531277255161046 10.662655777092217
Sc 6.065442228453558 3.689515000574799 5.701250089179669
Sc 7.699067481831087 4.639399495270492 3.1462804015022043
Sc 9.723245586426197 6.936287935836724 3.3273737991538526
Sc 11.214952225547156 5.627875531898205 5.636058527002871
Sc 9.817751165392474 4.628404549544375 8.148466585167924
Sc 9.208139568013149 3.324368620363582 5.43204194325246
