35
Energy = -179.71257484 eV
Sc 7.413073531024479 3.87490155373474 1.714448338360603
Sc 8.77698986975152 6.49603933347246 1.76569135454038
Sc 9.848875534869588 4.220883368244024 3.745717318400457
Sc 5.8456757700762685 6.412659921408658 1.6003960315436168
Sc 9.993140715559868 7.423794925552577 4.339881033118921
Sc 7.194491717825772 8.61212790958455 3.351940380197517
Sc 7.304658899443452 2.421375779602463 4.193173383077009
Sc 4.719308662708911 4.128999958165465 3.4303467630550544
Sc 7.2443422171467455 5.6014051763845805 4.495305954326753
Sc 8.640382601451039 3.5476613740751732 6.601498704966397
Sc 4.479239329878639 7.169298045265475 4.21265379720032
Sc 7.86850769066313 8.356815998178247 6.465196567407501
Sc 10.956626986912408 8.529443177939918 6.828100921650049
Sc 8.9063703800941 10.580008220817367 5.353995211229725
Sc 5.480534371048439 3.5777064876000426 6.322847744004055
Sc 11.12375616132106 5.579657177060778 6.464137316581659
Sc 5.396039494989473 9.785446254619659 5.56356275118092
Sc 8.70439362816722 6.15806546980696 7.959157971023107
Sc 6.94037063547692 11.078273032525578 7.753490332185691
Sc 2.975078641325256 5.285846353245263 6.067163115669737
Sc 10.855098265972817 7.338242030616106 9.487233046522329
Sc 9.4504599194056 10.052387614896958 8.809660803719423
Sc 6.9689244650745925 8.202346142464085 9.589996433971605
Sc 2.6553344143947455 8.297752217110268 6.376000477605748
Sc 5.327040620581179 6.747999103945357 7.24440227993218
Sc 3.618714183351824 4.189420362416221 8.780078982969746
Sc 6.570916055405189 4.34324209634074 8.96689707502122
Sc 4.427275633455446 9.66867941223416 8.483796715906491
Sc 8.380852055595142 5.937794865792644 11.091412095982585
Sc 6.861599401264971 10.736712071414699 10.899294300808341
Sc 2.941738522323074 7.0815507559712065 9.09326576277134
Sc 9.291291297926671 8.873375569729113 11.58526716472194
Sc 4.259501626413459 8.903226972570844 11.338823616796557
Sc 5.150547574388273 6.073788508601812 10.900545902671107
Sc 6.723367447989719 8.069277655343566 12.678741617138762
