31
Energy = -158.52068092 eV
Sc 9.213416431341823 4.91885382151219 6.085767150093683
Sc 5.940883140579049 6.476574051916508 11.248283331205512
Sc 5.983782384439694 6.025696019959186 6.4945637739282125
Sc 11.087771121419337 7.451245649606703 6.172123923237402
Sc 10.918698441622075 5.066965500701727 8.653769747858014
Sc 6.6010073152126365 3.2115318939626465 5.9721369672231255
Sc 7.549531295878747 5.076623277443032 3.33335388217864
Sc 5.6527526853042085 7.403126772754081 3.005514484745444
Sc 8.17035286514068 6.130062725853169 8.698537792931425
Sc 3.6114168026066027 7.2861875326739565 5.344280113588386
Sc 6.76290471932213 10.14176237214835 3.9712206386233024
Sc 3.6151620494595416 4.370044933574669 6.683560650775748
Sc 4.666606570508091 4.760767954358096 3.9777334888237332
Sc 4.06970730239168 6.77812820726018 8.593014900766477
Sc 8.501255383607917 8.039888826233 2.298290637598853
Sc 5.631142708611695 9.27676901605305 6.755856078103557
Sc 3.9596540891314134 9.307137268800114 10.311236977258327
Sc 7.985461270943549 11.458830087259471 6.734559102076623
Sc 9.664771991296357 9.916868968778292 4.68574999622613
Sc 7.865518693470173 7.520315239642595 4.956527129335828
Sc 6.003306789154604 11.297354267699014 9.203881247250965
Sc 8.794661367670448 8.737746972470601 7.3344689226220705
Sc 8.648920211384509 3.127835121847121 8.393116921860996
Sc 6.568276695791131 8.455335241604384 9.405745152432358
Sc 5.820190487329387 4.156592411469501 8.973286011118649
Sc 11.04567351301285 10.47094185821795 7.367273016708012
Sc 8.902341458090788 10.462076250247101 9.797940097359238
Sc 8.69008006196736 7.7228431138311135 11.407697577123908
Sc 6.410626919644501 9.805256668968983 11.903266891582119
Sc 10.835935205953824 8.062289595343364 9.301860452370818
Sc 8.715455641496694 4.658370585221421 10.994658074765734
