32
Energy = -163.58972674 eV
Sc 11.132365033269636 9.018040105390943 6.088965326692213
Sc 9.897046871859152 5.270603049381735 10.00512934948097
Sc 11.395099790351189 5.98706135591153 6.860937356795115
Sc 9.72470254233762 8.103035165457106 8.544905437426712
Sc 8.656064541800829 10.774568036723089 6.860809693073358
Sc 9.014213719598912 9.537860255900474 3.9229284661046453
Sc 11.11550177382359 7.159692758376505 3.8436787206100558
Sc 7.6452378277356265 3.1066441181230733 9.79226395385433
Sc 8.364456317778608 7.746004256006426 11.316017012841503
Sc 8.79686408877424 6.8435007072368235 5.8739983755811425
Sc 8.117403200265281 6.673522791337212 2.9245016508279136
Sc 10.04491612747042 4.527180341072391 4.382017702276656
Sc 6.958487346745188 4.511312742746217 4.810444360060423
Sc 8.918889417971855 4.04002811614842 7.231800867402778
Sc 7.213679224704048 5.126734558942843 11.854170393047465
Sc 7.341545754020706 6.12910555877646 8.960071952560755
Sc 6.206482208735663 9.247604383529238 2.6811820400141952
Sc 6.5725895917214565 8.83562840904604 5.911361083823912
Sc 5.798311038094936 2.9887456271436115 7.242801970030506
Sc 6.633216141790936 11.51833618554452 4.4773755013592424
Sc 6.916517732039296 9.332467313718277 9.015363020609497
Sc 5.097833633371161 5.913681638650289 7.040167498251228
Sc 3.866054270748931 4.146445827041523 4.903105116688376
Sc 5.073287488915781 6.863895127990435 4.050315484195128
Sc 5.247555272008989 7.4113028388289 10.747454064645897
Sc 5.499663891956039 11.388157011333082 7.15959855491979
Sc 4.817675105926955 4.329102930057557 9.963233887542838
Sc 4.020879220454755 9.739962553356786 4.879005899900794
Sc 4.101058109455783 8.768605335125002 7.893358496771277
Sc 2.7740580972462605 3.970903398818024 7.594436084861066
Sc 2.525794692965317 6.785855747690411 6.022952608382767
Sc 2.733712245916472 6.429168889885816 9.136831443972437
