49
Energy = -258.1750716 eV
Sc 12.565431351900639 5.824715017904049 8.336145108271728
Sc 11.672846411263674 6.376449145842721 5.279437172296282
Sc 11.199776336848815 3.5682686579008287 6.682885984915748
Sc 11.346036066262801 8.649675567410066 7.70387876834641
Sc 10.608560381440604 4.001789724830884 3.8467361889618683
Sc 10.506582290740823 6.592198690061543 2.1300098900651787
Sc 10.884189745832686 9.262479809861372 4.687629772473538
Sc 10.436793611701694 3.9337339395993496 9.569350148201803
Sc 9.768469934694597 6.176598859595721 7.5313613296190605
Sc 10.385790303521455 7.112609772229599 10.336445593964754
Sc 8.441788893103801 1.8264340137870398 4.543436829328854
Sc 8.819245738572167 2.031854489999506 7.727698628913992
Sc 10.43112798041984 11.421581894677264 6.970769011657069
Sc 9.028805586150968 10.021418403335312 9.488120919335852
Sc 8.238550350317112 4.380083940639795 2.386853232978124
Sc 9.280873747547838 9.409869828458266 2.1668041137426584
Sc 7.605920849230967 7.797027335428817 12.308263965672722
Sc 8.593396281533742 6.996626862746141 4.223417033596039
Sc 8.36257419652873 9.080484093592485 6.560077698354173
Sc 8.185984005219755 4.339562159308593 5.724145463710056
Sc 8.534561325273009 5.05747686936831 11.50080130702202
Sc 7.507006734952646 7.1441662868098295 1.385443463039782
Sc 7.452173722707092 4.568648130768912 8.691684242997313
Sc 8.7424496068919 11.422698307210114 4.5088706137939205
Sc 6.050243213307148 2.3688506434804895 6.844348841109578
Sc 7.418406220835575 7.4967187871386765 9.376019183349012
Sc 5.400914304280663 6.619512144177272 3.775044111282936
Sc 6.8854947303969976 2.499153879672116 10.339415141946416
Sc 7.397475989156515 11.96710198298749 7.260993468756027
Sc 5.879131599022363 3.6357811087790175 3.9138940120137105
Sc 5.719833079800378 5.525096833560664 11.195996904065467
Sc 6.323392403241649 10.25860633092454 11.3392025409749
Sc 5.7378295189320285 11.876967961928642 4.758668180618193
Sc 5.189927739126586 9.124861405940836 6.092381981931791
Sc 3.7636999239350617 4.26292210483869 5.877415585315304
Sc 5.8972450278939 10.026649704369738 8.704531367211837
Sc 5.949717175119527 6.257206659287882 6.697046979616569
Sc 6.658110101334131 9.379172103707589 3.4946138630768244
Sc 4.401469982753107 4.266157962500413 8.823769367218794
Sc 4.167717495835955 7.473749376449688 8.986224268536644
Sc 2.9826631121573737 7.0847141969628415 5.518616261797582
Sc 3.9616899045322214 11.761389271383086 7.093323783221112
Sc 4.206670741636287 8.223630960948555 11.914840410552962
Sc 2.626707887225748 5.665498723783904 10.986805438033988
Sc 2.21304385580632 9.258896636087075 7.368050676876923
Sc 3.38783498386304 9.97963546622431 4.246428013112718
Sc 3.3396437681815794 10.552401739130872 10.027391570706264
Sc 1.8099157621400097 5.972244916369001 8.03109518229944
Sc 1.4423352050491132 8.204229207486613 10.20958988847206
