40
Energy = -207.83003729 eV
Sc 4.670076880512712 4.781196952814079 10.042664792029838
Sc 6.585163174794136 7.141184166425285 11.375518376732071
Sc 7.9785705822991035 4.443070352551516 10.464686424405224
Sc 3.9104879041244103 2.7700537575015587 7.824153089044955
Sc 3.963489364883143 7.997748133932725 9.35597150393426
Sc 9.498072997331649 6.6156437586076615 12.34031162151583
Sc 6.919309392972972 3.3187569597929256 7.62342080344688
Sc 5.086739316243119 2.279910550306718 5.009765295756929
Sc 2.5673366669855797 5.631162902643286 7.831678061648941
Sc 6.2975343489566775 6.399857563004987 8.432724293857326
Sc 2.3989202575264232 3.6528008160685688 5.369269075493796
Sc 6.710773857256835 9.5580607825078 9.296761217513053
Sc 9.931283202907752 4.111938081151689 8.008022584039699
Sc 1.636300394860714 8.616487007387898 7.378110497041361
Sc 8.806136985500235 9.31344136970578 11.45817029212604
Sc 11.177504793392217 5.044759753292845 10.5572117669191
Sc 11.559654091216204 8.228104288374574 10.415760126667868
Sc 5.06143044747398 4.950818673525183 6.0619596996331815
Sc 9.158136323827764 6.9816178137979605 9.256127689258143
Sc 7.692701558237862 4.016724222907565 4.24718335918596
Sc 4.186783668958691 7.839037285922532 6.15029378060336
Sc 8.14922997244252 5.883338443199318 6.240344562796665
Sc 4.257485954208377 10.552320520962157 7.361436493435392
Sc 1.924240649597754 6.65819130505543 4.7458806175009824
Sc 4.215676892371074 4.922827509003555 3.247196101353155
Sc 12.008366848867418 6.390901602717589 7.8919888595240835
Sc 2.407801112666143 9.87526457762166 4.813670944993828
Sc 6.9590798781265875 8.790425861090622 6.5059187713541355
Sc 9.677750605545784 10.15684899329837 8.490193081306716
Sc 10.914088361163415 5.202599994814782 5.252594582094763
Sc 9.93073704136546 8.073248807631387 6.34975688244677
Sc 7.613149041847749 11.524703555720544 6.4904559627214695
Sc 12.39909198022093 9.39696459427981 7.51431230141572
Sc 3.89380921932914 8.111857457261767 2.848051530150427
Sc 5.364519964025962 10.368100671869394 4.46319016283187
Sc 9.409474431746041 6.782631986272322 3.4926392500191414
Sc 6.438443176031397 7.04296531416144 3.9933381486459454
Sc 12.023625776443236 8.14911814659875 4.648347307303889
Sc 10.666671297533306 10.876339822306068 5.608645979166877
Sc 8.372706109138578 9.640396301870728 4.013612933137647
