43
Energy = -224.05634372 eV
Sc 2.9801354432469402 8.140555334707662 5.826408510114971
Sc 4.166412107925353 10.607945005826023 7.384969282730086
Sc 4.1104589053940686 10.718350935920732 4.3282935679327235
Sc 3.9643982581004225 7.750673067567541 8.99325759909992
Sc 6.694892555975055 12.011110313066068 8.334765037018116
Sc 3.8174191121792416 8.201205336659855 2.7025594490456424
Sc 5.15974676765285 6.13209519243029 6.757594045088152
Sc 5.288673184153017 10.147387476334195 10.3747716859267
Sc 2.3865781588191184 5.183677836553271 7.093524881579205
Sc 3.9130005550195275 5.473970228869954 4.273848869148232
Sc 2.590967578962779 5.244261399302019 10.17950686644125
Sc 6.5153292087428545 9.028258586255019 7.778681423015591
Sc 4.782002601908788 6.403942176113098 11.759272323826954
Sc 6.891981473554701 11.180503765199202 5.474916024216774
Sc 5.845413154699696 8.31969521172975 4.847885239032272
Sc 8.707546431279852 10.198109047375418 9.726132796459964
Sc 2.8364979935147274 2.712743386854511 8.904848049297652
Sc 6.418878411128702 9.899576200388791 2.5071337238226974
Sc 6.992768697099458 7.711831712112096 10.305327185830341
Sc 6.377365987826882 6.3546028535877985 2.563764860682125
Sc 9.645723388166624 11.412827549275045 6.982491873353816
Sc 4.696557572349917 3.106655230364092 6.483939465830212
Sc 7.926554078719077 5.966499381560432 8.005530226627515
Sc 9.467676661459828 8.48289552372013 7.206202539979903
Sc 5.475698594698099 4.467810630283152 9.287812542442184
Sc 9.288893380672418 10.143256684687493 3.9392402837356566
Sc 8.584229666651645 7.990006267140592 1.6858073448225757
Sc 11.622806765106894 9.645344066586578 8.682168235342905
Sc 5.356917332894409 1.33675942770095 9.069038162585121
Sc 8.69734664674939 7.22668663445291 4.637776816917107
Sc 7.10120793332692 4.541499337700873 5.001975345468416
Sc 9.946130830183614 7.326092536329505 10.106127951837998
Sc 7.70911843632232 2.8765273918628655 7.60409200968055
Sc 4.5249059401970895 3.094790020696681 11.57084972261024
Sc 9.893018760512673 4.275824077409873 9.362709776176953
Sc 7.719651803181496 5.152158258367148 11.356736397083571
Sc 11.808105906931317 9.380366784353324 5.593819574129712
Sc 11.288672083075214 8.307171115298306 2.6284329580488897
Sc 7.615700140709094 2.3618318079691853 10.586260453103035
Sc 11.75567705363339 6.621329272239082 7.764748804512484
Sc 9.977753049951353 4.6287816014175 6.182018363655032
Sc 9.6020595819846 5.298732908376538 2.797284908656238
Sc 11.630097972533312 6.543588595971136 4.781296840427769
