40
Energy = -207.89730504 eV
Sc 12.187795092635552 7.185039163596681 8.27043036537669
Sc 11.519757500984465 4.335117185158619 8.543583122410027
Sc 10.160992904677808 6.352247748856163 10.585686573286104
Sc 10.73048489033629 8.793389506554806 6.043955727896642
Sc 10.246274959731558 9.343420294294303 9.181898296101732
Sc 11.50975846039882 5.664304212638063 5.62734897962714
Sc 8.739237431812821 3.7294551554240942 9.524261009528864
Sc 10.739050021186753 7.490155150426815 3.2285829468925975
Sc 9.463764537751445 11.60953871486793 6.908687010155674
Sc 9.298968066602749 6.207441037759547 7.692642964144389
Sc 8.43234140345496 9.647319056412993 3.990261876019099
Sc 8.77454374793279 8.774836488160798 11.98096385228177
Sc 9.436830851741155 3.4132233968769032 6.407847400742356
Sc 7.271030907028203 5.964970064042988 11.631489454867072
Sc 7.764153092431516 11.015966792233725 9.880360474625892
Sc 7.9179801804405665 9.386217403093958 7.00696336907478
Sc 9.520636006130891 4.563255780606029 3.3363423113558577
Sc 8.266779355458414 6.754810425267232 4.808287998487455
Sc 7.4513558262334545 7.913002312075023 9.578507153220933
Sc 8.154154643222077 7.127638008672365 1.8849927921191774
Sc 6.326061729160452 12.2048949664558 7.494523959126725
Sc 5.687002106141951 7.3561642478330125 6.455104689633516
Sc 5.588793953863544 7.8633120002564825 3.506063803715102
Sc 6.290866825305799 5.2431400443891345 8.694853383042666
Sc 6.537974587787027 4.423940367831502 5.888541125802443
Sc 6.670460510540025 2.079486844341518 7.37301161683761
Sc 7.634024766586501 2.144721731504503 4.296438662535683
Sc 4.991937408227423 9.351569864901377 8.392630280583571
Sc 5.5001081666964415 10.383403240946778 5.278247479982906
Sc 4.020737792263258 3.727469677584316 7.555391868051008
Sc 4.648088103326657 11.764958874204353 10.035932461526428
Sc 5.605433987717582 9.223720707535934 11.637821343830511
Sc 6.351788508976685 4.837029533418251 3.0071139563588662
Sc 4.4518396895063335 6.77469694379896 10.437458974361235
Sc 3.776310591490856 5.540610132099437 4.964739692944767
Sc 3.317237071944896 11.474608621665471 7.353677718294119
Sc 3.1304373483471113 6.640796225836947 7.837970640232372
Sc 4.745783660625556 2.4143891354581055 4.88967350785949
Sc 3.097660233864868 8.705159539811891 5.752728587911613
Sc 2.6163742731772164 9.345710086884665 9.7879809659784
