44
Energy = -228.14247579 eV
Sc 3.8687554901889523 7.134571066209596 9.735933991433537
Sc 2.892613604901604 4.885045935013092 7.867776609314661
Sc 1.1804008246685807 7.300389332185736 8.164926294101067
Sc 2.5542652240268846 6.945925284891571 5.557766077564967
Sc 2.7800118882159013 3.9713422610592293 4.974446236174277
Sc 5.038156492446951 9.487715277537923 11.706237652209637
Sc 5.714514334020083 4.570968595970208 9.4102008345113
Sc 5.387785291333406 3.5642524224744134 6.412765591364816
Sc 6.594349839916167 6.826604473835965 11.462943822637872
Sc 3.530855973941506 9.190637240588973 7.406967622988336
Sc 5.256770324943947 6.6878701868623205 7.029960324810038
Sc 8.29894956907447 3.285513902094042 7.969082207278285
Sc 6.153163611314219 9.02137435000627 8.968651558161868
Sc 5.047490712839593 8.820222880145716 4.730273108295929
Sc 4.9972709760713006 5.717736518037898 3.9866965154844674
Sc 8.64495607031939 4.535922718023825 10.917134992688103
Sc 5.153182060271286 2.775209644022043 3.5716522249865714
Sc 4.629762085054525 11.513006099870882 9.460625379191905
Sc 7.939017929498434 9.267974958512225 13.021480904839773
Sc 10.93485977238387 3.3682975398281076 9.383175674737927
Sc 8.109364603230414 6.332394465692493 8.531190261312105
Sc 5.964744623652194 11.23930959062367 6.6391288355698785
Sc 9.598673557740142 6.932778516466217 12.670111456733554
Sc 7.304898483408664 11.278276070077212 10.869026677938248
Sc 7.899960563830001 5.503374781715487 5.512933404476847
Sc 7.014757626379545 13.354078668605165 8.511403296311661
Sc 10.957557618393025 6.424217442516034 10.078984504209867
Sc 7.514713520837151 10.750132796101465 3.936841210052877
Sc 7.586644463392608 7.729764370528903 3.1773709674841704
Sc 7.659621903579337 4.573529849663476 2.6661086400154352
Sc 7.8419396735156015 8.696339434994002 6.217372882701995
Sc 8.012938751049823 2.5544621611620593 4.884744800471871
Sc 10.667473358732021 9.815131286453534 11.244507481146577
Sc 8.689634494045547 8.492006388078202 10.299363169168764
Sc 10.731320111156041 5.296935285915337 7.115433478986184
Sc 10.559287646532653 8.431452221686232 7.865862958320184
Sc 8.833283711677653 11.001456198001929 8.189351036953468
Sc 10.396076016393145 7.492773907871835 4.721132328701841
Sc 8.37510257034259 12.89392422334728 5.87372555426853
Sc 10.011912098128008 6.598965962627922 1.9072827884322874
Sc 9.920879345730421 9.541183109396444 2.5920720601878506
Sc 10.298970513647404 4.366297479349102 4.106902682665552
Sc 10.72215559658516 2.359308342292182 6.5336510524872065
Sc 10.211530954291057 10.559812454564732 5.426669202210754
