41
Energy = -213.78702804 eV
Sc 9.767121050757575 6.783592231394107 10.585804816525966
Sc 10.071439728663488 9.66755252758668 9.507373687555738
Sc 4.739612069659424 10.046183699203661 11.07194708649997
Sc 4.095229826807888 12.024722338651337 8.778359505902554
Sc 7.3953004657933095 8.598379041307878 10.429177586304679
Sc 12.533839885052403 8.284821914083476 8.235724733340648
Sc 11.892229445646064 5.275621693732699 9.171260036746114
Sc 6.995557082961619 5.8497502414975555 11.593680405014373
Sc 8.838985070093289 3.9764541844874874 9.788118690137196
Sc 7.13600955619977 11.43823316994872 9.405684491715396
Sc 10.12772233095881 7.195148827629644 7.469510344275411
Sc 2.4107965615047298 9.365712744729334 9.20805991097739
Sc 6.326710821689739 11.739008375143912 6.509244798106517
Sc 5.436003776018054 3.73499556379606 9.965617049277249
Sc 10.604754230734343 10.380937825477265 6.724154399581761
Sc 3.2293689613220624 10.321411422771135 6.2226197991198875
Sc 7.998703911439573 9.248473867938683 7.274242748939312
Sc 5.190332783258721 9.392670037712433 8.186431159865329
Sc 4.537401786111827 6.902325362728392 9.842288133218695
Sc 10.18440418464421 4.1619074698535705 7.048766977613376
Sc 7.383778034682627 6.200443801981883 8.553137482930069
Sc 2.4914115580564578 4.775760571191816 8.741925910673753
Sc 8.706000169774045 7.037055927775023 4.774032017776472
Sc 4.991617087204558 4.820754446256963 7.224937310970634
Sc 5.568779698361137 9.92253534632435 4.405073345295675
Sc 12.650911780667984 5.815687230017957 6.373286310474321
Sc 8.646358257070439 9.89897813645994 4.178607910496337
Sc 2.9713054392521623 7.2898557223131375 6.999295682919207
Sc 7.034161448455883 2.401858378646803 7.704294555297074
Sc 11.414780925812344 8.152803813511401 4.720537342282116
Sc 3.865352896800037 2.1992185486519045 7.641440127630298
Sc 5.919413352578391 7.429213482223683 5.868291457375814
Sc 10.676211340061716 5.069042600397007 4.085463047541218
Sc 2.70611993725567 4.499468479451885 5.582501053115046
Sc 6.554085309933373 7.71803804966947 2.722078386153018
Sc 7.557255711325969 4.598616485474761 5.74626188541912
Sc 3.376681826593947 7.832226763938861 4.053638704886841
Sc 9.738066404153791 7.375576280026646 2.1841459598108774
Sc 5.405737168794753 2.6758780948142813 4.993520600679156
Sc 5.032603553030897 5.361113321106525 3.7812915822122886
Sc 7.835035667409936 4.892726367715817 2.7620178184128066
