46
Energy = -240.91129894 eV
Sc 9.775368957984021 11.96718009893924 8.205197104890557
Sc 7.631748148128245 10.232381739477036 9.989952186251536
Sc 6.16630972952525 12.578894273007256 8.539315580860382
Sc 10.324699235277548 9.008919367693048 9.452283185158537
Sc 4.6797390313996114 11.143377451606751 10.745426636352907
Sc 7.746052961470199 12.786372942044398 6.091405217909294
Sc 11.398165621615 9.294442827660191 6.546265712217388
Sc 9.783801597990474 11.05716953511778 4.632009415701924
Sc 2.8982066077389033 11.539315205242895 8.143004369099323
Sc 8.319618472441775 9.934357653391645 6.989627617925127
Sc 5.393998373216463 8.0411578351632 10.82368740916953
Sc 7.8466105074352575 7.310933537820397 8.590922283537338
Sc 8.48693586759525 7.315565049135087 11.44091525800294
Sc 5.009416949841531 9.7005146409734 8.148112202875613
Sc 4.869976000761234 11.94374207172907 5.722759066983963
Sc 2.661787106483263 9.13480319785134 10.089192655170226
Sc 10.770189316834895 6.584798165839458 7.703261349450064
Sc 11.03309206321968 8.54859592367689 3.618076664578366
Sc 6.932648574692953 11.227028495902514 3.696688558936139
Sc 12.128350732623 6.1869044656013354 5.126511939993289
Sc 10.909415163561631 5.701553446926765 10.524201690987686
Sc 9.020683251601321 7.307024921422439 5.488013119603738
Sc 8.097595539751863 8.703880999075123 2.8478223009694723
Sc 11.975156962815511 3.897745692613164 8.026527629496343
Sc 8.656365035736954 4.167433296197376 11.914324944228447
Sc 6.971655368180402 5.078487852998573 6.305805197769804
Sc 6.1012255393981905 8.687242137433499 5.400785840190597
Sc 2.178823765495696 7.724002091396249 7.578838472237711
Sc 8.820768800479987 4.3374792677967 8.730409805595249
Sc 9.58886125270072 5.798521400525416 3.0329632431248923
Sc 4.852978225900854 9.067016409486737 2.932190513952553
Sc 9.905167944329243 4.2221440964348025 5.727344158136987
Sc 3.1488675261865193 9.64288445003266 5.554210507394118
Sc 4.922332106595506 6.640498761952312 7.858366195259471
Sc 10.60187143633999 2.4929817111893358 10.45296263287615
Sc 6.293707594722303 5.184787323995891 10.421283490206433
Sc 3.77626699164326 6.68931880171022 4.98545051802239
Sc 3.0935197547867714 5.910649548148034 9.956137286251264
Sc 6.489804623447905 6.157811068228268 3.44384025856703
Sc 9.869962000140049 1.71858490434193 7.630627145872873
Sc 7.076860725689334 2.0596922866591596 6.543332122920447
Sc 4.8071271607477 3.6397130820714336 5.086309764442922
Sc 7.54573141000574 2.003875438021817 9.84003813471739
Sc 7.698475436845726 3.313919076843518 3.876782053409477
Sc 2.6502294436237883 4.776905180177401 7.110107830649015
Sc 5.105981466227204 3.527744431943624 8.267592128050449
