50
Energy = -262.73747712 eV
Sc 4.067789637929451 10.113539393162432 4.622344224747421
Sc 3.8092298245116 11.263706767231737 7.476940489306708
Sc 5.415018157380101 13.69312797112498 5.618712914778693
Sc 6.043997416644326 11.727346364132172 3.213835011074383
Sc 3.3100800659947263 8.33700435664243 6.899501566909242
Sc 3.4815646228420123 9.144628805715184 10.164755860829004
Sc 4.005880427512634 6.787946951187478 4.1063140748005305
Sc 4.734138325877943 6.585583604568438 8.900623502849864
Sc 5.793655067532228 12.969331665624013 8.680477389578865
Sc 8.339971824410966 13.107028685466712 4.367303090178693
Sc 6.06716578764447 8.48547373882008 2.7483818728443725
Sc 6.262601245848377 8.316115706002467 5.733430327013301
Sc 4.348253347482918 3.536521653062808 4.357963477092205
Sc 3.0071445935652292 5.251182891573067 6.485032246415716
Sc 6.718240840655846 11.311736663117586 6.237638686676539
Sc 6.141282518111697 8.460797484060963 11.678752126049972
Sc 8.256482779872115 13.769852941337586 7.146145543076035
Sc 6.032033105235303 5.359270454189523 5.930030204430214
Sc 8.387989552221967 9.949754086859505 3.9517110789457375
Sc 5.94600914711608 9.412248275894203 8.638355706540434
Sc 3.9928865255294785 6.178496784660165 11.647062190428876
Sc 5.867499018859845 11.158592262992068 11.06821860657743
Sc 6.46761691050962 5.085733847398337 2.930003946387387
Sc 2.576877406836597 4.713748228103788 9.437056029390375
Sc 7.355710865964505 5.5193221952249925 8.753129180825818
Sc 9.150371172618263 8.113773734051021 6.921625021231795
Sc 8.651426887492356 8.149857923849499 9.822159093990129
Sc 8.313130949691994 11.294733691840722 9.259105316771528
Sc 9.807213394112253 10.997117124179832 6.44334477209664
Sc 9.132891306312965 4.945319923658435 6.4541120721595915
Sc 7.395242378288721 2.8507555841440566 4.957000797890991
Sc 8.421687025596865 6.934533924138428 4.145071600453215
Sc 9.685367564149585 4.387203698154209 3.4640524444169425
Sc 5.407067032298036 3.72361136563107 10.242737126738797
Sc 4.845912936079539 3.0515113569156465 7.377565606923794
Sc 6.942542652525097 5.709090882601738 11.798601024579156
Sc 10.39016000585983 5.893046654701151 9.064456327227827
Sc 11.722718442534712 5.665202189255649 5.3769230201469345
Sc 9.762424309307852 6.522113770044002 12.115419313926244
Sc 9.265892111638236 9.831038565898229 11.92347451715247
Sc 10.944923242886768 10.05064863124601 9.143520791756732
Sc 7.842466563600587 2.5145787888895668 8.043165738610197
Sc 11.08474416879094 8.481160569624807 4.592451536186408
Sc 10.81310015889754 2.7427819998527223 5.762433586688767
Sc 8.796954474513521 3.729566174848025 10.836708522530301
Sc 12.033402618391325 4.657907778660286 10.975482238012967
Sc 11.947513805524869 7.808375025511015 10.730556096694503
Sc 12.900181552933947 4.688536099644777 7.92532173778912
Sc 12.238614690713803 7.814318871899767 7.480721616128026
Sc 10.718047754429914 2.943722930934049 8.742841305949328
