55
Energy = -291.09620299 eV
Sc 6.607548595724637 11.449754673167913 9.812082079381474
Sc 9.263897436116498 11.627195589748762 8.324615742703466
Sc 9.535586286325778 10.557856313217282 11.106247840763851
Sc 9.201955440148225 7.649953986280552 12.087198174507739
Sc 6.342682875372403 8.943995663505493 11.687205253326292
Sc 12.185980570665595 11.20069430988253 9.088296195858128
Sc 11.418898999136495 8.417043906150516 10.1561709712639
Sc 3.7565130171682646 9.985355284145196 10.400700519999075
Sc 4.067002888989824 12.041484096369233 7.980310877136119
Sc 6.847337010260388 12.003412391502073 6.539155301592806
Sc 5.515322973204712 9.470512101047346 7.776340535491176
Sc 9.904811108625152 11.635244595029166 5.400577683333423
Sc 6.811093406899104 6.013326815455437 11.311937604212318
Sc 13.880076549857788 8.981483713939452 8.114576009078313
Sc 8.209277815723668 8.638234126149445 9.32716461838929
Sc 2.353006639888975 9.537330975015166 7.489275904409735
Sc 1.5411602495279868 7.919622448682092 9.834049212463501
Sc 9.641908271188507 5.97407076198422 9.346714090717045
Sc 3.6167839859432496 6.810501668420291 11.945868246468903
Sc 12.81735494301262 10.766881292546946 6.013214242653665
Sc 11.004798893540883 9.049934213287083 7.3115928350560715
Sc 4.495291338709015 10.539832993275363 5.187287873650437
Sc 12.163806768580569 6.296501220431623 7.616699321899699
Sc 8.308718712522849 9.389541532869591 6.326907785417114
Sc 4.509919359297812 7.24455861385075 9.503991276767042
Sc 6.16043032461016 7.519169873152478 5.24553362871994
Sc 7.265029042875666 10.294978649830366 3.8211448167064885
Sc 2.253450575863051 8.635647525624181 4.621399781685857
Sc 4.943391238187441 4.186757827641018 10.067491350932887
Sc 2.201169706294301 5.1722046140240785 8.909113960834006
Sc 0.7704215393145751 6.939914197120476 6.842229400240443
Sc 6.6576051069675275 6.011555245359345 8.140266862720066
Sc 9.149629426142583 6.459180791385109 6.282550040530394
Sc 3.6240536029633885 6.876242902725222 6.586222026740242
Sc 13.312110835206768 7.784455035826377 5.377073266914456
Sc 10.4834073963649 8.544829195442937 4.3295372879257465
Sc 11.386031235960845 5.325552141712027 4.776421425627956
Sc 4.36682039813568 4.045154715239832 7.184993906322345
Sc 10.443462606915292 3.7177646494531436 7.3597912337646685
Sc 7.925099011669229 3.392403705161795 9.587361421641775
Sc 3.223812997748911 6.083900118727125 3.4318031081260454
Sc 7.891519352837779 7.629955193259355 2.8294717228216575
Sc 4.869726714247773 8.470748382800963 2.7403309248076932
Sc 5.606965403226214 4.492738439552231 4.5529589400747605
Sc 1.9876350587408698 4.2727661402186765 5.468093344731924
Sc 7.599054964414541 3.6158960797851853 6.603756251820197
Sc 8.499479750439349 4.900732837883153 3.5774926151874546
Sc 8.792277581920835 1.0826422994862666 7.438318691774005
Sc 5.787829144947641 1.5775919393545872 8.06439130616241
Sc 9.553618697818075 2.3625482713907435 4.68022295157527
Sc 5.823846731306569 5.516443973466592 1.8340779610956097
Sc 3.7217770674517765 3.215628575983646 2.6902290755773026
Sc 3.9506081235404955 1.7782787749497144 5.315033875698321
Sc 6.799842321614846 2.5894322778882475 2.5888053915601508
Sc 6.795845621426829 1.2072480551864855 5.21238894672428
