53
Energy = -281.56162586 eV
Sc 10.976677028075903 8.99492412492744 2.7105836873964435
Sc 12.421344371190836 6.818397096866264 4.367598461735946
Sc 9.984038719393062 5.655209592323264 2.8790035699520486
Sc 11.981274113977438 9.277745293276904 5.590168115705038
Sc 8.37105158646512 7.710562849872898 1.626252464030047
Sc 10.907278562463874 4.880293127537323 5.986570524218689
Sc 9.74796588978525 11.104638837956086 5.584929530273943
Sc 7.8653531319341665 10.261778834106684 3.063609304357605
Sc 13.117462626955957 7.12607765179315 7.4349038074565765
Sc 7.076406239130777 4.938456048700121 1.4338762363954243
Sc 9.240526069327206 7.9853779784170165 4.684537228591654
Sc 7.993801867965807 9.259505654033335 7.159367147094458
Sc 8.564273776742322 3.483604009178204 4.469528959652698
Sc 11.1960328883325 10.117830418407367 8.366878099621637
Sc 5.44767328187693 8.110206477309044 2.0471676192632096
Sc 7.88405769282492 5.877858590900543 6.679801598466231
Sc 6.763862617288401 11.70614264420105 5.526626612578182
Sc 10.327641962294006 7.3538321715121775 7.583041497796542
Sc 4.773888487984462 10.971157892675544 3.2871526058583944
Sc 5.7083624817037135 3.1569081747287653 3.490372999169536
Sc 5.963120209141335 8.832312804135553 4.953564778113081
Sc 11.30560010364266 4.990725025053144 9.222627523122997
Sc 8.70024339024729 11.554298820151297 8.847624513872015
Sc 3.9176998240058305 5.4838449940592415 2.9453119001148695
Sc 6.850377892130906 6.01045604746968 3.9044385332641873
Sc 8.57218744962383 8.343411485281319 9.92259610639599
Sc 9.117294955119453 3.1269835369403522 7.821650934710544
Sc 5.246698891872492 8.470520056901513 8.2185530098251
Sc 8.349340686508533 5.355764517071129 9.639990029045405
Sc 3.0844008156394107 8.364679556072847 4.0921932526263785
Sc 4.4096180702587064 6.199248498619126 5.852905899711057
Sc 5.791917519842902 11.518345709963299 8.26959462323138
Sc 3.8354341070556477 10.557404045925397 6.273022057522617
Sc 9.521649944735868 3.1573676422667853 11.043817859414066
Sc 6.225094232697731 3.359296543329 6.438750310449997
Sc 11.733207965833584 7.840179645803776 10.228390032661496
Sc 9.949916519921931 10.03931134713592 11.534241962782394
Sc 3.306516777348537 3.4800316635587354 5.39558031745411
Sc 5.356103033091117 5.314792659616329 8.506050953856692
Sc 2.3295753665768 8.012664200798726 7.300647017670981
Sc 1.5286117850991428 5.76096903953924 5.211503499958739
Sc 9.902497051106332 6.275149156768981 11.96697857310278
Sc 6.70739452098038 2.8570985677331406 9.798906304302362
Sc 6.609100448934361 10.408706460650528 10.85617881245243
Sc 5.888382561084262 7.022296098112742 10.877514201829069
Sc 7.140080893261604 4.732208175373548 12.371461420779871
Sc 3.3994341919615607 10.192300972992342 9.602848407429303
Sc 2.459676363503024 4.975220715488788 8.021268717323231
Sc 7.468284795364 8.102375952140104 12.922694516716641
Sc 2.991530501317032 7.157714659353736 10.271649232356259
Sc 4.258977387406575 4.410700204054055 11.06710197764951
Sc 4.6783302569871745 6.374536068515319 13.440953021966935
Sc 4.405306659948111 9.08340891030774 12.336097570698533
