7
Energy = -27.56060685 eV
Sc 9.274773945647421 7.641759629016091 5.98893013460554
Sc 7.1809562735008425 9.9104483887748 6.4685211164290255
Sc 10.52467110990246 6.409757827929098 8.171511431336214
Sc 8.602764669166737 8.609501495101576 8.717113438196264
Sc 9.850342486769584 7.340867986494856 11.078696329979648
Sc 6.623720504390681 10.793313747747304 9.078127698414518
Sc 8.050767943537286 9.452542181808717 11.514024780400748
