9
Energy = -39.77730217 eV
Sc 6.93390748297607 7.8119635550738 10.13352940711823
Sc 8.270497152401271 10.577535369969722 10.097035023998146
Sc 10.92833599070664 9.25750112987647 10.405819676042388
Sc 9.566581340926495 6.520987422137062 10.44119888206039
Sc 9.035718936671476 11.427039067112293 7.263590307582953
Sc 9.13429237958616 8.494220082247846 8.145632397413642
Sc 11.655010122295224 10.109322808559126 7.548566245109408
Sc 8.692414091209008 8.564290941497852 12.367404932605867
Sc 10.816376212466643 12.166169567451549 9.489649718906334
