16
Energy = -53.24480267 eV
Se 9.535240887956183 7.7605754560587314 3.0348094294497923
Se 8.960245867486115 5.634166319329689 3.3577330953226077
Se 10.553877044890958 7.885498484639132 5.776867075409724
Se 10.166864515722663 5.742624657996545 6.134880047380069
Se 6.579621051032902 5.900756797991948 4.08564226704987
Se 8.815735219875437 9.124344792658007 7.248921187557556
Se 6.134332136935904 3.7723612595553933 4.926599686303669
Se 7.006973261030632 3.5913924473741394 7.126476563614615
Se 7.204296772910863 7.612941050739588 7.651810615177274
Se 5.1838337161003265 3.641519463978579 8.691464642591738
Se 5.186736531766785 8.829269463590657 6.330083973215885
Se 4.142866824790749 7.823741549369535 4.612163471241289
Se 2.620703883256276 5.206623793751035 7.1525574810490875
Se 5.196518125791857 5.558479176386652 9.902255343707976
Se 3.638836288549141 8.948247456481274 8.204569927971617
Se 2.9628659309889223 6.626936985283086 8.81056626434496
