15
Energy = -50.64752027 eV
Se 9.591072158409153 8.696509804048441 4.139884190259467
Se 5.81787063994254 8.922914732187675 4.246820533124704
Se 10.134396444897423 6.382066897794743 5.115783190182905
Se 8.179792558895578 5.485460306178878 5.657150190393065
Se 7.842669268036625 9.246293815281213 5.522776868255525
Se 4.793052563710447 6.922447911227337 4.771057633893684
Se 11.277932393670635 7.747779530150833 7.051224283881444
Se 2.80761132514595 5.83264724550765 7.833005392617486
Se 3.1425255061764372 7.5813908036318685 6.464883318268247
Se 7.716375636413533 6.373314594165928 8.691772961969226
Se 11.233247234753387 6.638781541268253 9.070371802604887
Se 9.362178770038158 7.4791824725680405 10.195392972745305
Se 6.30625677532185 4.9875606053796755 9.757923761201745
Se 4.237196861538538 6.715480568515611 9.945206829877229
Se 5.1114853510739575 8.541832660117892 9.09040955874901
