18
Energy = -60.27563037 eV
Se 10.292523436512958 2.460319021297066 6.5940871407230395
Se 7.960447997894118 3.712213396076575 3.164050581482267
Se 7.438403634471741 5.924924334440238 3.3039911148880443
Se 9.498243814861825 6.906452861828144 4.182557529424037
Se 9.441267207258656 4.158745164783167 7.7363798994561686
Se 7.011858445448365 2.6749376786165073 5.225626170955741
Se 4.372060869068169 4.705844880972013 5.822343347307558
Se 8.95472436419158 8.535773286039085 5.693632387055338
Se 9.06045619998656 7.704279691078282 8.128284801358419
Se 9.15315448242987 10.191694949869305 8.674559491083146
Se 6.971621744807108 4.4352396303094705 6.717390050632938
Se 7.176205001139603 11.102514647704272 7.885197942076545
Se 7.135514048512723 6.801358902781192 8.839126073464882
Se 3.043059820383657 5.939301292458911 7.182781766421719
Se 3.4185189670751406 8.264734531597677 6.528156328670213
Se 5.677893308612322 11.42136882037458 9.699522617522419
Se 4.477096715030499 9.431188700991582 10.003871910406591
Se 2.70117014210444 9.40951760505162 8.419894246825027
