10
Energy = -34.58919052 eV
Se 4.096315364198543 5.988055585641282 2.5876388761839135
Se 7.713764721673514 7.10651574832067 3.5015774008883565
Se 5.511314640238378 7.817005717561671 3.0495858201750528
Se 2.474356770109429 5.783644636884966 4.292282143847114
Se 2.701828936578639 3.6977912767296104 5.368104504648676
Se 8.249402455268829 7.476553776111514 5.770451640852881
Se 3.40189215008456 3.9408512516336636 7.606396437007436
Se 8.633018557784334 5.415754149236672 6.852471926872776
Se 5.62053710229648 3.181182395970427 7.87330405449322
Se 6.998320030880975 4.993396191023774 8.498937924144828
