12
Energy = -40.91270424 eV
Se 4.996932690640573 7.358906278085816 6.2379329833409285
Se 7.638264044129975 7.705106172310068 3.593514404625857
Se 5.171552257878085 8.010368314678853 4.045218212542895
Se 6.287814852357004 3.9709554518960144 7.106654079596911
Se 8.24249571077586 6.0982106710552895 4.997802142645559
Se 4.387760476420189 5.025874961490916 6.278105814875727
Se 6.005075465165415 4.034261734401088 9.482864769584637
Se 9.4677803396126 8.131969633095013 6.77078818008536
Se 9.128175020743932 9.712505228817419 5.2455274829927925
Se 7.738770430344863 7.457455680903899 10.258898543502719
Se 5.663274180739895 6.278735150160442 10.024644429848228
Se 7.882446282510386 8.95521328582727 8.493944911092658
