12
Energy = -39.12244024 eV
Se 3.923473156255901 8.263659489081318 5.551999833128201
Se 5.47357035148747 7.752859698987597 8.551070110450928
Se 5.377133762192226 6.76412834588369 4.846782588112855
Se 7.659588362794942 8.435040525136307 9.208423960899303
Se 7.329685157343949 3.9607015995782744 5.357546409590594
Se 4.512307991687775 4.530901606286263 7.940405269120524
Se 9.051099790037162 7.934044243835723 7.416031163221894
Se 6.085370319900214 2.0740433680058303 5.984115519835685
Se 8.940923500108754 9.982304933157849 6.023495604083451
Se 9.239647938843946 9.368718069212274 3.9023417521807815
Se 6.4146332141584885 5.775611163031382 7.108972226107107
Se 3.9929154898425936 3.1583359924569168 6.1091645979217954
