27
Energy = -91.46478766 eV
Se 6.4064855146940936 3.5354795759299784 8.764120010907527
Se 3.7318194582469406 6.284109497716023 5.844467432171767
Se 7.568893937549383 4.77831706208719 4.827380764741476
Se 6.101904544164953 3.6033935589571415 1.58768296393775
Se 9.986910935300688 5.176615378918383 12.041649167089751
Se 7.908484074129173 4.625575277638974 2.391135887428019
Se 7.489906178100934 11.589322514100491 4.3693469854661435
Se 7.7130569657935135 8.571629085455402 3.1732131042092164
Se 7.571814814732931 11.654706970001307 8.319842227828767
Se 5.494687449770929 5.297527409349389 10.069841744506649
Se 10.386486325983778 6.250423522824317 9.792717731912127
Se 2.2755062278509515 4.395733240931892 6.247099957831836
Se 10.010650542527033 7.6222299970986445 5.806427192894946
Se 4.556841982016894 2.115696610910555 8.423757553009144
Se 3.8083902117111763 2.6339788235506654 6.23617273841456
Se 9.527465219402488 11.869985769481229 3.4756015425689646
Se 6.1957609242768745 4.833202622181214 12.267083297253997
Se 11.378845531719191 8.343774061467025 4.132564654318906
Se 5.372364015353032 9.163223011840781 9.747821971969993
Se 9.65298924852194 9.319207719525373 2.447742267364977
Se 3.243450492816298 8.335962718418992 9.258417978996226
Se 2.7798175673376337 8.114335252948619 6.918730863181209
Se 7.80114575633022 10.299587241659982 6.410187153007176
Se 8.068601321627595 6.2461626591161306 12.71476818698613
Se 9.722890329830523 5.219074204089429 5.543953078291367
Se 5.346300229812955 11.474331845572618 9.069755144330522
Se 8.904907431630162 7.887753346037542 9.58818377712827
