23
Energy = -77.89128862 eV
Se 3.180782427749821 5.613469374553815 6.5933084434623135
Se 3.112678193585994 1.964564201321151 8.881961026416583
Se 5.189205268352519 10.905389368107148 4.186373598095615
Se 2.539247215634847 5.156562074081471 4.3436334675613315
Se 5.475922343669284 1.2214566463694465 5.868392852344007
Se 5.401309071859361 6.360741759465911 6.772626208686202
Se 7.453594314065739 5.7608512471306215 3.256480532955044
Se 4.695627167762337 4.060051447180927 11.734371131555143
Se 4.61580606080426 0.41277169907436817 7.894575236564273
Se 4.097247551925369 4.018511162287714 9.432003983956603
Se 6.015527195542648 6.355062802903388 1.4391335244006815
Se 3.746636286729917 1.3799637376549108 4.2347602039281576
Se 7.037724076244981 4.640733995357286 11.550585324592475
Se 5.479387543220229 8.697230770173077 7.208753364137933
Se 7.2272872109545645 6.841868620293189 11.92140543115949
Se 4.405034097753026 7.883526845133575 2.1689096330544166
Se 4.058138925045502 3.582664781057995 3.4491254472580253
Se 6.7716001504687355 9.740102494034076 5.551857309666494
Se 9.602809677474616 6.425110659860926 2.582237941987029
Se 5.433188954494962 10.034055238657176 2.025776246513046
Se 10.031372806979219 8.631305882808922 3.271247441094264
Se 9.410245860818382 8.115278758217707 7.021404702354912
Se 11.016805726822255 8.403308218240351 5.475101503211165
