28
Energy = -94.05281241 eV
Se 9.059964555954762 3.0292113919999233 4.850963625629598
Se 9.8725747096804 2.3079250306953676 2.838550707261756
Se 10.022786775176748 6.405443495541842 6.922364622574238
Se 9.163322382431021 5.38707443722279 9.057086485474818
Se 9.142750455053182 3.882664879035737 1.1195009895033297
Se 6.762704433779657 2.1339992910627283 5.243849636948388
Se 6.977112548841894 2.774080724455812 7.534280234691407
Se 6.372090768677894 0.5032276759269279 2.700203983408374
Se 7.1152144993452175 6.259009282543403 9.399722444690681
Se 6.86765645705035 5.887794881190215 4.8952201224160765
Se 6.83797408077146 3.9572091426786673 1.3366325554220677
Se 3.5427365835064295 3.6358960435579197 4.21269172617738
Se 8.26543969752284 7.537386359222033 6.032484396853123
Se 6.119317834993664 1.658301695092642 0.7728296566784675
Se 3.972705135949924 8.922901539374509 8.36941804839944
Se 3.7523115853584534 9.011942587369324 6.056782909150191
Se 3.1054249305319046 1.798020269265922 2.9062420801937363
Se 3.6251674212258913 2.4742953231230014 0.7566217212784637
Se 5.47607481696287 4.671544618287385 8.222805964056823
Se 4.995185916634904 6.060352591377232 6.258661907501542
Se 3.5845726393196147 6.730573364012585 9.090945974736561
Se 1.368908440055227 5.0551833891948235 3.4306152894294586
Se 0.6539153707667401 3.935588052969322 1.6459714615870789
Se 1.4035801118300393 9.49813709947721 5.148057703157116
Se 1.7005489260334659 8.60179544564755 3.1217439842392642
Se 10.175965742938196 8.136889168685244 6.702120102883434
Se 0.8638380279768832 6.003466804524345 6.880292709339532
Se 10.022786775176748 4.605606457585926 5.331351032059658
