27
Energy = -91.23175674 eV
Se 9.441508831286114 5.681498801520795 11.154640201850658
Se 8.186360054552141 5.301341641480251 7.52851883999503
Se 9.969023909696176 6.131987507398375 8.935154726640526
Se 9.815533975793068 6.527664531256312 4.249279907152452
Se 8.536418386976502 4.673979338214011 3.07630937918939
Se 6.9842503271135845 0.03733426702692549 10.72043795276389
Se 7.375825103791617 7.184321946833007 6.442173592139726
Se 7.897597154870226 7.361128651219366 11.87852125803602
Se 7.668602179621572 1.612904335441919 9.191660349756816
Se 10.279191944997537 7.876905281251973 2.445430500411403
Se 5.923788281744698 3.5564394557959997 9.662093854430854
Se 8.32287885823941 11.13543319344117 2.729226467576803
Se 6.257222285444047 10.149976009499452 8.713780961864638
Se 4.448358021162473 2.3059356616752575 11.079288380280445
Se 5.641720329604744 8.09848178976378 8.081773089481334
Se 8.273454987510409 8.96381788777415 1.7664800062554944
Se 4.6435405407720385 0.1106669139312012 10.25454879422356
Se 8.161848535402962 5.4399174021415035 1.0334532862525836
Se 4.702698288779243 5.516077242509058 10.871066399940359
Se 6.113708801022848 6.04008989043204 12.654471535953025
Se 4.52821550227201 10.068134464271466 1.3095999469592416
Se 4.704367246339924 11.73867299093459 2.959062871185103
Se 3.852938974037018 6.795900823149039 3.173833448123855
Se 2.8482679542724827 7.152727865628828 5.300352972101718
Se 3.9592707509870655 8.8754419302344 6.392544902345662
Se 2.8712889257462084 8.465730386516894 1.8340732635437489
Se 6.562769892539952 11.077619129312712 4.286735724556063
