28
Energy = -95.17111525 eV
Se 6.751670846689731 1.0979607968098766 6.465120179544832
Se 9.162009157911772 1.2894099719858658 6.076016497886221
Se 6.726143652268675 0.3892240302518772 8.672548059057615
Se 9.179817799094739 1.5542637442750653 3.7665964358620663
Se 6.899482122470287 2.3226563889350618 10.066959782277442
Se 3.336215658490405 2.5272797363798016 6.207295640454017
Se 9.31419525937387 4.503825468637081 7.0236042283556435
Se 4.566133935987699 4.213924388992691 4.988247242763254
Se 7.8080053107718905 3.5987169793581124 3.3413186199792317
Se 2.230696307866048 3.5567353653907805 8.03341940135055
Se 4.751255575654383 2.870510726429536 10.835494107803603
Se 3.878522297769223 4.533188736667826 9.387161560740461
Se 9.355832042082694 4.995205700151543 4.462439598969044
Se 3.660382207964849 5.581505278673392 1.6340562680149493
Se 6.1265536911881435 5.992122247600891 3.077228590309683
Se 7.980978137522765 6.965673142977816 4.323550852902887
Se 2.432976924050811 9.477635960539299 1.2829486526348948
Se 7.048683421202265 7.124545344893816 8.689641432113076
Se 9.175047600662952 6.7303088435297775 7.672896732517472
Se 2.6993580620321107 4.5148354489297535 3.401161515490983
Se 5.427134256554953 7.625268848272671 7.0698642902519655
Se 4.43134516623611 8.679262834257544 2.098154413951219
Se 0.9273780686983897 9.55927037113812 3.2288902614513493
Se 6.906311160254943 10.070833992612052 4.616605263579392
Se 5.537101589211624 10.753153867717991 2.86398540504886
Se 0.9792861403222323 5.951963005349902 4.527929161306297
Se 5.597691872154447 9.936218128025205 6.62504256118621
Se 1.8617994796969903 8.115476307811672 4.77031613255846
