32
Energy = -106.85476664 eV
Se 2.6614282920590133 5.387439724159525 8.82705636968613
Se 5.009743903786941 3.87759511680235 0.5108104117917008
Se 10.06439570577845 6.9219794363837055 6.319377127215533
Se 4.026428799117199 2.9366302769881942 2.2859508026621667
Se 6.076808524562365 11.319748242223236 5.220387560383327
Se 5.030558139121509 7.148564254836468 4.243170218144932
Se 4.393164226556316 4.023430853983856 4.8262004873104525
Se 5.966127675926665 4.387908902836 6.74648327397438
Se 6.529493133566552 10.562390651241204 7.325789496526259
Se 4.033079988472006 6.18797271362997 0.5389179396383461
Se 7.265650414508147 9.935120473351038 3.648197141659309
Se 3.568566488780475 8.798815959699182 5.7285051973344
Se 5.642707006797303 7.339677731409909 11.219126016265845
Se 10.910368770149093 10.541298784884027 4.2551161438243
Se 2.8329026829408663 3.2101485700624495 9.301445218737022
Se 6.639763874206794 6.653629251366283 5.794178412806324
Se 9.243731975910338 7.4233976731180285 8.407873602733341
Se 9.141580331170967 11.235980122448547 2.9760297123421355
Se 2.8345110737456016 2.5789979181545917 5.543979659174165
Se 6.465655247896217 1.8605752458465998 9.788875473062905
Se 12.474430002539979 7.682961420036997 6.675963172758504
Se 3.569804087999746 4.373156674227152 12.348329440366788
Se 3.218588079238051 6.2860133636533275 11.331060021484086
Se 6.818080376719844 5.589207508880004 12.048845591258187
Se 11.30469268388377 8.27112066673541 3.199918869413673
Se 7.847032346089038 4.392517576394372 10.19552319582174
Se 9.562268209229952 7.930574649294105 1.8707606749808685
Se 4.748294482220001 8.732722847884327 7.612409577172401
Se 4.93321685678971 2.2879875819445727 8.179496376626366
Se 9.87590401409214 5.672909197481869 9.883220681194194
Se 12.555837709717439 8.306153942208905 8.797161563438866
Se 2.7713960700975013 6.159583841502907 2.3660517438813473
