6
Energy = -19.35273839 eV
Se 9.753480401092247 8.417474723216108 6.385478904102075
Se 5.580937757709704 4.077520024623984 5.834843170575457
Se 6.728730769471888 6.5931279845650845 7.908604524868276
Se 3.933325204419311 5.541927823805711 5.745960928833558
Se 4.787400619240813 7.500322087808703 7.184223045360637
Se 8.213293316300309 6.866795424214418 5.9380574944942754
