6
Energy = -18.39126738 eV
Se 6.197198555527886 7.521652290626671 8.127113341324966
Se 9.122709341117492 6.598231438525858 5.51131414578968
Se 8.085034059817655 5.8969782186836515 7.447841762652902
Se 7.022312936003514 4.3620525244153585 6.115439615098334
Se 4.51091591694278 6.62891220642448 6.76268675900264
Se 4.0638496954118715 7.994193826145439 5.037624880952677
