8
Energy = -26.97997074 eV
Se 7.496056833442685 5.001754122910743 4.6339637589617135
Se 8.825069109948302 5.696810112757543 8.311486459981575
Se 8.928055618205816 6.292346422267903 6.01938987029374
Se 5.310736462579937 5.465222264011409 5.424966694406059
Se 6.597855180396181 6.170778740225346 8.97654811952545
Se 6.135982308782449 8.973629666021132 6.504629838658329
Se 4.63877728714849 7.729643135136322 5.15479790845831
Se 5.982757079306242 8.458476653288281 8.816112260094958
