16
Energy = -71.38093116 eV
Si 9.00315812046376 4.788917335267525 6.727357000314661
Si 6.820317997262191 10.543425412328114 7.248720306125195
Si 6.901833689897091 6.488555785397673 9.606345192530243
Si 6.9053453360863095 6.068132637295773 7.017821250353684
Si 6.942558667466281 3.760781523752901 7.763988465909056
Si 8.980297780725781 6.896761186158914 8.22517625959682
Si 6.865362179707925 8.616433979807594 8.56000672067197
Si 4.8100253179641195 6.82377687919839 8.230407580083659
Si 8.93399346984357 9.069944291619985 6.996490029998718
Si 8.940319875102317 7.087528614070189 5.572371907802587
Si 4.772797675048522 8.993123217650895 6.9989254084472945
Si 6.861942707317509 8.802804849459068 5.385734390834573
Si 4.8465534907344345 7.015217651847177 5.57162515973947
Si 6.935095184547915 4.1115030050391175 5.299803675804941
Si 6.901595023808926 6.464036079993541 4.3339202549919404
Si 4.84528173125835 4.719920670580238 6.730222549857262
