12
Energy = -53.62530122 eV
Si 3.873415804765782 7.085829328720064 6.209979620321291
Si 4.397814962011998 5.585978600862946 4.35744153705721
Si 5.0518455016614965 6.542086732392767 8.296391124140948
Si 5.14273585221375 4.701603224225944 6.538458447216419
Si 5.643343053103144 8.74541977003203 6.548415888886834
Si 6.371179258878962 6.498898403812989 5.203429768383326
Si 8.72739302158465 6.020335258462628 5.485042285139376
Si 7.197471812096769 5.568780795529763 7.473726891351993
Si 7.884087200795648 8.401221504810422 5.7842088986453195
Si 6.875309842060001 8.07640482165642 8.484206607047676
Si 9.476442901850287 5.102817219579837 7.651266475170625
Si 9.135169519074417 7.518597202747285 7.703242086719923
