11
Energy = -48.8243939 eV
Si 7.670788055105183 8.967515398854076 6.239784343070275
Si 6.575767171389077 10.327390087044032 4.654618626531739
Si 8.105869510031596 6.83669232245333 4.946455933816501
Si 6.2198064266860085 8.502578979239134 8.084947344345174
Si 7.804056430998812 5.2812539321957965 6.773636047347637
Si 5.121316812367382 9.469436370238812 6.219627997820666
Si 5.734269942198642 4.010311896535786 7.20913840555105
Si 7.682420997537309 4.768925939215663 9.158252483447303
Si 5.909162405025779 7.327177663076178 5.698335279163574
Si 7.890324228683274 3.02421807932601 7.491090695357994
Si 6.03412634479496 6.116099516586517 8.17858742072035
