15
Energy = -69.13145403 eV
Si 3.924841340775323 5.52139724684822 3.4072944839680757
Si 3.8993444643906563 7.962403369953584 3.272281089214386
Si 6.24066849228636 7.04507001304051 3.089242607366826
Si 6.143827155838019 5.115614742391762 4.617078528921707
Si 7.513158955217516 7.099026707410168 5.26422528017263
Si 4.050273777450601 4.819211905319705 5.762531667174429
Si 3.171023276334159 7.097498641806942 5.451732313880329
Si 6.567047282720351 2.916528196460041 5.424740701847565
Si 5.434860984993188 6.612691699999426 6.544815708902146
Si 8.345752724438409 4.560551986791874 5.9311945805102395
Si 5.499640398243253 8.61159830055568 5.109357777686172
Si 4.685713081635416 3.0352081853712645 7.266698583483086
Si 5.2834163212114 5.28258626477084 8.53173914595072
Si 7.020333919778977 3.6330279817215714 7.78494529807063
Si 7.5622001940329255 6.0296871269050865 7.884224602198021
