18
Energy = -82.299069 eV
Si 6.173324081629264 7.665728781451043 4.607955170475738
Si 4.30081679558245 6.215978051752832 4.626700015762713
Si 5.374755588371328 6.42173503844151 6.688008217674718
Si 3.982012022491655 10.329028544550635 7.082303402557718
Si 8.248812834602374 6.705106097907444 4.118849816817084
Si 4.053004758340204 10.189224752349883 9.496326791059142
Si 6.349264078533555 5.059410166728105 3.973184218715486
Si 6.03408764048259 9.450480750979112 6.397068949848889
Si 4.911869857857301 8.325278161895932 8.277713586298965
Si 6.178501038954886 10.644751180849552 8.483991715323931
Si 7.399114153396734 8.453295024882607 8.579935930719836
Si 7.918572521271727 7.313776241958294 6.502985013354314
Si 7.515904502745108 4.2800491994796985 5.810457405503679
Si 6.992443431294325 5.691510102228217 8.249409004222715
Si 9.58111742065679 3.247501196783784 5.978012042981813
Si 7.871446173373475 3.365775830070993 8.017176841472242
Si 9.302843287923343 5.381828556658132 7.155386522006796
Si 10.244842552111804 3.6131748401751937 8.338273546817378
