15
Energy = -69.39974619 eV
Si 7.031343292024463 4.642967801047274 7.658085637681693
Si 5.484583073562789 4.696847716300485 5.516691001992191
Si 4.113738137916256 6.705651449414371 5.648148802343865
Si 4.732676893547063 8.06476182198829 7.5935548791066925
Si 6.574517448033943 6.763038246579718 6.708715313804291
Si 7.355368910028253 2.449009908913028 8.34570891373608
Si 5.0776162266155005 3.178729966025842 7.437304324496657
Si 6.1124302390639205 1.1539360061821025 6.733582816473009
Si 7.2941549121882625 3.016936016877424 5.8505123329267
Si 4.395485969261659 9.293605524477984 5.47607900234939
Si 8.154779586609632 7.658799196471713 5.097458004739983
Si 4.324293697142053 7.700749218906362 3.4795732440296003
Si 6.288230346882353 6.465833671552287 4.052068632927363
Si 6.43800153177266 9.056699974265545 3.9840520474610335
Si 6.7207389634510015 9.195573036156011 6.503842087759839
