23
Energy = -108.9898017 eV
Si 7.609470313929116 1.804920964370024 7.745672602077675
Si 5.218419152587988 4.161359577568684 6.485049543559203
Si 7.569357054526701 1.8425918465842919 5.070445127881386
Si 7.347724463679077 4.320329550391989 5.206884913563166
Si 5.281176658004665 1.6684605058819546 6.44669462852651
Si 7.386859665229168 4.288605728876079 7.695041551208499
Si 3.913703415326043 6.1579441394317564 6.53981442816591
Si 7.770510072118498 6.451801679147719 4.223708306055028
Si 7.84575943150514 6.387451756030439 8.731583533462095
Si 5.643796177107156 6.978154966643752 7.985129627570921
Si 8.144302140376242 7.167852627171282 6.482801175780435
Si 5.595667681369981 7.02005356420134 5.062592752360504
Si 6.341277551285643 8.849045248565348 6.538429291205865
Si 7.019642390157059 10.820238326844418 5.115959289207746
Si 4.557605677582791 10.632796178979406 6.5965146463781315
Si 7.067909298456236 10.777506581368668 7.995002397557202
Si 5.152635397485878 9.41062344891441 8.615064202455477
Si 8.655943412633864 9.678473202247918 6.51119768645621
Si 5.082332323000865 9.471995130891026 4.521036604123961
Si 6.098124378886822 12.502341623455766 6.597338519872976
Si 5.550537266223743 2.9216509354788083 8.575190743935083
Si 9.168414695956658 3.2013321788664317 6.408804113302309
Si 5.4788313825715305 2.984470238089349 4.350044315295242
