29
Energy = -135.5112735 eV
Si 3.648883592981561 2.315466124946606 7.9970768734625715
Si 4.460120954794715 4.201935136731638 3.292766902336324
Si 7.284099663082599 5.356755998304649 7.290962613260037
Si 3.51725636412798 9.291003420326199 5.470609541353036
Si 2.3622414747025764 4.1334789358509445 8.637676988124207
Si 3.9245697485228854 0.30570867703959115 3.9923127718743965
Si 4.940851685209489 5.94679670799968 1.7451746482129336
Si 5.44355850947198 1.9144041574509894 0.5568335319215905
Si 6.102349221234883 2.279277516925678 2.9358796128566462
Si 3.6106918112880173 5.964667689724222 6.108069866529183
Si 5.594602078235172 3.6390994056617743 5.3387769531738325
Si 7.697382158159602 2.8305006044206764 1.1783042945865179
Si 3.5624654090955197 1.943008256823191 5.593489425642534
Si 5.916834524330545 9.027029960219286 5.540561053939022
Si 1.8375767505418894 7.564728656086237 5.535376808752001
Si 6.828241243209961 9.910910826641192 7.623472969673905
Si 6.002895034790839 1.2801897667229523 5.14478210851688
Si 4.423519534130451 9.782247510622227 7.526850065394872
Si 5.804260635457553 6.685578472800035 5.507073454700336
Si 3.665530743536899 4.045570405645131 0.7285939393761357
Si 5.994210853531812 4.278878941924052 0.0044495178426358275
Si 4.990501925937803 4.253288526365577 7.559716867211818
Si 2.277369127996014 3.855791019560363 6.301301272723784
Si 6.824000559527025 4.642949906538205 2.517181550428039
Si 4.40533817500285 6.39587454533217 8.5058216402328
Si 7.474570191064593 5.191696069624969 4.898339020532944
Si 3.7376071563370887 2.133611400730188 2.288428347115163
Si 2.8558365642867334 7.965335196003296 7.655680015032746
Si 6.399689900907969 7.556256176053401 7.718130668387981
