20
Energy = -93.66815541 eV
Si 5.551019091692671 6.348846526026161 3.4804460277315705
Si 3.2201697898503863 6.326600740560087 4.400964571274592
Si 3.750659218693261 4.236446709261188 5.446617696869145
Si 1.9652839049541062 8.224313138676616 3.826781647504429
Si 4.446348983880197 8.492140017084369 4.039402408564685
Si 6.579927652259927 7.821136478675511 5.215035671701416
Si 5.738919130468834 5.5375541418614995 5.816356837457289
Si 3.494675199655095 6.086570057592886 7.012470684302374
Si 4.9629928031126935 9.489945530269889 6.378019528271173
Si 9.714545482471781 4.911973926985166 5.308201539418517
Si 9.224731991697528 6.943002208112268 6.4431131650395
Si 2.894356784575523 8.196943177801595 6.043744042178544
Si 9.312725781088728 8.49930551573049 8.241533747543833
Si 5.445502031923389 7.397028737885831 7.430676839859818
Si 10.207795527500151 4.501181042056737 7.560997426420263
Si 9.97065450561577 6.447864368980218 9.159226220901731
Si 7.810009300916365 4.853880883402067 6.764975831264895
Si 7.576741206432032 6.851788204741183 8.375432514639796
Si 10.239844940880166 4.252983853899422 9.875445832261747
Si 7.893096672330905 4.58049474039617 9.180557766794491
