21
Energy = -97.33433529 eV
Si 9.393318685639802 3.1383258900398223 3.382285215599845
Si 10.022375026782916 4.160854229221108 5.501703583638987
Si 8.227287824193235 2.098404776493022 5.062933547815117
Si 8.016850983644034 5.014016263139366 4.559569848770674
Si 7.828485758272104 7.824033351698043 7.126531949830891
Si 6.818697972057673 3.4498686343852083 3.256337198072574
Si 8.150364893348565 3.883139459120413 7.03053306485219
Si 6.892852939934685 1.9132120303120284 7.094466845409983
Si 7.940533541102049 5.827440789660315 8.443106092959987
Si 7.206551925149405 7.425090461898204 4.859504467258241
Si 5.849515902842618 6.933164766283044 8.791775429284286
Si 5.989270272660872 3.4835387899986725 5.553492644746894
Si 6.283182469176227 5.759010845199801 6.476858115287338
Si 7.129714514151947 9.02068650971067 9.038327528677364
Si 5.0212251467801075 7.819300927540796 5.682798378121067
Si 3.936895893304112 6.332938907667823 7.3150967740087465
Si 5.3988348447559416 9.820284024044957 7.687224875419201
Si 4.431112734661168 10.225413603621485 5.506186142624394
Si 3.2340457830530274 8.698974133452717 7.291655947139468
Si 3.446795633149432 11.073949849761833 7.850181512118073
Si 2.066106658328884 10.246964145320344 5.996121522977093
