22
Energy = -101.84194364 eV
Si 7.834700118482782 8.884308840293013 6.869591522135833
Si 5.964093078215742 10.413402973126173 8.319739901598872
Si 7.746575392560169 5.173032841468685 6.236872159800828
Si 9.536083791527389 5.570936520096662 9.721527965449956
Si 7.149309907506173 3.01690120852721 7.734708535727277
Si 6.011795217788556 6.871759573919702 10.010796365861205
Si 7.468172829981848 7.870634679057946 4.677696034069578
Si 3.6736538854259804 9.331331171987536 5.029013157139394
Si 9.616216798273946 3.534626939644358 8.026411118146681
Si 5.986094444488575 9.65603826494199 4.648258783724364
Si 8.744576929607002 3.0226207165528223 5.9157320005673215
Si 8.201490680698631 3.3871465595122343 9.944497917038738
Si 9.865216416788593 8.781719499463982 8.217242167080537
Si 5.858815435675612 8.073414399016432 8.001123788679893
Si 8.202477959870091 7.691065253823968 9.481808262877989
Si 6.228980681725642 5.8431185213941905 4.524204813078386
Si 8.310658315546267 11.037381287298386 7.96525070654016
Si 6.837482843863086 11.344014317234429 6.111929410921568
Si 4.515323727315393 11.131890877447782 6.620168054842422
Si 5.139737699219116 7.533026515970825 5.755749325626705
Si 9.524612857426414 6.359723348499618 7.451087257983502
Si 7.255540104997309 5.369893054457435 8.648076120918267
