20
Energy = -92.66885101 eV
Si 4.281476798498854 5.716373256563536 2.478088997380777
Si 5.047625035145677 3.3356031365646364 3.069135666735225
Si 8.193291437336047 7.297233849956529 3.4663027841765506
Si 8.89426193067807 4.9719236197837136 4.226018812338783
Si 6.361352049176408 5.696894038573213 3.6713015012370276
Si 4.861988362971717 3.9869405543601135 5.9069248893818305
Si 4.066372458731621 6.352832118445719 4.886988938426192
Si 6.542615059722907 7.444356102463737 5.297829090477165
Si 7.3044590156016245 4.96797254972597 6.384003746634154
Si 3.1273654660791568 4.178594138022145 4.1770048897080185
Si 6.955399451128383 3.356786898453819 4.68292871991979
Si 5.923748661651821 8.94337459729393 7.014907760785945
Si 2.334027916426633 4.807624298295945 6.343802472204507
Si 9.079848107313454 6.786477915871915 5.718543674701276
Si 2.183094882025564 7.200298138441456 6.070335397445294
Si 3.565340396423589 3.2414064463072267 7.724664673645987
Si 4.266079431074682 7.183198567495546 7.219410000224472
Si 7.415265557008951 7.145187920933095 7.586930237143854
Si 7.332685112177102 4.998460426807285 8.724870903138505
Si 5.0039292968943085 5.12868785170735 8.090233270361479
