37
Energy = -175.77001738 eV
Si 10.05721004088164 5.687412637226628 3.747387887127162
Si 1.778275373188787 6.805216209938799 4.713596529901782
Si 4.518541378741548 3.7593392175315574 9.33088966430896
Si 2.598349917428569 6.1882423786220375 2.536652406332787
Si 6.494423975830713 6.1318779650568755 2.1446229912828088
Si 6.694495606558105 3.7132676923273165 8.499776563975566
Si 5.380552386707935 7.473976819574298 10.071681978379369
Si 2.6675039068123936 9.162024793731153 7.647592359430509
Si 5.210070242147316 1.5583065393268913 5.822661685238381
Si 9.64634552600078 2.351452940729579 6.117276682096067
Si 8.457768051549506 5.104213096576988 9.03057400085095
Si 4.056277581170698 3.1994369102873463 7.111779069480543
Si 8.864467383951022 9.38095105879734 3.969223527705079
Si 4.671356788873118 9.07815828458089 3.8227330600528306
Si 0.5498005238885032 5.731234409222625 6.48409508300995
Si 6.7149497482173786 9.44278845662714 4.893079955830555
Si 7.33846052494147 2.271118187752815 6.813872721946156
Si 3.3056176493119938 4.405262616112885 3.8413518979958523
Si 6.819900593982139 4.074571294246757 3.2200824657876765
Si 8.237844400851106 7.154542063607414 3.388719426447233
Si 6.713956775721662 9.703438063482835 7.163543490107835
Si 2.337452037802877 6.848747756695183 7.565129751181214
Si 8.808065756047926 3.814397212295853 4.463544757306577
Si 7.434985108045698 7.187065491544186 8.951801484075418
Si 4.3804614079870685 5.977131826843529 8.446463607186583
Si 10.770359433598143 6.369313876785859 5.916462814487818
Si 3.1174494449740324 8.572404937779117 5.469469417431207
Si 4.7075296396717015 6.692057398447712 3.620337866949934
Si 9.258425928872267 8.203800823770083 6.041573058253666
Si 2.3854875382035052 4.321764349152729 5.9545297211325146
Si 8.672867110067374 8.982405483096155 8.168410589806545
Si 9.610262162681789 4.599211192213945 7.0349688249780735
Si 4.993681324485062 2.7235334787052423 3.717726855185563
Si 4.889813968822473 8.812685461619424 8.249677691542725
Si 8.268537213679917 5.997120171926067 5.55632235213737
Si 4.569213565237153 5.695425035303854 5.95233695661927
Si 6.132018653438635 3.9388825388330613 5.632829474810111
