36
Energy = -172.58445676 eV
Si 6.27023028866295 7.687070535168574 1.8991374067040727
Si 9.85249679345837 8.187376128676012 6.112907142472611
Si 6.368928077289655 4.004481231885402 8.483333826750327
Si 4.5217935090041745 4.892491285335873 10.382196531140444
Si 6.474689080642691 2.1290171077995295 4.645802296807161
Si 6.635975200627402 5.872364045940833 10.64784155892075
Si 3.5340667387776303 5.2126820175310415 4.030505538095316
Si 6.652710113532062 8.221836621354246 10.969148426660267
Si 5.592985441223956 9.45673460198779 7.07795311909633
Si 7.497073828718693 10.06333934513648 4.699277097870174
Si 8.365008955920382 6.986187244578109 2.849201256815753
Si 5.69619162960453 8.812289138832584 3.958490578469935
Si 9.316104186614552 4.782519476570814 2.889683771238303
Si 7.088544969537063 4.031700127428454 3.2941267223024955
Si 8.91802050495789 6.18183286646305 8.475284680590178
Si 3.8516259548094993 9.251087229145163 5.412360727773167
Si 3.6273284520802225 6.934203758284052 5.739507610564012
Si 3.86525191280507 3.7677999373887014 7.513642438582204
Si 7.1928593710081845 11.251977857681714 6.7370817973409185
Si 8.501716641722341 8.299727366297708 9.41622424972336
Si 4.624991214304939 2.6431739470534628 9.430185031282976
Si 9.453800617646735 8.91664788579733 3.8834113896516644
Si 7.0218121998102765 4.002181651865208 6.069041023872453
Si 4.573787135975881 3.4606179919998845 5.259986119626341
Si 5.164319606077404 8.278769145669441 9.12080805839873
Si 8.280132031405381 4.398245675574587 9.89320900558968
Si 8.740639275670073 9.644503935667244 7.564502786678873
Si 10.56862738809229 6.032557230545112 6.747944065689933
Si 3.299147002433912 6.764132740012367 9.610933588455964
Si 2.6222525104108545 5.774387255014685 7.553149847605898
Si 8.850225001853374 5.408032834994472 5.145758514955455
Si 5.500000991136024 5.634411398240825 2.762664934483405
Si 7.545286842257439 7.561961479985867 5.113257392309971
Si 7.163233879569573 7.583312788197244 7.448519749485824
Si 5.0641982006232285 6.063618326159632 7.988545918389696
Si 5.703944451733993 5.806727789735053 5.174375795603429
