31
Energy = -146.1890236 eV
Si 4.00065616484638 4.376656100500953 2.9880983600868927
Si 2.715809705675392 6.161568854951969 1.9576580133804853
Si 6.408579037481925 4.5637423925257075 2.544714809194155
Si 5.063788599672414 6.603257212117211 2.373325520145947
Si 7.826643275722439 10.669379039338665 4.706479521515799
Si 5.358182880595279 3.211217170018752 4.604185870026326
Si 5.80259910972355 9.756823147624699 5.553637340038311
Si 7.971656044741228 8.299011991242658 4.306015544119093
Si 7.09026319493371 5.048444715318669 4.778804964269855
Si 3.306793674634411 6.51592972526594 4.241912326901617
Si 5.8556824858808865 7.182644569833095 4.564714674049835
Si 3.2677765866418107 4.406728355293361 5.450019260606151
Si 9.301281470190869 4.749791150901252 5.525528328256712
Si 9.447893612172525 7.092477046042353 5.710861649355371
Si 3.7487860005059175 8.559053985784645 5.496114748727859
Si 8.511756196609461 9.353773446565839 6.595822590737247
Si 5.260508924574994 5.340955841019879 6.366909507077357
Si 4.843339739666521 9.920200342055109 7.746254197416636
Si 10.712130615146846 8.457763702639967 7.138351465405356
Si 6.712563393578161 8.578675718180117 7.879154594554933
Si 8.790594665183685 5.101059230710825 7.794269569688634
Si 2.79223370663223 8.612992027095475 7.6422219486197855
Si 4.669831239973555 7.206138389213219 7.876764620187622
Si 6.432093789781195 4.790648520096145 8.398272459495878
Si 8.134734651380516 3.2275681015701374 9.354915937066774
Si 9.93064609445568 6.974607346253784 8.914171394303104
Si 7.6366602842496265 6.942583892402653 9.235934909329782
Si 10.199481360047212 4.689829079821714 9.838841607242845
Si 5.53711266402253 6.211425048666818 10.124151766438606
Si 6.073198207604856 3.8151391920487163 10.676001382547481
Si 8.096722623674523 5.079914664899058 11.115891119213414
