36
Energy = -170.9784838 eV
Si 7.764052249527944 6.273409493443372 2.434887481021371
Si 5.556187343881218 7.013781394849 3.105066650138134
Si 3.6111904404202106 5.710984706293288 2.7287557489735255
Si 7.466818961824973 4.123117015255776 3.270069797715479
Si 9.487355779677536 7.588792702270399 3.5890918685783415
Si 5.997726888608342 9.041702872938538 4.1882812702401075
Si 9.520221413988773 2.897668076771365 3.7203396755123133
Si 5.176010872077388 4.526003043811341 4.20716407635851
Si 11.790667194880692 6.941488976718326 4.2046941397822835
Si 7.892127022152838 8.08453135117311 5.329332582334829
Si 10.373301501597389 5.1164551336249655 3.745090865806919
Si 2.826436044449549 6.7357011180721225 4.801964808116776
Si 6.989236378472622 5.9108456632790025 4.956828694581469
Si 4.4072777262369724 10.547171143082167 5.259132223618562
Si 4.664957813049077 7.972252578443177 5.856729631692681
Si 4.410768300399356 3.21964165876898 6.089413783175662
Si 8.806089851645728 4.304747315534295 5.504149415982638
Si 2.4275167144443417 8.985138919284175 5.6164511600778155
Si 3.4806189321707346 5.2870536327889575 6.5066989411225125
Si 8.213819767374103 4.155170662498692 7.76922222899316
Si 5.336928999318984 9.868688715904662 7.4642320737606935
Si 3.1347558799659234 8.560074670157869 7.880042710658318
Si 10.078847634668461 6.425523645953497 5.8311804541070815
Si 5.839779798111233 6.625126532048497 7.545947854652192
Si 5.881242802887228 4.216309420669042 7.694473291427333
Si 3.407908301441862 6.332788136019245 8.60030917439658
Si 7.346927977187089 8.521800353206851 7.578310961644292
Si 9.297703260295952 6.368821748037291 8.169623739808506
Si 4.2211283461521 9.87780006711453 9.532781903550616
Si 9.708847383837655 4.38648990050952 9.529972065825017
Si 5.152266516742972 7.602895237576453 9.952410586635104
Si 5.702006635986641 4.765333869134708 9.967015679522113
Si 8.99856619634183 8.441902291090884 9.274005805276365
Si 7.418926438812669 6.926882134030864 10.221257851923149
Si 3.7756459161469387 5.845366526635256 10.88695923706378
Si 7.836136715222782 4.798539293009876 10.988111565925555
