30
Energy = -142.78047981 eV
Si 7.743661613232792 9.271774235924003 6.722574423421794
Si 3.995087555344441 10.76983961304242 6.854177215076889
Si 7.926160378457467 10.812471471715927 8.52442882178206
Si 5.6055396146047105 9.438473571065174 5.494663575159744
Si 7.325822642391928 12.42445302295371 6.83970649656166
Si 7.733079055738993 10.91454022834108 4.959453857528678
Si 4.991849539791494 13.205889488554757 7.036304555564121
Si 5.673714703789569 11.529082272481777 8.667881170507888
Si 5.520777436304313 11.815671095768066 5.063505729909155
Si 5.610093701488886 9.235376812455444 7.944951211773964
Si 4.708778381708505 7.535438410745125 4.364993128527392
Si 4.352813403932029 6.542471363971581 6.520434569326345
Si 3.812873604504356 4.23729433005607 6.341007196178878
Si 5.3982979682375065 3.042584999812864 5.047360153632102
Si 5.398484240951118 2.85600741294529 7.432965893561465
Si 4.647875515391405 0.9148185817330917 6.082251820888108
Si 3.010083398420115 2.1992496746990153 7.444594454504456
Si 3.0109525155961614 2.393099300963412 4.933279035766228
Si 6.850801359959671 3.8088119406984955 9.044621522920737
Si 8.584589698426207 3.438176536007287 7.486396868695301
Si 9.695399125569017 5.246540139472101 6.416739263956138
Si 8.584799657286027 3.6219844226622686 5.085107917829413
Si 9.98308222660565 1.8845729305876766 6.15908023646366
Si 11.064141778046562 3.803793905793395 5.019148139161211
Si 11.062695272071924 3.6066924671734726 7.580872318469802
Si 6.852217761778452 4.233007191054533 3.6033840133105466
Si 6.493094412073205 6.125469625223578 5.0962973069216355
Si 8.15260586401326 6.978365799669089 6.555591512448354
Si 6.491820321562185 5.909277835306989 7.863223031403994
Si 4.708065060888287 7.1940291272889 8.804262366915049
