38
Energy = -179.38252869 eV
Si 6.065920414976058 5.317156558953308 0.26572329474985856
Si 6.384254561330145 6.831512973417955 2.1483196852034028
Si 2.336065536108846 3.5973399292760235 0.8406349964920566
Si 6.481261715151992 9.156396003911219 1.6835373701943783
Si 7.792995588788583 1.898306065663137 2.6814723146208306
Si 3.574725296027177 5.42796150781143 9.49581321921053
Si 4.037806244797743 2.2748105589473404 1.846501759376226
Si 6.153203037572442 3.285079599205814 1.5354871814744435
Si 0.7500592497723301 4.3068851496113325 2.551814586287235
Si 4.158173853234166 5.918743852847606 1.8616727868095915
Si 7.667185393523669 2.5573852020390926 5.084669888817491
Si 6.216550723811603 5.980663974301588 4.3687926502090395
Si 2.600256510642619 7.424598220092774 0.732010289241914
Si 6.295138019352457 0.5853411600664814 4.010065076747641
Si 4.34016172149162 8.408426908245309 2.0718154469065695
Si 5.800313403971104 3.403607123025614 3.8704661224340917
Si 3.959591744094949 1.1351059196681812 3.8897076736236555
Si 1.446161835761549 1.1173490404794482 3.68387922318623
Si 1.7214155020148976 6.4415193153018695 2.759907156906408
Si 3.051189074557188 4.259981009162082 3.1145085353073125
Si 7.4863222714090085 0.34176235490898893 6.0532784218742055
Si 2.4366289618841384 9.337896140561858 5.076691133883159
Si 3.9064619314252145 2.4421367761271693 5.9542067282419895
Si 0.2960057850436246 3.0497165189536792 4.68458387931293
Si 7.641465076450454 4.826689345624933 5.9337400055828375
Si 4.21778628173289 4.735662608381401 5.112310986890266
Si 3.7864868758143446 9.337896140561858 4.272251283339685
Si 1.1187890285541342 1.190539763111504 6.196096781804485
Si 2.052090351201575 7.734207087201264 4.708713591977031
Si 5.437980538425058 0.9532916466475647 7.060467810846299
Si 5.606986270487522 4.917575197940378 7.169143090076449
Si 4.764054178570343 7.567997109447807 5.474303618313084
Si 1.8976879958842692 3.895453539485347 6.280731048571026
Si 4.918855923988126 2.920339542677357 8.214027472444053
Si 3.1113010509072345 0.23614181459514294 7.369374846388937
Si 2.5258458506060064 2.5264527785929447 8.177934780027327
Si 2.6635239750231636 6.181656385712908 6.421690439423541
Si 4.457969424154297 6.985495437085712 7.777838733889067
