36
Energy = -170.83839989 eV
Si 5.6019561140584715 7.899366001404616 2.1163300540639467
Si 3.7142904141595894 6.350230560193457 2.7760417581855914
Si 9.293071227823402 5.721209750788364 2.5529672598258784
Si 7.90278874579894 7.642430589230086 3.0311133672954162
Si 5.238516524871362 9.753707106211047 3.549569303477774
Si 8.785227615862393 9.781735797728283 3.937850303308945
Si 3.917347975228868 9.333710899024355 5.410665901672495
Si 2.7719741465796055 7.351329905997761 4.929377912953255
Si 7.671445606256699 4.758951223050868 4.0055968220992675
Si 5.260014771103697 7.383247769142652 4.502859778221838
Si 5.316219791454464 4.862821652733225 3.921936869871146
Si 6.808590095273692 10.317190872323549 5.215534816766174
Si 9.876777681077723 6.3844973979625195 4.743175757860994
Si 10.218308229387395 8.586721197983078 5.455475909804743
Si 7.632801957998745 8.066453934907571 5.347108493782759
Si 8.710826185552511 3.241332898407552 5.6309952328031
Si 4.585972722129776 2.2782501470543703 7.360041874512247
Si 7.219457008167344 5.2802942024822785 6.3348619482083235
Si 6.8849860362143795 2.9830585560080887 7.161619319346938
Si 4.568906733375549 4.200233514410918 6.074492588719213
Si 3.2798665806964293 6.00029224935605 6.868538278927729
Si 9.57858631254258 5.255530222744487 6.976882961573198
Si 5.142847587942057 10.73462796422284 7.00932570129119
Si 8.952639819608173 7.611365777192609 7.240520710734401
Si 5.474548366449315 6.870210398112119 6.96504350581175
Si 6.227298253323901 5.567432833302601 8.934730339195799
Si 5.7879007386879335 8.778721555881742 8.328526296111333
Si 9.948560728423885 4.8242574932746844 9.453472676895306
Si 4.256312412993071 4.037209106605962 9.017158844457613
Si 7.816887535519194 3.7578216268375266 9.193895636654249
Si 2.5992968447637708 5.799276721136938 9.188154317494758
Si 8.083028445707622 8.683669620323608 9.120143272225656
Si 4.570899713021367 7.188849782274121 9.672843081626807
Si 8.21364328842639 6.518694017026908 9.988482527256577
Si 5.907390390467931 3.9315461496871698 10.701535321656264
Si 6.180813399049717 6.263720504973784 11.283131255305893
