33
Energy = -155.80062408 eV
Si 8.686577931796057 4.938250913497055 2.564444328490875
Si 7.089133246097114 6.655947807790932 3.143977150261563
Si 5.268247418538943 2.2077061020773905 2.218703836018931
Si 7.039190664040956 3.3829058588945835 3.238263736528883
Si 8.059318152649793 8.2426107683478 4.584315193920901
Si 4.829362977189019 6.382143097029144 3.8033347648130946
Si 6.479910746013909 1.2010791591115175 4.294955334899804
Si 4.85579390912423 4.027497510066329 3.9147026563351237
Si 8.940297083714253 5.616288136009063 4.846868417207492
Si 10.349359272094926 7.570720406336717 4.808983825118014
Si 6.542201017083368 6.616200298572623 5.640725962594174
Si 6.994785169031589 10.268866368635015 5.228098482514043
Si 4.5607696791156505 10.149174409728118 5.469383210882523
Si 4.044671159240225 1.7773330081389396 4.223715201844456
Si 4.503867964707977 7.733332672264717 5.749636735077525
Si 6.030268514380047 3.1102858072105595 5.72373083991446
Si 5.642579219552159 10.019364196958268 7.507612653295456
Si 7.566020063459033 4.74776068989958 6.621681127624208
Si 4.470565236361326 3.7272070990236643 7.479255144759524
Si 9.595739910383513 8.275599786219157 6.929095215221564
Si 8.226250472844363 10.567410949396454 7.236315195352924
Si 3.939799251808776 6.081087423684262 7.397131166627718
Si 2.2302892045942317 4.56143355776167 8.253164935110048
Si 6.812508441409513 11.24271884079129 9.092123034917835
Si 8.316769042023994 7.295560122330711 8.595535048656211
Si 6.344114731700723 8.590489702615034 9.243211598963686
Si 10.3269941213654 10.172181881017227 8.135358941065222
Si 5.6202072812562065 5.223850970377988 8.956700103197791
Si 3.908721980082796 3.694380977199403 9.853536562751207
Si 7.9734047050575185 4.980196175903092 9.004697695986318
Si 8.795126425575301 9.27953608678564 9.792793910032684
Si 3.4947923957319937 6.146961809154058 9.800768584953166
Si 6.947825026834426 9.999379822031967 11.132641819922714
