36
Energy = -170.5345581 eV
Si 7.996904046939627 8.726608707650165 2.621790149793789
Si 8.565560810737008 6.282090018197035 2.568395689776599
Si 6.653445317616334 5.049409081720866 3.404615810465313
Si 4.35110399173064 5.509219650667949 3.4933326317746745
Si 3.6900863789067224 7.714974189198861 3.9492836686834303
Si 2.9315131851960254 3.735847479071785 4.087089298713414
Si 5.642495680015653 9.15287114076136 3.5619474786185856
Si 6.958912292178373 3.0765408009635142 4.68124050714158
Si 8.946275988679172 8.651224698997279 4.859118831980464
Si 9.33215795551447 6.294156976087058 4.99239675397353
Si 4.808373093216375 3.578444463618095 5.607279709833622
Si 7.023426537787962 7.283292325930713 4.33920932319835
Si 1.5969683911036774 7.686580855356321 5.218775397639253
Si 2.16992074805688 5.3994512989942605 5.644684183495579
Si 5.089080505526617 7.59490781143967 5.819919149498136
Si 6.268662449728878 9.784439443546914 5.807577734400172
Si 7.877199020885019 4.676143069944662 6.1748107950279865
Si 8.397979365403351 10.27543977443583 6.598711425633339
Si 4.173222025350091 5.586176690382337 6.990772039640726
Si 10.87968642144362 6.1318849666802775 6.822189183177974
Si 2.897386758780617 7.99568724926798 7.1788642456890654
Si 6.761258293192933 6.487764462994788 7.20494816675947
Si 4.649505133966081 9.486421690245805 7.556277237535362
Si 7.873121470534442 8.455762959497152 8.07794800395598
Si 4.2887825501355605 3.3696290468429186 7.994962563897235
Si 12.423682751508261 7.298218551313797 8.380125366484345
Si 9.949998896233975 7.44624989988041 8.59812598923158
Si 2.1034384624872464 4.496156256872442 7.926531715364734
Si 7.617955454203732 3.964506545514297 8.501560226862484
Si 5.768522751543069 8.150443662817974 9.142003159607858
Si 12.09017298684958 4.7676242861893625 8.470368967605015
Si 5.613304310511737 5.296387011000149 9.046873379544214
Si 9.67088516470719 5.1159359886458375 8.68228888722598
Si 3.0232140166734713 6.490061793559254 8.967120229710936
Si 11.243847531628079 6.2497074015495455 10.28752745072986
Si 4.671949261028882 6.739739750164188 10.74133464733037
