45
Energy = -214.25544462 eV
Si 8.263803829556965 8.325278079501686 2.651590474884402
Si 4.9030132420277965 1.8450255977527898 2.0236055800038755
Si 3.4059273286654785 5.480607265959564 3.2093776656495634
Si 7.51537654323959 10.263662605378256 3.667228910397676
Si 5.424452636352226 11.62088064756023 3.7939269750427935
Si 3.3086254880317023 0.7877992279530202 3.6129811786694495
Si 3.8337216199926605 3.2127857859394946 3.7493758423196963
Si 5.470822077487183 5.751863139056609 4.441344267607023
Si 6.525090085064527 7.887294735902022 4.319251848981118
Si 7.606641631982602 11.988840132626686 5.289654223114114
Si 5.732238658157405 0.30009680132565286 3.8277143632884694
Si 9.477672877736259 8.307554925512436 4.742944687361026
Si 6.1778782411063915 2.724713079737211 3.9061025248659584
Si 4.855696967990438 9.51674461656883 4.851231142093738
Si 2.9034654393312795 6.19079637059254 5.4033510687373445
Si 2.969084994226881 8.467644117765804 5.91722352480472
Si 4.630990291230412 1.7423595184631515 5.4765863492591045
Si 9.878391229977863 6.836499629427625 6.7654838156383565
Si 5.312212690264953 11.659607470998495 6.1804409260431346
Si 8.552444481605704 10.044382735683788 6.376628181859727
Si 7.6177415566004685 4.604567340029477 4.078348426402323
Si 11.072736281859797 9.907160174063845 5.497384519918824
Si 7.657918194398052 7.614268135996422 6.363795326455797
Si 7.87581670936176 3.8437576891494762 6.2948311166236515
Si 4.61691681559094 1.4042637327742458 7.83168036943048
Si 10.614278126157256 10.607485056671312 7.696916590227999
Si 11.738069181790152 8.28619964833785 7.33456993996182
Si 4.94726520103635 6.613934141359669 6.75217133459777
Si 9.331271065009297 4.792019546322503 7.879229230580557
Si 4.394075323920403 3.7424471547109857 8.187008276617544
Si 6.599215256739516 5.065011455046236 7.933480559068504
Si 6.718238471042512 2.4641730079461324 7.788113751278327
Si 4.880204072144246 9.552035130552152 7.335566091200099
Si 2.818283546425614 5.379096910251374 7.6052762161619905
Si 6.913180792849805 8.784443544642134 8.231314981529286
Si 2.683425395952736 9.236707699176364 8.172743956953914
Si 9.872530705158306 8.313218665479626 8.887234656804983
Si 7.474540875390535 3.373321678552004 9.825568871818989
Si 8.567840169958677 10.31631316481579 9.053370633722713
Si 3.7409195079567517 7.169074505843676 8.836751012694595
Si 5.401804458105891 4.522885005104613 10.172284299176887
Si 9.791601562483478 4.086901385899778 10.0751469992376
Si 6.682013612625286 6.8777951486951725 9.636579808747099
Si 8.9762911129146 6.344040861198591 9.830553482982387
Si 4.766958564943208 6.645129648118294 10.994722911628351
