43
Energy = -204.834674 eV
Si 8.105416528849597 7.0343359564213905 1.3912551379079443
Si 5.7101922742037186 6.9625690848230635 1.3382995839740779
Si 5.14076470954288 9.31175931579406 1.4724998919515861
Si 4.9597294094331215 4.923477299328772 2.1353094155550862
Si 7.198373237536417 8.83084266505131 2.667507705265054
Si 8.803801246499438 5.099601777508837 2.778928999329062
Si 6.889314228128282 3.70087541797616 2.779927247160101
Si 4.750460461084748 8.579805792567234 3.6581434736346186
Si 6.743384891658013 6.372256474831363 3.5420602206494145
Si 3.103084231623382 4.555326590962942 3.590021144781027
Si 8.217410591075504 9.621432577280386 4.641075232214195
Si 8.839523058053576 5.599625450168942 5.099527789829656
Si 3.5255093686333137 6.740743719433618 4.491464338688563
Si 6.400202492437947 2.404101851664747 4.680544772370338
Si 9.556197091758973 7.880344153607725 5.374045867526681
Si 4.025417196118248 2.787173445898274 5.312449411041827
Si 5.5347643534242765 9.658678807780646 5.643205185054352
Si 6.987422653794034 7.634534787603965 5.852816264189938
Si 7.320498301267866 11.138039942758176 6.2675381503913545
Si 5.373304645073366 4.71995732293748 4.717385235645634
Si 7.304947022334692 4.056340521665428 6.279021527414817
Si 10.249279108088944 5.57690615720151 6.962550845523956
Si 2.430532298150332 7.256836893706002 6.5158046262474185
Si 4.829659310065128 6.512409273588258 6.592343991952967
Si 7.61653773124941 9.078601898820395 7.749457226566615
Si 4.935277999102905 4.078249030191063 7.243917936312326
Si 11.390667131630229 7.723807260682872 6.964120881937654
Si 9.084158506357044 3.6911193616967157 7.872951488054529
Si 7.8961432301896854 5.903937694662313 8.108255371814188
Si 4.029983445592677 8.85597034705454 7.269772310728559
Si 2.8775449090074643 5.396923900196657 7.9547221239589625
Si 6.429718294614244 9.445021574055312 9.863310479931007
Si 9.545729945002076 7.731658499217585 8.4554394538178
Si 5.752211224860534 7.391279207864949 8.69075021289162
Si 4.035407340966193 9.096240652611716 9.598015817894227
Si 3.6577917880029265 6.72530596370933 9.790590281618298
Si 5.567944868309366 3.431021361026133 9.557939142410163
Si 7.847299426785469 4.100565155617429 9.836279050305421
Si 9.01424101630203 6.4439993220492555 10.388821241698052
Si 7.0477740956634145 7.516685538632047 11.025017337629057
Si 5.300611247461919 5.43425584764838 10.783056575049184
Si 8.791851598978688 4.642799755018233 11.956583592201758
Si 6.6799174910857 5.854582348682905 12.607273416879536
