41
Energy = -193.35487114 eV
Si 5.861516472631975 10.043351330318576 4.238516984653799
Si 7.454881735448201 8.53303041427776 2.7209029897245114
Si 6.552549496549531 6.361109691900809 9.778268381041983
Si 7.857569976574104 4.238935861446189 9.904818987519807
Si 2.173324128868304 7.070629075601955 6.89788566816811
Si 3.323840216710803 3.1240385921570697 6.241413100473889
Si 4.497304135734979 6.718434519515804 6.077431150465014
Si 1.7469999326254946 6.289052808988047 4.576672389022042
Si 3.619218206950489 7.684851527419168 3.942069306104944
Si 8.850598775772227 8.371286046995797 4.788327231415997
Si 5.568850694239961 7.027538970822861 2.6917902298349334
Si 4.745020907063457 8.05650616010301 9.767109389737358
Si 9.005851715460155 6.642443939458684 9.683541825357999
Si 6.423941218757269 4.872889522753757 3.0942023950312016
Si 3.509539988706227 9.033312296971669 6.3483109133269995
Si 5.075491234457412 4.6193818934538715 5.123102898389907
Si 5.631926267214184 2.515327797002487 6.239141860590725
Si 4.792921297208592 1.252472144707493 3.8838736585047458
Si 6.8281288827933695 2.290340026623845 4.102759378092991
Si 4.605000460330306 3.281733119304665 2.671406662410725
Si 4.951275150549412 9.867649922308425 8.045153978107146
Si 9.07803773527878 9.744940245543845 6.731104495906222
Si 9.867359187366082 5.472110470158899 7.3741795938002825
Si 9.154680428078022 2.5312910653516623 4.499178826239607
Si 8.476986243453283 7.559580110982852 7.5356849586691865
Si 8.656469760110197 4.8252129358905504 4.0529935939729285
Si 3.4234126893159336 10.050778057879114 4.140335651641005
Si 7.025502472571693 2.5687432151772254 8.221376401741592
Si 10.239829994648494 4.603795673826408 9.637376920317227
Si 5.989338763951401 7.602287904857717 7.677660756571311
Si 6.097887271033729 4.798708550293269 7.914918032950892
Si 2.693307479447794 6.717666017824278 9.391691766069872
Si 2.8415874902928833 4.1371505906002835 4.169193274939362
Si 7.592132635938653 5.771806047664033 6.099082712783592
Si 6.707558320715023 9.719911442737065 6.454438982689853
Si 3.540767178376296 5.058185368976452 7.648561063795941
Si 8.541352763365195 3.550856988563423 6.604264019083118
Si 6.53063184378332 7.6295659634809265 4.886868082317183
Si 4.362416963338243 4.96659429761742 9.87631818267488
Si 8.064464886374612 10.650327272470701 3.5467763639888457
Si 10.24478785166467 6.348560508436198 4.935209665983353
