43
Energy = -202.84444192 eV
Si 4.284652468178252 2.4851152399274223 9.83101441027023
Si 4.562510284717326 1.0826129425400879 1.9672932706721948
Si 2.672433603567579 0.8728039628218892 0.5004118151559833
Si 4.314581675861097 4.794512197088489 0.46739978105429886
Si 2.5136290014935865 6.1440978764477885 1.2882177616059778
Si 6.677952686100515 5.0583485173849025 1.423091544454063
Si 6.364016579757368 1.2319764280224186 0.08461581379659332
Si 6.9078629480479945 0.2605545063690411 2.2482520848008862
Si 1.9622277902737888 2.2825430651370584 2.2768357589800905
Si 4.467356190945409 7.120728771464123 2.417671587011555
Si 5.271108614597314 3.327879430968575 2.560106361118616
Si 0.7736740979266153 4.353755493684071 1.9637158887267196
Si 5.5807224744470645 6.806377603253285 0.24272141151569532
Si 3.0799884215109112 4.39641164333508 2.915097979691331
Si 4.844809989253855 9.801623332196758 4.116228455811448
Si 6.081806301311252 5.771207213364821 3.65020350479331
Si 7.8068698079635155 2.9325355868455083 1.094355825704944
Si 0.652945133446994 4.503756337340105 4.341785386104791
Si 8.229235331452566 6.713276039623547 4.280905370992499
Si 6.540620667183453 7.605700811113443 5.682330534213372
Si 4.8608336744064635 8.617401512442312 4.346292520583581
Si 7.500463164124866 2.6727121298993044 3.396884130505803
Si 3.1057621380418516 7.380148531478135 5.4224290557632155
Si 0.887595317763779 6.533208398870925 5.50699576244907
Si 2.8902252141557545 4.967439359172354 5.267194748879752
Si 4.569716711639859 2.078750122407742 5.4013601767292245
Si 2.4498891007660784 0.9763548244710093 4.2793554641469225
Si 7.027552834655705 0.9064333994506419 4.931266865087784
Si 5.641638457554817 9.074303272880844 7.448025774771645
Si 5.36836203701855 4.408932006892684 5.520263468698391
Si 3.7136617383127764 9.801623332196758 6.137385376848645
Si 1.2870446974815428 5.707837846356034 7.7357627184533655
Si 7.969817779000149 4.4316260765732 4.905370005646883
Si 2.6857749902375234 3.7873612256858156 7.525396588544308
Si 1.6129804032623696 2.7497407776879745 5.6101832686819435
Si 5.445343551730663 6.318505756010434 7.404223515832245
Si 7.159799175520356 2.852699896188204 6.42122306253407
Si 1.9580898972570209 7.281883164986887 9.415529183556536
Si 3.549173342215271 7.809391164558608 7.697932498967146
Si 3.5436491620551056 5.565955893255242 9.163003956842605
Si 5.525386643350198 3.561354422358233 7.968362858515104
Si 4.000289016249124 1.8025803715616222 7.7762558971728275
Si 5.894643732711716 5.318068591044663 9.517177629672801
