40
Energy = -191.54321667 eV
Si 3.0359175793505426 4.496854420111733 4.99442063486008
Si 5.069912171151083 7.427643302000247 4.038575300494408
Si 6.710259343837663 2.5846799958835858 4.962389295219208
Si 9.939422632575186 4.181590897860482 5.003194226696929
Si 1.0787446831343912 6.686236882362459 7.7716745886454515
Si 8.106300280674933 7.536680934259395 6.851165546914093
Si 8.913167665560307 7.41669116236587 2.786958300696131
Si 10.553776913545967 7.57856232982116 6.563100259763663
Si 5.093072453138944 5.103933336370223 4.059619821385263
Si 8.73357153522091 2.463121324095094 6.044914839158544
Si 2.8208370526645865 4.972210534547898 7.5909503096247395
Si 6.674673501325954 3.7840905688334483 2.902405815807011
Si 5.148695863522236 2.4242502003456416 6.681673954331913
Si 2.729760586244878 2.767135977368368 6.616231816132168
Si 5.701191158727916 4.73439228399999 6.348104627905799
Si 9.138916528265348 1.889906949894302 8.32623351876056
Si 3.076996581642713 8.42318470671659 4.756586271975442
Si 7.762446116800814 7.50106258542363 9.373924845540644
Si 8.244322199591958 5.3619220217715835 3.8152312220473505
Si 6.912428388870972 8.585074687937391 3.265684487952593
Si 2.956218073000724 10.341908397104321 6.107442873659511
Si 9.57301170286531 8.704888067093089 8.41438629567445
Si 8.085405007877156 5.171844706520002 6.33294843584849
Si 10.55979866548859 5.223254872860734 7.035481949368274
Si 5.024850950642698 7.911554937090585 8.256378770006133
Si 4.927461247218912 5.604653735404391 8.393000313827121
Si 6.037019981339093 8.292995187320905 6.045722046126685
Si 8.876459644346616 4.30232825202808 8.57405869965852
Si 2.044246197363235 6.531224992620047 5.6227045570307315
Si 6.870680828331292 2.544190656191465 8.32544124208286
Si 6.413245517752236 4.352156337369681 9.686771695522033
Si 8.313547715784996 5.501794963556103 10.55805585931097
Si 2.865465229112679 8.279542331138508 7.3343236085616805
Si 9.278853415318773 10.94607251940924 5.206321655031646
Si 7.050430143797851 10.420382650946586 4.722378089285628
Si 9.37509854320649 8.603685029282174 4.772358711674134
Si 5.359836373131138 10.565143368276406 6.3686393293402705
Si 6.476708262343016 11.23199685659764 8.415695193186068
Si 6.163203485441886 9.221183015130947 9.774484993547402
Si 8.304045779791188 10.329974022090239 7.300365997346907
