44
Energy = -207.6798314 eV
Si 12.251746988850305 5.470028857955926 5.612871459278428
Si 10.311913687530684 13.247279608684325 14.182864097655365
Si 11.346745373438916 9.379566110574737 5.075046737187755
Si 10.570370873500325 7.109934265275888 5.1143163080709915
Si 12.634326392829239 13.569233824921255 8.987681985981554
Si 9.204095261429755 11.98160174440619 7.479257894090223
Si 11.387277217981234 11.575723367396172 8.628628924538951
Si 9.36299272263922 9.542695332100458 13.4522688883084
Si 10.375910426982742 4.8425506122222215 4.282641621920627
Si 7.516823764769757 15.095201522171507 11.271612037380141
Si 9.325749839657009 11.899565469404651 10.048283433721073
Si 8.219046627751618 14.011621136350065 13.280760577770781
Si 13.657986109584607 7.180642433225915 10.469941929991787
Si 11.661574073028955 9.528564498953902 7.43091917522274
Si 12.822883405598487 14.873846400091375 11.230331620831125
Si 9.61736058674817 14.298949615821229 10.373656455672958
Si 10.881799350672125 13.049255384120858 11.915542240805042
Si 7.058009114346192 12.255541605787432 14.43221894761066
Si 11.415438259023803 15.54378199428381 9.385743585937927
Si 7.702956730927442 7.163581443461492 10.994244807617786
Si 8.689630637932046 7.4469192939266495 6.662236855109402
Si 12.646975008253877 13.886741656307015 13.44117532552087
Si 11.759657903415471 5.745989393135454 11.280824878685399
Si 9.958863101965829 5.182566307578004 6.671094618300063
Si 11.991381286096141 5.559452371694131 7.925050287741955
Si 9.170929852591891 11.205581045145124 15.180431357232669
Si 7.927555306496842 9.760986663759057 9.721587629361343
Si 12.926837799414457 7.314517787572411 12.734846052159096
Si 7.043162623813878 12.8131628111684 10.892234827578346
Si 13.44333221302494 12.342018249573421 11.704820417165765
Si 6.481231507530301 6.631914555455888 6.807243838628825
Si 8.58098847813155 11.628761019177814 12.594658290041014
Si 11.935043563861894 7.644849642940031 8.927716660105075
Si 13.333815181963562 4.8310793294834165 9.798691036094187
Si 6.024426006833323 11.217958649841187 12.451658040061131
Si 10.110649332896713 7.399937135503017 10.65878322653242
Si 7.456577114350433 9.298278883409347 12.086982590216808
Si 9.595733982053364 8.645135226653295 8.572452986713524
Si 7.153577300131256 7.625046050495066 8.728915801431663
Si 9.364130147753613 9.847382271549227 6.348325798706816
Si 11.61937654992813 10.960810492236211 10.986790759642448
Si 7.1479884244602045 11.792874262757456 8.720099114933543
Si 14.686130752234055 13.705741139789033 10.228533424615721
Si 11.208379802515557 8.899272083793646 12.105015801022434
