47
Energy = -222.88715417 eV
Si 8.305013539731593 2.912843096831923 3.958385588821449
Si 8.519454504264864 6.641980446157453 2.6749298411177556
Si 6.169296807605784 3.923810868467506 3.5034565371896833
Si 6.167504541059865 5.202622484333403 5.818972877779591
Si 3.923906303455147 5.696688347050984 4.982573419014802
Si 3.821146273110691 6.641402767372974 2.6695673358675505
Si 2.5697586049170607 4.686398525876526 3.198594571944938
Si 6.163113018319004 2.767830338417181 5.827501313629344
Si 4.0359178683677905 2.9063211855697877 3.9572911947826057
Si 1.442991529742697 5.596412475447263 5.11759504309732
Si 0.7694882868724092 7.921466359553907 5.068041142791946
Si 2.7184695931481877 8.423639804751279 3.740707618218034
Si 2.5504910885372145 5.173270872936135 8.43961032125972
Si 3.700868758351386 3.626546343059295 6.377972397336854
Si 4.18802178586881 5.180609447442106 10.202845088644674
Si 1.3608148740961779 3.8194667892475564 6.874039706037156
Si 2.825195302744775 7.558423775123613 6.258638708047232
Si 6.1704729818197945 6.18910841924135 2.923193143834773
Si 6.171445288451732 7.783593550559204 4.701055456431731
Si 4.737849942557325 9.035471502908106 6.290652494826788
Si 6.171174064086912 11.496911834085513 3.368923743003098
Si 4.786472117943822 9.659208361752473 3.927096231467562
Si 2.401174703824064 7.548580930245038 8.655565591899984
Si 9.510144224973272 7.554799832750688 6.258304995814461
Si 6.170874538522078 8.24071225941739 8.111764148139875
Si 7.602737110511296 9.038020930556506 6.292477169211633
Si 7.556845060643457 9.660292545498669 3.929392846166241
Si 6.170701418457251 9.204888376568721 10.280889929463916
Si 4.441057815547405 7.555584792773122 9.940214572227653
Si 6.16837374863134 11.024521185426162 5.762178806081922
Si 4.755926309558315 6.121381759020975 7.908560701681731
Si 7.585157168318223 6.12369303442513 7.907089623526128
Si 6.170650479061558 4.256551700260628 9.163976669048852
Si 9.626383865142262 8.425592243704328 3.7392333852125135
Si 8.414832278420025 5.688150698294357 4.983245837779556
Si 7.450498630504364 2.4411485989891464 8.124483178878524
Si 9.940397572763652 7.5505407043928106 8.654735394056473
Si 8.153479093431203 5.181849796126229 10.200969536050664
Si 11.569644102380185 7.9190725451423845 5.074271564506102
Si 9.774258471316157 4.687469918003881 3.197301324653118
Si 7.901670569439375 7.556699441392892 9.940957243271953
Si 9.790860164133338 5.174861448951575 8.437436642285384
Si 10.896569569303502 5.5945924466267565 5.120690031099103
Si 8.642688363708292 3.6195742466704464 6.376469747886418
Si 10.98135219852016 3.8180858022499393 6.876535298959059
Si 4.886648767194038 2.4391538831385664 8.127981792413257
Si 6.168527343990558 0.7304741187554872 7.053951222326879
