45
Energy = -213.31327334 eV
Si 6.75165582016419 9.723594281034138 2.4831960989467907
Si 3.3125912401930604 7.299535849229391 3.2657676781865845
Si 9.176312693686162 2.464934316860296 2.84036016947842
Si 11.01666858966982 6.442926926577241 3.045192034225705
Si 6.9085398948873715 7.603552809683181 3.4808817768621485
Si 7.361851846290678 3.98553643719529 2.983556642942024
Si 8.728997424308853 5.955072200597716 3.706430415491889
Si 5.274028464227941 5.796912076825959 3.229149567679391
Si 4.722625291258901 9.172410304994298 3.6728235085744125
Si 10.47826612975613 4.2084193073608684 3.7756668633760637
Si 4.372033173944883 4.033897133706537 4.563075560590657
Si 7.804061572771008 2.334561865547373 4.880882667912926
Si 2.4348004596154533 6.650253263444668 5.4186935444453415
Si 7.842444605626489 9.995553831535519 4.668022584903267
Si 5.628446296877925 2.2828361896724325 3.5803143233787935
Si 2.2314583300021686 4.271534991334581 5.4885402150732405
Si 10.617932276534125 7.097821323432743 5.353292039585703
Si 4.880708269219908 6.979640190159668 5.3113652327944125
Si 8.201749122817189 7.670808795264291 5.573258708175294
Si 9.952584566519745 9.388213967347466 5.72463925549558
Si 4.858741688043826 9.286257314909424 5.958058940959949
Si 9.59584250168253 4.632097128493251 5.856937983531666
Si 6.183453513000288 0.593684989209504 5.161358628946482
Si 1.1435870662423617 7.045416771124791 7.397522410842615
Si 2.6899515132561413 5.2622830774144225 7.567220334208504
Si 6.771997238533411 10.36383835864771 6.825358830079997
Si 11.03583309618046 5.7493925136348105 7.324966336746456
Si 5.572272217706267 2.718710765252064 6.132427723601538
Si 7.505819523723212 4.018037524073526 6.828420039568191
Si 8.571049301642065 9.148165989520816 7.681756474476106
Si 3.9845584290815586 9.669845161348734 8.039690298568635
Si 7.223503280900294 6.473550317907847 7.342773538245116
Si 2.6825819999868745 7.982534632461022 8.886260515982595
Si 5.464738083269524 11.432051934286076 8.661389442102871
Si 5.385258605027854 7.55129277206217 8.461462283400644
Si 4.157120715028102 5.693661167543377 9.429521609016664
Si 9.070639880959284 5.685107668586726 8.71119128551793
Si 8.027802072082109 3.511410487039236 9.104905673261916
Si 8.724523812170348 9.437684910037605 9.999525385566
Si 6.323817551700189 9.552883304299954 9.87676831585078
Si 6.370075997203388 4.952576057737341 9.988839951302843
Si 2.9679169313917892 7.081266526976937 11.064886628252268
Si 8.376320626222144 7.178601491829613 10.306275768897391
Si 5.242798011025413 7.8205393439909905 11.001409834517519
Si 6.872631328803635 6.301684783042425 11.846553931671405
