40
Energy = -189.985619 eV
Si 5.606397356564123 5.017973930147355 1.2597680294026279
Si 7.72319980232544 4.879948258545658 2.3400704210574075
Si 6.200266506079426 7.112997345049545 2.3553490819152425
Si 8.535241099676568 7.062496566720024 2.2670340439808854
Si 4.340997671035132 8.584898189646378 2.7864209085674188
Si 4.953027141036593 4.975058408814646 3.5191960640547673
Si 10.161263213987635 7.926024857890418 3.8027850651854456
Si 8.575843380280318 4.134986851182383 4.368218597128317
Si 3.48204214593478 6.7143946181282015 4.049725615439544
Si 6.954314618772875 6.1459717413823185 4.678744329198036
Si 9.96459857797058 5.893915931138203 5.004001458090414
Si 4.846659538479126 9.333036633622148 4.989365142692864
Si 8.396190365819029 8.039165579159938 5.3850395869447105
Si 4.644436721206842 3.4076486202353315 5.253554511653337
Si 8.550557166265385 2.479029413942488 6.102902637257786
Si 2.4221209613463115 6.879166417420039 6.083027095677715
Si 6.127375449905449 1.7880240421786224 6.217734427841167
Si 8.199728739798395 11.271102220183522 7.344704703500313
Si 4.902244166357654 7.235492261824362 6.135126007495157
Si 3.053131282572419 9.122377436878603 6.5440203496460025
Si 6.914708058761152 9.800767889601518 5.982972916370998
Si 6.718015389233001 4.259972151809085 6.347241610135467
Si 5.625285669763695 5.209418136065781 8.392112958899622
Si 10.551728476503024 5.6907295052761455 7.23396106162865
Si 3.5909941654207524 4.296313938502958 7.174645436488456
Si 4.357476085227247 8.228093059175233 8.267309807011355
Si 10.087207335830676 10.086828194947095 8.085599443038978
Si 5.079936118776159 2.6950358028403683 8.16747019515496
Si 9.47575897107474 7.780899405963486 7.501478274588779
Si 3.5200594979941684 6.183404889823495 9.144639161359422
Si 8.816513436188934 4.195061213858703 7.778733005507736
Si 6.654924383488396 11.764576444617322 9.184144263141683
Si 1.6138973104977004 5.401780850211072 7.8410719172675325
Si 6.343312745009905 9.48251856125023 8.294098620384494
Si 8.440626152340993 10.27726820710506 9.74547819709465
Si 7.1499148171861755 5.977860177867024 10.023544114811312
Si 7.959812541500611 8.012709262484487 9.236911511739423
Si 6.074783551128021 3.3502622023720194 10.11758010421573
Si 4.9591077127340135 5.333644328689654 10.858007892721954
Si 8.426301675925336 3.9691464534476983 10.136211431708094
