46
Energy = -217.21772163 eV
Si 9.10389539145545 4.809007755848163 6.857316808533583
Si 8.35494160068459 4.809759385290585 2.2762730753838754
Si 4.339951467393645 1.3277256019681445 2.29372607191391
Si 1.142579312469233 1.7269764240009664 5.9867123509932325
Si 3.2607516163660115 6.862373452146431 0.736534064218595
Si 1.5260041511057936 4.486792764063157 5.935697336113051
Si 3.62774516458658 8.604101136026834 2.427697661279829
Si 4.9419315956362135 1.5497497411122878 7.529116973880172
Si 5.758074311053421 9.527161407704192 3.5159622440509275
Si 2.7650547070447176 2.901010389390111 7.456542406547814
Si 1.7441157177709627 8.742219333980817 3.887053780966452
Si 9.467497093151147 3.2211925466404008 4.958859504377972
Si 8.505808977035384 3.5494442663932797 7.366709830423769
Si 2.651457437252246 6.412636747245782 3.215273345201394
Si 6.444345848890607 0.5201739594126922 1.0948049114879177
Si 6.932486877912209 3.5220792019492553 5.3718753170043145
Si 2.8997789976486996 9.22247280827132 5.927050585969798
Si 4.7024577245171715 3.6616308603493226 2.850753734861812
Si 6.325155629410438 6.788564383751958 5.148017484542477
Si 4.937784338615805 4.0015018387120485 0.4715144523540292
Si 6.0863596438010275 3.722046343260075 7.868588396528589
Si 2.798642085620416 6.561581015905327 6.405625438355577
Si 5.08867589383383 4.973727324114502 5.982881965511492
Si 7.30473838896659 4.881007506246483 0.023094908663660027
Si 4.5163006661226435 1.5713986333397596 9.658001365319292
Si 3.756068781786959 3.2151411156400638 5.018680117111999
Si 0.2638112124775312 6.991892405889683 3.4638627477283364
Si 6.873607732145009 2.4476992961821504 9.502887472514157
Si 2.3973691498216967 1.1811399363994717 4.042141327564217
Si 1.2948758540775642 8.155106944301176 7.44182479129603
Si 7.424593685203603 1.4967998821016126 6.767179443773766
Si 3.9978722583436057 4.992412961373658 8.161196952060099
Si 4.540909741670984 0.9507566194091597 5.173754700263344
Si 8.472776846706548 6.637487648942533 3.9616936246889902
Si 6.198245614876524 5.560226494452561 3.0613121871722093
Si 1.1309864909785667 4.435180987931719 8.423811499439253
Si 2.763553162158242 4.5465258572493745 1.5268829991621362
Si 5.65506970820124 6.446811754472402 0.8911814530478869
Si 7.21879478864258 1.375245063502467 4.367410915214425
Si 9.054019083366288 4.522569531326699 5.071245563760415
Si 1.7274312832434 3.545584159491266 3.637568924052006
Si 0.24558626463391295 6.700987139116214 5.840187241644507
Si 4.243763893909778 7.738501512287749 4.586407895630334
Si 6.851992242418034 2.7965913474328143 2.1343703266681717
Si 2.31743629609771 6.5001059799233865 8.997228057166678
Si 9.10389539145545 2.7193263243104195 3.4426818661165437
