50
Energy = -236.92368006 eV
Si 9.22616285010035 3.1586573712734456 1.6752502227528683
Si 8.832316665370898 5.332085617566219 2.5756027491373414
Si 6.944192371898894 3.680569204968951 2.160457750470677
Si 8.64084702340566 4.270043648778515 5.368499691074318
Si 8.785669072728348 2.185529932435474 3.8605681642978382
Si 7.534127329044355 6.474855049984142 0.9030515119772021
Si 3.4438815124751305 2.436667944864905 0.8920197507266806
Si 5.139536348196607 4.3336026885617684 0.7307672641562567
Si 9.505930088711029 6.389010685209853 4.67451136489043
Si 6.400554389047385 3.9963839388405575 4.617398909633371
Si 9.83205007087573 2.1157627135829684 5.941968501174148
Si 6.401132824776949 1.665606868185217 3.5835940587278343
Si 5.7744286868519 7.913437594393673 1.7711291435558396
Si 1.9673975312253316 5.798109899387379 2.7058901590563336
Si 7.919507533145992 7.58797934806177 3.1332417238173114
Si 6.166747197371149 1.76778467145976 5.952498195945623
Si 1.4734413545586331 3.4052657154602133 2.0735830430420026
Si 4.141298308722894 6.229439431636226 1.7802209708698296
Si 9.002181983850479 3.9607320977505216 7.735770472633325
Si 5.686200048284499 6.331696165499493 3.81063933794491
Si 4.04937476942896 1.2956066920072566 2.9492043768394676
Si 3.3093894866267455 10.101993988227955 3.2387268902812534
Si 5.809220080239676 10.03049708185625 3.036458986305208
Si 3.8482882586428566 3.801723136987574 2.777664953645068
Si 7.334169806644812 7.059354253219602 5.658356984775294
Si 8.008909600922118 1.5954563751040007 7.482978635465194
Si 2.0483490342020807 8.03147692479255 3.7191065664181377
Si 4.668869918719394 8.456774879757187 4.489551274030727
Si 7.389148796096577 5.908174106518812 8.06228619145409
Si 3.439224088769199 6.249858560263534 4.755563146429035
Si 6.80667378622065 9.4660588798672 5.421909656869185
Si 6.485394096406668 3.5447728476835665 7.8647321820373195
Si 2.849191821266343 9.802467081305823 5.588640565411636
Si 3.9027616108774232 1.8202530313875767 6.621165820100736
Si 2.028871866570394 2.24238062931361 4.235368305125186
Si 1.6545465102671404 0.9480983300254713 6.291402993616375
Si 5.456501702039799 5.4042445071112715 6.569457702527417
Si 5.1795153949612205 3.602444667522496 9.902887970245995
Si 0.7599297024210546 8.620262343156265 5.654909167769046
Si 3.8947844720050555 3.7688581145000657 5.15799047150334
Si 4.058048845122563 7.096309125939893 7.602600319330793
Si 4.792898146269941 9.19904491100553 6.789198284610645
Si 5.289624600289758 6.019625264313846 9.34693229223855
Si 1.526891575355555 4.592314883087543 5.147413356739853
Si 3.711439798746186 4.077115090500117 7.876439789094712
Si 3.601333298800726 1.9203238838152947 8.983707339110392
Si 0.14164914873477896 2.993304132018437 6.369744721149437
Si 1.1880718852698327 2.173305340093095 8.461620693745106
Si 1.9201007856174521 6.743592154541358 6.634062164010328
Si 1.3828881990595763 4.656585714851168 7.776906474001943
