51
Energy = -243.17526244 eV
Si 9.974595376714808 10.35722849114954 6.791933572436141
Si 9.363845082298573 2.6012378507344875 7.0246906799453885
Si 6.134740858100036 9.831789364668241 6.255441913964249
Si 4.8883339831400185 7.361937757464073 7.415239045778692
Si 7.059474042954887 5.02163671949112 11.165260156854036
Si 5.680683539011855 8.250235461044689 9.788712307618557
Si 6.524153949483572 5.028420504440242 8.63787416071438
Si 4.285613302723726 5.1502010963222915 6.313840014918342
Si 4.575828652635605 3.1998145941528504 7.833966285809298
Si 7.2464897778198205 6.986671167342875 7.4441389768774435
Si 8.406549762886922 3.854164761157399 9.56938833203695
Si 4.8281278013933875 6.229638445011803 2.175820955492119
Si 5.820858576441289 1.5798789974748777 5.432149230345896
Si 7.272967771210618 2.3907876247599047 3.7161313695899163
Si 8.561505504423868 1.4993449807130776 8.976409652662216
Si 7.716145174246347 7.042870884633851 10.096934001844401
Si 2.6214606678931807 6.247283609750778 4.618304445279615
Si 7.792949683661747 7.328321329331326 2.50926659835538
Si 7.278051824250605 3.559683903147366 5.904880172206485
Si 10.465016767715639 4.63080634194953 6.720508239254899
Si 3.206762888000605 3.587001599406544 9.764371287249817
Si 9.854144645486905 5.554343497293669 8.71668327786301
Si 8.04699618210912 11.667361649020085 6.132972993380753
Si 9.190922860597086 8.32672493001854 7.818300873560996
Si 3.8660239949763446 8.188919173128967 5.3678357373356995
Si 10.14021224794864 8.233729673295741 5.597974013801108
Si 6.039905906684143 12.16513934143824 7.362151913019792
Si 10.052417974890854 7.562399895747485 9.895619054725728
Si 3.0184989831398954 7.378491450502484 9.007975171558138
Si 4.795650196490742 5.2925157779464715 10.344788245291648
Si 2.4675665044105854 5.225951741874656 8.244714070983026
Si 5.828497237245648 7.398461518749056 4.012893749081742
Si 6.847876337466577 5.6826212733566415 1.0048931932119811
Si 5.083466808953799 10.056222713913813 8.344412266748995
Si 4.83544763380287 9.931860078596463 4.057257824119707
Si 1.7531179269968995 4.571302159677243 6.1037227519494035
Si 10.873501041290744 4.7256371488075315 4.382089695428461
Si 6.620739830759973 2.007056762515084 7.65038158556544
Si 3.9904984339090683 7.418287667463207 11.18426389347832
Si 7.02729723067825 9.560145140055466 2.9895590037260216
Si 4.198845020560368 4.322311131819035 3.959302130376867
Si 9.350933466240004 2.879649722162616 4.699953453382762
Si 7.739642083087631 11.88831669277597 3.7581519030881116
Si 8.142983920453156 9.401166533960726 5.130274745100041
Si 5.631757254458243 11.985740658019628 4.967060637322193
Si 6.532628986612954 4.653028664287821 3.1972435345588863
Si 2.5947404399683656 5.272145647323435 2.462971142951897
Si 3.617807445823709 2.678953893221812 5.647231626913924
Si 7.174977664856133 5.870732265948029 5.288709750793141
Si 9.239449455490455 6.478429675821085 4.245285472749625
Si 2.9866484746576822 9.199061255246882 7.463017515996983
