54
Energy = -258.86035389 eV
Si 2.876679870262585 8.557967797676064 2.8869587430344956
Si 10.783267067667351 6.634505546354345 2.7805901748871444
Si 8.546339149990851 5.971389638395256 2.4265463337582274
Si 5.375562103504059 10.612120209630246 4.329787716255957
Si 5.285139856338516 8.92839740098448 2.547400901107762
Si 8.273654880048037 3.6489377455154983 2.2897867347020453
Si 6.497957312757802 6.890828655153567 3.2525725765687836
Si 10.001379042748159 7.544216360803514 4.86765559877721
Si 6.522772181734535 3.180335657608628 3.751924800309725
Si 7.260909927253402 9.744894582477576 5.514209951339016
Si 1.8579794339196145 9.501192009787921 4.872113239838879
Si 1.5192682325635571 6.549649084884002 3.0650925557698487
Si 10.160035952281993 4.4839710405110775 3.7550913234427656
Si 10.217606720088849 2.2982168054946377 2.8241430681356565
Si 5.2133514363574385 5.063678017899734 4.06555563144312
Si 2.852482142801925 4.96807459342555 4.24337614922771
Si 3.8075930675916214 9.914324462737284 6.129256131016214
Si 7.669088028093712 7.283368647161255 5.33367449715564
Si 1.7321697667218974 3.6195169731992625 5.805920529151517
Si 9.443958652996992 10.030501545144846 4.513035532301507
Si 5.24558811949586 8.22843547716814 4.962086590049902
Si 6.6138690881560755 1.194174194434885 4.882689343060179
Si 8.806961225573804 2.2145787221152453 4.754818384452814
Si 11.076816743451323 8.992127394548543 6.477798995039049
Si 0.4483563070194797 7.42911867759841 5.110477723869878
Si 9.735544696701767 5.219221623194523 5.948846448633907
Si 2.9543877532179854 7.325986995801422 5.006462101227531
Si 9.447877236413559 10.73411690952145 6.709404231503766
Si 5.916390404112934 2.4354854176440495 6.797505200602817
Si 5.5021910488160986 4.996594276627415 6.416680634184798
Si 9.45442426883874 2.7500761118917927 6.972437975289213
Si 1.7303041034149407 5.941187215999522 6.5719798343994
Si 3.7757438509178836 3.350525300663235 7.04697800530372
Si 7.744542032826054 4.538341863133416 7.207934433817941
Si 11.20880929477081 4.281519338522568 7.570144717910362
Si 7.517189009043271 7.822968026599191 7.639701670487793
Si 6.650869039184005 10.134620166928373 7.818127889389938
Si 7.644234689686777 2.1816410318822834 8.429940223353528
Si 9.791603599580395 7.964909966682759 8.236971467889576
Si 4.297305738145736 10.507164136017776 8.346744245947603
Si 9.722225683400152 5.667664459111511 8.850769362485648
Si 5.597754839728713 6.594919006921854 8.226382422461622
Si 8.36889839488661 11.713648934376678 8.576449970525374
Si 3.6607552461531934 4.78626279206758 8.8880231863536
Si 8.531422953467773 9.546399528483006 9.478763947464259
Si 3.967555795539812 8.170027812897347 8.808369050950484
Si 2.1478886225699583 6.546222381030182 8.842612733185412
Si 7.601588076100348 4.217759564858233 9.646245398002126
Si 5.514616078705608 5.116227463989741 10.243484313589233
Si 9.18942432585546 5.209900853442482 11.080901855632945
Si 5.267751171449102 7.844848191917476 10.806283474504243
Si 7.200237596459007 9.06326669916085 11.40587007086892
Si 7.458458763934894 6.776323117698235 11.592060023134623
Si 5.311219376662068 6.07764957222868 12.391361886208324
