55
Energy = -263.35837495 eV
Si 4.734654535204913 6.125040718104723 1.2975827685056562
Si 6.771165396648553 5.194963175278575 1.9946195702627783
Si 8.184953079279895 8.78126364301392 1.8772624801649729
Si 5.815311496010207 8.291588442211511 1.7209608260998797
Si 8.804829844149625 6.438066870974298 1.6702095950322058
Si 6.771749965179407 3.021318340114431 2.919096576341217
Si 4.7043910180631485 3.1501937848797317 4.120026690194542
Si 4.255827078084687 5.555677951325579 3.6833034737071255
Si 3.8263058622607837 9.301250088490331 2.4729489339923787
Si 7.3470837906592275 7.052670196052353 3.5649835495682063
Si 9.943691850251264 5.938200132118577 3.707500915935745
Si 8.743307097772796 9.061541462221523 4.270783335538461
Si 8.408327192178792 3.073181269347878 4.6410236271782965
Si 5.0151643771916135 7.8240801855541395 3.977851813223505
Si 5.860376160784622 8.963157647378583 6.003187689714591
Si 10.679089609110274 3.757380528939342 4.2853396787901
Si 2.490836172192152 5.5703356794222145 5.250932759381888
Si 10.803547003293506 7.983432454632466 4.65194388474317
Si 6.5397683561002955 4.795768794222014 4.70691830944368
Si 4.449840491323807 10.38528737482587 4.499908811656693
Si 5.852618469797622 2.9084409089180387 6.2064294456739155
Si 3.2871499949449197 9.37213420377294 6.295312376189261
Si 7.899734425561587 10.267133000791791 6.109500016291267
Si 8.657858388301555 6.894201027217436 5.622569934236618
Si 7.776716493262582 1.45977309528875 6.336849382270527
Si 5.825320680669149 11.593476359780546 6.110029044365438
Si 1.7375449653577613 3.4980143780857866 6.212855955309658
Si 1.850024738389808 7.459639025661503 6.426792162550521
Si 9.903638303185033 4.762278952248371 6.24645025446325
Si 4.074760497455925 6.240656882253379 7.08661216239189
Si 6.468304467610228 6.741276896516017 6.867220140846456
Si 10.725104302082958 8.163864110783456 7.097319584758072
Si 4.762135086236761 10.188639883479562 7.827405031129097
Si 12.377955763671718 9.505087070995007 8.33089384342426
Si 8.819822487679199 9.20303428897428 8.062161566086402
Si 10.767288348990242 5.951239088986034 8.075227694250973
Si 3.2748393661236603 4.183662353142436 7.921391440981826
Si 6.862357696921632 4.866579466974468 8.257746074491916
Si 5.499876948094299 2.8464018290863824 8.5768195401207
Si 0.009063320034383648 7.227599512644755 7.887985794448319
Si 0.7343538117492386 4.895662752815632 7.8294903590081075
Si 6.9409081149119345 8.028758096728861 8.857009342410015
Si 4.201634458538048 7.3700077856587765 9.224076496777313
Si 8.579786657173424 3.3277442682721663 7.665297277245265
Si 12.152750066885158 7.398616152648332 9.352321567088449
Si 1.9077549525347173 6.849992533187801 9.206781796529475
Si 10.447621788376644 9.462205607697802 9.808108549671159
Si 5.2776688085662 9.340819091104015 9.959525336500288
Si 9.249923089957113 4.79202809037279 9.480733284825401
Si 5.1913112354106925 5.344879893928021 10.096673856149089
Si 3.7667520250795268 3.390893250984462 10.275346450856233
Si 7.359895752077379 6.226703990440755 10.397064632001996
Si 1.6565146392154704 4.654601029611655 9.984835295671637
Si 10.2842462008428 7.316015221920127 10.70595006533725
Si 9.166543278566232 5.5035411599167725 11.782828956169109
