51
Energy = -241.54373279 eV
Si 8.898358848544293 10.75385931411927 6.373401971610429
Si 5.027049399731782 10.898861799850515 6.522166027852304
Si 4.615048543170889 8.373806493897876 6.952836790807052
Si 6.281970220374009 11.26614080666328 4.496769138973516
Si 3.94219509270898 10.442993163051604 4.232334431961217
Si 4.094356205002383 8.078284489940636 3.2895904092489436
Si 2.785316711513803 10.010184129360638 6.391783706961939
Si 6.258107500347354 8.990216725904066 3.7582539496535983
Si 4.9520578125525025 6.790793020627268 5.199469619868233
Si 4.558196437628371 5.631045200610264 2.926745373077808
Si 2.784191478798583 4.055016363163057 3.322267294720574
Si 2.623418231861592 7.728080410005834 5.336021844489919
Si 6.944107931134349 9.263145073932764 6.2474419181422665
Si 6.765390726692894 11.007750256998985 8.146515816004024
Si 5.937961908996201 9.025327067454848 9.274381151468384
Si 5.0610148225284055 8.17389775897886 11.36856987553219
Si 5.9720049072267205 5.363402086167657 8.53400550685128
Si 3.378877875521786 9.067887647042829 8.869888238235541
Si 3.1312017029400594 5.269998943501843 5.374572613977082
Si 3.736365093281853 4.895282050449414 7.707468417783755
Si 2.1540864981042436 4.886395454647365 9.552013444884105
Si 2.4722315137868875 6.978807256911049 7.94855505267471
Si 3.629743841909708 6.693869652204379 10.16134798271999
Si 4.820455889186923 3.1511955310611297 4.186842520940033
Si 7.139682113553132 2.564052882161323 3.7918393642493493
Si 5.484197946320443 3.586310712980984 6.429436230609935
Si 6.911170047954214 5.548767342846873 5.978877394610547
Si 7.554216500414932 3.641031378150489 9.028081954196963
Si 4.442503066034053 4.228313507239474 10.288491791366887
Si 6.277891296383205 1.8766418063723325 7.9382235581094704
Si 8.757877854820865 6.325645577855948 9.646855053706911
Si 5.913383749851508 5.946419741809672 11.01903038404426
Si 10.276657480957311 5.793674284348073 3.8468505714564025
Si 8.440647362986732 8.700519276835955 9.884523602597424
Si 7.960607195643422 4.714448787104019 11.197857992574997
Si 9.824216325007166 3.632370921105555 8.181296163709963
Si 7.718701529869649 2.2279258084667877 6.097706746287994
Si 7.315815751869737 7.3498816505562 7.944219720040573
Si 10.607103229483144 5.858155993140767 8.246283828704058
Si 10.80494620374542 7.903830474244678 9.645555997031854
Si 9.133895191756997 4.709955970327775 6.121978868398588
Si 9.62615524193452 3.5162316781260654 4.023370583488627
Si 10.104140661216325 2.3810197406688047 6.135471686976173
Si 8.442608299805578 6.354396276012021 2.530424127176456
Si 8.312280120357741 8.800492414607291 2.5522733622550775
Si 8.128521514200875 7.470836633511057 4.692811972777827
Si 9.605134962841445 8.908827278555831 7.773293080619241
Si 10.168963009487218 7.167257443980783 6.262731293413537
Si 11.655624348751154 7.69018844506881 4.5160752877854184
Si 6.773205957044379 4.984285864371704 3.597728945199098
Si 9.749662344885515 9.275795337071635 4.408986033114531
