8
Energy = -31.50781693 eV
Si 4.774514454475862 8.774194959589133 5.873925907273158
Si 5.742834430037602 9.522773320119189 4.013568102098407
Si 8.211853672993355 5.808503866056238 6.411924761514563
Si 9.504007885494211 4.347351211850319 7.341592463262483
Si 7.3504864836319275 3.9076716335524098 8.18406089603672
Si 5.947403687426402 5.503938514607494 6.936386853917741
Si 6.759177932286424 8.059285942813338 6.710824319132999
Si 5.105685584921365 7.420461312994503 7.959125790235184
