14
Energy = -48.07517231 eV
Sn 1.5355144119842628 9.528507516079928 6.893387867726951
Sn 5.298365091711117 5.277080436298101 6.907807732462752
Sn 3.8537551941131025 7.963172112955831 7.2961985682837
Sn 4.554927508523027 3.3129063185110033 4.728641121052845
Sn 3.3425645505666504 6.283781190954108 4.505746555586918
Sn 7.353065935521441 4.6608021755899385 8.87471291078846
Sn 8.109590857379787 6.637367650990551 6.637006512033312
Sn 3.0115171234368447 9.18427724388411 4.428520351718039
Sn 6.32488836788163 2.2753703283745406 7.054592094451048
Sn 9.3159646719466 5.329861465373029 4.157098539654231
Sn 5.835462910607954 8.57413783957448 5.0930145674796945
Sn 6.401226428378271 5.804183611889272 3.965549445356791
Sn 7.470877997592094 2.8591373806368168 4.118394644615057
Sn 9.069189929039908 3.5606212935719896 6.66830177451599
