16
Energy = -54.54617291 eV
Sn 8.945015709034639 8.502913298103461 6.151125586487566
Sn 11.373781544769793 9.619405151296933 7.590936633513492
Sn 10.476731996466732 11.830489073420637 9.32388661183818
Sn 8.286920470551594 9.984411057916036 8.682108080180761
Sn 4.600465070885607 4.521591049820337 7.3687176581298655
Sn 5.602183557606172 7.69191674804107 6.548665348870409
Sn 2.9092553966868184 6.525250858667822 5.847802151675966
Sn 10.822906646249992 9.204654598229968 10.648814056928078
Sn 8.305347707121909 5.4700408925064234 6.318005748059166
Sn 3.1644124470346933 5.562164197179156 3.1114039079231905
Sn 7.718859056853461 7.897992081703645 10.886480995358422
Sn 10.274099433875337 6.399393878329172 11.373974931651743
Sn 4.846750818524766 8.014188798929288 3.733599518880057
Sn 5.666772736031238 5.1838663555679485 4.638518521433144
Sn 6.671486684290136 6.100576433905982 8.752394210902748
Sn 10.024469469711226 6.999341028809508 8.52815635845051
