14
Energy = -47.60641541 eV
Sn 2.486109423840883 6.579876663961977 6.241510867169094
Sn 5.183359461167901 6.565802942579684 8.043023055544102
Sn 3.010954864102348 4.272211131499294 8.025161971878044
Sn 4.285242566925293 8.756235986389044 5.802308210008549
Sn 7.162674845121808 8.274153490779101 5.55219537278728
Sn 7.256804262624272 5.231566875999892 5.85816595516352
Sn 6.063816893039122 3.4975799085693584 7.864449467408501
Sn 3.922076380141819 1.8694446656797579 6.456690857849286
Sn 2.66160133551219 4.004132271232282 4.761101123256831
Sn 9.84055335329073 6.4957986615553445 5.96946037813795
Sn 9.53713207903807 8.687581211064474 3.997750113842583
Sn 5.673469113692196 3.2191143408303105 4.350933538280472
Sn 4.697620627180189 6.2034176556880185 3.7761899947615376
Sn 7.97654652879063 6.249112384010539 3.1793679485019783
