17
Energy = -58.56154458 eV
Sn 3.0179578895821546 9.38736513324974 7.012549582239153
Sn 4.686407112594417 7.356156358967737 8.230732162570268
Sn 4.674030143300939 8.691785067587219 4.667221173836628
Sn 5.601181640224088 5.186252255526856 10.058122520667357
Sn 7.222931230626681 7.184285420972787 6.630562197114994
Sn 3.649346043507904 4.3543737301534575 7.782212910149938
Sn 7.632258530306818 8.538655791596826 3.8742941559621995
Sn 5.058596294708801 5.569731383315433 5.26339824469613
Sn 9.747255115142655 6.660398970478782 4.991452701556078
Sn 2.313469049457538 6.683508738085976 6.04044942529254
Sn 8.421182653155658 5.348887265573135 8.740612123176513
Sn 8.205730308726695 5.704521381877053 2.631757532628151
Sn 5.336394358105571 6.7912617729563625 2.35057218818619
Sn 5.042249477877516 2.5165900463575466 5.7799366578344635
Sn 7.897690999831427 4.233932984221888 5.69368463871646
Sn 6.681002389810418 2.9820975728003742 8.277149677788522
Sn 5.872841637648513 3.8066578220362604 2.9484054104096247
