17
Energy = -58.22336655 eV
Sn 5.7728380475404135 8.780007900248615 3.1591814329104317
Sn 6.439853753554893 6.100470935713979 4.8065384053830265
Sn 3.8770754353535413 6.555403302710329 3.4659800615521057
Sn 7.578831737553586 10.93326644001043 3.9079471341266876
Sn 4.76280187139993 10.963267546923296 5.072833831601699
Sn 6.814383084057782 3.8560684041688726 6.858714915514367
Sn 8.738613921195304 8.132801252179059 4.340255571981775
Sn 6.96139363865521 9.366396452008022 6.507573627614412
Sn 5.502120941507122 6.333081715735711 7.933587422735743
Sn 3.9942984078762875 8.148834473764074 5.983472277606291
Sn 7.8590268038784545 7.560436742280347 9.301482668140434
Sn 8.068852394230188 4.134969347760079 9.597183174628519
Sn 7.830474202421809 6.001998538962469 11.904432425003655
Sn 9.554785471788733 8.662413740913053 11.33641736014333
Sn 8.928015511447482 6.0340529525233935 6.8812437002897555
Sn 10.460015386928221 5.931975832930203 9.940037696605573
Sn 10.593952643020291 6.249826016525357 12.833173659502267
