12
Energy = -40.78366422 eV
Sn 8.234708619209291 11.698788917501584 6.331947416945888
Sn 6.60397302759336 10.076334252701905 8.507309582844746
Sn 10.848641340890012 6.9122719566633055 7.897132358300805
Sn 8.114679957654609 7.622182225230471 9.590045058156592
Sn 6.278992432997287 9.568616099094067 5.621467298267778
Sn 8.829788595050276 8.518145409417643 6.4144664074442534
Sn 10.094612097795853 5.827575925358125 10.810917454803569
Sn 10.972463373398352 11.070240959208027 11.17062665151758
Sn 7.906293987254142 10.516552717925343 11.23492609937553
Sn 11.709176185040922 8.28182437565551 10.296024542712411
Sn 9.784107593676303 10.626255797131483 8.555681972948918
Sn 9.501375415048757 8.33279763480217 12.431880904869422
