11
Energy = -37.04778584 eV
Sn 8.56211852624382 9.439746413713829 10.711199990735228
Sn 5.4814670794133065 7.58031087782016 8.461505196802934
Sn 6.086729237129864 7.8604026819545085 11.270783987145434
Sn 6.97045920663206 5.4797805837435085 7.101899160500835
Sn 8.980383883582506 7.13780655204337 5.81007905627093
Sn 11.766496510782856 7.375148840516034 6.130823802931975
Sn 8.524004608801965 6.5495145250009115 9.409210935337793
Sn 10.200826382402376 10.046491456516796 5.916258905435682
Sn 7.965859757615316 9.47720463562818 7.629887961233734
Sn 5.928045447865767 10.475931205105773 9.463320513386254
Sn 10.819132438998182 8.644303918175481 8.639560901673491
