19
Energy = -65.14891298 eV
Sn 3.3262059633405094 8.427085987601087 5.464031829398673
Sn 5.832133804205096 3.9622653101590597 2.731578096990501
Sn 5.525255959635664 1.2085941975174412 3.6232898098295476
Sn 8.745226216984237 7.803046901671734 6.606911093895078
Sn 3.370914224186126 5.825720905984754 3.5712181184573346
Sn 5.699825098368596 4.3819883222517255 7.695711288077401
Sn 5.93434510942779 6.9609817245378895 5.776854658147349
Sn 6.976404295663126 2.165031152003306 6.0471976917915615
Sn 8.573812727974666 5.134318864494188 8.499994906909425
Sn 4.9786358329892755 6.2319370205270435 1.0631517927718328
Sn 5.299921573081656 8.486481291040711 3.0468966722515907
Sn 2.6375383860704833 3.9468360412862626 7.556712803966114
Sn 4.042537806021572 3.268105453664124 5.105885875728065
Sn 8.077256511104274 4.841615348225117 5.426836031456012
Sn 9.266617325461013 7.704947571783439 9.723593810978514
Sn 6.579932689017637 7.667607204784528 8.842824243088467
Sn 7.619478857372684 6.551041515121362 2.9648875378020363
Sn 1.362446471744739 6.074690216790782 5.6737188076725085
Sn 3.6880945880022744 6.79461630686903 8.055718552466443
