19
Energy = -66.54993403 eV
Sn 8.780311635032984 3.815669149546662 7.267640549663377
Sn 6.696580619867776 2.2205111335161964 2.998147705059118
Sn 6.27792250002639 2.9239311762902127 5.863038609439118
Sn 6.61740195776262 5.061527089930754 2.4107720313937735
Sn 7.264333482265435 7.700359516825332 3.4607993083611555
Sn 4.384001994383868 4.595097077863961 0.35847896272878066
Sn 7.356756991070598 6.032693694885459 9.006275012793907
Sn 7.397804732574184 5.95362016236891 5.809590622036245
Sn 3.9030858723109967 2.990767538193565 2.8744194253678135
Sn 3.7253693125439544 2.757637945343596 7.495251995537812
Sn 6.377782244554142 3.175505444822357 9.070722245136901
Sn 4.214934414608318 5.381913640799696 9.126673639446594
Sn 4.297021586090671 5.343188470288409 6.005644175505216
Sn 4.076927406324158 7.061267038708897 1.9763679779704504
Sn 5.426468401811524 7.70024842240743 7.399681953866497
Sn 1.7456916505209708 4.946123854390029 1.9899124040144118
Sn 4.543547173078043 8.705736038699753 4.4597618363760745
Sn 1.8444695075198199 3.742156605690781 4.9312172837275465
Sn 2.0952538122174693 6.821592943810389 4.47208612183142
