17
Energy = -58.17484883 eV
Sn 5.658426191349018 4.78889023626858 3.572667329481188
Sn 6.216492581452121 2.4008498197523656 6.087015985290539
Sn 7.3315964620905545 8.888246343216881 4.020026944881392
Sn 7.965377530031386 3.660198763780605 8.180875081038195
Sn 7.384821729846251 6.150071514772052 6.238156264545766
Sn 8.322079020266257 6.0363460603447185 3.3634128773138876
Sn 3.5784699643066538 3.344281446824587 5.305632474899229
Sn 4.442933479020107 8.19563597156668 3.7432904576446147
Sn 8.3327230011106 8.996064383388555 6.910915856499818
Sn 8.787902140178508 6.682425727013927 8.943718120209986
Sn 5.217684262780423 9.236602905544924 6.547792760671044
Sn 5.96202704442251 5.558171231469106 9.468311581109754
Sn 8.79251986130248 3.6309687348768445 5.167889579274927
Sn 6.440417927374484 8.667518080503859 9.366772563186002
Sn 4.434039733456304 6.025496612976382 6.246492281384406
Sn 2.7925753131611506 5.843399203689317 3.5006437310470617
Sn 3.7064567159607393 7.422956591663736 8.709635578558599
