12
Energy = -41.05314121 eV
Sn 6.971006738765189 9.398338422511703 9.532175922391326
Sn 9.129752245798828 10.99307728653177 7.985223678825339
Sn 6.261123486940413 9.984409414020984 6.6373985744141715
Sn 9.28703406183101 9.985717521526398 10.994202111970608
Sn 5.033110253897709 7.456239911989846 8.523871431320792
Sn 7.750069439682915 6.448346739137766 9.96409758394515
Sn 9.110323225603977 8.83742328391385 5.819792273987737
Sn 6.513206010922378 7.156210150147828 5.882347807967012
Sn 6.582168519232925 4.676976278804294 7.778256762221682
Sn 10.174116218019646 8.16866106323655 8.798311730553332
Sn 7.598036875973558 4.781946018702656 4.879495432101921
Sn 9.40914926831399 5.892815734283946 7.069331528720099
