15
Energy = -52.91798219 eV
Sn 11.11582870917585 9.902617647754102 6.217417809084312
Sn 8.517765173900239 8.141487875331432 6.580563732977962
Sn 11.290998353073007 6.714467808163012 11.360220915202056
Sn 7.747029971145116 12.296586930455437 9.217748332673056
Sn 8.416048052923493 7.485687748486553 12.396481253938537
Sn 10.842024017834941 9.402403442053158 13.022963730997693
Sn 8.887940520509678 6.108186636659095 9.634541521546247
Sn 10.403181773440396 10.915336067842063 10.34406792456332
Sn 10.607137869570092 12.62296792836519 7.910822870524969
Sn 8.132771473612902 10.591390177986598 12.419865565910829
Sn 10.83386555239944 8.338106639065233 8.751226416979463
Sn 12.89726930687208 9.233009487905095 10.787479366975136
Sn 8.463450183509009 11.195004926909927 6.451452329208051
Sn 8.012284285089612 9.025972867800675 9.80098132583631
Sn 6.1450664150940835 9.934792018820332 7.770583952589635
