24
Energy = -82.58475494 eV
Sn 11.315965105307498 11.48726937311067 8.502003443514587
Sn 13.553044167779712 9.658931001173231 9.4030662345738
Sn 10.331769868060428 10.485710812625934 11.331703615103585
Sn 12.700415488608355 8.932003144221493 6.777048962202374
Sn 10.16764774346409 10.684865052476992 5.811910269921422
Sn 7.38330640455251 10.942651864386695 11.396378268879797
Sn 11.039747521885097 8.013658390324299 9.487457954542732
Sn 8.649391169627393 8.395495141598056 12.699612761448542
Sn 10.462840024595222 6.009225891210886 11.6512076109717
Sn 6.713403880450679 10.471797883358528 14.263684677070366
Sn 8.521103917016841 10.091623535340302 8.47488153960643
Sn 11.017873276243058 8.10423374548682 4.521979213515292
Sn 9.642070468726853 7.2556496039908955 6.946269798231529
Sn 6.494009674530994 7.604479186354037 14.512946649790418
Sn 10.906179498748068 4.941346201371779 8.644834898397079
Sn 5.551393834194263 8.527987431831738 11.757847048849648
Sn 6.9299470808162775 12.858609674502937 9.046937891395226
Sn 9.901153021818745 13.618450421589353 5.233231123152706
Sn 6.785817948659695 7.802715525144138 7.802879942792862
Sn 8.617458541561762 3.8715841986183324 10.489735646051377
Sn 9.508017902688605 13.883730785524104 8.131373698833992
Sn 7.466049634589625 12.26254865042377 6.203888693387772
Sn 7.595467872546647 6.621488063240985 10.374027800475522
Sn 8.026566170579537 4.803723397396274 7.617596143857122
