24
Energy = -82.74136184 eV
Sn 11.48676056948975 9.636884441365154 8.215844486157476
Sn 13.565556125340924 8.62274814940538 6.435289457746563
Sn 12.160612088093348 6.449651409767926 8.038220204716037
Sn 6.2049359057245015 9.30204903374969 12.59305850759862
Sn 8.647497792352977 10.122389860437972 11.288176443941877
Sn 8.58539527562291 10.357253671913874 8.281017874493962
Sn 10.673973160120942 7.9750018503315605 10.58042670596612
Sn 9.207771060347971 6.980199393663462 8.03297481838553
Sn 10.82510264851826 7.962312791198811 5.595753843396437
Sn 7.073348771777512 11.260676793077483 5.719528164287759
Sn 6.141868040847492 8.897750238747024 9.623535901870863
Sn 8.00843474214509 7.053145917039552 11.83469650232779
Sn 7.37990492392871 8.283784219140177 6.06797842247951
Sn 4.546940764625064 9.482679199006622 6.513490149796287
Sn 8.679931986834353 9.500854845582202 3.621559074339806
Sn 5.47817309542374 9.881920099823473 3.4801208128492775
Sn 6.874794214780333 3.997213294426276 7.165302369871607
Sn 6.428640165170653 5.878679111169682 9.581038306813905
Sn 4.641860118385669 2.1077498510404045 7.571063164900806
Sn 6.8711850284097675 7.0506959408231396 3.2261450413153274
Sn 5.183562302514372 6.314148321703991 6.231453850022653
Sn 3.8731654680919165 7.481374659881186 3.9536475550562185
Sn 3.815108531704622 4.764972205662731 8.446998452913263
Sn 5.92087855043263 3.069597918732977 10.046866644781069
