24
Energy = -83.52661776 eV
Sn 10.209154011772517 6.294882613461078 6.67905520241315
Sn 8.079057955739529 6.003138761889594 8.815551421247104
Sn 9.293520305346334 8.732559189864125 5.0976108430103
Sn 8.77129438435918 6.10837128157241 3.5156981463613413
Sn 8.329776446926084 4.1545799497926055 5.846844911910379
Sn 6.002689534490283 8.167286549548853 8.831571701199195
Sn 6.694725440001714 9.863190633983312 6.318977737957028
Sn 6.851735277678915 6.776641016805712 6.079589360647568
Sn 6.6511436199287255 8.532158579663532 3.389914122578404
Sn 6.348207064025417 5.950064299523366 1.5507989177257333
Sn 6.831694881636869 3.2319824162158857 8.93448418301319
Sn 6.069502501105744 3.3132126193064284 3.2233810619280976
Sn 4.511247173935015 5.6411706694903705 9.373999159034495
Sn 6.551415205004931 1.8893137428890883 6.184391789164995
Sn 3.6202332431755493 4.722881983224271 1.0095223534845763
Sn 4.138744807809966 8.269434794582098 5.442184540344939
Sn 4.057304794368029 3.079698594116653 7.459455781206834
Sn 4.240886425404035 5.213889046865898 4.431888503435518
Sn 3.6230089797954386 7.56511030818799 2.422258692830913
Sn 4.270381910222905 2.978732824389275 10.453282192877126
Sn 2.7394115061703577 6.058337996232675 7.089743102749995
Sn 1.4799772163941405 5.410291075399629 3.0772602340327175
Sn 2.993870639737153 2.5781030373565006 3.026810027731042
Sn 1.675150874815081 3.526595645723848 5.638302015548556
