28
Energy = -97.30291218 eV
Sn 4.6251038270732305 11.093958131383868 3.450535767276388
Sn 8.263541183879202 6.882890657938033 1.7970397264865703
Sn 5.246985462109724 7.281072964902981 1.720654379237701
Sn 7.596605884417506 6.454909895126077 6.638760361360214
Sn 10.68852056853033 5.389036769460804 5.59824291147566
Sn 2.1023080483553227 5.862123066606509 7.137653496818619
Sn 0.8887914433230515 8.111420538140138 5.4875938590565765
Sn 8.052786404796397 3.333150528066435 6.895396210009825
Sn 8.485661528039122 8.408276453559198 4.452217758076245
Sn 6.678761594446074 1.8630833673075773 9.184705120859892
Sn 7.039432169262937 10.983116478379554 4.789843275067004
Sn 5.812941817188734 4.689743967826396 8.856930387748063
Sn 1.7949355149549975 3.639845137666236 5.002459840383821
Sn 4.578554047866892 9.925463711408966 3.307486316921939
Sn 4.052908199670852 4.50439842883192 2.9705788312026185
Sn 5.702419404866241 8.713271821618166 6.193379042851896
Sn 7.6805573051951 10.983116478379555 3.596004340306849
Sn 4.610471137716311 4.178648097924916 6.088071740949005
Sn 3.6799705761573667 7.302619021668509 4.602290957678326
Sn 1.2400909985020425 6.152880532951226 3.099384295727004
Sn 7.297214154565368 9.755642655794452 1.891942997786271
Sn 3.0651628438238405 1.1279666463611189 5.972273674870696
Sn 3.7659490658440014 2.320363260620286 8.673941073680798
Sn 6.2066450525917505 1.362376496326 5.690753860514892
Sn 2.954802782022343 4.932701874564291 9.819668295513237
Sn 8.565121834619916 2.682207802844857 3.851158498882487
Sn 6.091732299943521 2.161662776139064 2.1522527124259065
Sn 6.884504670317027 5.282261144891642 3.926790180116749
