27
Energy = -93.33421221 eV
Sn 12.432546584887419 12.063706183549808 11.13084316240457
Sn 14.166124685089455 9.68074271272343 10.514618199737765
Sn 11.85921959620292 10.111658416251322 8.825692112653979
Sn 11.570380016509372 8.932165946194594 11.815286995762545
Sn 10.41328477678921 8.743546227637426 4.142414124764919
Sn 5.407127930927057 9.864401784271296 4.653954747873288
Sn 5.171435999846715 10.11321304979144 8.257934850239883
Sn 10.326073640258565 11.370791020001441 5.487657556710059
Sn 7.6114630238621475 7.602690509216789 3.457016150932128
Sn 7.270317692239716 9.444019819116557 10.222534785595267
Sn 4.944983221023923 8.113323073855662 11.911010635268383
Sn 7.999051646178564 10.758893789660616 3.387738757950365
Sn 9.744754240067191 11.115770927400591 10.836255680290556
Sn 9.287389302141058 6.602332336263535 6.0365649786770925
Sn 7.961155141546516 3.417581962354468 10.626625033612193
Sn 9.337484242133433 9.349916367525369 7.444003634098721
Sn 9.551333267176219 7.417008889432973 9.970730972666514
Sn 9.43732197480334 5.399990096500529 12.2785584772398
Sn 6.382685722028873 5.626365815122881 11.589774964823956
Sn 7.473011760483595 5.37229386151635 8.424994716733538
Sn 8.031071890931788 8.020700207130208 12.84736646218437
Sn 4.7265808137029275 7.162016212192262 9.085722266189297
Sn 6.5408463519059366 7.83380262540225 6.603420096353972
Sn 7.4019384361248575 11.628908287542075 6.346180111267174
Sn 7.06590853092842 4.827470850929173 4.742511419002627
Sn 4.644074093385703 6.75940298789681 4.391688196279339
Sn 4.759723848232745 5.073176599056246 6.877165278623779
