35
Energy = -123.20143735 eV
Sn 0.7605224915680849 8.711629463785705 6.063188472588963
Sn 3.210083107232309 6.1173512294021775 9.259409393383384
Sn 4.401582788363547 9.139542899778515 8.865362877668774
Sn 6.451259196923861 9.203819103928897 6.331084705013876
Sn 3.467930640080903 10.239900105645486 6.149870487627762
Sn 12.613412514040068 9.626571547430464 6.344306804519204
Sn 12.738884776790906 8.837886261389361 11.72191406583246
Sn 3.483083570995742 7.235294814309981 6.340679555025631
Sn 10.656208989434326 5.004120784965024 4.388717609714335
Sn 10.288194227270795 11.697974990173067 6.709903224165456
Sn 9.560499713031554 2.3170697655087764 5.865223585970657
Sn 7.600502580503817 11.508064472045008 7.997268841310711
Sn 12.562443971013169 3.323777003494326 6.062630251860311
Sn 7.759026856309459 7.353144025325026 10.995481891744843
Sn 11.242354369380804 2.04520872761781 8.47952336320675
Sn 12.729217913561795 6.453245422758017 6.314070559092465
Sn 8.525320439239676 3.249197595216449 8.809437055960052
Sn 1.6180805704118493 10.554919203851794 8.572508669170132
Sn 10.002753037920646 7.798685915585881 5.779978907265958
Sn 8.025384025760248 8.650048967993532 3.6401783453071683
Sn 2.4365709167520833 8.594720119079902 10.98995337417232
Sn 1.1174104469693076 5.63202126492654 6.9685079449715275
Sn 8.304033755256429 5.020367917160876 6.452233413054013
Sn 10.722955942943031 11.345694203062552 11.473030613113705
Sn 7.814883664816842 10.377628156162201 10.935876333821245
Sn 10.824061449799267 6.936606662365201 10.514942203463749
Sn 6.300592721405901 6.5020058161738765 8.334390692446092
Sn 10.901030664561835 5.071092874667846 8.256151709521731
Sn 0.4931141200008454 7.722227985667406 8.947254565110777
Sn 11.513479737419914 9.700382906642355 9.150186009449682
Sn 9.886184721498385 8.744795860438915 12.823551941512576
Sn 10.590895126720644 10.375621146737608 4.038936239780002
Sn 8.798388036230282 8.680463070396996 8.447606561031751
Sn 7.804371532868884 11.558582657476826 4.741901730693379
Sn 6.131366042327668 6.484179789905832 4.94201821968413
