34
Energy = -118.78626601 eV
Sn 7.129082249703065 10.236889975675084 6.831016933360844
Sn 9.786629829420994 9.144604923230863 11.522984293353286
Sn 10.919584149814753 6.878308749918552 13.356868508897932
Sn 11.560942214588255 6.492160588167578 10.449285136175611
Sn 12.85954260580733 13.727728287614253 8.046728686360934
Sn 5.899927519269007 3.6100327261590492 9.828932535759032
Sn 10.769090396912802 8.862224154202625 8.70651503412028
Sn 10.043044347938569 15.071528796343218 8.794220333021933
Sn 8.303448861282803 7.57912976265026 7.213976204098108
Sn 11.223921287831816 16.939645205447164 10.799392820452768
Sn 9.212789536740937 5.082371974403418 9.238949317112137
Sn 10.68624274588975 14.137092393303433 11.767391599497888
Sn 8.38536604932146 2.5063455903800635 10.985698303719053
Sn 5.968053021330786 6.373656473974804 8.833165496322996
Sn 7.264633309445334 14.736425913191846 7.825569568718518
Sn 5.6278916200035995 3.694845045962931 6.874458247505187
Sn 3.385466929035188 7.705563745086657 7.787076585745124
Sn 12.991816743475413 12.16552403509466 10.94538274789595
Sn 11.086961003340564 10.71623824283869 6.147910698733103
Sn 4.464631550208613 9.653223348844557 5.707617734669779
Sn 10.693260592497891 4.096144903593234 12.15097803157301
Sn 5.667135582962069 6.701283667642405 5.846451823881626
Sn 8.271245034335227 2.6438900831640515 7.965633067153801
Sn 8.37517528734651 6.220528615639053 11.868255032812739
Sn 7.315602346338306 12.186504307794328 9.427711784117413
Sn 13.785549319284101 11.965897106907052 5.9266907776038655
Sn 4.487102946114012 10.621567139768656 8.571162948994772
Sn 4.446199328131741 8.35797950221335 10.601003237295894
Sn 7.260476312401095 9.049655227539853 9.818562936482186
Sn 13.395899212802613 10.477623044397502 8.444712571667202
Sn 8.811589227739843 12.606374815446125 6.583255672462973
Sn 10.376091309922428 12.001303305021164 9.383618408843493
Sn 12.589135167723528 16.703570806803505 8.146352357150962
Sn 13.641156918387153 15.116813023968824 10.69677506504774
