30
Energy = -104.58662733 eV
Sn 5.9359483725919775 4.987391993591285 2.799966350708123
Sn 7.893957241589721 10.230004417737577 4.3424595057556745
Sn 4.500844584876426 7.604470425315655 2.8326033715540833
Sn 6.185691758025357 6.999456825581089 5.421105561151321
Sn 3.947704217043767 2.88355614354553 3.4378119206564355
Sn 11.077972751103456 10.55142211168453 5.147028874773066
Sn 3.054477979807849 5.5437604871806725 4.357482280829402
Sn 4.770332087491731 9.880076958698865 4.93723758788562
Sn 8.051892963462802 4.667074802456981 4.992692336802121
Sn 6.380741533065659 11.352408417535147 7.156532486720836
Sn 9.43267892647074 7.935193812298494 5.490059508574487
Sn 9.805094908166708 5.5681564678291045 7.542493525394754
Sn 5.481603039904415 3.485499838720048 5.885793218083199
Sn 11.242466624085514 12.31649734627277 7.731385177347821
Sn 4.734996832265562 8.655846074273123 7.659038556353828
Sn 8.861533065736142 12.50700721405809 6.047371890075274
Sn 3.783748635793837 5.8101460036375725 7.176711035673136
Sn 7.87847428157182 8.566568278340664 8.015453743459618
Sn 12.413294481351882 4.815348447151435 8.523860581645614
Sn 7.897074012320157 4.0521279610524665 9.175082124608497
Sn 4.974729889540062 3.4292573414212275 8.916874867649062
Sn 7.011044913662067 8.89187948935328 11.176442052615482
Sn 8.681245279796533 11.223229277771983 9.206030640440328
Sn 10.873587986539683 9.337994982616078 7.961885525610742
Sn 2.953879341766973 5.42456273782001 9.975195477267297
Sn 11.75841812351806 7.344098145710227 10.039390714407933
Sn 8.832770292812901 6.760934988799384 10.547783100587973
Sn 4.143208410927104 8.178833079974098 10.546500684484421
Sn 5.906138188812007 5.693449855730085 11.2074818931069
Sn 10.47785112026637 4.247147918208919 10.693647250143242
