37
Energy = -129.22062101 eV
Sn 0.05565212565931286 8.336662085910664 4.985680716338869
Sn 7.208166739756198 11.032607617297751 4.829251647515808
Sn 7.323302849241024 8.528443224346061 8.360685018062064
Sn 4.586245926203359 7.208504741316294 9.645162072904455
Sn 4.257462878498905 10.619093054788086 4.893182202074378
Sn 3.5133101270372467 9.23968121633296 7.594965058848992
Sn 7.426245085587919 6.494654465382537 10.500955611298803
Sn 2.9161563272824873 7.850992925958538 4.675274008165187
Sn 0.9422732222177698 4.158778786807246 7.777665182956454
Sn 5.887782619256645 3.9105758907993233 10.797106720589344
Sn 1.1345797047202795 7.338594930125698 7.536983764567681
Sn 3.702732989128506 4.5014274305813045 8.9530193767819
Sn 9.909715112505987 7.906501510571614 6.8405349236089465
Sn 8.521686047336704 6.101877332840912 4.6392259946348435
Sn 0.07086736741282196 5.355939898810819 5.104961085800118
Sn 5.123036876494769 6.50520120825849 6.660456569826586
Sn 9.39405717667468 8.999988308416762 4.118458430489989
Sn 6.151717863070501 8.131019031000246 4.237708137116804
Sn 4.537688703717407 6.715489173375598 2.0844139989628387
Sn 3.0989617648455616 4.39872253092736 5.648459522138856
Sn 7.306210261329971 5.286336716192794 1.6722953298234353
Sn 6.666788558106553 2.7677962104522935 8.129199808605057
Sn 1.886300340183828 1.5050730074480627 6.490557835333575
Sn 6.295982757227302 3.9097518483744276 4.520927279391199
Sn 11.323069227416354 5.083945424121606 3.951049651967021
Sn 8.051908182475684 5.366758311713974 7.72285535685136
Sn 2.6944958744941614 2.0350069705220206 3.621797777340816
Sn 11.155578906426832 5.197632057199216 7.039595458148314
Sn 7.824405932247304 2.3367165549866358 2.181361590253932
Sn 9.909657096727292 6.919501510627684 1.9670673425607232
Sn 2.031791311994189 4.884646213417469 2.760869596568289
Sn 9.685793585886426 2.5417694693489334 7.599339031541147
Sn 4.82391067822275 1.5454457745880936 6.1841606085418945
Sn 4.7960882551264605 3.466171804655825 1.643898157074439
Sn 5.412600440384434 0.7193759983749967 3.378854620368281
Sn 9.382229616700556 3.036860118711931 4.705873149550899
Sn 5.998436951383672 11.069346128396914 7.553036846377836
