32
Energy = -110.70205857 eV
Sn 5.16380480985704 9.539516779588938 8.87017731933694
Sn 13.997970212809042 11.123250078522608 10.230031119766807
Sn 11.800037242228088 13.277661315678335 9.876172368759299
Sn 8.979866626358383 5.939117495187982 12.68117359720671
Sn 7.446309735588186 11.253861243275056 8.052897435490662
Sn 10.891926362709507 12.06517127618901 7.027934341116887
Sn 6.388452969927135 7.395501564050423 7.156639394721723
Sn 11.031586926028025 10.342303205423308 10.582054085344799
Sn 8.189957256285805 5.55509255491848 9.026203668576262
Sn 6.72180906053145 4.743660735936528 4.4950355345542325
Sn 5.989610089414273 3.5185026281492 9.430694005955186
Sn 8.781833436709091 9.87016691383699 13.02824519180945
Sn 10.917152585743107 5.701086947855483 10.304919922098348
Sn 11.442514097843075 7.93812261835159 12.202328817587146
Sn 6.50143329758661 11.13070014979951 11.18108972959895
Sn 4.811232731860163 8.580942572570414 11.669555817837079
Sn 7.0941317519894005 7.875022449089105 4.395026707989834
Sn 7.838663300848667 3.2942882994014226 6.969765597726401
Sn 9.530445104134047 12.998602903954025 4.501669104995813
Sn 7.720690475061947 8.181425486424036 10.579874298507136
Sn 12.705911168968951 9.788577726707564 7.910959128888312
Sn 9.052124863723968 6.154077939000124 6.110458642509956
Sn 6.176196317662296 5.732009826008817 11.708600088288579
Sn 9.620027869952366 9.110863371452584 8.268690911681704
Sn 8.526624171878947 13.924414155424241 7.2701188474772405
Sn 6.670115922344579 12.336280695916697 5.325934552972901
Sn 9.215227535715583 12.510037267476308 11.585904331904013
Sn 9.886678052888328 7.802828355100775 14.773144199867632
Sn 11.623358258899097 6.935209515880099 7.576814655978752
Sn 13.727107612096956 12.76705582392254 7.580989813081452
Sn 5.014173548528091 4.785622522876034 6.915531819510225
Sn 8.711890361534055 10.162021486991025 5.350852280333161
