37
Energy = -130.46741624 eV
Sn 9.962923303755879 3.3129617799512188 1.9740923558984103
Sn 7.268724926370567 3.8977830233162547 4.194198594138495
Sn 4.079206869384723 7.786666992534889 6.258736844695686
Sn 5.106856407531861 8.83243260300134 1.9545090048971547
Sn 3.15553274694832 1.2972686434669825 5.326345598513052
Sn 9.945808424727193 4.063310067031751 7.559666241508637
Sn 6.518035209961474 1.4274870714225631 5.747957919974642
Sn 9.800390028409526 2.200487373764139 4.9969899363669565
Sn 1.831942616417617 6.946206119044983 4.284769892082933
Sn 6.390763673004585 9.856814540354193 6.951784813102041
Sn 5.994875908546785 4.7343695472993055 10.23931109355407
Sn 8.963918748926629 7.104188880353491 6.924602070876572
Sn 8.194310460222336 5.929269030038829 2.154900770452078
Sn 4.226184155488709 1.4712468807730128 8.211927275394068
Sn 1.4910545639968438 3.819542100618403 4.684921762643712
Sn 3.492134364802249 7.156369768488689 9.104526270026003
Sn 3.388115339958468 10.364829054755917 7.823366213520762
Sn 3.5197050176905624 3.905509545201442 2.129264819161346
Sn 6.878097517706459 3.317721014937766 1.1409231356404863
Sn 2.433212134878432 7.412726338510345 1.4476416162371153
Sn 6.818096065968099 5.11096650660138 7.240181316554117
Sn 6.6125469195174285 7.590861054353247 9.151020689027511
Sn 4.790109505652054 6.140304116999907 3.678519987723239
Sn 4.408262505134676 10.584996388804647 4.7277975615646755
Sn 6.913502140024157 8.251782975638136 4.313557289143786
Sn 5.00848914499263 1.3450287714357982 2.8205130279270114
Sn 1.1333725164135873 2.456745755359301 7.530272187188298
Sn 10.217524643736297 5.21797012923485 4.513741243379655
Sn 1.3116702204744395 5.522876803628016 7.413473755245795
Sn 8.929149112230998 5.86086501577317 9.786280310328449
Sn 2.346431688419128 10.241025177878344 2.545098071371087
Sn 7.451037423087296 2.510041677191841 8.612430092635716
Sn 8.086652584576637 0.9391092341769177 2.7965663744216323
Sn 3.9536450853712557 4.10092656569279 6.551037703467577
Sn 2.9993650079733443 3.9197874621928346 9.548495663330709
Sn 5.218412346864744 6.0479737724379445 0.5209346630074583
Sn 1.5405052588806136 9.702112805782926 5.5202084230471105
