39
Energy = -137.16751153 eV
Sn 7.791208006539389 8.266258392500077 9.740803214109356
Sn 6.7818975519220315 7.6602378082926155 12.444019166733504
Sn 8.221796983519155 5.291832971128245 11.172390927243168
Sn 9.915393006773723 5.904539608871024 8.621933582510206
Sn 9.696620776722058 8.815490172061368 7.403333545872143
Sn 10.80862001026782 6.19522145291734 5.485796650013573
Sn 5.462859339886081 8.670374723253445 7.4746722853498095
Sn 4.752607552318976 9.069600506898325 10.613884011436419
Sn 10.45291027808699 8.84235537219071 3.9085632423513847
Sn 2.7606044059998838 7.355579157515227 8.956318118790287
Sn 6.636697710219953 3.0137186242264065 9.692490702224791
Sn 5.104653387346294 5.656041730459099 10.78660119497806
Sn 7.623878719637739 10.289217430489867 5.618122811847728
Sn 9.136718259945276 4.23197282226432 3.8849979833385957
Sn 8.630942536176715 3.3521082043480046 7.296392096401119
Sn 9.733834925069667 8.443907711577857 0.93226629407603
Sn 6.878789470312215 5.778516055625778 8.050437769681633
Sn 4.682109029771235 11.215765105576832 5.8664527330839205
Sn 3.32991679513057 10.7846314418486 8.57202627677349
Sn 4.281840067665499 4.229223321292137 8.014336711789557
Sn 6.204584945083723 1.1456908828185142 7.083696325929501
Sn 7.927372703010142 7.159230485848542 5.257631377394832
Sn 1.7647908521538522 9.359396219713476 6.431246318388733
Sn 7.493809379651256 9.143647425467053 2.8106512005583166
Sn 6.815029753271277 0.6150072485225243 4.163608342874916
Sn 11.10575695963188 6.108161615250737 2.336904934866549
Sn 6.281385134731403 3.736328126809012 5.1901863613451145
Sn 3.682026533454984 6.559441960556838 5.909654007965694
Sn 3.7850760850941723 9.072512160406387 3.8759201289168383
Sn 8.014740639365039 6.004408682473575 1.5742609422282727
Sn 0.5862490763865117 6.567220933363202 6.971596814778923
Sn 1.464798896829023 4.7126056524494535 4.711924595602705
Sn 6.8255680068358044 2.813489558821348 2.1381801045526854
Sn 3.364671739991836 2.3834664218521087 5.5455784175454506
Sn 4.220793061661 11.215765105576832 5.426800741149506
Sn 5.582446104943401 6.623375020206752 3.3236677408705226
Sn 3.990882938701867 0.8219214516177867 2.786015897066532
Sn 4.045428002066433 3.888611027967873 2.9408022473210065
Sn 1.1301919340646924 7.673097977234538 3.9568742472436393
