38
Energy = -133.81534988 eV
Sn 9.798417331103318 4.033784849667857 6.115785457597498
Sn 6.615273349850423 5.732910807044885 1.1712215098159442
Sn 5.411307856131104 10.6172323069342 2.84632305804916
Sn 9.553193367972844 6.904788238573902 4.632557236241783
Sn 5.0580753402615715 1.599064418349859 8.481787332960193
Sn 5.960929631551447 3.165607407264545 10.343353901352454
Sn 7.956550499447437 3.744302011727707 7.884572651245291
Sn 4.653710182550993 0.8970630732962573 5.491946967321739
Sn 1.9028113875889825 3.9007608981709185 1.6248680406426066
Sn 3.2920482611536492 8.689846013729452 3.4637946657047323
Sn 10.374517394228622 4.373685526885106 3.06708665067433
Sn 2.3413818142334533 7.307319788902617 7.598008869046475
Sn 4.31973153594139 0.3861800889605366 10.895495062873605
Sn 6.8696454738720165 3.776997570836362 5.067997251427804
Sn 2.433247525459375 0.0979688270322779 7.297138824713285
Sn 4.09662924880773 5.845951756647053 2.8856988383517015
Sn 7.293942485087551 0.705930925532046 0.6009382567213469
Sn 0.873833817713244 7.0262099245929335 2.5148842699404774
Sn 7.357083977663491 6.790981180521439 7.230697965325658
Sn 3.807922521176863 3.8503779852707534 5.133243038641295
Sn 3.3398843543354158 2.558000897270012 8.881146389237815
Sn 7.356082621731104 6.775834152208884 3.9780862230844765
Sn 3.6353028481371377 5.285130050683071 10.543558336066013
Sn 0.35384741482611215 5.096308289578754 8.332008535159131
Sn 8.925556908778727 4.2490115013501235 2.7843062451914053
Sn 2.676814852357742 1.1278048511792904 2.5371099706641624
Sn 4.763175524597497 7.227213961337518 5.69411356491235
Sn 4.734044621837149 4.972507871443846 7.986200241818075
Sn 7.547507792112691 1.020325211750653 6.484180082790262
Sn 1.247553686459349 2.11695028752108 5.232801726551953
Sn 2.38086552788641 2.994573745242131 8.013580139735943
Sn 9.553193367972844 5.338517582582786 5.656410283677748
Sn 0.8973780172711306 4.032738485186836 9.962478942424035
Sn 0.779036079035028 8.756416082079896 5.249588793042577
Sn 1.206275789748785 5.617940522265503 5.357821246434363
Sn 5.36517798615962 2.7489841743425485 2.1781331870276737
Sn 8.071643245714641 1.352015427877239 3.4416415781480136
Sn 1.335913583804306 1.160536078815335 10.871543567808132
