40
Energy = -141.08817485 eV
Sn 3.9327776374675802 6.34541514143348 10.664520264030221
Sn 7.190123399760625 2.7779263516497066 1.2661872122147544
Sn 7.017367994323118 7.059815011573349 0.5429069909886842
Sn 2.7115340047080068 3.3727880783147177 10.62052777345514
Sn 1.0588232900826176 5.433855507706776 1.0837324793340815
Sn 4.076713403541882 8.051661197854195 1.8849356560385828
Sn 8.316285426990426 1.0538428049746742 3.49518491806604
Sn 4.622617276777562 4.463130814355822 1.7159622838275208
Sn 8.726144908274525 5.255187030644597 2.319054826291845
Sn 0.12079626599584888 2.5016190352109042 1.031459000799917
Sn 3.0714589984263334 1.7847678472353938 1.909070087254311
Sn 6.650699861133647 9.743975527462359 2.0947949443909963
Sn 5.616820416851109 0.15179092726337562 1.6844909184397439
Sn 11.162295359114994 4.067478379857213 3.6485215467242123
Sn 5.497445108178835 2.2473746721424432 4.160672359703176
Sn 3.295545365025699 10.203651132678552 3.4259045748430257
Sn 2.290759477077542 8.307547814199324 4.315865724710776
Sn 9.332685677934373 8.353257495396656 2.366227855737357
Sn 6.471511269787473 6.889000197776362 3.6023482105368667
Sn 9.177495824260493 6.46556829380682 5.109972548030355
Sn 0.9735722311544592 1.1809338680335542 3.968498652283447
Sn 2.694285570047638 5.476016760231861 3.7668126517101324
Sn 7.756758215373373 9.209736843463816 5.011415627486128
Sn 6.186335023423184 10.376377857820096 4.731033903663316
Sn 4.709989747448921 8.30801079358025 6.038624427467489
Sn 1.2284420959152227 7.480273436092012 7.276205367022904
Sn 5.788055800221866 4.934015705197336 5.847413712566783
Sn 7.958089751335476 2.0605790536687563 6.285566113990839
Sn 1.064927905403533 4.484400312842245 8.229772524345185
Sn 2.5965395122603123 3.2810257417116584 5.784370781498555
Sn 3.5359309440319673 0.3609287482151392 6.134720515531314
Sn 8.22473474645005 4.790061332715102 7.694066305864437
Sn 3.751290425759968 5.914287174978916 7.946914391935948
Sn 3.443247356979313 8.980879433073316 8.860135788080111
Sn 6.8027353176129965 7.420302926155183 8.049104487751064
Sn 6.099429889828284 0.2691944304563361 7.773279595539564
Sn 5.587602005909166 3.137244451870507 8.315301464030451
Sn 1.760956606328061 6.864144230336557 10.320632699981747
Sn 3.3557753033047355 4.068127496579075 10.342462807379679
Sn 4.88350950435693 6.813005908444204 10.62052777345514
