43
Energy = -151.50420536 eV
Sn 2.8479780027103767 2.372294057258882 10.01445299182775
Sn 5.214228505402792 4.382858822052157 9.746333516632648
Sn 5.654852513422983 1.2871353713033735 10.171875397432613
Sn 1.983551371121555 5.414429414981632 9.828104254946911
Sn 4.41743886924421 1.6604831136657048 7.325687777693555
Sn 1.3458412315209454 3.062982933383625 7.406283640344403
Sn 7.91365484445102 6.796342974583561 8.679536954961286
Sn 4.581330451465664 7.3210219143133335 9.642670358021066
Sn 7.634913136369062 0.7839944662184127 7.861701407033134
Sn 8.076542872760072 3.3642160015355977 9.62286565852987
Sn 10.56832702602976 8.346906876942326 9.534392769958576
Sn 3.8927480747421703 5.684107373802756 7.146412431925167
Sn 7.842669745193902 9.72893462222864 9.679154969637148
Sn 2.18837453855043 8.242660296194192 7.974383211671857
Sn 10.494607613443781 5.257495088181344 9.266939130561047
Sn 7.636453355273922 1.1949669949577237 4.869992732023732
Sn 0.31392530537372704 5.956528374547023 7.3057954373818665
Sn 6.623697774604728 3.8648760729699423 6.486203687091717
Sn 2.679787393118783 4.074409328768411 4.96141418749367
Sn 4.869122028236111 2.1558452552622716 4.187139145917446
Sn 9.63945039206586 2.9932825413284143 6.903984943338006
Sn 1.84283335712799 6.233598467128292 3.025137069998037
Sn 7.071617760994767 7.1222974044890135 5.684116700548615
Sn 10.268937184889047 6.469422332908315 6.4474327682925425
Sn 5.820545907099789 9.447097490908291 7.254807471680588
Sn 4.901569050373717 2.951039347775909 1.3020400289406284
Sn 9.043080961843033 4.322362060131546 4.031361621517474
Sn 4.012273007041289 7.662583150966833 4.538329302346454
Sn 7.977386277487183 11.839071084102786 7.348857587322303
Sn 2.7650142105555062 10.31881900437732 5.582799403903001
Sn 6.0958527107350635 5.040723005219756 3.2323147606758913
Sn 9.561852236717495 9.362580826648962 6.956381824539793
Sn 7.804507278805837 2.741655803631108 1.3764103729847368
Sn 0.7607827028028029 8.070417600680987 5.057385440409374
Sn 9.96077502296756 1.7050989691992007 3.0812516504689618
Sn 5.431444428977202 12.078235519183163 5.745443697429338
Sn 9.231158110944655 7.4066051027729065 3.4849155164719448
Sn 7.646825479709434 10.218869371541814 4.515316825816698
Sn 3.492646330184972 7.96799472469449 1.2532245082485927
Sn 8.336922488402115 5.670043471017469 0.9434447573057892
Sn 5.35318212167523 5.797805857831025 0.13020748267227977
Sn 4.517405107221393 10.429671580871755 3.1309410552915433
Sn 6.500539867904495 8.02942758095307 2.0742652744608994
