4
Energy = -10.15724769 eV
Sn 8.29612422862543 8.564559477900884 7.554839230938358
Sn 8.669154589952942 6.264155284806477 6.279366720589049
Sn 3.8296314338772905 5.201487461363994 6.229698979156284
Sn 5.97950637325714 6.750036034292865 6.717070056316592
