43
Energy = -151.91139918 eV
Sn 7.399398053701548 4.852201071681204 11.079288174225983
Sn 4.11062103694567 4.641286076748582 11.451522368507042
Sn 5.6590736632607985 7.3174491740720695 11.656350469172724
Sn 2.5062899026830032 7.518196401324431 11.655507271294677
Sn 1.0371743330462628 4.94627334123331 1.1768931563628862
Sn 8.332197480082002 3.6233574421228005 2.16592618950058
Sn 5.950066466009198 2.360975134698337 0.7298170488724769
Sn 2.662201282643798 2.1968845565179578 1.3536870651905855
Sn 8.528986609818727 6.696129203868159 1.5465149373494111
Sn 1.0505332773546718 8.139789130338771 2.487913291398618
Sn 4.5309466251836366 11.546651413430407 2.2430263387539315
Sn 6.8368510004642 9.137485921284144 2.1340431469291032
Sn 0.3049499050559751 3.059749633217361 3.613459213252053
Sn 5.696980672392649 5.181982792747852 2.2153706845692187
Sn 6.881381124329474 0.6961899663506287 3.936783621000776
Sn 3.805823658599346 9.552369570141742 1.909615385932077
Sn 9.826556377846527 5.656986972757252 4.18755876962277
Sn 10.990773043726048 5.955005315807943 3.5952726085127997
Sn 4.199330369514009 2.3820924416350358 4.194558330232631
Sn 6.734833786878927 5.174987686170931 5.297181297902121
Sn 4.521352733862546 11.015231591807183 5.295045416909803
Sn 2.5312627607007014 5.470662295893113 3.8517609170747646
Sn 2.3406281450066597 10.050027752649054 4.568368181777823
Sn 1.7864980087344717 0.21250679976766168 3.6549474305838308
Sn 4.685634481303707 7.72818610042002 4.22997943010393
Sn 0.7682965343067781 7.607470232566169 5.607308829646751
Sn 5.158114764175973 2.5382583650678114 8.246498988544767
Sn 7.8456651651777385 7.9075615923463545 4.8043347736070015
Sn 8.632119263073736 2.9391558346250495 5.549978250119771
Sn 1.2118423376348324 4.314348718305579 6.293104057805795
Sn 6.9777067751008675 0.3761192233534502 7.0412504146357024
Sn 9.129993090105263 5.35674933087614 7.556630325768765
Sn 2.2039736597577524 1.4070423612419964 6.360923399146893
Sn 4.334214514457896 5.1840485242373475 7.141295927347422
Sn 3.806117500661352 8.570400776036369 6.983384700810485
Sn 6.696303117652373 7.265919061646463 7.8154239969798995
Sn 1.8884358227697196 6.517498926738764 8.368361737288197
Sn 8.111933690510513 2.799599389352863 8.98329914539134
Sn 7.862004049832122 5.700190275615485 10.342830003681136
Sn 3.0482837067917092 3.8919728326392633 9.922415640627671
Sn 3.9956005172871403 11.600894773382526 8.207754184085935
Sn 4.854914884200777 6.369098067318319 10.149965721795073
Sn 5.883036770787324 3.4369402601344405 11.079288174225983
