46
Energy = -162.57146312 eV
Sn 10.6136324711643 5.572135318855269 9.220761906103318
Sn 9.068574937442168 4.654416316473298 2.7347841208360557
Sn 3.311754814802299 1.6361259360604068 3.3005637478031677
Sn 10.988132338551592 3.3342899179370837 7.028695695510746
Sn 4.113348503094091 8.36111214887352 1.6270633790116342
Sn 2.069403302953394 5.565611983932224 7.616115138705221
Sn 6.489714904157286 9.776383731620308 3.0136150850997616
Sn 7.605602238947261 2.597214455560949 8.593662665119597
Sn 6.46223845530403 0.140830164394203 3.0953071998694592
Sn 4.041927456600911 2.9365429066694677 8.238490030801193
Sn 3.308986517280115 10.274079719666872 4.051430512893879
Sn 11.066625207268569 6.4039174183964995 6.078360591462214
Sn 8.907646386293656 7.166281192966532 8.319117743129935
Sn 3.9912752453976994 7.789786594676394 5.886330938360955
Sn 7.482046348431768 0.4081620187109286 0.2505078960420463
Sn 7.763998657809124 4.461168831322172 6.144444987993035
Sn 2.7437087272229452 10.313299543502183 7.428775500899066
Sn 6.47526250739807 3.2526330806050296 3.511341185222006
Sn 7.186269338824563 7.638818806010622 5.5898059184963245
Sn 6.42322138391271 5.43449880682784 11.430214096703189
Sn 8.215208321929275 5.1647058228334135 10.482571788454509
Sn 3.6995329378015 8.001079476584296 9.104869100914517
Sn 5.835218496633404 5.807478611997376 8.455592645131167
Sn 9.548441752404367 6.212856974749782 0.10214384961493211
Sn 5.29616564529716 2.3903503345357966 0.7401748655447145
Sn 4.148576428018611 4.193785677363924 5.388034521908732
Sn 1.9965173585289004 7.30944081972698 3.6616086241798236
Sn 8.608984224261743 3.284234386725347 11.407794795458
Sn 1.928253480324925 1.6585569611416948 6.106027628809303
Sn 0.4638722266265768 8.291091746568531 8.602470851683318
Sn 10.244529125994289 4.302817811638978 8.24349130139066
Sn 5.590828678050305 3.799621502270007 10.681466799816214
Sn 5.05500940590193 1.0952181140986583 5.87304176590631
Sn 9.193482663196166 7.9227164892771516 2.97286488234421
Sn 6.279701067117006 6.615490116629618 2.884686739774795
Sn 1.2782759180238843 3.292054810140918 9.590073268441262
Sn 3.841541214988719 4.743863830270927 2.1214549037891035
Sn 7.39579525904351 8.351247474116455 0.36054723678084694
Sn 8.214422621250886 1.2603923759723645 5.458017203671003
Sn 10.27681536005825 6.164088999471799 5.705361179133349
Sn 1.3099906674741115 4.0660900505264195 4.2544605078466695
Sn 0.5820191788268647 9.380538942890947 5.511645567948986
Sn 5.6265837514047305 10.378090743011171 5.974937116196706
Sn 9.38400609795891 1.448582639068037 2.4729314859436955
Sn 1.7982572005584245 6.114061141521023 10.692151849769559
Sn 10.613632471164301 3.1572520953103584 5.059217657117074
