43
Energy = -151.38264154 eV
Sn 8.612854808418032 11.14032873050529 4.212920664057357
Sn 10.000661742593364 8.812287034678047 5.6410541276215005
Sn 9.996563700740637 5.936564993470075 3.626496419945818
Sn 11.11144581217812 5.707562333425426 6.519221082862459
Sn 9.525961718435639 7.8096600331439605 8.44416220369062
Sn 8.234057226688016 10.761345186276374 7.398954787609354
Sn 6.444722784159379 12.68689489154182 5.519920584226464
Sn 11.129473267392074 2.7087686715807995 6.101552004929371
Sn 7.723057650090724 8.141272995250887 3.5066391254645453
Sn 8.271151401589282 4.530614079562137 5.609246992231196
Sn 9.893691378377266 2.831436113380343 3.4003726238228826
Sn 5.601474629058494 10.548642945274887 3.4126600076916582
Sn 6.192114615024947 6.903404667619128 1.03759605728433
Sn 7.092980974531716 7.648328096721205 6.474227338570751
Sn 7.563780407400313 5.429701203804011 10.835240859621827
Sn 9.343806730229364 4.329957668088545 8.634572820679438
Sn 6.542453766677728 4.013338552983472 1.4527511037754044
Sn 5.244678670150462 10.055030136813155 6.856257498070852
Sn 6.741947757296001 8.153734027036837 9.689574624641882
Sn 3.38054609096752 11.89997091089399 5.199164974119688
Sn 9.999418364476384 1.4430394781586442 8.665438634256798
Sn 5.966773058122919 4.698515088343526 8.169014054444313
Sn 2.1020923597935393 9.886518065450488 7.102167736321256
Sn 8.250436554117869 1.5097849455474368 5.788661971659711
Sn 5.545537155214191 3.100629399679118 11.177853917400522
Sn 7.286159986667104 1.3628627889172187 2.6061882218692674
Sn 3.1963684329643525 8.816353465443507 4.33371841986836
Sn 3.820728935332554 6.867623095468479 6.76459312863179
Sn 5.193872510739637 6.036672535210072 3.777679353609253
Sn 7.053483356240912 1.8132081489942746 8.895876973382833
Sn 4.442021465181069 5.907440206653489 10.661197661491416
Sn 5.497593089469678 3.0420836264341165 4.393503871536874
Sn 3.733337595174104 5.148047761488071 0.9049066134114613
Sn 3.7122738502336077 8.798892442582284 9.483084996905905
Sn 2.956256910971829 3.5708209338237693 9.306086740477182
Sn 4.073019371855523 2.076456771512852 1.7508190715765384
Sn 4.6374028655553 2.0419043147078306 7.136358219762941
Sn 0.7101605660919647 7.318326445294513 5.888706561144406
Sn 2.1126635265540603 5.631295291947492 3.779423202622325
Sn 1.5197463363418877 4.306481616930809 6.599806958130615
Sn 1.65959616893864 6.5075779494770325 8.957051553112635
Sn 2.4741462226598236 2.4221673159176382 4.383562892925606
Sn 1.2999102474599222 3.5808930195841726 1.7695817844916055
