48
Energy = -169.67135792 eV
Sn 6.467069496347298 9.274040590385283 2.4125997748591295
Sn 4.174052638117623 3.7526058455342364 10.092025440764395
Sn 6.559607157768768 7.143217100244001 11.252482037878057
Sn 0.5066794868680609 0.6696703072926113 8.427457208830594
Sn 5.1680832923734865 2.571940150013361 7.494322773928562
Sn 7.926396883498397 5.40059098741555 4.805164501069932
Sn 9.72087377705192 5.5705915360126035 6.013001975540422
Sn 0.6722280142867693 7.386655961726668 5.962286990888245
Sn 5.014508071840981 7.243203663094747 6.825742565756182
Sn 7.986332091056366 1.1709379502357788 10.943525082659095
Sn 6.271664207418722 9.796531722244769 5.5250104720157145
Sn 3.108220844801585 0.5480872978335374 2.257725829417343
Sn 5.220678411220466 1.4484331225975378 4.37439673832884
Sn 3.7504196673139214 10.046902648190322 4.88329385603871
Sn 11.25514356273814 5.913704744418001 8.65427523295149
Sn 9.050821424780002 2.7769644297729594 4.063083934290418
Sn 4.096105677645377 5.20409315571328 10.800086491095044
Sn 0.19803516273685487 4.110315793245504 11.474137193360598
Sn 8.404931713269361 6.681618829463352 2.183318938734482
Sn 9.72087377705192 3.2263069057957288 1.0167100192738214
Sn 9.551681986803285 5.967643105522558 11.131991673112342
Sn 2.8177874467621273 3.6073227563189354 1.587018467834363
Sn 4.573874005042648 1.9829346869178133 11.076153335087124
Sn 11.010925492957265 7.4563370865642336 3.128573494987194
Sn 7.67376513712247 1.1246064681516132 6.469383593286029
Sn 4.914746624091497 4.7486217996377675 5.209261155015568
Sn 10.697655436868216 4.512918405090511 3.0528036532189913
Sn 8.885625308628608 8.785297237791905 4.235899526261606
Sn 2.596527533108365 4.724911755929237 7.582182493172656
Sn 6.854809242958282 2.8169809733540436 1.999117715066448
Sn 1.671518639438973 6.5343564848419415 1.262201111479214
Sn 3.3772900531270635 0.855011683136692 9.56946781020262
Sn 1.1454529161021294 3.238096098520722 10.005168627322687
Sn 7.189449538709746 4.076494432760783 10.700819999957602
Sn 2.4678032545349793 7.646194179124885 8.52628126461862
Sn 5.470530397678612 5.494815461963346 2.2121849339353057
Sn 5.3216808869888315 10.821088810957388 7.484253788985622
Sn 6.108135414562902 11.452234741274738 1.5062948559744183
Sn 1.4944986683414312 1.3491378105435732 11.215239648757887
Sn 8.041806797689667 7.566129081056928 6.902026205319786
Sn 2.013075703752208 5.441516968188494 4.158245429248385
Sn 11.512830101173217 3.252611868733273 6.945452858657754
Sn 10.799095185825406 1.8031692527303358 1.8972277772474373
Sn 4.233003752095788 7.864647929354015 3.8594649917820676
Sn 2.7412962132669967 0.8455974467032106 6.413440855981232
Sn 2.9525413417951265 9.509536608612674 6.005822400535761
Sn 1.2255436549278647 2.4942964690205836 4.233540947977075
Sn 6.741916931057018 10.391982368900695 4.584115661550564
