47
Energy = -166.19029111 eV
Sn 9.889880913087888 6.085141283960058 1.884550464408305
Sn 5.0542825520884795 9.545704325728487 3.2321887166308856
Sn 7.048644090714846 7.404592254976588 1.3156063477861926
Sn 9.34855193494673 3.360225748788006 3.1891688171348154
Sn 2.4929214766786085 9.768112484654237 4.894810552472236
Sn 5.006416684465639 2.173999596204668 5.731589079320232
Sn 9.60655845180691 5.268735336223827 8.555630018426266
Sn 4.833468177427485 7.606226483980552 5.570060398199681
Sn 2.7330272182431283 0.24586812825448812 6.361209080619434
Sn 7.395473163840288 4.222106701989151 0.6690767284724993
Sn 6.918264830585594 10.07543880958908 5.5261093635121865
Sn 3.6141883771847976 6.673431352085585 10.118655606740523
Sn 10.194588222253751 5.957850817976078 4.947268048381715
Sn 4.673739491751804 3.5853284551427245 10.726261050338444
Sn 4.566466793011881 5.341426712384895 10.726261050338444
Sn 4.95119684873184 2.0713319526488987 11.260055416062412
Sn 1.5671179532423911 2.33766013004637 4.437727194855977
Sn 3.7494574623694703 4.619982400599484 7.859522341272381
Sn 6.755210918300195 6.102020539977932 9.621137889380218
Sn 10.783036394202567 4.419895537864936 4.7117692111228795
Sn 2.9921708031806076 1.8260964303460716 8.92396258253645
Sn 5.027039537737467 3.149409460156356 2.807315713717543
Sn 1.594358427166274 6.788464954079407 10.833983658508771
Sn 5.632169386301647 10.489870232699813 6.137666020955013
Sn 3.0710075140866593 8.911175570100372 7.720011651065792
Sn 1.0641075788820762 6.520996103110068 8.316242125285957
Sn 8.676250066893928 7.820375420627957 6.888238834651853
Sn 1.4692285964140834 4.281241443373811 10.316175342280149
Sn 7.18348148759484 5.57632715882757 3.7775558748389693
Sn 7.9120626871967845 0.6088780937744971 4.562627715637671
Sn 1.658248236731731 8.470152179637456 2.1732688831959135
Sn 9.529791650733308 3.1041463979587722 6.3573763604624505
Sn 2.6931991150102395 1.2443080641715631 1.8231898568605227
Sn 8.737681396884799 8.43903320567546 3.6377358054288806
Sn 7.437049273941759 1.16153246485322 1.5361947054163207
Sn 4.24349084485604 8.419350941218173 0.3679077333590419
Sn 0.7323000442991182 3.390830980378974 7.470820070164961
Sn 7.307548533402071 1.313209907732788 7.553913522501506
Sn 2.5821270663184066 5.0716119438953 5.061914939649207
Sn 6.9432793467101 4.690005703316068 6.896640297736979
Sn 2.0332991763517843 3.885296230749642 0.3503666585414885
Sn 7.68570269124106 3.205874185101068 9.861739315415978
Sn 3.5057931025071856 5.981795296517011 2.1885242152548994
Sn 5.154683783292875 11.278274400578814 3.1852798326512586
Sn 0.603679395793743 7.257191802899525 5.342485627336909
Sn 0.33145935719659547 5.739674275303091 2.1039206276637583
Sn 6.044436666383991 8.896056963153155 8.210664657987284
