52
Energy = -183.81736809 eV
Sn 7.49268097138179 2.2821810337657387 9.78546517317313
Sn 4.829285577462022 0.8469548728987856 9.058728839770051
Sn 3.4791182251366686 0.3255184798554309 6.327832189196402
Sn 6.683927818565842 0.5886468148013019 6.499943038007582
Sn 5.048810812245585 4.247384786376758 9.668753286245733
Sn 5.2627792614477675 12.971613468925655 3.781569154665583
Sn 2.362571715282238 2.6316929558328375 8.806529747036759
Sn 1.6997784498721973 2.826210084407844 5.861586263722889
Sn 1.957110402682773 5.411691381612986 10.381843391291662
Sn 7.873110444590424 4.807877051791099 11.462007416004994
Sn 10.358187442150214 3.585621570942796 9.495037550669583
Sn 9.114089471500144 2.604888486655119 6.698736718917391
Sn 0.17995365795604396 5.414224344024556 7.795197625364372
Sn 4.208384883687575 2.6342015405062695 3.5288566527793304
Sn 4.751992523969495 3.2335125589500238 6.651638104700527
Sn 7.750885995740317 4.946654071984137 8.038330929209456
Sn 7.469435783348065 2.0449640940768536 3.6639272778784457
Sn 3.496869228599987 8.039194091881873 10.543879621952984
Sn 1.4062421975968704 3.1754422584280575 2.6297873048303657
Sn 6.067644836005888 1.4379024365034292 0.9375191242448857
Sn 3.043975149860706 6.732018026121493 7.730743546540274
Sn 4.371194305145702 5.962373603446586 4.321101559344664
Sn 0.37966953565882094 7.962135871881207 9.627666054957963
Sn 9.70146816612576 6.736662747672789 9.974184332522197
Sn 11.090607256938858 5.515721224887747 7.22552896505208
Sn 10.330001457425277 3.6225402421568504 3.9490984208606648
Sn 8.918880440822042 3.1257381402486084 0.9237230482770835
Sn 6.487141555395809 7.13147413984541 9.687273927109601
Sn 0.46900447361647235 8.215084593668584 6.505893681626775
Sn 2.4105009184688106 9.769520320203513 8.30036734296641
Sn 6.11305086365442 4.685626470788812 1.7483157720567712
Sn 3.5758002300298273 3.1054367353135395 0.2725290363850766
Sn 1.4396705077034528 5.698076027089348 4.64943095020131
Sn 11.083470810122598 8.597717476200138 7.734206477222399
Sn 7.3753225168588035 4.80661365807277 4.788443818334076
Sn 5.388432041601485 8.59554138782057 5.643996885986402
Sn 2.420646040463137 5.946457656588338 1.5552965648148016
Sn 6.643555060934326 3.710343245801157 11.988061352764877
Sn 8.570587210250098 7.431162754147407 6.050356216455086
Sn 11.184023964565462 6.622245854246587 4.3742436245038725
Sn 8.206388384062464 9.335426091868714 8.328997493552261
Sn 5.46182303054737 10.662604343045148 7.971123339812267
Sn 2.8352491548662475 8.725598297264915 3.692252319271399
Sn 5.122156649994795 7.795639399336341 1.845756253501206
Sn 3.1387115090258066 11.12628472105352 5.5722503924666515
Sn 9.010450388504916 5.897688228094908 2.3477363485311784
Sn 4.596363904291854 5.947026958303957 12.491724699054242
Sn 10.328126589273298 9.670467363102722 4.734043651358078
Sn 7.729619199918298 8.799708143225555 3.324141523348867
Sn 5.553816169134359 10.929115733750463 3.4891501586196596
Sn 7.8899126946513745 11.15338983593722 5.797284619359696
Sn 5.548372961167093 12.971613468925655 5.930987535925388
