51
Energy = -180.72795809 eV
Sn 11.644034220709296 6.831253400637732 3.1383633655578653
Sn 11.595592421775358 7.545191563881112 6.151869318986348
Sn 11.094135846951824 9.794021162539917 3.969377162531329
Sn 11.142108219466776 2.6310836370727655 5.810200862639651
Sn 9.83339814436357 4.306434227438673 3.6981024087053163
Sn 9.228709185191153 1.2259568282409734 3.6227341258630696
Sn 9.296628627839615 8.608410585818666 1.8072067869064494
Sn 9.66980196725859 9.943117811818562 6.802719335036071
Sn 9.761498119577192 5.462925243101192 0.9264555999412016
Sn 8.806121542718712 7.504028250325329 4.864354619278156
Sn 9.373507969340622 6.005961204185606 7.663520031182951
Sn 9.614800052635712 0.13222906908507653 6.5144573499585325
Sn 9.359447870290843 2.9212950233872395 8.427985569404441
Sn 7.97776539946787 10.44578613455951 4.225794732385305
Sn 5.573798936482102 2.619205463416672 3.1145763177539587
Sn 6.134709295248073 9.465617186695853 1.629058449365828
Sn 7.20576830888347 5.350320914474965 10.000588791339093
Sn 7.741446644455844 2.889989416082963 5.899788562541854
Sn 7.074814855812562 5.349338734021756 3.118394559932862
Sn 8.468992888699843 8.450567328027676 9.278135807858813
Sn 7.120355768024322 6.845959458576779 0.402591585840362
Sn 6.827031505162734 0.0016099849102353648 5.177441590056486
Sn 6.380166037624595 6.527151805341634 7.24532467833177
Sn 4.85901675992999 4.668089251805418 0.49134266220314904
Sn 7.2018877324618416 0.6490255423749635 8.371532122700387
Sn 4.672186780783735 4.134251042706652 5.785194737306501
Sn 6.452381641291868 9.581571499026497 7.082985945883405
Sn 3.401155484976418 5.319526791171919 3.173510413286103
Sn 3.622804830500763 7.744799782358209 1.2142155566458803
Sn 5.417618371399986 7.985503638876389 9.955695337340536
Sn 4.617408261283389 1.4374000630190307 7.054242457510151
Sn 5.11299748291295 2.729555844720241 10.265255834403082
Sn 3.725675658479131 10.400780502489232 5.3732117074530015
Sn 2.857115823011717 2.619734564805875 1.380999188717649
Sn 2.7035139459127366 1.8559569502065332 4.368308550369176
Sn 5.358649115617569 7.9405363387461625 4.2229316780982895
Sn 4.8663028917371065 5.554835017389723 11.97088548954274
Sn 2.953534280767134 7.344725785261506 6.261798712827316
Sn 3.8403161210602517 5.061469565623035 8.788981479246544
Sn 1.8281489181975217 5.404753372941306 0.25271536901034886
Sn 0.08825707035511594 6.693010325136036 5.165344221910601
Sn 2.988802690043401 9.566041765467522 8.355545105265085
Sn 1.636735608624916 4.07534622318684 6.28017286081074
Sn 1.81199922489682 8.56095187590914 3.5178317867079896
Sn 2.2439935481894877 2.1635017100030423 8.903354465926547
Sn 0.6278950755313082 4.322805431944401 2.919776812157759
Sn 0.7704666844337097 9.948853749078268 5.952729976854963
Sn 2.3511459240944186 3.8210015570818365 11.534664313534787
Sn 2.2990163667341923 6.994235249834574 10.641014642046638
Sn 0.29269469611073595 7.840098803839188 8.117584934494012
Sn 0.5472402921354159 4.793750114169776 9.176948612249722
