50
Energy = -176.9036036 eV
Sn 2.0967776418500925 4.945430634973229 3.077147778441161
Sn 1.882773795519702 8.160329375659343 2.7653617657979987
Sn 1.4069837811640646 10.87968952193487 4.16792024718547
Sn 3.8536595769738438 2.263342759867964 2.9038816597122934
Sn 1.4032333175960392 2.250950241952754 4.776961831244336
Sn 4.896545510832062 4.6521161314851955 0.9778778291302378
Sn 4.900996807524091 7.474045526500572 2.314525274289436
Sn 4.038094950751275 10.480288628145207 2.6254727460956127
Sn 0.8043609935335329 5.282111847258748 5.795378652648572
Sn 1.4664145743830816 8.430198227759224 5.991923873530808
Sn 7.656079726074405 5.9933321363029535 0.16931266861539354
Sn 7.683833677069862 8.96833060277464 1.3352181073242668
Sn 7.393861356557878 2.8217302332809444 1.118622122511687
Sn 3.751585187428044 3.8005673826808533 6.055299950857941
Sn 4.042172280163363 0.3168927947128754 5.559757849908087
Sn 3.9418791040037666 11.30854018190865 5.72826197797981
Sn 3.7084058061733627 6.793938143844833 5.017459792378398
Sn 6.656119130547707 1.1305845176305034 3.7989140255123455
Sn 1.8844968181236526 1.4624004700213264 7.815973332194904
Sn 1.6624472760503037 4.52365717499144 8.737096142563997
Sn 8.24254300449037 6.6110282703531205 3.1957234269557917
Sn 6.6175120395780604 10.372264093730845 4.273896075568823
Sn 10.441198050193309 7.398700689142971 0.6369902363592941
Sn 4.052280526622134 9.259299580982619 7.972495432475724
Sn 6.026096998887036 4.402700188817305 3.790187673657207
Sn 1.6117011203843963 7.572903869660083 8.970389830569424
Sn 10.103782062684743 9.114270722072161 3.241360806244747
Sn 10.154850552827652 4.3723755851234625 1.1825877324768614
Sn 8.97411284259951 3.278130706559243 3.827944931482972
Sn 9.053091869166744 10.189011949358042 6.224900270621956
Sn 6.422373007710961 1.8902390913786755 6.937891542081155
Sn 7.134609731995163 4.991854595899689 6.809243990872826
Sn 4.368224713158033 11.450501989518983 8.496475287897129
Sn 11.403683311161883 6.2454441001300705 3.4341573475446254
Sn 6.523377085410055 8.075506441942215 6.219670269468857
Sn 3.8663222916890723 2.3795578340307766 10.039442219830734
Sn 4.472552772438371 6.22688462736921 8.30774450774746
Sn 3.690581732613187 5.367180851026015 11.168042518499174
Sn 6.473954317996349 11.450501989518981 7.372695908371839
Sn 3.5856428562165097 8.666402828821973 11.070572671457208
Sn 9.683436287178683 7.139345300500732 5.8977517310239875
Sn 9.164186445827104 0.7586833148971212 5.517730428505879
Sn 6.7151269527890864 0.9359033849795857 9.99286540414044
Sn 8.210819493545365 8.397869881374364 8.793765329035098
Sn 9.044716103914274 5.441052690787392 9.262450929587171
Sn 10.10407566169684 4.104288513849017 6.542648316190167
Sn 6.285940223580135 7.0341145994104535 10.900404027682205
Sn 6.078684914245338 10.205976185407737 10.204998172154001
Sn 6.478196420324959 3.962911698653244 9.832637457657693
Sn 9.140403773581097 1.7680576712247429 8.381283347207068
