52
Energy = -184.04208298 eV
Sn 3.6426774957461805 11.490799957696277 4.746235627310231
Sn 2.0665612281241774 8.884694385436923 3.9731890037548525
Sn 5.92641475802359 10.161306177877455 2.8989444262629993
Sn 3.5094531812479066 8.66637087611852 1.443656171614332
Sn 11.558756463614879 8.201861861611075 4.8012064794368685
Sn 11.814570748284442 8.155126182864723 7.869271196135221
Sn 0.9197480631164962 10.472198622214497 6.337869159833933
Sn 3.9401136781342747 11.118193696286713 7.800068626161422
Sn 2.6112908889977757 5.733639487882232 1.063654843023036
Sn 7.289977101113015 11.111895552035204 5.556148111033227
Sn 8.364622517621845 8.172244935366262 2.3070192056906973
Sn 4.884647664349973 8.90337978026795 5.780971493716562
Sn 12.053755958938225 5.441542645602751 6.373354026370309
Sn 6.887502248046182 5.532699826711419 1.0859178773440674
Sn 5.294629118157945 7.054829068950715 3.287344645451837
Sn 2.4746146778571143 6.477508291294657 5.636271765130601
Sn 9.799117948206034 9.699633065608305 4.644899657962088
Sn 0.4270319352669464 5.61472382538208 3.2565099800345996
Sn 4.494843258186401 3.3717360381776547 0.8728605115117889
Sn 6.9517603803444 10.359333790820555 8.438963942802324
Sn 1.8129530927634152 9.379984224211663 9.235908819796672
Sn 4.599359177005162 8.168059820484089 8.890032118390414
Sn 1.4216050356775687 2.753377825430995 1.7398530042924083
Sn 7.8448975213948255 8.001908422071978 6.440356667733835
Sn 3.5372927107405325 4.282404625421894 3.679557200625907
Sn 11.106917827206818 6.932008796133452 3.894216239588303
Sn 8.115541007744092 5.544853479141714 4.107436683497143
Sn 0.9551886987645813 2.8918410816529527 4.787601294328333
Sn 5.05875714190035 5.68820569674709 7.0906041513766
Sn 1.7445592824063727 6.201959460562121 8.636602965220987
Sn 9.96903664470533 5.6480412016987165 1.2975634829255922
Sn 3.728226475665585 1.1119937792636871 2.9038840905417773
Sn 8.941945373269187 8.187643536044433 9.32765673772028
Sn 5.934885337445819 3.2727200106512524 5.1854565896468285
Sn 3.165706920891548 2.993387965256976 7.021994530414354
Sn 8.298135480549256 3.0938125970625974 2.247177903953685
Sn 6.9294284978183365 5.933042710573569 9.79154022626811
Sn 10.970213214853013 8.0896017144302 6.971829390230825
Sn 10.504668559121024 5.137773681466661 6.654217521973826
Sn 4.072993931427853 4.307974254395664 9.652722071799099
Sn 7.873326367703506 4.132958855616749 7.523637889785565
Sn 4.460362415566343 0.507351540512829 5.896088162788156
Sn 10.840382184328654 3.7248033860686904 3.793005425736603
Sn 6.7863722496868295 0.7426218624231329 3.781916440094122
Sn 10.123309061364203 5.013437605728918 9.884340021383208
Sn 6.119026609717767 1.784503931111493 8.435552850038254
Sn 9.281806275810045 1.838059722079491 5.9555865289469425
Sn 7.749437209918952 3.1071451208339425 10.841070318130528
Sn 11.558756463614882 2.606889633102683 7.980615602318315
Sn 7.2917083315395 11.853260662413378 6.647216148517759
Sn 9.032027652105361 0.844681535250288 8.913905340833086
Sn 10.80027302146733 2.309147129712809 10.919900145847881
