54
Energy = -191.64265985 eV
Sn 10.712173334974182 10.591897071457185 6.321489753025656
Sn 7.661997506843552 9.76123669013209 10.07741565700509
Sn 10.671678512815102 7.822401874465275 7.593835789691527
Sn 8.094256666728894 11.67963495231634 7.530870544346593
Sn 8.989970134192458 6.932708835933296 9.905421986073248
Sn 10.70601196869665 3.367420974672728 7.4678561674817825
Sn 6.627675552869605 6.834991752156142 11.939955116853607
Sn 5.795567702902511 3.947249806666906 11.31419913194611
Sn 10.492780868345159 8.368952012866744 4.14566116016293
Sn 8.518776344958567 3.9299915481836085 9.699417269551057
Sn 9.48989888341342 1.02464001511877 5.979305364998191
Sn 8.614675164068093 11.605013581215008 4.362592446004939
Sn 5.154735662874447 10.600037030242104 8.4390853476428
Sn 11.568840363918337 5.706803753216943 5.683572675480495
Sn 7.86281478139412 8.931276380547443 5.995009542813705
Sn 4.973022520855587 9.339107379335735 11.36955849019743
Sn 6.034319655477017 7.4444600708705355 8.689522811283927
Sn 8.639951954340784 5.604007716636414 6.929108384465533
Sn 7.582589650425356 1.3132112700952923 8.295966932297208
Sn 4.746207821577277 1.2526493067645839 9.592449197588355
Sn 5.662945389170826 11.655669743618441 5.370468448032876
Sn 9.821214615151606 3.5127877036040003 4.364219159199666
Sn 7.682442865102595 9.311667466148 2.727982181936939
Sn 3.8642532088045787 6.3210654102037225 10.64441942206102
Sn 9.457000665072687 7.401896543590188 1.278396523580182
Sn 5.748224343936663 3.9901865861788446 8.15318962068139
Sn 8.11220474143242 5.822564472033315 3.425075296925728
Sn 5.892241127928859 6.018177579935161 5.526273039900163
Sn 2.859538418086405 3.6145273001008786 9.273166668021123
Sn 2.9745934143144384 8.462491985986523 8.558962915212447
Sn 3.009318597156816 5.820238772628094 6.814623837894131
Sn 6.864929858333214 2.729734292585905 5.405990102321308
Sn 4.440964379123854 8.85137816753868 5.4093620053169555
Sn 6.252958620866118 3.6960972694407332 1.823198451828198
Sn 4.803060170493433 7.332632522650224 2.646162560476726
Sn 3.510555427450714 2.3199320815706415 6.163404403648482
Sn 4.9335485208499525 10.52202296691562 2.3316846976847856
Sn 3.812921831497957 4.33769332536588 3.4908604690346117
Sn 2.7758514996795984 12.343941579719699 7.718024567014512
Sn 5.57620759581869 12.479253233538005 6.464129297306341
Sn 0.6610769290657493 0.9046115938330186 5.935082483753799
Sn 6.693406655319018 6.588389736274425 0.3227785922951768
Sn 3.9312953857599657 4.916455540159057 12.678783426777173
Sn 1.3571441266839241 8.39216922650049 5.768873938042144
Sn 0.6768846444546123 3.827611522424567 6.8999676715303595
Sn 1.033491279471292 5.6685935908362035 4.470124998195367
Sn 5.279016000300387 0.7721973164945514 3.3807285537414993
Sn 2.2770475349494377 9.268803808118543 3.0431295794510853
Sn 3.851874986293902 1.9614758795786222 0.7586003986365976
Sn 2.145065698877267 1.5712759545692072 3.3431916450007892
Sn 3.0876344075391744 11.67963495231634 4.7026692386909135
Sn 4.557782841200402 8.663653438564541 12.522915361086575
Sn 2.1178245179434922 7.169467730715201 0.9501982405094132
Sn 1.3398370720556074 4.063108868140585 1.6541305241387565
