6
Energy = -19.91419833 eV
Sn 7.9026797960847 9.205540848570545 8.409801862333111
Sn 8.387978880901004 5.905306141821958 8.833717200523996
Sn 8.669379715399353 7.340514909631854 6.293715214525216
Sn 6.606601832005124 5.275248070019994 6.076844703588484
Sn 6.102513843700281 8.572748667915153 5.628445887679448
Sn 5.8243428305120535 7.1622853739215975 8.17450923565736
