6
Energy = -19.32164252 eV
Sn 9.52603821891927 11.525877511662742 8.876844954886565
Sn 10.88934794715132 9.012633687950228 8.132499989315244
Sn 9.870610796525682 6.965538596804811 9.935881367750302
Sn 7.817134563879735 9.107016713656243 8.62030325031364
Sn 7.5787378830143 6.332471553656151 8.289560501377204
Sn 9.559430756360962 9.590523112153203 11.116863755654833
