9
Energy = -29.84654271 eV
Sn 11.289839454769472 7.214593240152842 9.582855937896765
Sn 9.718743085201067 8.551094692060065 7.312276344880145
Sn 9.996814729325147 5.497997480217757 7.507568798897243
Sn 8.279973944152529 6.7358537365442555 9.735885189762596
Sn 7.237360046919106 6.686338677699922 6.775922266547689
Sn 9.571304933745424 9.535634505787325 10.280893884273828
Sn 7.016287730424989 9.30517169157729 8.651715704320765
Sn 4.831302332373476 10.911321908477774 7.949010716016987
Sn 5.633526494112015 9.099974774392395 5.883848585244152
