14
Energy = -12.69679084 eV
Sr 12.948680618971885 9.233271267784408 6.9032258446207955
Sr 8.930917867211264 8.581909161924658 8.355089982129096
Sr 12.588146373855857 5.839987150851106 9.363608382303894
Sr 9.637283569606328 11.338831418616177 4.995830035573593
Sr 12.5085011410855 9.505186255513731 11.058862290464205
Sr 5.730840100270239 9.97889293232431 5.316681511379727
Sr 10.926466369240556 12.329649909389495 8.724212854459909
Sr 5.435111816852184 6.270593474155529 7.290329321324983
Sr 10.100429156647271 6.641991430369021 12.508785861880988
Sr 8.753992446151825 4.285858842794914 9.328782669937617
Sr 4.683505278102014 9.90858204971554 9.223921848627798
Sr 6.318964182257917 6.899209783317385 11.264825004280839
Sr 8.288722335172212 10.666883332678582 11.643010044097254
Sr 7.060952739084613 12.851343328825026 7.908919216174767
