16
Energy = -16.08759292 eV
Sr 11.009762583455808 12.294083533774534 6.0922742217961305
Sr 10.82104841733383 10.209400818938112 9.765042342556569
Sr 7.536041266266695 10.891497408356905 12.485812652371667
Sr 7.258181260661325 11.741734862771303 8.305098345869977
Sr 13.213961515226648 8.75281328281789 6.6647299808198985
Sr 11.538303132107966 9.440432863642835 2.9363569486741534
Sr 9.245467602129514 8.721017317527643 6.295393610156949
Sr 3.9321175234582464 9.93643050774035 10.376776222562123
Sr 11.189292785398711 5.584024508322427 4.774659534670417
Sr 7.311838459796614 7.982705308454273 9.795852235395703
Sr 5.008029654393941 8.553393145868606 6.585706847270503
Sr 10.929494319938927 6.11314921939318 8.96076052578827
Sr 4.041608918042392 5.787399966580064 9.561500739949281
Sr 5.398205191762447 7.249200205659788 13.275248726452434
Sr 7.7108468152173915 4.289613775790176 11.188291541071507
Sr 7.435032885405839 5.069535375422153 6.99368554264149
