12
Energy = -10.99666246 eV
Sr 8.007471021122065 5.427372801431538 8.089915390684624
Sr 5.21862548283108 5.77373383257902 5.502215516281373
Sr 4.919965422209951 8.326979880086078 8.362389119050484
Sr 6.529780955201873 2.0768202842146812 6.386143229622455
Sr 8.368888239066404 7.349705113366462 4.305187670567394
Sr 6.775359622974082 3.6979560131624694 2.69902740401222
Sr 3.473964700040817 6.313344366244245 2.1084014013374497
Sr 2.831413229088849 2.9695809711113967 4.578638008829001
Sr 3.768809936511243 4.285307085024831 8.67689239540331
Sr 1.563885571920284 6.915120420084968 5.968786453743558
Sr 4.577662832736193 9.543466345796139 4.4387759494128325
Sr 10.170252885885452 3.5266923532447136 5.089708010506048
