13
Energy = -12.09236809 eV
Sr 10.276663173859234 7.027138721960677 8.4015519790731
Sr 6.925346519557023 9.59492045778831 8.572860102839423
Sr 9.617595599958015 9.574771869995622 4.96122472073687
Sr 2.8778472531443575 5.871622376248774 11.22914092867013
Sr 6.538576274194271 5.367757910644048 9.529802153263242
Sr 10.666721831219936 5.418421274257678 4.638198724293176
Sr 3.2213529043073645 3.40241823085135 7.815938051917705
Sr 7.2747032418345166 6.799033339153746 5.992193359371685
Sr 3.5931364021913583 7.408097817212217 7.56342646266896
Sr 7.228225323365109 3.0975805675761725 5.839931885207576
Sr 5.327824637580534 9.629858903582843 4.392832775021709
Sr 7.636633669481661 6.742801822348214 2.226446888963099
Sr 4.111693019806457 5.345470068074377 4.098581519328229
