22
Energy = -23.1051043 eV
Sr 9.313641446137384 9.264271388614297 13.545183002775124
Sr 7.486733386195877 13.515028964230536 12.144312623564712
Sr 11.878356883109058 10.293478774252065 10.689127769106477
Sr 5.361402199955325 9.824349717593858 13.061532653153956
Sr 10.541009948341765 13.47382427870391 8.823436673382536
Sr 7.062996742769902 5.944137226659475 13.224251305393087
Sr 6.750538419494358 13.90932355607839 7.7350770136922975
Sr 11.255821236435251 4.991891117572272 12.494555540279142
Sr 3.986347020277123 11.500919839083751 9.569558916911854
Sr 7.767187104741963 10.572228737715145 9.88462859664478
Sr 9.328554491850182 7.009323420004658 10.032934695067695
Sr 9.663043084299446 12.677027790177151 4.946245964186289
Sr 13.377114348501044 7.048708513407016 9.076537872951215
Sr 10.117712388520818 9.355193647190871 7.097362386116032
Sr 5.401142032814157 7.385239413709121 9.472302543303575
Sr 7.4726698750669 3.57670490447703 9.887417620857097
Sr 11.16783134037009 3.886114709039916 8.143109517418377
Sr 13.54322297521517 10.865924464744777 6.7300066282496624
Sr 6.296247775328786 10.064753110708166 6.143762420515702
Sr 12.315570265976648 6.654602083101197 5.1780165032976395
Sr 8.073251923917717 6.013160814433571 6.30343729274094
Sr 9.273546410684244 8.840932912502339 3.277924741557775
