21
Energy = -22.24789516 eV
Sr 4.333954146863542 8.380625392621033 8.778233124051003
Sr 3.5806349353279012 7.5283286955370805 4.4285010157997675
Sr 7.14878560934802 7.845967962907686 2.1362635808253945
Sr 0.8840643301358855 6.269431525265446 7.890675076491094
Sr 7.489410401285465 7.045086014225663 6.13290175295231
Sr 3.154870034472705 4.932478738754049 10.700367372852911
Sr 3.9908778109058014 7.669577963505861 19.394553333773967
Sr 7.151111269453612 5.6482929768188015 9.813514474936245
Sr 4.551405290346298 4.714881057999189 7.458563672285104
Sr 8.29983554439547 4.058122699457975 3.2055246919789067
Sr 5.602200913842379 1.6903589934480208 9.813514474936245
Sr 1.7602869425926801 2.046936935574332 8.322345741906727
Sr 0.8370520579404382 5.481052731458651 0.9961632858917788
Sr 8.426786986115973 3.191536960508116 7.174684028735147
Sr 4.581980009006322 4.577388556820542 1.891151491810202
Sr 7.314707110598184 5.028569550754398 19.010996456685234
Sr 1.6695791340994883 3.8932264786055057 4.68056365420647
Sr 5.149669352900426 1.6739059666034986 4.936780035119813
Sr 3.4989415059898263 3.6124708055013066 18.13930204127859
Sr 6.247635583470631 1.2748702197847943 0.6137314831559927
Sr 2.196440288839318 1.3785386135909115 1.5152533935164016
