22
Energy = -24.1298887 eV
Sr 4.0249015496952865 3.103886678161906 6.566628043790107
Sr 3.1019844025042165 10.044174411350209 9.118965900707392
Sr 4.979219196556195 7.115426317490413 6.6182473456743525
Sr 3.1367443341153307 5.677867830091165 9.866068729796442
Sr 6.664712786977696 10.905221138761409 7.127342863331225
Sr 6.49532260570582 12.26517607733427 11.078827747777108
Sr 6.406570856170692 8.186527971986056 10.40444866933962
Sr 7.722586768281383 8.535038511672733 3.692063993274823
Sr 8.987641941607327 7.421403778240661 7.254337421352532
Sr 7.7610754725210365 4.389855928673382 4.949723877982056
Sr 9.353949788037722 13.99792931593771 8.330131576673336
Sr 10.716421429682109 10.79157000831071 5.736625389713894
Sr 9.874426556441149 10.383202645091476 9.765043224279548
Sr 7.0605634467955385 4.297301648636671 9.028546899727786
Sr 10.651426995336966 13.286841312051815 12.249443296648657
Sr 11.452526898194659 6.764797391857355 4.29592629254199
Sr 8.886987201974994 9.67515645396967 13.545283956556947
Sr 13.212538053506998 12.307008774941767 8.904531174613213
Sr 11.147570145340676 4.129652256007371 7.588378656154964
Sr 10.280398557172523 6.493174742513268 10.991176304800172
Sr 12.922007593560615 8.082687953722976 8.125954379910114
Sr 12.956743076140713 9.64653080791412 12.145571846160003
