39
Energy = -46.49278085 eV
Sr 14.47713970655639 6.110296123452539 9.33950617627951
Sr 15.95540249605894 8.546751283012192 12.319796089472222
Sr 15.067076462820678 9.684740321555392 7.734757608481827
Sr 11.483925762960792 7.765633006386699 6.736593961513348
Sr 16.562980390643283 12.065628776054949 14.516826370631644
Sr 14.990312415221004 8.525803887036485 16.750230691214718
Sr 12.933145075026273 6.2219772677242675 13.399824505754179
Sr 14.42565461598794 13.872400864487368 6.86259568314054
Sr 14.421807796979657 12.273185579562671 10.94092563517503
Sr 12.436088357250043 11.177415009945914 4.779107019161581
Sr 10.210117981408287 5.737451436441484 9.878389924885408
Sr 12.39192892483909 8.758396119528514 10.681249523781783
Sr 12.62948714137803 10.634407178664102 14.685763647305494
Sr 14.253593978672358 13.200537102259426 17.58332657743411
Sr 11.50234700551432 11.635422355554898 8.182442090007852
Sr 13.331182370233444 14.932100068553625 13.818910250329953
Sr 8.684460077124648 9.187975720027561 9.38233474666757
Sr 10.104310769200676 14.582450285443601 6.351318101525888
Sr 11.824126638667678 15.320742145976121 9.779573715180625
Sr 7.325114860898447 6.654289296826796 6.72958949211162
Sr 8.33782984675573 10.811447034334204 6.099102170781126
Sr 8.539341093175688 16.82914138914832 8.490511673108347
Sr 11.441654826791753 10.548495929584583 17.985129903794945
Sr 8.987881073169023 4.4582163420795515 13.741210748370992
Sr 10.135482009363331 12.33848964592061 12.389051539964255
Sr 9.38417198041472 7.90429046131082 13.007736625799701
Sr 7.757827648466978 13.527753788481068 9.692667104632047
Sr 9.335560872620785 16.530920807493718 12.689209174246718
Sr 10.594430068130956 6.994289673805882 16.640684986175906
Sr 6.268618691500051 6.280569602320299 10.926823428629492
Sr 10.256027544523882 14.064346778926405 16.270241118007085
Sr 5.444075541347931 10.115415740563384 8.18422476569321
Sr 5.548233516116009 14.570010441716347 6.795243172001213
Sr 5.44407554134793 16.82914138914832 10.926247956351999
Sr 8.333822693059886 10.541660172363036 15.840821157140445
Sr 6.333157103469513 6.916152654543169 15.216152349775326
Sr 6.0964383939792794 10.226638875099466 12.313401372043389
Sr 6.464079282649609 13.976982852232887 13.898709824422982
Sr 4.0844996377223435 13.241577621155459 10.608855038823318
