41
Energy = -48.5409782 eV
Sr 16.632113711898658 5.889521048689811 10.523805835127309
Sr 17.265292304249048 9.839626786728203 9.186319439948438
Sr 14.621471710770056 7.18538442352016 6.954492864758536
Sr 16.632113711898665 9.220060860791198 13.423521072750043
Sr 13.933424423823912 6.122954689767625 13.747874654122727
Sr 12.422601939722185 9.122804873318413 5.0853567008354466
Sr 12.343906638743249 5.071359260511739 9.676632191596712
Sr 13.904159225205996 11.359745613277374 7.458087840549794
Sr 14.905897233316134 12.6393271673808 11.627724824752061
Sr 10.429509420944234 5.515178274729378 6.645221750187954
Sr 13.963612806051577 8.741356505863989 10.57914886062942
Sr 14.83205744934403 8.446139787964164 17.219113118359186
Sr 15.432806743832248 12.44735900192326 15.893170143805952
Sr 10.735917754853155 8.716230464112487 7.909181542253011
Sr 8.386728930718556 8.726086787162536 4.857247654238207
Sr 10.482560099935535 7.661302346469353 12.22864777574451
Sr 10.057979334856494 12.094331132497256 6.798153922159105
Sr 10.438720037669539 15.86049857770907 10.820192158928435
Sr 12.842592414705939 10.07261728248958 14.181158905420304
Sr 11.587288141452197 13.888915922016404 14.423806764368038
Sr 11.019764984000458 11.761887969431859 10.603797922466304
Sr 5.842463328728287 6.189077784703375 6.844889515079067
Sr 11.786118256375355 11.306738885420375 17.756460027068723
Sr 8.380653305540898 16.659722221550762 14.51763720191428
Sr 6.4765599781416805 10.052447443625297 7.1638008345134825
Sr 10.61757894856901 7.221071284751051 16.585618731498244
Sr 6.865977826672596 6.45054913492223 13.29327453989988
Sr 7.472887626631542 9.819679688121395 10.996190019721618
Sr 7.685899619163294 13.60742187543556 8.735057072463878
Sr 8.087305096672969 6.063618996187951 9.26560737651879
Sr 8.36906702406697 10.139987136275867 15.221976861467251
Sr 5.955826276167698 16.393738692385487 11.209604687749158
Sr 7.900563987559227 13.342466812609585 12.757744914816245
Sr 8.260456062573013 13.624559002960817 17.230340407221654
Sr 5.25757533752775 7.707572255032737 9.917036335253167
Sr 5.321794282637384 12.279287364515888 10.630725329210179
Sr 8.39653228104545 9.811980307064669 19.229239958375217
Sr 5.426203882654444 9.769812356744723 13.914133457938364
Sr 6.070629446856887 7.315306434429805 17.215416835326405
Sr 5.694983509195166 14.141919846201093 14.768260370447901
Sr 5.8424633287282886 11.222341003117485 17.79324181392962
