51
Energy = -61.32394299 eV
Sr 19.327019070835902 13.206881426331028 8.436130358620462
Sr 19.586377725354474 13.08674433187034 12.528962219611206
Sr 18.95618624227898 17.05363075832467 10.644518788312947
Sr 18.599346067510094 8.646411193197725 13.423356328798933
Sr 16.973180949121925 10.608697168392492 10.610223030466157
Sr 16.937926269345162 6.923359429194944 10.275708888665056
Sr 17.29278617161237 16.021070074553897 7.486208267424191
Sr 17.642544881128597 15.954972561420073 14.506510201173148
Sr 16.507370322868315 11.136942461836323 7.064528775665054
Sr 16.699613241854852 14.473780492054072 10.749612408521639
Sr 16.775984936185193 11.858271070100178 14.436377414046506
Sr 17.20607563119483 5.421306332878886 14.13415759894524
Sr 16.58725252240764 8.505657858903069 17.104334410963798
Sr 15.387582501754203 18.12820099459662 11.92703778291765
Sr 13.373400264682438 8.633768514158017 9.316875978600814
Sr 13.500741208935175 16.696050023939303 8.533181128742507
Sr 13.189710844827506 10.952666437648055 16.350943185398894
Sr 14.997944433154037 8.296968048337737 13.427731926813648
Sr 13.631741676735766 12.692970001200555 8.826138407111934
Sr 15.578150386386218 13.866782138784997 17.803967373410263
Sr 14.298484389214876 14.216311707403774 5.304917598197227
Sr 13.074485190165781 5.620917390289035 12.068464686465582
Sr 13.785529876456723 14.539609111464245 13.697367318659872
Sr 12.236873554302601 10.554393541925648 6.024334497208753
Sr 13.786486378319601 5.766591612016199 16.289530023031837
Sr 11.93077395444619 11.036880749765766 12.395849084847418
Sr 13.874580629084079 17.661688822093744 16.097191982078797
Sr 9.864626305765817 11.064457868068645 8.826658544909918
Sr 10.540479962644833 14.318486624151603 6.847889484486114
Sr 11.65458810862231 14.663997874211379 17.81419247985298
Sr 10.880454384942725 7.76523211177499 14.926298668683485
Sr 11.888281304291297 7.865207039654592 18.965041886217858
Sr 11.182302750736094 17.80017036201319 12.89875769270401
Sr 9.379253549454464 7.597301899123598 7.49348335086865
Sr 9.375595964524452 7.888239706448544 11.260002626460075
Sr 10.552374246283465 14.650456609370357 10.554448608044744
Sr 12.100742123283824 11.703046459809567 19.792134343340102
Sr 9.97360622806545 14.038303741598565 14.520752115964383
Sr 9.29819180548873 10.766187311522735 17.20124090499148
Sr 7.87764963018436 11.189130748988752 5.894619233307061
Sr 7.758314725112625 11.926798481072327 12.09604883077876
Sr 8.659502090181636 17.14239759512337 16.45396516524941
Sr 7.105412111914328 8.968237574724666 14.441711727476843
Sr 7.339210510118242 13.88666707958202 8.64180383963136
Sr 7.991177059373948 6.923359429194941 17.866949352480795
Sr 6.582646749815983 9.59952427932023 9.181664653152593
Sr 7.626041959943723 16.206749578825896 12.497258372362717
Sr 8.561711283582266 9.573135956743393 20.518826537011883
Sr 8.01580006274392 13.657309646586095 18.965041886217858
Sr 6.638476737896621 13.454298787616738 15.703045279131176
Sr 5.893442182794367 10.299057177223323 18.35671281920707
