14
Energy = -131.81647128 eV
Ta 9.883852862614795 7.469404972199229 8.125941217472397
Ta 8.079252167441723 6.655772339511651 5.902106164681652
Ta 7.48567637350735 4.487623748074149 4.422072878541598
Ta 6.246712966973457 6.469255486988483 3.5943350380792944
Ta 6.476942598462591 8.567762558519437 5.092056902101697
Ta 8.277355619388693 9.094331226864826 7.318005040036099
Ta 7.282138390260593 4.014353508757552 6.814102958172025
Ta 4.12988691897006 7.471814117303099 5.068296794257072
Ta 5.059844460546664 4.939802780176527 5.531584069675623
Ta 7.661382398192164 6.118514716549621 8.459806135597821
Ta 5.80380376955696 7.73445251534737 7.48662770502257
Ta 5.217174738409185 4.993512699317808 8.251329246712315
Ta 7.763033112994351 8.477151164696677 9.603672071971744
Ta 3.4975147649348 6.380803426668622 7.201719405668596
