11
Energy = -104.137234
Ta 7.119295106287486 7.28253204861211 9.946687418393532
Ta 8.330093893094357 8.312759761669195 9.740885151334812
Ta 10.645916587745205 8.060602978003677 8.396642554272384
Ta 8.695434491756043 6.311702715312322 8.646842825444626
Ta 9.740466790990494 9.58747693263667 7.47488483123815
Ta 8.330093893094357 10.707161098305681 8.408901193570207
Ta 10.081543122205886 9.883702716094739 9.497688255371939
Ta 8.987765283173024 7.646917858534142 6.958389981074042
Ta 6.379902493454242 8.957888244079712 8.659437252214593
Ta 7.082733286620698 7.260170664324674 7.885717761597682
Ta 7.73017225702335 9.112501187872212 6.966266391823357
