15
Energy = -147.18970734 eV
Ta 8.637299300402667 8.637383471489258 8.6378625217685
Ta 11.245138651235973 8.391634799254149 8.675274534130308
Ta 6.068009952281747 8.921490139870029 8.637862521768502
Ta 9.741897342840891 11.014919926780609 8.634324550867968
Ta 7.191853894610838 11.26715095141341 8.632576727430157
Ta 10.121419110392932 6.046345595277615 8.68093077321827
Ta 7.571546979384068 6.298363140132398 8.678801484822948
Ta 7.938341385118743 9.947485608151936 10.794499408692078
Ta 10.488584285134586 9.68570154283848 10.78658714807632
Ta 9.392507138270402 7.3412023958685495 10.853666851082936
Ta 6.823604211621722 7.635687698563612 10.78985322819178
Ta 7.920788992542009 9.97206755838036 6.459319277093065
Ta 10.489738403315712 9.677700523519468 6.523528747379731
Ta 9.37501388612012 7.36563970765807 6.5185311166679405
Ta 6.824683699190456 7.627656173265543 6.526807341272911
