11
Energy = -100.18361724 eV
Ta 8.999974262516208 4.950199169917698 7.478870433771787
Ta 7.6204695745834545 5.115295018546973 9.607194021686398
Ta 7.5052780757296125 11.489495857591052 6.875092398647087
Ta 9.020941892273527 11.717168968093285 8.733310375658899
Ta 9.97143981536961 6.015650602648144 9.557274183780208
Ta 7.148961928831142 9.926824148100149 9.10411321272824
Ta 6.761968045946688 9.039470884074946 6.71965578192757
Ta 6.610428756148608 5.72963555317113 7.371197027090376
Ta 8.253725846850267 7.510421024611011 8.309332507876213
Ta 9.371494436033425 9.653981356696018 6.953315853422633
Ta 9.758955652365833 9.377138327758088 9.47904631568858
