4
Energy = -33.01150295 eV
Ta 6.235644370939104 7.26064994327855 7.502595246335569
Ta 6.9617427679007395 7.260649943278553 8.200417738756746
Ta 7.690752858669924 6.50112343396761 7.433983560126383
Ta 7.093779480040912 7.892536679475492 6.7110029772306685
