6
Energy = -52.85538334
Ta 6.113647064545597 7.338718977383675 6.477491268672295
Ta 8.190295523792354 6.035987335391383 6.1057516430556555
Ta 8.208375294789453 8.646221765163585 6.123656704108548
Ta 6.469114899071735 6.031446524118442 8.55407170087496
Ta 8.563933998912786 7.338718977383676 8.20010542789818
Ta 6.487399218888092 8.641672420559466 8.57169125539024
