8
Energy = -69.02181249 eV
Ta 6.4157536085276865 7.030871318735443 10.726564215622584
Ta 10.213341087508143 8.717693221825117 8.589629402736776
Ta 12.133702257412285 10.099852440959461 7.373372960713408
Ta 8.186472608211231 8.81998849529813 10.433584766115334
Ta 10.164181673288395 10.39182617364806 6.586477841189341
Ta 7.967467403067182 9.193249465441776 7.626094137240121
Ta 8.268641551013777 6.741512121684413 9.023319275399794
Ta 5.99758311476738 8.325041839593752 8.727917628174179
