9
Energy = -79.85338367 eV
Ta 7.723897701320385 8.367043350135917 8.580291254404683
Ta 6.9865251478057475 7.357673325198283 6.180310282420711
Ta 7.081449812328314 8.038788557137432 3.609822767036292
Ta 8.016155143263243 5.951500657276812 8.400315231961812
Ta 5.504056978734612 7.348483907571421 8.584928859435593
Ta 6.099624970005669 6.079629502491984 3.706958895604113
Ta 7.1425860626339785 4.7981491335253255 5.883406817422101
Ta 4.706456655636153 6.168448417458886 6.063133439836143
Ta 5.740813781828199 4.8845126776643095 7.979184834494198
