12
Energy = -35.51553585 eV
Te 8.685604156424642 10.305481539097807 9.076748743889105
Te 6.624608109413675 9.167799753079171 5.522538649230072
Te 10.063592614894365 6.055273718466913 5.860304807831727
Te 8.016817092346814 6.0636417986048805 9.470631955264837
Te 6.053607867964898 4.550937483601378 6.560287789786257
Te 9.818495363534 4.5085169990884335 8.073934135262677
Te 7.673848732166461 5.383147836008609 4.532182820138703
Te 9.707741490915646 8.055665455779494 10.335613081817266
Te 3.9015805921620648 6.252161735839085 7.044157781971572
Te 4.512234487657875 8.122180661321915 8.944331452261213
Te 9.087635956454823 10.224613457253344 6.397266956785543
Te 4.833396298653604 10.2921101856742 7.227347894215303
