9
Energy = -26.56716366 eV
Te 6.6275080367359305 8.870479388873148 4.647334132502864
Te 5.71637093292226 7.409875101023428 8.75599664567876
Te 9.058393044855292 7.776128535976498 4.142525520749442
Te 7.521100062383693 5.425703908319739 9.436675217968382
Te 10.227906540306508 7.121034191141467 6.555735638499594
Te 3.2137917072743907 6.462462332848366 8.412011770962529
Te 5.5942580882924755 6.224975114574016 4.844760893337373
Te 8.94327137181024 4.761648653152861 7.190303329646074
Te 3.0295194404693633 6.4097476996444 5.550059516464523
