16
Energy = -98.70959147 eV
Ti 7.482635036857119 5.951163423926281 9.324433370034157
Ti 6.3353881761335975 8.063155863705648 8.012149902670723
Ti 5.040076316591837 5.979314148446073 9.081496381366684
Ti 8.990322600441694 7.2805767673971795 7.802670030205226
Ti 3.637108960975341 7.69943687757667 7.596378565331581
Ti 6.355676854618042 3.8887113464855547 8.18512579193197
Ti 9.039288208301066 4.645639134932168 7.804226666731209
Ti 5.308028484349479 8.370073325982903 5.7163791115884255
Ti 3.5220956589996875 7.231868177851488 4.683242230454573
Ti 7.857560142735013 8.104501701470335 5.4263978380381515
Ti 4.308342961875558 5.574973284184475 6.6119930640020605
Ti 9.556917876717847 6.155222971386686 5.637228385900029
Ti 6.0482989627742745 7.688203699000652 3.3211629201971653
Ti 7.043254754809182 5.808514755556318 6.592148386283862
Ti 5.486572634359396 5.550665886404856 4.411482813447197
Ti 7.997102360067083 6.016648626298938 3.802154532423347
