11
Energy = -65.0654422 eV
Ti 9.38848055831567 8.306062038194659 7.787673884047473
Ti 9.14278807703726 6.536101115607528 5.902945182878115
Ti 7.547872620376328 8.616609358086782 6.364022065061966
Ti 7.733436165010459 6.202076166452801 7.923561459700603
Ti 7.264169980042146 4.497589637932557 6.025689667599855
Ti 6.860214110710943 6.729046332392846 4.836114298372019
Ti 5.266513271170709 4.503339636555568 7.753750956575033
Ti 4.915546581203535 5.214517945790988 5.241016588724451
Ti 5.521955083878091 7.0022968360327535 7.423621290127174
Ti 4.557705626470276 7.857200741982086 5.393510865819078
Ti 3.3059925099672833 6.039834775154133 6.852768325277206
