27
Energy = -173.41122799 eV
Ti 7.927189905635266 3.555322042021453 4.418687351496249
Ti 9.363607605460153 5.567326442388497 4.402998255586349
Ti 6.538598613807799 2.9158767353473953 6.404438034352735
Ti 5.338689127321768 4.0460377811718775 4.507679244915472
Ti 7.103146310645528 5.583659144403699 5.762285108994384
Ti 8.840047433207944 4.400232077088951 7.31269618357795
Ti 6.872080005757705 5.861353115206543 3.2033197362742234
Ti 6.46487622325086 3.778645101781169 8.685603771547381
Ti 8.378329220169553 7.816236467218633 4.167405168450795
Ti 9.716138680558574 6.60581213675606 9.096197720728181
Ti 4.7143340236402125 4.848908089881566 7.095143247865101
Ti 4.551341061179311 6.53351053587728 4.86812439503967
Ti 9.379644512459064 7.386492150798695 6.4819129820391375
Ti 7.259540044656775 6.5036920528438324 8.221297311013084
Ti 6.438234211544223 8.207544169555502 6.434678152270379
Ti 6.008658705569059 8.705886045247729 3.8396075874816376
Ti 3.949120698766364 8.865992337613731 5.390761843183325
Ti 8.053547558719204 4.884472690163646 10.061114442822634
Ti 8.755082290955732 9.032441048147536 8.479388614926604
Ti 5.3866935633265385 5.95532989946682 9.777967047730417
Ti 4.123377819814476 7.322190437157071 7.5332998996331595
Ti 8.241459191726818 9.86073397679568 5.787301492092944
Ti 7.659015260483718 7.502132214040204 10.60597771153473
Ti 5.676080058383013 8.820007381840682 9.078773663429372
Ti 5.13318467871881 10.453509468130816 6.4872770228650705
Ti 7.283733447207813 10.195406761214453 10.22555697407078
Ti 6.973301787486298 10.905023619644462 7.771307541671092
