21
Energy = -132.93880047 eV
Ti 9.396445627765079 5.2298135249629905 8.37137080779807
Ti 9.049072355569798 6.806916550098644 5.955795227702847
Ti 8.2123393517396 7.841773724978799 3.8242933378541184
Ti 7.214151758378206 8.931298285742267 6.038012193042457
Ti 7.9619504391117415 4.261460988460452 6.375705769841863
Ti 8.082247503155017 5.31596595961655 4.113032937445979
Ti 8.472726956791709 6.191067956503612 10.29378832108891
Ti 7.519217426390526 7.0123924950252485 8.053646258334524
Ti 5.977393513930949 9.010636510118344 3.60576004746488
Ti 6.056097601738026 6.428172075949083 5.727086126280633
Ti 6.129198170515724 6.513519797476281 2.913601179227763
Ti 6.93104153075019 4.576233946835998 8.970033379461121
Ti 6.291784045965673 6.834189736942487 10.224065641464405
Ti 5.581821862320854 3.6517963724460785 6.911374701705305
Ti 3.8484425760870766 6.381494563475443 4.088521399223366
Ti 5.664728994976784 4.250580015191367 4.262242110404536
Ti 5.227444095882768 8.336506090818215 7.785124035078126
Ti 4.463644676921645 8.800896275348967 5.376694271651994
Ti 4.684442045144633 5.716921318610361 8.373430938038366
Ti 3.7122752331454536 4.673234237976 5.965305514890983
Ti 3.369819048651681 7.047219933378548 6.6096629481791505
