29
Energy = -190.09546159 eV
Ti 7.560388867110618 8.188370810795991 3.44269539332801
Ti 9.626445056598337 8.143264785425428 5.083441949426799
Ti 7.523293877638573 9.718139531537883 5.8745225462187545
Ti 5.287386964796696 9.361983966552764 4.342578007799376
Ti 9.629578138638733 8.905249688669297 7.539990200955498
Ti 4.872341827078426 7.326223165327282 2.840882280935721
Ti 6.7350150095041394 5.593016292998307 2.818528342990644
Ti 8.866445262712087 5.736910318766621 4.352867624903225
Ti 8.993702000965927 7.14956716598638 9.255415951554669
Ti 6.028136441989874 6.91615711000707 4.988181341080898
Ti 10.09375618101686 6.123082970380983 6.9756561700087625
Ti 7.86914445585677 7.3089749245288065 6.866564920959885
Ti 7.108476644597046 9.053969828727142 8.753815026840547
Ti 4.860580101107178 9.409902630327592 6.9356407027178495
Ti 4.675818799140192 8.437960970150492 9.525176840112126
Ti 9.166757992507147 3.79817760356083 6.118783094254077
Ti 6.803708427467198 4.896897810638171 6.529723223117986
Ti 3.448800004073464 7.547983963276605 5.236654747406371
Ti 6.952111901967239 3.488537515654297 4.453632929527885
Ti 5.3340930516906795 6.869038281087516 7.568426473830629
Ti 4.48061473106505 4.915039336191807 4.235124220152888
Ti 2.887163338944766 7.730246678096156 7.788838429287404
Ti 6.535590617657161 6.467315522547313 9.88633632346815
Ti 8.338294348643096 4.597188123232115 8.658304808027424
Ti 3.820678689266463 5.987289771751298 9.478134574435607
Ti 7.201446128668565 2.5371840976908437 7.158337977583318
Ti 4.903451494755394 3.085499475586115 6.203894756119023
Ti 3.4469707071076936 5.155312387643193 6.8921045978089825
Ti 5.45081345984874 4.052519795275223 8.696751067561584
