24
Energy = -153.22839186 eV
Ti 5.156667437766868 7.918188599815859 9.493103975424589
Ti 6.850952329808441 5.687608230193523 9.29053168762425
Ti 4.039465762980145 5.627692459779828 8.833725966644428
Ti 7.67590764459255 10.147766275880667 9.184390193180782
Ti 5.607525917688349 9.519391074362026 7.710465586081212
Ti 7.921593676059407 8.054061002451363 8.998828671877272
Ti 7.874062238547908 3.7237778564886472 9.227747776850046
Ti 5.612981300495221 6.643852239372133 7.071305257038105
Ti 3.620720063519131 5.14330171200229 6.213368778803226
Ti 5.555939420304077 3.868941993956606 7.629406102977629
Ti 7.834437886762715 9.786687391352894 6.5026270135486515
Ti 9.461009534638093 5.946522483062021 8.378818247195275
Ti 9.930293862841587 8.404442807923381 7.182958201125674
Ti 7.869301296406134 7.026924555647713 6.336208075381672
Ti 3.4394275232356146 7.791920699002025 7.193691664723986
Ti 8.110780494268178 4.350504231902037 6.76271819242268
Ti 10.265029350097478 6.1279762925143695 5.876394685160677
Ti 5.452826303015098 9.003132167106292 5.37537574321251
Ti 6.11804299383571 4.6260999636508915 5.12739141343104
Ti 9.220358051544393 8.158327772416845 4.559777335271193
Ti 4.269920523819515 6.949663144126104 4.601641325767192
Ti 8.47557967426139 5.575911945641397 4.138665057453209
Ti 6.632156165078552 7.3417518648875 3.7373755942429376
Ti 5.520205016044312 5.091803908465191 3.0966129824076614
