29
Energy = -189.85817504 eV
Ti 8.724501579400858 6.917506398159369 3.6002333991014126
Ti 6.9699281064030885 6.5808589145654715 1.9662908582403091
Ti 6.607109416153885 8.84099551840307 3.493332416938243
Ti 10.050939376981013 7.301130333097714 7.108480198132491
Ti 7.465274222881823 4.384979515131739 3.7503657431452986
Ti 8.231555690488946 8.371558870228396 5.645292550706015
Ti 8.679965948775235 9.424224812089129 8.216186143547608
Ti 8.81995619142768 5.514478058573908 5.7458525620430985
Ti 9.801069132040459 7.321635530844888 9.552035262335258
Ti 6.199473033858291 6.545391933874306 4.535942009477889
Ti 9.03279129176253 4.946585136724632 8.319243719589414
Ti 5.205503625621803 4.896254404344192 2.457227978040002
Ti 4.629623740745686 7.480639319018808 2.4868695326200916
Ti 7.177811132480023 3.57334976320191 6.509002832269273
Ti 3.4473801611509156 5.812409962347818 3.9278423887104044
Ti 7.95713712969709 5.859600605637383 10.535155082027655
Ti 7.700767724414845 8.415390291651352 10.497415516883311
Ti 5.676214461245974 5.742450216028375 6.93992070215431
Ti 4.923607169592855 3.8054492789609236 4.857158032769259
Ti 5.97957518785335 9.005721627598897 6.389873432988533
Ti 7.509825321876894 7.151496890827852 8.112031425114033
Ti 6.397936754012712 4.313224000463275 9.178741579708461
Ti 5.958165722118291 9.267046497238233 8.951496495732238
Ti 4.015714041480294 8.10672703002563 5.063000005958899
Ti 4.643703974090192 3.429068559670036 7.389582767506598
Ti 5.540559064508056 6.838617997251824 10.112645562607455
Ti 3.165151229831665 5.515480856615185 6.356549599069232
Ti 3.9064400067200418 5.340425430449794 8.888019757399302
Ti 4.07155652459915 7.786539209189843 7.9034494073981865
