28
Energy = -182.34506484 eV
Ti 3.7250970682794504 8.587527779777512 6.541577597995021
Ti 2.9519900180312706 6.425622864599676 7.79594363477957
Ti 6.329580785750701 8.443277987705441 5.863048891358122
Ti 9.129292761092696 9.054214312976699 5.59019645466756
Ti 4.4972143108848766 6.0232249784292735 5.5948330248473885
Ti 3.6359175350350776 8.551398803841098 9.214583142381017
Ti 7.80982375677296 8.62895700947151 3.4721537617768092
Ti 5.540542703720748 7.298414500175044 3.492141040344994
Ti 7.036386460293323 10.600890814411846 5.78196367248847
Ti 4.544949010676858 4.305871353967105 8.411492279637958
Ti 5.571859614522628 7.1956414523097 8.087214330226974
Ti 5.526066730611233 9.89027090119374 8.117557416427596
Ti 7.564157323259082 6.382022932134672 4.998758521393389
Ti 4.124801456946953 6.253241894817138 10.166572838436446
Ti 6.776972823929877 5.197473515083208 7.045699784321666
Ti 7.747657336571547 6.2157673775716935 2.4472389482837653
Ti 6.054137752820724 4.5122893513054905 3.7566931812034956
Ti 7.934745800121684 9.039241919367806 8.072334659531888
Ti 5.1431485568490425 3.367387506922209 6.085343793236822
Ti 9.87784729475929 6.762767532464158 4.230568743803889
Ti 6.397943911279513 5.261315494904831 9.99890020322933
Ti 6.210133754100032 8.070397881130992 10.292973565269298
Ti 9.463189774524814 7.140431756913366 7.012087979858727
Ti 8.317363603688438 6.361284106866136 9.089599348687695
Ti 7.582308949068509 3.086045995078893 5.494592380032396
Ti 8.77739216164049 4.311580859395689 3.7766728210873732
Ti 7.1771129745557225 3.2705100429034464 8.167947279089793
Ti 9.501426144930003 4.711989449000053 6.350371080321134
