28
Energy = -180.37060299 eV
Ti 4.941790337828269 9.449086612099029 10.125419386640784
Ti 5.155666051899028 5.219056866877422 9.058761229951724
Ti 9.634679488228828 9.280570631689251 5.609889264166144
Ti 10.01625679476968 10.264332793596465 10.518091817069303
Ti 10.064106480724266 8.769101489685127 8.325704765156184
Ti 8.930609584251815 7.320991928594716 10.289599853320942
Ti 9.217753977098978 11.14134748847453 7.780346766241987
Ti 5.303331467310544 8.163724562621704 5.81974424073436
Ti 5.823645121232891 7.724327413530333 8.35225420195977
Ti 6.169751277934154 5.544542375663765 6.547793252539913
Ti 10.212983313554224 5.984552103613171 8.563866467855195
Ti 7.6765686047617745 5.159754943355604 9.013336847389173
Ti 7.8795925890474035 7.246939920832009 5.0491112911065
Ti 11.684346708235632 11.338403019486266 8.995291954123799
Ti 12.119071537444396 8.674108668384653 9.464234199499936
Ti 10.550195692694523 7.060342825304399 6.200648361650533
Ti 7.424524123250464 9.763874898870144 6.23764682087192
Ti 3.782970499068223 6.472211763351084 7.243367004180198
Ti 7.560554755304681 9.626214922506907 9.580251445944317
Ti 3.7511059747524897 7.184649111210222 9.845458772325351
Ti 8.21752032642102 7.396304954394471 7.59050491184107
Ti 6.3548812005885 7.1000235785417205 10.799565321008815
Ti 8.779435437396831 5.108998758257039 6.480443519915719
Ti 3.539783056114943 8.971660170808626 7.89303728498608
Ti 12.837083893317711 10.476436795273989 11.082753950481296
Ti 13.990846796131667 10.277414069948028 8.89280770422675
Ti 5.656508072745905 10.387475009540413 7.792227914449117
Ti 11.937946173890971 9.896762559893805 6.944132391640624
