35
Energy = -228.9209303 eV
Ti 14.949182834062519 8.422564452456571 9.788836430413065
Ti 6.8952087095369 11.135651227291342 6.94630065110512
Ti 4.860514036158006 10.558778775700855 8.325716744625973
Ti 11.193133649341993 7.437339703324515 11.945732135023464
Ti 9.177466133565346 11.55121533204827 10.697579512102479
Ti 6.738311438954976 12.12334633232827 9.538142112147714
Ti 13.568832296264942 6.475525955622784 10.68449833387659
Ti 9.051841985830563 10.462876761177494 5.380623028724009
Ti 8.972399387186673 9.044466571767739 12.335420628688198
Ti 12.358044005275643 8.488280912637201 9.482501959780958
Ti 6.4633642311114965 8.291161056839584 11.730653604137943
Ti 9.006988912020557 11.597590012484899 7.976380509410325
Ti 6.494925578608442 9.611952986646505 5.018863624229173
Ti 8.28834198548018 8.273966316352412 6.8187094100156935
Ti 7.2051768549577195 10.874579588343368 11.919519790488591
Ti 11.001193698538186 9.70827035647688 7.182707811582617
Ti 6.488327756549661 7.067073037915018 4.981427572317047
Ti 5.396349320751346 8.238425054702974 7.091685867630794
Ti 10.551668850765742 8.178676356998714 5.2206329236860585
Ti 13.655628592036772 8.670230766038832 11.951336010152795
Ti 9.755538404359937 8.468685531524905 9.714781954942934
Ti 10.913206434230208 7.021407329185037 7.478132088781055
Ti 7.22970504242275 9.554830576603251 9.45162779793892
Ti 8.857801878621709 5.998651655113949 8.452132352022675
Ti 11.119890939785295 10.962100263104903 9.320218625987435
Ti 13.798915850624526 10.595102031403131 10.249161968478319
Ti 10.998624104722941 5.94376919827319 10.000698417258729
Ti 5.052820027826921 10.452777482517934 10.871372773881243
Ti 8.43098575369093 8.220983468384373 4.0112550641087585
Ti 6.717519849134284 5.836935568831689 7.015398102425967
Ti 8.944046525948414 6.027909730652712 5.557913080536058
Ti 11.472218069592824 10.071540442385587 11.652613022148655
Ti 4.732801276459975 8.299073633449035 9.624404487615685
Ti 6.602465030430872 6.694924087091281 9.450162060538451
Ti 8.62808705381826 6.6305171949651385 11.24108458226276
