31
Energy = -202.85709333 eV
Ti 8.716491413309107 5.949096007731962 11.090476013278856
Ti 6.465186385953983 7.057043301057925 10.980263996017017
Ti 8.980451270103941 8.35342485993835 10.390365097531914
Ti 7.609293334932308 4.683057512266492 9.440452636486441
Ti 9.946648937948652 6.0106818932600445 8.791572732565761
Ti 10.195459061838248 8.378123802320376 7.930952900199878
Ti 4.9951883076338 5.3044515479737 9.545889795087605
Ti 6.594152018807074 9.438341205600768 10.060371855759772
Ti 7.436531536238334 7.335706867128917 8.48519890587494
Ti 6.390689336936922 3.8384328225153763 7.374674355510019
Ti 8.400328979491308 10.094697983485291 8.51441807747736
Ti 8.834685002942118 5.132904317999285 6.867187436554682
Ti 3.805860066572931 4.033006230313075 7.607547259149694
Ti 4.559269228509353 8.020007213187434 9.180839336920023
Ti 10.967497495499215 6.908006063656045 5.938192912524962
Ti 10.322836190668632 9.513587424952147 5.51951490537043
Ti 7.759714078620543 10.287813892321319 6.104440808289462
Ti 8.367132592074272 7.627851507965677 5.744178492541315
Ti 9.484118678148578 5.549849430875797 4.29453322473393
Ti 5.340231831891496 6.295881907984908 6.92366668910409
Ti 2.833378937247345 5.713834118767049 5.841755629231629
Ti 7.002376750449473 5.2333045266822005 4.881351512754091
Ti 5.798353469889991 9.618266186000334 7.529008981623388
Ti 2.9507181371433413 6.3584322621498215 8.274263107766359
Ti 10.15406349029444 7.836919005765699 3.568083579471988
Ti 4.769200143511808 4.139063874279256 5.258144435718203
Ti 8.275808964397148 9.529738035228103 3.810903437295978
Ti 7.573123297768537 7.133995331162371 3.175057298287212
Ti 5.9399697938169345 8.742920888548365 4.863210912320468
Ti 3.648178229230289 8.201549869029215 6.397066913747474
Ti 4.690728497050452 6.584009308096124 4.276356065457711
