3
Energy = -13.19068573 eV
Ti 7.397591570035087 8.209096921033431 7.757398183262163
Ti 8.890698891790494 7.1711839735984615 7.133092180274493
Ti 6.0187099180064365 6.935892374735802 7.4298099842337635
