32
Energy = -209.97612937 eV
Ti 5.536241402357621 5.968818357037446 6.9058713813809005
Ti 9.117376298248482 4.61713535567464 10.404534293906192
Ti 4.661141287770477 7.797836405095441 5.269728025532173
Ti 6.1791100618300145 9.278854360538315 4.027757874303218
Ti 5.068369650817816 10.29040927666766 6.236338565750124
Ti 7.107560155511303 5.966505560497275 11.17633896840209
Ti 6.966815685231753 8.471729110371056 6.65146330306054
Ti 8.563876771402267 8.800636726115087 4.27392739978746
Ti 4.253843410242639 8.180518221100224 7.635171420901673
Ti 6.970189160633569 11.339857325031977 7.8243395526796835
Ti 11.413510266757166 10.28733546727581 8.182221457629105
Ti 8.55821724138225 3.368370992411457 8.291604013314862
Ti 6.946092400040042 6.736616458880863 4.543482987293628
Ti 8.876822543497584 9.377957831145599 9.069331736380091
Ti 7.079908067276553 8.64872091771854 11.171427167643374
Ti 11.105776116322229 6.099702120302291 9.719826759642794
Ti 11.327350864252974 8.76921866979999 10.325877826623413
Ti 7.885795363634314 4.891936257179537 6.4230197681736625
Ti 9.273517166115026 9.70964352690307 11.778287879599507
Ti 6.514710628356255 4.619722948486839 9.05557797647332
Ti 9.757452094996964 9.657180391175736 6.35157937872265
Ti 8.383847237735115 6.521092467129666 8.675343286921485
Ti 9.363417657571857 6.91293655941252 5.797723678601168
Ti 11.030168238653419 7.715590397456758 7.801959987659706
Ti 7.645039397155934 10.954119010092601 5.409880270936559
Ti 10.517793523565066 11.292528568991216 10.289364882748265
Ti 5.655329198195039 7.160572186078339 9.431847415835758
Ti 7.872298192101505 11.437348898383403 10.307048918793031
Ti 9.399575003087618 11.889280628614614 8.010141472037711
Ti 10.329310584873536 5.016514712945258 7.517004523396111
Ti 5.786364708921358 9.770173815060723 9.103328469129174
Ti 9.411428419301654 7.151578493859559 11.38583969866703
