33
Energy = -217.03410799 eV
Ti 6.726720559456821 5.4502410102318635 11.199304199959327
Ti 11.02500173821912 10.479489498638785 10.680793923006501
Ti 10.587552377251628 9.83695282202378 5.094472565726702
Ti 8.194520413188481 9.632948561176226 11.942737842738325
Ti 8.396653406247628 10.334840047405828 9.643518784437536
Ti 6.3759270494212 10.056728305735309 8.107266184764969
Ti 8.5756253018282 7.096505904323693 12.46015959625699
Ti 9.31207236752848 5.650152594595355 10.69163951059641
Ti 8.029231408124023 9.914704624339546 6.252760319645136
Ti 8.216059962390062 12.356791258522858 7.98118056682054
Ti 4.714251301185423 7.1634316764748736 10.823014890458401
Ti 12.565333337003754 11.582114453335235 8.707866500331694
Ti 8.090168184195667 4.782661277406133 8.661729106917504
Ti 7.088100572209892 5.617166998079241 6.389593155231103
Ti 10.092173058462368 12.501749515526077 9.846967267575495
Ti 9.586551647396703 5.467404415933831 6.456375736103427
Ti 5.616622592960236 5.94542913177225 8.583917769381609
Ti 10.620218881063826 5.970335813227493 8.708398637450994
Ti 10.91637555397816 7.793841182755533 6.738743013355524
Ti 8.466817564762092 7.503642178068296 7.847953494166863
Ti 10.6571166114658 13.282602229629626 7.585751915476209
Ti 5.674073507074922 9.826783069216615 10.765858821391527
Ti 10.098777667026484 8.146560723302933 10.32201630657908
Ti 12.71989625758225 9.666436893655472 6.680900793323361
Ti 10.367062929925082 10.52565449437683 7.824288548909268
Ti 6.04661863568735 7.888192895558185 6.5348269356705435
Ti 12.274368375799227 8.853304682954581 9.02445700516116
Ti 12.00823389860506 11.908513771069622 6.037111356579216
Ti 9.40612343617031 12.079075536160236 5.665062395450139
Ti 4.678701141298473 8.391846813528433 8.723500062205312
Ti 8.510969005020367 7.553666389001777 5.229880940203486
Ti 6.274226886629426 7.912709777772434 12.585469758842443
Ti 7.193952198608774 7.7496104499005 10.078889596255843
