36
Energy = -236.32468836 eV
Ti 6.837378185419173 8.794959149959881 4.637845037373111
Ti 5.474877647598326 6.9763641621829935 3.1778867111370035
Ti 3.968317145228312 6.031297844802839 7.2516730601324655
Ti 8.229212604826323 9.040933772970144 6.936787315189141
Ti 6.255468400798003 5.044325814500337 8.216277448187345
Ti 5.864896199689064 7.987925407078421 7.575988150918005
Ti 9.171472336346078 11.084337355937802 9.83205179133952
Ti 6.100195876624784 6.209914710982546 5.633868064488977
Ti 5.0614603030782295 3.8438850682562062 6.189612861512747
Ti 9.740921735589726 8.74623827900993 11.006946324002099
Ti 8.080191129051839 6.715665595246818 3.247889370467322
Ti 3.8771316899439934 5.427722320641228 4.567535588212437
Ti 9.461075416928331 4.515578828966968 8.295974657948248
Ti 7.369582890186533 9.251039233172362 9.604742936633881
Ti 7.027364710963601 11.426755347180002 7.9902547723040955
Ti 3.3800774337200843 8.705462022672556 7.86503836662846
Ti 4.215496590394106 8.09300018004666 5.34339989753848
Ti 6.310332714582509 4.443967815964564 3.7713664243055454
Ti 4.7848393385747015 10.462966039684419 9.167936806379442
Ti 10.272293516688437 8.867337677584075 8.646810756169911
Ti 8.52854180954148 6.261664002173019 5.95139580469371
Ti 7.6672484357678785 3.603064375443665 6.246737812101769
Ti 12.049549410512899 5.214364796322879 7.944895541268731
Ti 10.443183177006926 6.369993538537947 9.860771303894879
Ti 10.488269258652476 6.827598403016203 7.0861467915803225
Ti 7.434533526115948 7.399622521558823 11.531655435229505
Ti 10.379202630061423 4.156134205439486 6.0065664832293635
Ti 8.88651226131644 4.352090211241086 3.9914186909215528
Ti 5.173045866411645 7.3942278392717435 9.886602846427751
Ti 6.6450830450692235 11.614523819307355 10.531296839517102
Ti 10.638410678505855 6.223200312488404 4.315085858583371
Ti 5.5212028202861045 9.372858078417924 11.559969869986272
Ti 7.956473795037877 10.049967267550867 12.085418049019996
Ti 9.575625021688753 8.491685723023197 4.8001277193227745
Ti 5.125885089412405 10.303043808082835 6.601992512887339
Ti 8.162595384001804 6.854232546906235 8.797980176088258
