33
Energy = -216.53184623 eV
Ti 8.509774355098532 12.317392457915256 4.675375847304661
Ti 10.38524805461685 10.746643101041661 6.277109296213928
Ti 5.403475130268295 10.177486579212175 6.925641196689292
Ti 9.043729963596514 12.90754553626517 6.869878184823372
Ti 7.9544996430847466 7.68467908155387 8.232589289854324
Ti 9.175860166150565 8.23718404867815 5.6336762887454
Ti 12.48343538616623 8.309508788082399 10.384476495557271
Ti 5.735364976388379 11.277803679945062 9.33017336434969
Ti 7.572936547915126 10.264709753854392 5.410449384805355
Ti 10.749782904999169 7.5332277787178565 12.315311030420704
Ti 9.272228569767288 8.304793916176212 10.445383578465457
Ti 10.51393839562467 9.089609633203057 8.409499884952657
Ti 6.67322714177673 6.619311060185764 10.527996150671614
Ti 7.910745262819391 10.408802041188007 8.1346147800077
Ti 11.795057985727372 8.482380518528256 6.134332725510254
Ti 12.678567274035183 7.388050746990127 8.156788316089935
Ti 11.195219042990455 10.21502666104585 11.127967993647554
Ti 11.043039378423599 6.119361659889889 9.810704402464502
Ti 10.320457108399257 11.804357070231422 8.806828730680307
Ti 8.009463086998261 7.502693136509963 12.656940858382802
Ti 5.374419178644262 8.488671529987906 8.866574225509304
Ti 6.240298211817398 7.867978099470374 6.219937988051634
Ti 9.112239972998577 9.681034336646698 12.738963665692605
Ti 8.007505277438444 5.944665229890206 6.264301115996109
Ti 6.0592174239858325 5.951996208139308 8.016031423741866
Ti 7.7925482635489 12.944045064826877 9.073570231786988
Ti 10.424126664354414 6.361877587362654 7.134621030881084
Ti 8.714480744819175 11.102087921238024 10.658392131469752
Ti 9.016052841372538 5.676735466916148 11.371629415006971
Ti 6.745265348484043 9.280967735297976 11.036921287759144
Ti 8.518785601644277 5.183024566406579 8.843317577403246
Ti 6.481501622813239 12.409546815416176 6.907832435336168
Ti 12.674067028391798 10.068899624560798 8.212947000934221
