34
Energy = -224.33355617 eV
Ti 9.91958066783158 10.381788081215355 7.021002841462853
Ti 8.176049395291308 9.606626234520519 8.954048460728954
Ti 10.924209674595573 7.9399557828756295 6.190549939657083
Ti 8.11137671104972 10.945895335209032 4.959732287922013
Ti 5.404450898758302 8.158766411195742 10.262984376956966
Ti 10.531091109753335 5.335108041249841 6.533961102151539
Ti 5.746094397525227 8.846142206083853 7.707615201628804
Ti 7.58098294628949 7.110275171386639 9.274246250226199
Ti 8.184871141999754 8.634389559345065 6.320063922841267
Ti 10.021454311674422 9.479357166752209 4.4574240844059165
Ti 7.25629602837502 11.048582406037823 7.204858403567547
Ti 6.063124329876282 5.655693436205669 10.796628608517771
Ti 3.5192003632418096 6.392253559648188 10.462198268707597
Ti 10.03621477107845 7.6657068133276205 8.431337746970145
Ti 5.131167546677664 6.131822599079989 8.106022983705682
Ti 9.644335642552868 6.778816038558323 4.332497257557973
Ti 3.3044274191902048 8.143299193464301 8.671766295393361
Ti 9.35390228829017 5.049172233131169 9.089085281029746
Ti 8.762412686974606 3.3867889963724074 7.1211394686692335
Ti 5.738520787961085 9.61079289998295 5.227911109871099
Ti 8.527779964297245 4.4101320832254345 4.6940275142937695
Ti 6.804404834508227 3.9803789987140012 8.772934670909752
Ti 2.597018919798267 5.5785940187296825 8.027724578411908
Ti 8.124611038651597 5.909047402638564 6.97539027402856
Ti 4.214431396805378 4.139057011769812 9.7941907901591
Ti 3.6698032213197673 7.585654491196489 6.202499290165058
Ti 7.433996765386715 8.761408031145033 3.5429232380141062
Ti 6.298021215883583 3.680585281826285 6.083128925429201
Ti 4.975768451303286 7.141431865647181 3.476855463737582
Ti 7.51659966328189 6.309585434053712 2.9913558428337654
Ti 4.2504928670819835 3.5074596507442113 7.53830134398977
Ti 6.253320784220275 6.846467030239849 5.444321851159223
Ti 3.983879357252279 5.20541981988187 5.5278800212649
Ti 5.933541079715639 4.636435744647778 3.7931635657469043
