36
Energy = -237.97530465 eV
Ti 7.785972278716014 11.539514446719664 4.801874733451187
Ti 9.752280202721048 10.522639856821208 6.059491538392774
Ti 8.970789877106748 9.268824726869319 3.8711404452033893
Ti 7.302476405051728 9.48490249083847 6.591335064766368
Ti 9.430985676129005 9.575495171618403 8.372916178802983
Ti 7.208536688978401 7.538827760360224 5.07912517291574
Ti 7.667734990795933 11.719113417314434 7.52428522787158
Ti 8.53337450381821 6.941033743651331 8.147390910334545
Ti 5.918823972979388 7.720072083699717 8.08862131635439
Ti 6.032660736249572 9.750827338402763 3.763064343605525
Ti 9.972524965481579 7.83870482963001 6.034367840802876
Ti 11.078733256310588 7.444006157108262 8.623145150352157
Ti 5.50605964851943 11.324295706369108 5.836018873784204
Ti 9.236409251951148 6.531265243337907 3.6932936056607506
Ti 9.453429331557578 8.023967185670449 10.52011173112796
Ti 7.225518885185515 9.574041081959594 9.683971972869912
Ti 7.2466718032804645 7.727381455087434 2.436165580678958
Ti 10.581303624439114 5.40758295941826 7.332722118927782
Ti 5.230352374231196 10.357258520285027 8.175608129470417
Ti 6.82788968172463 5.400753251809335 3.652287766901072
Ti 9.677706553443146 5.419435924592473 9.972853984196156
Ti 4.585509494841825 8.795349358004806 5.874312066191051
Ti 8.360415869696263 5.236625638003759 5.911502394663218
Ti 4.985510786981372 7.277136288327747 3.6586969435502272
Ti 7.318888784878632 6.873380934030658 10.847440380336138
Ti 8.7134081604194 3.6457408736104555 8.222708637938263
Ti 6.392195761539353 5.066404231868185 8.403991095115426
Ti 4.973525374360877 8.332202426682056 10.301604877347902
Ti 6.769850804013538 3.373208581310024 6.271899487996392
Ti 7.1493354770563124 4.111260354224492 10.667278131888208
Ti 3.7843501886371174 6.0178108990198735 8.410548939999012
Ti 5.318944597739132 5.846526343608673 5.981314427896565
Ti 6.391912170886917 2.4393960000392148 8.681982553514205
Ti 5.037121272408082 5.84202614331334 10.818535741546295
Ti 4.4291340923374936 3.5950195184869846 7.238417330538093
Ti 4.498673006756519 3.757973158539075 9.793391475343777
