33
Energy = -218.14608912 eV
Ti 9.2407898850059 7.993316698945573 4.729875929539783
Ti 7.604637540747484 6.382856508294656 3.0613059985510596
Ti 6.441073043982472 8.722077219425518 4.494595462619896
Ti 9.757277501029158 5.409518945537907 4.341311003975099
Ti 4.990389394482407 7.080394009865188 2.6581078589008804
Ti 6.036205350100748 10.572756088414794 6.559840757809374
Ti 10.589019563125667 6.395665451265947 6.451359147236204
Ti 8.428476600137328 10.26006592116105 5.59951166090845
Ti 5.655794247222046 4.60562780481547 2.8195280244784606
Ti 7.757044449746176 3.889214812516761 4.272828350462587
Ti 9.936098945283415 8.728978971282562 7.320469265186047
Ti 3.754562922739988 8.09802439763967 4.625542890427126
Ti 7.348694856716458 8.363504276073828 7.150385349634701
Ti 5.684920768899556 6.221717930875963 4.956472334463984
Ti 8.207403721511064 10.711778058766441 8.096541622775856
Ti 9.511931313196976 4.010432113177721 6.676458757102034
Ti 8.403053768290619 8.689930950666481 9.610782013830864
Ti 5.989388785675002 9.58881423454809 9.08085379339741
Ti 4.69648681431453 8.32180857674548 6.985425179507834
Ti 7.930193958779707 5.882558467215518 6.269763230224698
Ti 9.220897781933278 6.320009851423661 8.68138457152627
Ti 3.347481476026738 5.413712411735815 4.125939525687466
Ti 5.158622231529892 3.328188797970766 5.075818931613721
Ti 5.156424118868266 5.43453407862412 7.392008748754795
Ti 6.574659081237415 6.858599563828987 9.408711996962387
Ti 2.7007340911034228 6.527289886347751 6.603942684589728
Ti 7.1292284357197735 2.9757584892333444 6.622361719624434
Ti 3.8717296015194926 7.072159564913914 9.102493466097918
Ti 7.403950910134643 4.1934637116389215 8.758230165785427
Ti 3.0768589811436624 3.9062159450145653 6.272668577045165
Ti 5.046166912297889 4.869201427791907 9.996440149433454
Ti 2.9052681395007305 4.688200196685717 8.594412478588195
Ti 4.942433573308041 2.9815234028672024 8.102527118568794
