32
Energy = -209.60045934 eV
Ti 6.822123966095631 10.797695235255464 5.955504913423112
Ti 5.163879445442515 10.809357728185065 8.096781498307436
Ti 4.396704076782155 10.000043410616493 5.646790140843769
Ti 6.50012145394536 8.926629460292899 4.27871891292014
Ti 5.391606557085645 7.167640191006081 2.997636301619612
Ti 8.044796016484627 10.393472269990253 8.085323372711418
Ti 8.539668998838664 8.695942778480719 5.745910997028224
Ti 6.5323273988309305 4.866214965504819 2.934397306330498
Ti 6.130496721854269 8.51979730333408 7.232556896984985
Ti 3.3940470900100115 8.698286384795344 7.622778401313781
Ti 8.128662692303376 6.900502763222119 3.598507939776116
Ti 8.985427746392753 9.187078702290316 10.22492142426446
Ti 3.915523691208462 7.392830272021481 5.3258206909025345
Ti 4.177207246213608 5.133010642706981 3.9108968551370173
Ti 9.543592372154807 7.9984559395654475 7.924880619379948
Ti 6.5257275283642695 10.160038372662726 10.175738051162075
Ti 6.272252901446799 6.101957384459299 5.34868965791366
Ti 3.901791031200531 4.840494067097602 6.3636116588708544
Ti 4.972716223031947 6.326360700730014 8.066967052983973
Ti 4.576087491963349 8.560533148693862 9.614285235623012
Ti 7.071103441874421 7.668902209509704 9.750075641506337
Ti 9.976536184268767 6.310639759136199 5.653481110202002
Ti 5.842978233583491 3.420382525848147 5.079735768280435
Ti 10.591548149997646 5.608529735626952 8.265837828376082
Ti 8.505445503129202 4.3441619733279895 4.547881808423583
Ti 7.9592139708640355 5.672649937371487 7.447644011669578
Ti 5.907372031363626 3.724022830423897 7.860256266093032
Ti 6.6149003773845685 5.135578486558199 9.875586839988145
Ti 9.013005122245115 6.163397659930678 10.055211534123801
Ti 7.837688716173367 2.829691361001221 6.617449696131663
Ti 10.019557309104153 3.899625587236139 6.644539506100877
Ti 8.683479783495283 3.665493470671545 8.980618012411936
