37
Energy = -245.80590104 eV
Ti 7.22976236242359 3.2303631174868177 5.371030101604585
Ti 5.821711600772193 5.70675324189864 4.6389071162144795
Ti 7.626787202414944 10.155564241056354 5.321417526882969
Ti 2.995809211166977 3.6834823663945055 6.872713373187776
Ti 6.137729801686749 6.088225238549347 2.0152877258110635
Ti 8.345555646236434 5.851065022484866 3.651538316659135
Ti 9.447591729965902 4.280465673730064 5.481608678536103
Ti 2.69275366888168 5.3137919611991435 4.937190397072615
Ti 10.072513237402012 9.359240315639607 6.020214520455424
Ti 4.081179119459568 4.690204217989984 2.750127131032334
Ti 3.9917732191570523 7.213032841684625 3.371360761297861
Ti 6.30136748039763 4.71743501882022 9.587126835938307
Ti 6.496735269077946 3.749352234576792 2.9193865380976876
Ti 2.825173601114079 7.740054884985775 5.6906551646810835
Ti 7.59812188403112 5.448219928228413 7.186797822930079
Ti 6.11069281175611 9.430040342862458 9.831366299056842
Ti 6.748468610730892 6.947651759666485 10.737040288769796
Ti 8.601881812912744 8.457398423995858 10.041233302079721
Ti 2.2268946401465537 6.088098853073974 7.689356291987588
Ti 5.886661097424943 10.358451888353008 7.3170239768907255
Ti 9.99357390916978 7.7249641936523 8.004224443139865
Ti 10.349052632314228 5.2802122944676455 7.56700031692058
Ti 7.995897943429162 7.605904626653102 5.7751680745088265
Ti 8.414303757032604 3.4441074291579863 8.03008906286687
Ti 4.400614931173552 6.878303829772604 9.654085314967933
Ti 8.366485383349675 10.030304943633073 7.987033217871868
Ti 3.994806970364184 8.554964325224782 7.884838524862263
Ti 4.6290463865335685 5.96285191103643 7.010212227587044
Ti 8.83674991617767 5.801627228953639 9.66997714411309
Ti 6.666478068548232 7.804586395366411 8.11285262112829
Ti 9.22516743303734 8.49908035891738 3.7237287851906204
Ti 6.651135931002194 8.187367666815815 3.4383796864143545
Ti 4.624241024248628 3.2304259285133647 4.860300828266363
Ti 5.593582066718694 3.201909117368986 7.45092435534365
Ti 5.245417326108148 8.616101858204551 5.483751569103525
Ti 3.7976623925758415 4.390612438075148 9.062782715404923
Ti 10.477436409633352 6.7786003700861155 5.354085431699268
