46
Energy = -308.20026582 eV
Ti 10.25043568093896 2.8442246523285886 5.67982355826381
Ti 8.044429631588272 2.5226913298338154 4.278709431944225
Ti 9.789857544855726 4.566354543528066 3.6251787943205067
Ti 8.135253550068768 2.085342183662546 6.971482478166336
Ti 5.867866435531679 3.1229024935683682 6.0010567396330545
Ti 11.069831094397983 5.196653056955806 6.4081622117216925
Ti 9.782259947552458 3.8207851781864868 8.162249870436769
Ti 7.69175741722452 4.009653806383155 2.198052138175133
Ti 8.275541507324679 4.587891573147425 6.028553839834989
Ti 5.520985173046168 3.5536724859563606 3.597428400419995
Ti 4.564470016169752 3.3047514479566114 8.223857415960426
Ti 9.607516361012893 6.9436912243889894 4.579777157195239
Ti 5.308271113825759 5.576786275819481 6.876042376102421
Ti 7.09852760853445 4.194666431559233 8.418895597177498
Ti 11.026080711251197 6.5202673654572925 8.963616124937753
Ti 3.28206485205756 3.98731607688746 6.162926082681002
Ti 8.962195593879356 6.545057560325067 7.871691574552196
Ti 11.210525749793177 7.6705646730696735 6.533872948418855
Ti 5.646463048615871 5.450448532683465 1.8390907714457647
Ti 8.231784881159337 6.581198088138457 1.9406527028184306
Ti 7.032734831095558 5.916732764657886 4.101779100818152
Ti 7.9185652622184 5.6625719584893055 10.347701200823968
Ti 10.287675009251686 9.030475319006952 8.360426825762977
Ti 9.524488702266382 9.61266690873684 5.902673630658389
Ti 8.455363720667323 8.159159059147543 10.212451764108055
Ti 5.670291597934535 7.7318271510570336 2.525709716506903
Ti 4.2802382262249505 5.926453895782243 4.336253617597095
Ti 5.136244747564222 5.190992529604179 10.11393874050957
Ti 7.5330575097916475 7.850048901508804 6.247077605389993
Ti 6.349054561134079 7.242214182147113 8.753568291218288
Ti 7.892881375936989 8.703169471663045 3.7243574468432357
Ti 2.9113825237206785 5.3759119922999625 8.511446152051503
Ti 7.037672704399921 10.43398974692121 5.685845207149574
Ti 6.097458273220689 7.361834823045411 11.330540267609322
Ti 1.7211418247558579 6.120489354555016 6.123588652798597
Ti 7.939548999724598 9.958006058612671 8.176976281175769
Ti 5.344122635620388 8.495130925890077 4.877864287483978
Ti 3.6342180439953236 7.74087862223151 6.8600525673639945
Ti 2.7826801717327245 8.064621113482955 4.2877265785791
Ti 3.876326575983042 7.7142571429821105 9.752614997383189
Ti 5.9573617065479585 9.54327963504689 10.087295843934312
Ti 5.362529322217811 9.725544730202039 7.552203964672351
Ti 1.4809284798492208 7.532555130487327 8.443476644259537
Ti 1.250654375693942 8.79364199478954 6.290206503945922
Ti 3.4181294378305176 10.199039805870102 5.73144903597048
Ti 2.731440996119897 9.82189733627325 8.293964395506212
