49
Energy = -325.50395963 eV
Ti 6.355587278245737 9.308742277793826 11.08674210963081
Ti 7.255748233947586 6.936048447336498 11.095944149793322
Ti 10.19160349007766 6.997222366471031 11.515003056594916
Ti 4.526836836513084 7.535240169948317 10.331120494812309
Ti 11.98591048476682 6.112235426840537 9.89219613898984
Ti 8.839669130826227 9.18047771619824 10.133093604211433
Ti 11.344346067587894 8.321252551346484 9.260345191309776
Ti 6.8588714667831585 10.922271084725708 9.121322767189106
Ti 8.095662438446736 4.089260740216721 10.16735861236397
Ti 6.101279998884443 5.4481305583167465 9.193274255627104
Ti 3.4631941253480294 5.758709106057115 8.558778052267531
Ti 2.3900965823264095 8.232812832887237 8.50536746253166
Ti 4.458349064742585 9.928112737121449 9.577912586860796
Ti 10.541826492946598 4.436147701037454 10.057556325993797
Ti 4.586944951989737 7.7384086400664716 7.3555624708158645
Ti 9.141754401588296 6.746618712218109 9.247382686695559
Ti 4.035492160405138 3.4080273599322686 7.94293459340504
Ti 6.650733376408612 2.9735370500962532 7.858251282736649
Ti 10.795556373376927 6.130613527431783 7.456254881624266
Ti 1.3273439663607993 5.067872596208032 8.073973998466402
Ti 9.470521573133238 8.86170163111769 7.454169304878191
Ti 5.002901877093291 10.473124315402902 7.2321196564241
Ti 6.862635964629013 8.273559717902891 8.571269580213961
Ti 9.575080560884563 3.0038651946033426 7.932014801276086
Ti 8.241826365331148 4.946935175972192 7.59834885684507
Ti 10.739722792527811 7.477364164690471 5.319494371168431
Ti 8.168946847437367 7.090331490154561 6.188134004220826
Ti 7.441510696186809 10.459568103942683 6.31598367109669
Ti 2.892911013698612 4.568648426987797 5.926539161015169
Ti 5.133826196554987 11.175699044149377 4.830971804814484
Ti 3.3314389491907854 9.255879547412352 5.519649598352786
Ti 8.940652751924867 9.125394791427425 4.492069289613384
Ti 5.969802302274005 8.526005057077711 5.097786504705666
Ti 2.067603444204526 6.924085838091467 6.321951805721583
Ti 5.533053178269693 5.302532715747616 6.568998589346
Ti 5.10806138510721 2.976790785449112 5.412708988261318
Ti 9.936516909325158 4.92911144022647 5.210547053497735
Ti 7.858945249454069 3.198035765809124 5.506861698291937
Ti 6.983969005000396 10.516532127154832 3.526367985836952
Ti 6.917010270857711 5.566754325376019 4.2194887690843395
Ti 4.639489529395173 4.4585871766050476 3.1057994111273337
Ti 4.662413333331077 9.258822859093993 3.0060598629761106
Ti 3.973128472575502 6.77119274385832 4.5419642565311555
Ti 7.1681787812387 8.091516927823537 2.533317146146838
Ti 6.633847391898398 3.0310301980762 3.1319313132857127
Ti 9.333337474314655 6.690923326585471 3.246776657917585
Ti 5.019658849994053 6.773818236510391 2.1971386188258974
Ti 8.86797300225802 4.070607190520542 3.0889105324485446
Ti 6.969640886141273 5.246783656769778 1.6697593200224503
