5
Energy = -25.27269922 eV
Ti 8.245741389121296 5.653549201512029 6.6786989550898435
Ti 8.599836376563365 8.254351503871655 7.067027837816028
Ti 6.326509823326318 7.545807004921917 6.257657023380513
Ti 10.272307308456172 6.743211751881906 6.627927267970043
Ti 6.637681180321047 6.781392152051414 8.264766778956401
