5
Energy = -26.58694208 eV
Ti 7.447163316148757 7.363925840194583 9.649806407648278
Ti 7.853478991149392 8.022890936733308 5.7021015510708555
Ti 6.8091524479763095 8.81405483359587 7.756917112606891
Ti 9.130226355307347 7.835691607426961 7.8030090830774
Ti 7.1239242961907525 6.3270391774425585 7.454274998050451
