53
Energy = -354.59852052 eV
Ti 10.737736791572436 10.151073072522108 5.59541623797867
Ti 11.028497383970839 9.820064621828603 8.12133933858377
Ti 10.732531959876216 7.648244891204407 6.3727071022594615
Ti 9.55196131736545 11.820754487540665 7.188425128549489
Ti 8.897742886525638 10.751491693149438 9.342225191862877
Ti 8.983254832813069 8.607009396530021 4.286895948139427
Ti 11.37454120366889 6.366262460996127 8.74354916287914
Ti 9.454971147092863 8.064101522342098 9.33876137501664
Ti 11.438343692118435 5.028095012133253 6.621020848812412
Ti 8.45874330584497 9.274812259899722 7.024440134819645
Ti 8.428049870584132 11.199021828380923 5.022361726345223
Ti 6.8392337970841295 11.373820267930151 7.4284573067832245
Ti 9.889855401556682 5.562729766656446 4.674944118729758
Ti 6.764870532605724 9.303414039586668 9.442215411628547
Ti 7.77122573102406 5.735364772153136 2.6399881395301956
Ti 10.190047646551822 3.698461854803457 8.697053208816943
Ti 9.235350911597848 5.525428445276297 10.367345025646216
Ti 7.806331736828476 7.698477678561457 11.443360098027094
Ti 9.105304103632331 5.95621741770646 7.404018458150235
Ti 6.906130025322431 6.8281113286086095 9.067497292695714
Ti 8.252354080476389 3.60758254521266 4.053915351705179
Ti 9.417645325920576 3.2060568539464422 6.337929658323094
Ti 7.435755477883979 7.0090366145488545 5.281107753984379
Ti 6.546670330292383 9.672787453413214 4.97382871788543
Ti 6.407427674926461 7.844623599000625 2.779501290237612
Ti 5.186083303863346 9.206730508280472 7.281586934916499
Ti 7.426688199644176 4.1793395256784045 8.609459352849056
Ti 5.305780838961065 6.604317501095963 6.860178338873799
Ti 5.404732161332955 7.676903945701079 11.220055195522708
Ti 5.4501200596445045 5.5355530688728285 1.3460149489892006
Ti 6.650775034891668 4.995741687993888 11.059349411093764
Ti 6.14875207892631 3.4550122670288776 2.579386135715199
Ti 7.197932783809165 1.788296272174049 5.72841985127643
Ti 7.932895268771895 1.6867509807360503 8.33067235955652
Ti 4.407874087195292 8.17836246149164 4.571141957098989
Ti 5.323222928602243 5.619237214953727 4.028092907104
Ti 4.74651260976803 10.49921411758307 9.64776251442459
Ti 8.415083293614728 2.9792137415456175 10.678047667671061
Ti 4.173166999169561 7.799287419786488 9.201743912357491
Ti 6.63863387201312 4.410717275024805 6.051908398064645
Ti 3.4150233141371453 10.472262032227583 5.897224510622575
Ti 5.941461407870922 2.593450693663313 10.013261504716787
Ti 4.905472709201808 2.753276591023139 4.817882639141077
Ti 5.282650071935619 2.403625340568263 7.532675834979331
Ti 2.589603733971145 9.856892337590295 8.338380211231456
Ti 4.801036082951554 4.86635265839345 8.984139957871736
Ti 3.612916884318808 6.920255938236956 2.324613327465424
Ti 3.5691692457591273 4.252182308926214 2.771139362443121
Ti 2.783818007387226 7.890127415305754 6.653512200823184
Ti 2.0280622002384057 9.044861749008726 4.174490210835671
Ti 2.4734202188925902 6.244145685051546 4.388952374433764
Ti 0.9119190227764348 9.686276827724535 6.178711520968483
Ti 3.8079875292004925 4.544526805129873 6.166887109491418
