51
Energy = -342.67926582 eV
Ti 10.33724079318491 8.605109960594774 3.00780868087767
Ti 8.226023988866539 9.884735609615374 2.0813399530888206
Ti 8.721583356711244 7.348889306895068 1.5093941722323096
Ti 9.001883981646614 10.497554966094608 4.4906926963417355
Ti 10.301590938128557 8.438240698003293 5.636107490787839
Ti 9.509493646259049 5.92045796003981 3.9349179522149758
Ti 11.32051456266065 5.8142086286657895 5.985126288456056
Ti 6.126579732605269 8.266115002851347 1.8839120394811357
Ti 8.056212960681764 3.6191462015061906 3.5098640551177187
Ti 7.952772844497527 7.995227913588358 3.9434801520399443
Ti 9.280437174461818 3.897650870556815 5.878868725109505
Ti 6.380462496875501 10.343111975370112 4.002240393613086
Ti 6.812872896046982 5.775028045718963 2.4487375104493863
Ti 11.15476611393086 7.364884540531035 8.036440241970562
Ti 9.155288262664133 9.142704488921911 8.414307582468272
Ti 8.969149566458789 6.6349888376177075 6.5990565900686535
Ti 10.302763209325306 4.819324929595358 8.359975056506043
Ti 7.166755013584829 11.221681329518967 6.686979734285232
Ti 7.015908958447237 5.427251370649743 5.178272021590561
Ti 5.224272129779968 7.471497253123098 4.505587692173243
Ti 6.707031358761679 2.7504567654208665 5.646162611376352
Ti 5.379901750932727 3.646112134266115 3.368553938596183
Ti 4.177104806198542 5.976517495073281 2.400390214723429
Ti 3.8427233288856555 8.93726479475414 3.471566797645046
Ti 7.464700237837601 8.942412779305087 6.312560125420577
Ti 2.3768196726030415 6.70425482289176 3.7955934037842236
Ti 2.549820298311183 3.9991090088568626 3.864659198040302
Ti 9.852718398311106 6.94538426724117 10.229801552678886
Ti 7.709885579789848 6.887222889622243 8.924638772705721
Ti 4.141894018168355 5.123121512101596 5.597248120446124
Ti 5.528149697959001 7.162576429806946 7.0148729835139605
Ti 4.823439292832205 9.726927205865886 6.214757040189875
Ti 4.171788011212623 2.3976914636904634 5.278744972428635
Ti 7.425377516723445 4.550611024686613 7.7860207944095015
Ti 8.826241790319287 4.426716098460949 10.352810100454022
Ti 8.363205964930177 2.568536785363886 8.377899287601611
Ti 6.18172910362998 9.254584716457645 8.685015702916719
Ti 2.8318822858738426 7.905697054773234 6.029580935333871
Ti 7.856460982336764 8.682081925831723 10.767937249218438
Ti 1.3875508426191292 5.535641959959945 5.711088288232687
Ti 4.88928875690349 3.5556306849817205 7.750034766500621
Ti 2.3865823410036993 3.4079199648500835 6.634374036240336
Ti 5.115472613923709 5.92510788281739 9.231501471331816
Ti 7.291610688269252 6.148516313820234 11.531035784678535
Ti 3.6115339800092876 8.351958722853151 8.712597344506067
Ti 6.303756585538523 3.734730628092716 10.302812798476742
Ti 2.734810041110232 5.725063012155022 8.010329061147257
Ti 5.298700397818023 7.97407449545111 11.018126341788063
Ti 3.504012896666142 4.041310076839622 10.029821226089028
Ti 4.834259252930161 5.458458184907859 11.838260320905384
Ti 2.942967532627067 6.5944916611958435 10.546088381599233
