50
Energy = -335.51245418 eV
Ti 8.244595424031289 4.977722552147807 11.317588276462713
Ti 8.266295566936797 3.3285363330386626 9.268009289569688
Ti 6.124746564632099 3.793654099799542 10.661606961549092
Ti 9.791319174615655 5.6787653040339645 9.162567547189889
Ti 11.397047475911123 7.337704989270044 7.464263080279835
Ti 5.899241810990652 6.414178786791923 11.491821062344721
Ti 8.407091683020838 7.515372023635886 11.01146015378452
Ti 8.625351473322768 4.438145680370773 6.9846961720378795
Ti 10.240561669988951 8.298621974967093 9.465780588204069
Ti 10.657780205155182 5.500295060714634 5.519864313741151
Ti 7.262167942340178 2.233767594402956 6.12211097322546
Ti 7.032179348863334 5.716759016090418 8.984572804864259
Ti 8.76208719338268 3.6352875395956765 4.305741047884615
Ti 5.848411975877164 3.45261678478474 7.957239702770609
Ti 9.981773039440913 9.73639767510416 7.366589140572067
Ti 8.31370455601108 10.35312954572244 9.686058420496558
Ti 3.984673085140629 5.145713592133471 10.068208847404222
Ti 10.590076059439143 8.039605726056736 5.013944609291676
Ti 8.85928395698343 7.1375328422491116 6.813645364124642
Ti 6.1155675255708655 7.026709496681866 6.60268901644073
Ti 9.965929375920725 5.857381311883298 2.6544376054866596
Ti 6.241974983546191 8.95637441149381 10.896548235423278
Ti 7.575911490632835 8.486100639999734 8.482504781566464
Ti 4.590962332585978 2.639793133049117 5.6297168067453764
Ti 4.802442843829156 7.52302438431245 8.844168074208786
Ti 7.4630324911993124 10.921962274276948 7.178764715129735
Ti 4.1168469961083805 5.354800238497518 7.151794841765732
Ti 2.2597478069258417 6.428308211075061 8.679996470051572
Ti 8.235350285083687 9.376420267287969 5.303885014255925
Ti 2.6279014474358315 3.695002574548446 7.711730081236324
Ti 6.431626328545542 2.4671967844545133 3.676246110156339
Ti 5.436993951111485 9.517665007385553 6.099052795123317
Ti 8.48036367042768 6.430619531386774 4.280967585574904
Ti 6.44118609107811 4.627844918794094 5.32084689783097
Ti 3.655555478956142 7.895661193651375 10.757801008820937
Ti 5.554043825340747 10.232490173097025 8.817318450339013
Ti 6.436058529602519 7.7555930795566 3.9191206240528795
Ti 3.187295219711572 8.015314612364907 6.654287943089468
Ti 6.3125751934758805 10.411161067846136 3.712325127135887
Ti 4.22003283255301 6.165774084947949 4.722783694920634
Ti 6.995660887409126 4.77206177714941 2.5403792849093776
Ti 8.504288738237404 8.968295712845602 2.7202041903937944
Ti 1.659502761549227 5.927624432809724 6.110014041174229
Ti 2.4613082728064457 3.9719162834639756 4.908219049865432
Ti 4.077829350195989 8.710174881890946 3.694789371715273
Ti 7.6085636841312185 7.000685429614817 1.465653134182835
Ti 4.342056724237208 3.8867248641806365 3.112690614227559
Ti 5.961902672455047 8.969474257000623 1.6527556613140195
Ti 2.3645536591123513 6.069307796411244 3.296644361801309
Ti 4.901626757571892 6.52181046056379 2.0529764686955394
