54
Energy = -362.12692173 eV
Ti 12.06480886346785 7.161307111882434 7.602850894775886
Ti 10.881190016116015 9.61095688131818 7.678610181666968
Ti 8.861871009212646 11.919982705144628 7.567755085830075
Ti 11.879154461637714 8.308777922870975 5.4279380576920255
Ti 10.123737845984017 7.569077374997217 9.380716477348734
Ti 8.774541751796411 7.505649387303182 11.720042334266246
Ti 8.382961297037111 9.6984356707238 10.23527146325525
Ti 11.160321943407853 5.677732844267564 5.532604775755405
Ti 10.709423019582939 5.106103964885269 8.20508187047858
Ti 9.986526157981396 9.936919049064699 5.070586637009176
Ti 9.591495709653442 7.60126432888553 6.517328883931672
Ti 9.02765285768592 5.221486887198687 10.392754760614604
Ti 8.125111532916769 9.356516536675533 7.794643599056483
Ti 6.561614131489452 11.562645858869093 8.639333139836513
Ti 6.276975177145457 8.380486251123818 11.6763947876864
Ti 9.548194100427365 3.4560992544815896 6.379958169512848
Ti 7.65511544655322 10.697259050506993 5.642085038053008
Ti 9.946442308153625 7.530026650698995 3.7575142241250177
Ti 7.36243695514077 7.244128647016555 9.493952141369808
Ti 8.284683700427246 3.026035600963208 8.522012225099894
Ti 5.554402012044671 9.322024532026022 9.337307878965138
Ti 6.750155554567752 5.823603608592891 11.747386132053485
Ti 8.411142975746124 5.412958779722595 4.605776547641991
Ti 8.16393448980435 5.589635905584371 7.48533841751724
Ti 7.997244061386382 9.48851704287559 2.8787108614953127
Ti 7.83263590491721 1.3656048997966475 6.541252019725518
Ti 5.994564299776288 12.603498239351278 6.460943914774811
Ti 8.23021384391019 2.610505409907119 4.243621753493022
Ti 3.6514703253168865 10.869742410840391 8.365776964961267
Ti 7.3970861279230515 8.075771956931236 4.7212634989031335
Ti 5.265690751817947 10.059292437569423 6.631172378323374
Ti 3.1546028239803103 8.822996907734172 10.26295213277634
Ti 4.697015297833397 6.688450819845189 10.067239890621611
Ti 6.7929108517681795 3.777356649752118 6.192712525945038
Ti 6.100879004007221 7.507185019615483 6.890586624273003
Ti 5.884387635954449 1.581254147360495 5.000156878355215
Ti 7.4538554908523755 6.427034824691613 2.47973711442635
Ti 4.796977927034591 5.2067824066310955 7.657611191352122
Ti 5.666475476228617 10.231570506635395 4.053752442459804
Ti 6.555687359760609 4.411391691840053 9.524506863784188
Ti 5.395961322802602 5.988002978813386 4.501741029358112
Ti 2.448649492816486 5.918352213682578 8.752653371684731
Ti 3.944962348772029 4.051624700210493 9.860813266155958
Ti 3.676848861473289 8.097036040271034 7.7983198746538305
Ti 5.2808919739696245 2.4278217445073054 7.871133920743143
Ti 6.1606858284193295 3.723669019794451 3.255313992283235
Ti 3.8746414301122645 8.493813621899722 4.964343193239002
Ti 5.424968181608538 8.172736195178773 2.5255219502476485
Ti 2.9443002899058137 5.9109922496863545 5.8072791606735015
Ti 4.995516639324629 5.685586681485486 1.826876494727156
Ti 4.156358397986786 3.4063468947927276 5.507561033818906
Ti 2.6906829865001627 3.613699373128668 7.538588458022225
Ti 3.15666410383586 6.867663363409795 3.1691339587003746
Ti 3.4725729354959705 4.361688896004121 3.384162893419663
