7
Energy = -36.20497862 eV
Ti 7.7728292516369715 5.83488051275403 8.69410832657226
Ti 6.542812381820061 7.963710359471697 8.6945013
Ti 5.312795512003149 5.83488051275403 8.69410832657226
Ti 5.312795512003149 7.250744250886094 4.391516437067864
Ti 6.542812381820061 6.542812381820061 6.542812381820061
Ti 7.7728292516369715 7.250744250886094 4.391516437067864
Ti 6.542812381820061 5.121914404168425 4.391123463640122
