13
Energy = -23.39091303 eV
Tl 8.999405116622867 5.84682526267725 4.969530280358998
Tl 6.772847890507197 7.4777980895721745 6.314888198178777
Tl 9.353994978904801 5.739431321592678 8.137095514541837
Tl 8.735845503454966 8.777182413341272 8.779762118459733
Tl 6.9110862418760695 6.611027782514312 2.771948428221703
Tl 9.062265095857683 2.784812242828795 6.645880969657295
Tl 6.305053816653417 4.025356214141855 5.7365621704027845
Tl 3.545564385063817 9.399168330523095 7.217451655434635
Tl 4.848243850009696 8.885247113117634 4.444707451602406
Tl 4.168456363207193 5.724732743593021 4.27841363148826
Tl 5.7073253086999705 8.183008403194398 9.218515175433453
Tl 6.393732352676656 4.937281621420862 8.705764067968548
Tl 3.704681398549374 6.1166307635659525 7.287982640334858
