14
Energy = -25.1206968 eV
Tl 10.172345221802615 5.435689629099702 7.617420518963453
Tl 10.752000718499836 6.553937740621341 4.717815226186342
Tl 7.684213324267248 5.3474006894098975 5.530687070654379
Tl 7.045181044622087 5.055482106674343 8.708852651068984
Tl 9.942844728372025 8.655906843426486 7.5336767327015774
Tl 8.12428833252043 8.538609199165549 5.092448786417453
Tl 4.600145880972713 4.396420521732212 6.572949926969094
Tl 5.0563241766716835 7.265898382748751 5.330633342060401
Tl 6.3364160214459115 7.0951616026433175 11.60154739320202
Tl 9.19885639039251 6.890989808037472 10.270026310580135
Tl 7.413205413357607 9.465283826285548 9.418150110677413
Tl 5.070799604857848 7.371920504180084 8.556754955011082
Tl 8.502016291527479 11.5837363854407 6.9963757339691925
Tl 5.7556731199882405 10.05365840633618 6.692327395638817
