4
Energy = -4.73234477 eV
Tl 6.929265771148654 7.98242176714146 7.994618934797244
Tl 10.321923655953832 7.677729736131908 7.601829189448303
Tl 4.482471414118963 9.348676822955074 6.6690854468775
Tl 8.242537227716586 5.295218649053223 7.989511731908833
