10
Energy = -67.93988655 eV
V 5.497545307330711 5.513777949118418 4.025526193329171
V 7.960584084133443 5.998992545298244 5.136037085798171
V 3.4819163775606183 7.158301082600721 4.539459423654795
V 5.650631427155826 6.72211788436717 5.731521667008104
V 7.950712495806238 7.718245350816071 5.902184973970181
V 4.829253424945951 4.02372264407579 5.991062977270356
V 6.762053798068949 4.217391731692299 5.921498023784696
V 3.274539384789263 5.619887597071887 5.442293943906134
V 5.601700912791292 5.289730111070494 7.878901472876876
V 7.247335744241445 5.99410606071278 7.6877871952253845
