13
Energy = -91.76234182 eV
V 11.571906435985003 8.365003855853775 10.972231503754033
V 7.739508446626522 10.30161050091259 6.960448323151926
V 9.74948312537402 9.705180621894016 10.052805038337606
V 7.711845503765309 8.281819412557356 10.039745518949907
V 7.529169737770377 6.737842492821112 7.997147211001615
V 10.419005509490473 10.27986855880194 8.078203224540852
V 12.34988415390834 9.483776925542513 9.75678138221728
V 6.773542462564166 7.916892622283974 6.616809169574031
V 11.185051349881414 7.7148533956481895 8.590309102982879
V 9.721469342056501 7.018476479935966 9.768319006775682
V 9.028747998588857 8.549916915961383 7.800543164553093
V 7.952312481136032 10.706038684999685 8.898334286709249
V 6.311886524957851 8.840955867768123 8.535004946930835
