13
Energy = -92.67818052 eV
V 5.483720473391417 6.856784499767858 8.409123766011854
V 5.374271045916944 7.168577136006257 4.533591005072661
V 5.401599066419239 8.356211957872013 6.208699105926107
V 6.638479437665523 5.987224999420368 6.117118819026557
V 7.6919798043090815 8.044215176210905 7.531685606871941
V 3.910791834020266 6.416373840300643 6.5500961446034305
V 4.520874280389902 4.867826201918342 5.544141391234076
V 7.735414233530962 5.8316042929559035 8.665880061168878
V 7.968845721294885 6.712722675305174 4.178719014632399
V 8.945330380708917 6.7454881148913 6.557759564350548
V 7.6043247039463 8.394620703075596 5.078601171621535
V 7.964761080780315 4.432456358104176 7.348424142960183
V 5.4339018841501465 4.860187990695231 7.950454153043725
