14
Energy = -99.04785521 eV
V 5.3472262330131075 4.17043578821001 2.55821730885172
V 5.396116359955093 6.594255383846796 2.834110582135531
V 3.607137717748061 5.893340184860223 3.353891568226607
V 7.035335248154533 4.70862632005223 3.559956539217733
V 3.640452787368649 3.5690723118821297 3.8877588339161457
V 5.4378031804289915 3.2781346296381146 4.896672609653697
V 6.885742304240452 6.855493762544129 4.641793155913997
V 4.89894152823728 7.027824263021028 5.244121671856603
V 3.7979454909133596 5.035074091360589 5.776480310570077
V 6.253883128146264 4.974454467342103 5.999006437109428
V 6.407291703686439 7.094822572277377 7.52854225939092
V 4.850157980625578 4.03571037049028 8.003361764533029
V 4.635631663783625 6.455864023339451 7.760411463203345
V 6.396391277226576 4.896948434663843 8.545732098949614
