3
Energy = -13.88979259 eV
V 6.666216807964051 5.910007107444538 6.335407035694607
V 7.726017613901966 7.765145640871299 7.717055693465121
V 8.860292047788601 9.456963450868443 9.243251270645645
