5
Energy = -31.30541042
V 6.726249220171636 7.2888871732675415 7.224446264472162
V 7.217516122164564 8.669915144820274 7.662182669256385
V 7.818584401325256 6.37675536853262 7.444947625799355
V 8.173976910358475 7.609403983343694 6.951857469329895
V 7.297521189211779 7.2888871732675415 8.650982127910625
