55
Energy = -427.32171185 eV
V 4.061996870268435 6.922139350009222 6.043125238830268
V 12.473629122509298 9.334873113175956 7.808630956670108
V 9.522341536143104 5.855086802045251 10.210156977355036
V 6.305437618188237 3.7199246418617076 7.7477958902659125
V 10.442071220899173 8.681496068844972 9.23644464685969
V 6.979213185062073 6.189454565530243 11.719028376707065
V 8.60628783330567 7.679556969727629 5.557292064456185
V 7.575657301132644 10.119714742723069 11.361625779030117
V 9.788717084423109 5.5538264259964185 7.410470773982328
V 6.181826685277066 7.702249182346061 7.205859608348339
V 6.371643164949346 7.556271208363911 4.646021799819113
V 7.302188558289382 5.838991212737548 9.177053811460135
V 3.8043241760775643 8.885394514751011 10.168167692725536
V 3.7348495390832 7.892649784536097 8.615020510186627
V 4.886233143702599 6.3095748934808 10.673573418977446
V 8.195940362162236 11.773727585643528 5.5642137834651155
V 5.474692128359256 11.248831636925157 5.539023927971777
V 11.83902546054208 10.382938531951762 5.579223251032798
V 6.4371319311236626 11.881691740994674 7.812854502174764
V 8.19294332882178 3.7164613144671583 8.59804535186683
V 9.783785020527839 9.857295067039816 7.112635810431213
V 8.00185077985563 4.099892565398113 11.145652049669273
V 6.1260568987045305 4.029946323177111 10.45627683072359
V 7.6503273374557414 9.781125489524822 8.793590339987341
V 11.382866356198296 6.640849275575723 8.540681589016929
V 10.944277782538723 7.859708181150844 6.257738029247362
V 5.597116899645165 10.693658622727021 10.137957152177353
V 8.487667803168364 8.037280247229612 10.694365371826004
V 8.729636992193736 7.575708308375285 8.06015504659045
V 9.222645235981398 6.701235850858823 12.822251614303752
V 5.883375748218141 8.513553795092793 11.95189647677736
V 6.190856150492758 8.032865894524289 9.69517408852494
V 12.953412435907998 8.05299059192987 9.820005286931567
V 11.599433187671263 11.178132180944026 8.166969354241965
V 10.693906612450913 11.902687392158423 5.74675529450519
V 10.166711594801836 9.161096734312078 12.135293425128987
V 9.625988263772781 10.79208303566588 10.01948978214187
V 8.836820340328599 11.894133610565884 7.87272880906563
V 7.304463734189478 9.712451695970536 3.9897224056252627
V 7.420129475065783 5.666949693879427 6.620674430197625
V 7.581090354241768 12.201749709110597 10.002199551488511
V 7.601636798821822 5.558929013710602 4.125699739080971
V 5.04434893253957 5.682285051322439 8.328814284929116
V 11.179060502146097 7.510040236278356 11.400396753750075
V 9.583324196252248 5.679173777486278 4.724679277725858
V 9.578750561618685 9.845553480131175 4.525152840513356
V 7.981320830652392 8.07904552060739 13.26650555762573
V 8.77933408490297 7.789476147155229 3.0626164217893392
V 7.395616119611302 9.733643182649253 6.35476626801855
V 12.234241512813503 9.79683186562556 10.449556802787118
V 10.650858834940706 7.832698923656399 3.7782999425854302
V 5.128891398916405 9.942355659600278 7.965470723552856
V 5.118564913896867 5.503611293007052 5.708907511260028
V 8.31268274031718 3.729223589977692 5.961547926041835
V 4.8754721956487055 9.509556584278819 5.454417726362056
