8
Energy = -53.00587884 eV
V 6.519959816071996 6.028486559192444 3.139544007851992
V 5.723668741998055 4.426916732383645 4.885650929031324
V 4.787483513253286 6.523282541728312 5.021670935475984
V 7.26318113694504 6.742906036287841 4.633194761505142
V 5.7459093726345305 7.350997902608096 6.70269858668787
V 3.875719008484265 5.0383876202650235 6.739775861391868
V 4.778140289051388 3.518596840463063 7.149376043224598
V 6.391801663988801 5.456289309498807 6.8139524172584585
