9
Energy = -61.81316889 eV
V 5.87662397125107 4.0430559445076355 4.1598760389698235
V 3.923780522273913 5.52713116044123 4.030534083260666
V 5.583156739677077 6.58773319595862 4.499372915247188
V 7.500795724060244 5.03233991514911 4.779462939451114
V 3.8624837426978615 6.363182690471387 6.364094240810836
V 4.106626227005421 3.9917008161635503 5.642988959284812
V 7.4231909984828395 6.090372079212257 6.5365011944753935
V 5.8297196691072 4.69941909017139 6.666312986560657
V 5.444828590294237 7.21627129277428 6.872062826789237
