9
Energy = -61.0683096 eV
V 7.841632695696344 9.16424559104069 11.33645617638581
V 9.552881134472553 10.123402151978873 6.810321048403961
V 9.7319403163688 9.082476677910849 11.447867220423554
V 6.997359092041713 9.047148589642418 9.19947353037489
V 8.228688856027244 8.166116581700603 7.8653226143291946
V 10.387653737807726 8.658751144813335 6.391755437041536
V 9.005788448696027 10.274381144310674 9.317879316358756
V 10.594196153803102 9.060612686777267 8.871781500280221
V 9.035086342633697 7.559320957740007 9.783403940144845
