9
Energy = -60.95611464 eV
V 7.079394886680574 4.488751937473544 5.814256835884421
V 6.417662826937106 6.0579669022994915 3.840977992160377
V 5.132764408197144 4.217998370127977 4.986637697306414
V 4.708019480583728 5.601346916882402 3.396803848625526
V 6.486820507619574 5.593755617716917 8.158311265180886
V 5.450060560624494 7.537204447032545 7.090987613788841
V 5.005147642058156 5.029817410923915 7.247762408662156
V 4.580778071445804 6.897658520147219 5.558851490888043
V 7.217010781749357 6.653159043292507 5.983070013399288
