10
Energy = -98.61045103 eV
W 6.729289477153579 7.2400171701943705 8.551740309847565
W 9.93895182107638 10.320552280163582 10.304776848410897
W 9.237452566200325 11.963909933999687 8.834080353441466
W 7.695421130659773 9.900128346801466 8.66893379792052
W 8.060038060270415 8.52802312583776 10.570594475170658
W 8.730963396429312 6.2706165991772025 7.559542892205236
W 10.072967464461273 8.239947534117736 8.884201573952375
W 10.214511728467965 10.347988974137818 7.50066048547679
W 8.423325241905681 8.559873624160131 6.853285822469877
W 8.527161124783817 6.25902442281905 9.902265452513424
