10
Energy = -94.64911578 eV
W 9.71490903346282 13.0765697880488 10.253423338049187
W 9.113835240461563 10.861933936463734 11.386695947521687
W 9.191797620801006 11.13388291022669 8.82083569370476
W 8.676254143040296 8.673790186348867 12.635187629409392
W 8.603745805911334 8.67786162321741 10.144683984764095
W 8.851931691529728 8.960458394750477 7.720051624516522
W 11.424077929150421 11.175366560194664 10.086893182087149
W 10.86605870173876 8.883222501224772 11.335873925468249
W 11.07521082011902 9.005179771575502 8.76431137665292
W 13.108424884687519 9.251364031938293 10.1531723329449
