10
Energy = -99.41858779 
W 6.008017554008951 8.434638112507887 7.321109781847214
W 8.045729080117201 7.746411488428961 7.006497865660395
W 6.879902051778004 8.285008085170595 8.846229231054263
W 7.951973938536298 9.738145704987318 7.9405446359481635
W 9.35089861388516 8.702196780108043 6.904338976828394
W 8.321488016706972 9.460301500893731 9.758811012653094
W 10.01826732618797 7.4489410749196825 8.432447417148131
W 8.440193697505457 6.399131642639173 8.432447417148131
W 8.965260917608678 7.921106226634329 10.016193563723442
W 9.93448394129614 9.175415383710266 8.652675097988531
