11
Energy = -109.90426345 eV
W 11.064796576280514 10.273884166443246 10.133844916377626
W 8.466452120215658 9.094066578705785 10.44023251552478
W 9.326084340377127 11.205224649209772 11.441336256114846
W 8.525650748727138 6.429402804113459 9.988076540746135
W 10.564824902565375 10.618384994122247 7.794889076305519
W 10.266616937565091 8.062837837322999 9.055792801601163
W 7.940727745120134 9.493887562688728 8.035022853516926
W 8.195766566099982 6.654256908088899 7.635199436951262
W 9.721159756125596 8.466878878719447 6.701875687213872
W 6.614829827685394 7.604765226497134 9.148918692051401
W 8.851722057641092 11.635041815685183 9.163442566790145
