12
Energy = -121.12596461 eV
W 9.042297362069283 9.49553493908437 6.822569814542354
W 11.336856229582436 8.334896825771244 7.254841389184344
W 10.395442773553938 10.063968271090776 8.95794162475989
W 7.443613207673839 9.021490462015455 11.61536133991698
W 8.976929958039678 7.354578098257902 11.690190643643396
W 9.419475105117806 6.986321223472861 7.306682696817082
W 10.532112447554256 7.528703935786618 9.525672821383177
W 8.921820640065185 11.8473850180744 7.834605952838362
W 7.026243038117963 10.536122393040163 7.968594495482883
W 8.285712224211945 10.824190575066314 10.216558470352135
W 10.194284828152403 9.312104742135027 11.485816778169827
W 8.205166185861518 8.47465751620473 9.101117972909423
