12
Energy = -120.47489864 eV
W 9.022599901970164 9.251878184170625 8.715876921521566
W 8.505055273919432 10.019273104427112 11.178310585583146
W 8.990644772756783 7.699853132176108 11.04669614900165
W 8.517901950982871 9.98255299245389 6.237797194084207
W 9.005933802614594 7.668029165199354 6.40546510551619
W 10.472635667379691 6.859927417141071 8.73830966891133
W 6.950083321495367 10.87703430008927 8.702264791409128
W 7.814248581869944 7.095535885189847 8.728483487340092
W 11.04611427716896 8.58778670148196 10.26098780928873
W 11.056719069442607 8.562696380317021 7.191973880581219
W 6.619525013133941 9.020343823436878 10.140517407137237
W 6.6273002435656245 9.003850790217337 7.282078937775702
