14
Energy = -140.36912195 eV
W 11.073834875322174 12.13012295434471 12.045281755284881
W 10.578922258941484 9.10805454395158 11.937287027783633
W 9.678169581452751 13.785140874073491 11.460912668967756
W 11.182801011415275 10.51525753911796 9.941579039029579
W 11.871135814941747 7.059792692736619 11.810700697633202
W 8.774623010301497 11.403257220413023 11.040161620857965
W 12.471130281801045 8.35621264508625 9.902122897513873
W 6.788623380941888 10.505646848485151 9.919134146697749
W 10.205133703092487 12.80933057790017 9.295202451897568
W 10.207862769943397 6.81646521570549 10.250722758484613
W 10.56473791472538 8.601264105952545 8.282052591269615
W 10.96899041549822 10.936488778881468 7.428816962924549
W 8.801221503760118 8.932845796320771 10.154933154572031
W 8.703442570359957 10.900274040855823 8.344895794327755
