14
Energy = -141.16156534 eV
W 13.173927979572527 10.676197774800483 9.028874130375124
W 11.69157094887113 8.725304800907304 9.646844886333191
W 10.990078813976652 7.225275368423841 11.511802696627143
W 10.260747330757118 9.40212793758424 12.06662904535846
W 11.599597842350269 10.667654320732836 7.498229498885783
W 10.89587191412768 11.09307155710245 10.234791846517725
W 9.68604706714717 9.038933587873103 8.138682091059525
W 9.577970987904243 11.898861641749656 12.42210956938648
W 8.986992672643751 7.722681251186591 10.170237326310032
W 8.925842235775166 11.402471682434355 8.660946568297572
W 8.26043217068783 10.121840458568967 10.68680242799783
W 7.822421050359263 7.325011733705883 7.91127459220419
W 8.660361999498528 12.84096244421945 10.66495597784877
W 6.950968806349324 9.249571800171076 8.59051746979123
