14
Energy = -142.69682188 eV
W 13.893793076257937 9.875855004316477 10.223094126001579
W 11.98069839231954 11.857126354621409 10.387140645170902
W 10.335299082924692 13.07264514312312 9.022608979832638
W 10.119088763451202 10.345648999787567 9.116938976319501
W 12.528408989361939 10.502951985367453 8.355591129588083
W 12.705623898083324 10.060957242318546 12.358084390779764
W 9.998411540379374 13.299362392592501 11.287177161615165
W 11.854536444931682 8.560477963500833 10.206910085731753
W 9.982110586670252 10.676747657379419 11.736371853319286
W 7.579600112535445 9.623067841993644 9.14267479935731
W 8.240051061378004 11.915526630930268 10.100907893022521
W 11.052435993395832 8.411355161768915 12.509267511617669
W 9.157087376478156 8.4062855133547 10.670644406773366
W 7.433125571798823 9.986014750268543 11.459097790799078
