14
Energy = -141.50476944 eV
W 7.661519916192213 8.994623336645034 6.5019991897003555
W 7.270935836462263 8.816689536256419 9.216910080402899
W 7.319499000289013 7.029145996548217 7.5830749626619625
W 9.733575581015604 8.522733607579916 7.594381220262847
W 12.564112635739146 11.260699153678567 10.02325073977592
W 7.8027134699035825 8.063125928288864 11.525237972929666
W 9.06590126161825 7.05235647498175 9.576916240276136
W 8.952843878200838 10.737165332853818 8.474893114039993
W 8.808483287828876 10.407789176508675 11.024079585478143
W 10.469839774569756 12.538061376607551 10.007433848023162
W 10.165665366270709 8.210013993771534 11.780455740694451
W 11.237109993086168 11.260752883872199 8.005890059344466
W 10.963062187319514 10.91741201688032 11.882087233001457
W 10.987984677712712 9.260335637539656 9.761717242379472
