15
Energy = -152.75277901 eV
W 7.553234239672999 7.696159298455021 5.573097240656367
W 8.505698200204504 9.891317045229423 5.89138137990287
W 6.443269912101938 9.725539719902498 7.133357482132745
W 9.93426424752122 8.106033394881637 6.928646571105132
W 8.443922906876665 6.153444232552183 7.2400773557453935
W 5.901969928599535 7.3363576296371535 7.362966704156588
W 8.852957754626336 10.133468670456176 8.464491161190718
W 11.11414895636552 9.205984227504802 9.137819015938867
W 6.957972443688535 6.267585075659655 9.202449683337523
W 9.159525004024946 7.610420915773998 9.504529979824767
W 6.995947307337268 8.858120688345847 9.564764195994256
W 9.96692848141257 11.542891608713923 10.240269686284245
W 10.451648477476484 8.107576282989488 11.656276883439594
W 11.55854806517931 10.148954985279719 11.327933630156805
W 8.729230416019798 9.78541256572637 11.341205371241719
