15
Energy = -153.77004053 eV
W 11.00702874167192 6.5533256890131115 9.502782813867958
W 9.70228883186609 8.804828586061838 8.974754923749192
W 9.13830428481567 6.038119110386596 8.394926976357521
W 7.331571465004451 11.362184181946203 10.218490894006614
W 7.636394919735135 9.912559111137247 7.840884240283543
W 9.752322682623799 10.002530407727955 6.194699067026342
W 8.904782263305396 7.799395699998417 6.5154675831180375
W 7.323333729434832 7.657711544490898 9.15811649448874
W 5.810337894033154 9.575644588984705 9.471014721190288
W 11.139454279407465 7.824853477483476 7.2941794352766856
W 7.089330409518648 9.075630588679324 11.566228183726052
W 11.543884808471601 10.245142383061625 7.572779862075634
W 8.904782263305396 7.537883410209726 10.947876980637727
W 9.091261304758076 10.203273388506215 11.333137141427828
W 9.365511360882456 11.205049245257655 8.812792095712446
