9
Energy = -86.05287373 eV
W 9.669549411132614 9.024669168872908 6.269066175416142
W 10.662985396143572 10.341674151583543 7.705823502255941
W 11.037606942104304 9.248607238151964 10.811096670234289
W 9.753109158343882 8.121467059789042 8.802580790827022
W 9.120107575342876 10.74518969354897 9.803007190548328
W 10.279822599676509 7.254581028176578 11.294320286040476
W 7.93130514536852 9.614913830890414 7.973258735329001
W 8.26802967594986 8.637831702655859 10.739589820754084
W 6.654618793417189 10.395731762974137 9.977741200933105
