9
Energy = -88.91582094
W 6.979078710594451 7.483305626750711 6.006631590121134
W 9.367345448609967 7.483696640294218 6.006565448399009
W 8.173031250085463 9.55201573155291 6.006675787469326
W 6.87863050287605 8.919957745174836 8.1731810552392
W 9.467419697449564 8.920310079894323 8.173162261313202
W 8.173265715791818 6.678484900143848 8.173181055239201
W 6.979104656801074 7.483813476891926 10.339805872761909
W 9.3673754119437 7.484203576577771 10.33984200224445
W 8.173059165371244 9.552520782242295 10.339266486735175
