11
Energy = -53.10615236 eV
Y 7.2056200882342285 9.64010451898405 4.070734787418681
Y 8.044272555452729 9.619811146256506 7.30307747917685
Y 5.020702802976673 8.728466592049356 6.353741367728916
Y 5.407915249322455 8.833773757596845 9.839247428170946
Y 10.34578955604326 8.920761495786307 4.869073149230353
Y 10.634722058697657 7.124125556900773 7.612201866556767
Y 5.793777516098685 6.162248913767341 8.074854873310603
Y 6.234822264395855 5.654891111656382 11.190417940839295
Y 7.966046907606323 6.738405850876364 5.722172044018305
Y 8.372505279772792 7.5701702101225 9.807319618966032
Y 8.514291979958449 4.547707104562821 8.697625703142215
