11
Energy = -53.19897686 eV
Y 10.089785155821207 4.648593444382749 8.378776970258913
Y 9.478822383128321 8.009342959711894 8.81377481703487
Y 8.04707910182498 6.122034690870451 6.242794247379499
Y 7.19014687841503 5.720482690681702 9.39491851340356
Y 7.301212999134247 3.1149117360341747 7.454548951927133
Y 4.882390643220683 5.458729841163762 6.999856798919926
Y 8.460035491686007 9.374336452025728 6.000673699758493
Y 8.060280234162775 11.144959410536858 8.703725227956275
Y 6.093176184796732 8.554093703315978 8.135217488427367
Y 5.552137271994064 8.185092336097847 4.880676131766703
Y 5.839289437395968 11.282073923966886 6.247863135504654
