12
Energy = -58.41939075 eV
Y 9.735314513083729 10.969329107918528 6.313142390522127
Y 6.852429098564718 11.428571044995634 7.867637238459572
Y 8.75209577678965 8.80469832703754 8.67309327768025
Y 10.43907238048621 7.815092272996461 5.663455658758962
Y 7.280671469892058 8.777094048482974 5.776007439872854
Y 5.267133535460222 8.622893506992918 8.752975208567081
Y 6.877141442042886 5.948729098488386 9.948724144409994
Y 9.048273766522161 5.700396018950176 7.63274352638789
Y 3.9075789783083144 5.154675513367681 9.169676436546164
Y 5.60800187309023 6.1994823664841014 6.70856556740985
Y 7.9581433767974135 5.392610618364126 4.680628916845214
Y 6.612541368255266 3.4683445308462457 7.6173120479642735
