14
Energy = -69.28122967 eV
Y 4.97256500027569 7.268024614112257 4.04031781661614
Y 4.930069190487778 7.264610163349453 7.199723440835345
Y 5.178389056313786 4.402136681824501 6.005004676092071
Y 7.938574728730752 6.628992542286139 5.093627159815474
Y 11.922323777032496 10.118977964656818 8.201708899571106
Y 5.090001966789293 5.284924595382374 9.72382933487016
Y 7.630143896247375 5.205316591137647 7.988579773737492
Y 6.792962211374553 9.578136214142168 6.0845029804683834
Y 6.726273676060226 8.583568688292802 9.552679664039765
Y 8.832030381828433 11.066868337972492 8.228579326753097
Y 8.2434751398537 6.197112742651163 10.998621930632419
Y 10.073025659746133 9.80777259104917 5.35662849841236
Y 9.84818235342363 9.27325325334314 10.845253502814277
Y 9.558022903672281 7.815285203389366 7.9131027005467764
