14
Energy = -69.42934209 eV
Y 7.546366208345519 10.801109148219798 5.5002998436860455
Y 4.945678245911749 8.443054886387351 4.8568784947432215
Y 7.955921672974702 7.7804107228946515 4.346937330362227
Y 8.527598227957478 8.132243009372257 7.716343200966542
Y 5.438981517403925 9.991370502504864 7.704274484854861
Y 8.335773805193764 11.194788357037071 8.909359071649565
Y 9.222857293557256 5.277949323928663 5.927027819350518
Y 9.80685991372393 8.309354981694439 10.739445200770517
Y 6.202103167572131 5.06718966682823 4.738686195698053
Y 10.331270307455318 5.2925875575415215 8.997043984018346
Y 6.579031912194701 8.921234331809435 10.517503066851564
Y 5.679736037858964 6.583989014950217 7.556953931959811
Y 7.534107315483395 5.852089230412785 10.340757724602067
Y 7.352480083628295 3.6996980512196123 7.8696077682599785
