3
Energy = -10.93269666
Y 4.544430000000003 4.90550900000009 5.999999999999992
Y 5.780031999999957 7.807747000000022 5.999999999999992
Y 7.675538000000017 5.286743999999974 5.999999999999992
