5
Energy = -21.55498597 eV
Y 7.140685633816198 8.95443426499376 6.50325491154851
Y 9.409209859851876 7.6728202239711765 8.287106781442542
Y 6.914321710808635 9.225043183499752 9.813154102249284
Y 8.409446965867875 6.134349296370988 5.535103253358989
Y 6.521358868052226 6.408376069561246 8.256403989797475
