5
Energy = -19.7346223 eV
Y 8.82463407661186 5.617305472609531 5.768414323072671
Y 7.668412778189791 7.13703251005767 8.359106762236937
Y 9.935608018798472 8.513037957294452 6.743341675031894
Y 5.5455189713348245 8.657513130907462 10.182594055003577
Y 8.154835318835378 10.161724180880299 8.96139635267312
