55
Energy = -308.5034247 eV
Y 6.00088703834723 6.00088703834723 6.00088703834723
Y 6.00088703834723 7.8005440624143745 8.907286019518741
Y 6.00088703834723 7.8005440624143745 3.09448805717572
Y 6.00088703834723 4.201230014280422 8.907286019518741
Y 6.00088703834723 4.201230014280422 3.09448805717572
Y 7.8005440624143745 8.907286019518741 6.00088703834723
Y 4.201230014280422 8.907286019518741 6.00088703834723
Y 7.8005440624143745 3.09448805717572 6.00088703834723
Y 4.201230014280422 3.09448805717572 6.00088703834723
Y 8.907286019518741 6.00088703834723 7.8005440624143745
Y 8.907286019518741 6.00088703834723 4.201230014280422
Y 3.09448805717572 6.00088703834723 7.8005440624143745
Y 3.09448805717572 6.00088703834723 4.201230014280422
Y 0.34857775862022733 6.00088703834723 2.5067519265145055
Y 6.00088703834723 9.495021150180206 11.653196318074404
Y 6.00088703834723 9.495021150180206 0.34857775862022733
Y 6.00088703834723 2.5067519265145055 11.653196318074404
Y 6.00088703834723 2.5067519265145055 0.34857775862022733
Y 9.495021150180206 11.653196318074404 6.00088703834723
Y 2.5067519265145055 11.653196318074404 6.00088703834723
Y 9.495021150180206 0.34857775862022733 6.00088703834723
Y 2.5067519265145055 0.34857775862022733 6.00088703834723
Y 11.653196318074404 6.00088703834723 9.495021150180206
Y 11.653196318074404 6.00088703834723 2.5067519265145055
Y 0.34857775862022733 6.00088703834723 9.495021150180206
Y 6.00088703834723 11.80367212727272 6.00088703834723
Y 6.00088703834723 0.1981009494219902 6.00088703834723
Y 0.1981009494219902 6.00088703834723 6.00088703834723
Y 11.80367212727272 6.00088703834723 6.00088703834723
Y 6.00088703834723 6.00088703834723 0.1981009494219902
Y 6.00088703834723 6.00088703834723 11.80367212727272
Y 7.797075900919773 1.3020183343554872 8.904496553877674
Y 4.204697175774938 1.3020183343554872 8.904496553877674
Y 7.797075900919773 1.3020183343554872 3.0972775228169573
Y 4.204697175774938 1.3020183343554872 3.0972775228169573
Y 10.699755742338978 3.0972775228169573 4.204697175774938
Y 10.699755742338978 3.0972775228169573 7.797075900919773
Y 1.3020183343554872 3.0972775228169573 4.204697175774938
Y 1.3020183343554872 3.0972775228169573 7.797075900919773
Y 7.797075900919773 10.699755742338978 3.0972775228169573
Y 7.797075900919773 10.699755742338978 8.904496553877674
Y 4.204697175774938 10.699755742338978 3.0972775228169573
Y 4.204697175774938 10.699755742338978 8.904496553877674
Y 3.0972775228169573 7.797075900919773 1.3020183343554872
Y 8.904496553877674 7.797075900919773 1.3020183343554872
Y 3.0972775228169573 4.204697175774938 1.3020183343554872
Y 8.904496553877674 4.204697175774938 1.3020183343554872
Y 1.3020183343554872 8.904496553877674 7.797075900919773
Y 1.3020183343554872 8.904496553877674 4.204697175774938
Y 3.0972775228169573 4.204697175774938 10.699755742338978
Y 8.904496553877674 4.204697175774938 10.699755742338978
Y 8.904496553877674 7.797075900919773 10.699755742338978
Y 3.0972775228169573 7.797075900919773 10.699755742338978
Y 10.699755742338978 8.904496553877674 4.204697175774938
Y 10.699755742338978 8.904496553877674 7.797075900919773
