8
Energy = -36.73000009 eV
Y 9.458050057687174 6.426563884884566 5.342147430168148
Y 10.465959744881312 8.31103493652707 7.608206134261335
Y 6.404863766014583 5.555628568731476 5.16467405057673
Y 7.673585400571739 6.269072562279582 8.355401351556885
Y 8.372372289229634 9.33329084851035 9.697549501373173
Y 4.326106944034708 6.56071648246096 7.254674295111154
Y 7.111767596060521 8.615753067384276 6.50972429383232
Y 5.334265061587432 8.46953791523777 9.521773779640402
