9
Energy = -42.2934902 eV
Y 8.170592725822669 7.805679315508089 10.977879361213661
Y 6.310869012795615 10.179683898123681 9.590933338712459
Y 6.068315018262312 5.874501872305693 9.274899177835737
Y 9.667522564764164 9.833396583397544 8.797603251911118
Y 9.841774505263055 8.093024170538154 5.804548952358426
Y 7.7311144796260365 10.821867815743099 6.278232459560461
Y 7.430922974342881 5.5680018529414195 5.891815472145904
Y 9.453579206876272 5.954989233944532 8.510840887460105
Y 7.365798868352107 8.092963822781767 7.720074408309809
