17
Energy = -8.42056912 eV
Zn 8.32558429906804 5.41848473337998 6.675868441581432
Zn 8.140213392923203 8.102089250658913 6.255299049407628
Zn 6.860712329816477 6.438165973279745 4.703932995753377
Zn 10.023447904515331 6.650025232854695 8.13197640800625
Zn 6.004151834299748 8.614638134477838 3.592480125433895
Zn 8.945750324849783 8.909292956219943 8.670948747869602
Zn 7.7022393602405215 3.9393449832082945 4.66679223621847
Zn 6.150531223393215 9.843365745541735 5.943778387556341
Zn 5.17917825742674 4.420896757661921 4.8719671513549745
Zn 5.952590643546067 6.872293533533349 7.410273005099989
Zn 6.401284962804189 9.177515658741289 8.445855440613121
Zn 6.643454411046228 3.1705796949868814 6.869457852796702
Zn 3.859648731898089 8.974545871449099 5.155257158033463
Zn 7.877178920107199 6.897042671877875 9.921512004421137
Zn 3.9868226255782675 6.509846453351347 5.757386791318095
Zn 6.753548800414174 4.830193447542883 8.845740821226073
Zn 4.558217647704159 4.627371803136805 7.430907810459829
