12
Energy = -5.04113641 eV
Zn 9.072779791725631 6.50719955355316 4.5698468665771514
Zn 9.258801635844085 3.976803745203303 3.717061241303771
Zn 6.829028735744602 4.264873997268473 4.8668961765441425
Zn 6.323745425128736 6.9281899590954 4.441143305450308
Zn 3.9003983245031977 7.7642170175410286 4.7720220496420085
Zn 4.3535895850446 5.111308217728659 4.741807207068837
Zn 2.806232272970433 4.065540077055365 6.602056593400083
Zn 3.5686397555889178 6.48514845721595 7.08014387352031
Zn 5.564355078421998 8.160410965538258 6.749406524955763
Zn 5.385720183080685 4.295716999700711 7.066128810044913
Zn 7.353404978843331 6.114303012081471 6.776122849085645
Zn 5.6700928715016445 6.413076636415789 8.704153140804497
