12
Energy = -2.71192903 eV
Zn 8.162004418398647 10.538954118321959 6.866339753696744
Zn 5.570675088994846 10.538954118321959 6.866339753696744
Zn 6.866339753696744 8.291358540138813 6.866339753696744
Zn 4.121750442918833 8.451626467320237 6.866339753696744
Zn 5.63041214471789 6.1527961292047975 6.866339753696744
Zn 3.0380035073934866 6.152133255128117 6.866339753696744
Zn 4.3358588464058485 3.903959100204767 6.866339753696744
Zn 6.866339753696744 3.7057803079004104 6.866339753696744
Zn 9.396820660987641 3.903959100204767 6.866339753696744
Zn 10.694675999999998 6.152133255128117 6.866339753696744
Zn 8.1022673626756 6.1527961292047975 6.866339753696744
Zn 9.610929064474657 8.451626467320237 6.866339753696744
