19
Energy = -9.61741062 eV
Zn 8.060481329020947 5.42256232992094 5.600769532219142
Zn 5.786225889194093 4.339196640157454 4.666368566071943
Zn 8.355496155178276 7.810897962755725 4.695371766901369
Zn 7.102906754437906 6.0062440047245165 3.21494721804683
Zn 6.671736497224491 3.811889674451394 7.092708838418686
Zn 4.302394452945409 3.0660049617286216 6.374798589620245
Zn 6.486549114655621 8.591292409513171 3.086578176697663
Zn 4.181136090590857 5.294797036046212 2.785324166900383
Zn 5.035433443812546 7.244570532881623 1.60122113321852
Zn 2.943750020227008 4.4430607150946 4.76981351159505
Zn 8.64708628955774 5.389462167595974 8.072028096754497
Zn 4.053439426435731 6.862687518264638 5.154843219228326
Zn 6.75574634887579 4.550939952285663 9.769235173612758
Zn 3.068863446651387 5.4064901756025625 7.085896654178977
Zn 4.549102200253179 4.1741720151931565 8.743010616291144
Zn 5.990750668334851 8.422851636771929 5.627471803621765
Zn 5.328335494679491 6.707838380935224 7.452821940687714
Zn 7.958646802806441 7.872878947492563 7.211259282781763
Zn 7.173109032694069 7.0400770967032935 9.468054866971325
