11
Energy = -3.69211546 eV
Zn 5.611787508636455 5.728275900721955 4.1084817191428735
Zn 7.085297096287435 4.756236391210854 6.566380620961894
Zn 5.586591591477921 5.706901685931433 8.50030065670387
Zn 3.048218700719938 6.640071840403986 4.998334823959042
Zn 8.337268499226331 4.91546233301605 4.028662740729263
Zn 2.922192638959014 6.508281546080433 7.739959412979098
Zn 7.610205466353767 7.274438221125384 7.664752134575722
Zn 4.287581288408096 4.579483467649495 6.120720924999672
Zn 7.613274204342944 7.3804951457067345 4.765250381071744
Zn 9.66688759297853 6.028749458267063 6.133607861749244
Zn 5.295633247929806 7.546541845206716 6.438486393593085
