24
Energy = -13.60450476 eV
Zn 5.576553429909834 9.720195390607262 8.115417926416418
Zn 8.241263676357546 3.4087898085495336 2.8746472745780474
Zn 4.824591587223835 7.23821053445371 8.803716317356253
Zn 8.90704518047788 5.868956389424447 7.2354939894232295
Zn 5.609547624839508 3.599584642830272 6.951697518048057
Zn 6.2072328028261525 9.289486313763716 5.66913931511972
Zn 7.340580065844098 1.9949108762894598 5.109297470839786
Zn 4.291308487801738 6.2240174294207895 2.7102329445911035
Zn 7.752300226769087 5.002232895616195 4.901803913297816
Zn 4.925234482955662 4.38032549701563 4.538255459491485
Zn 8.018225041620415 7.504798178258334 5.549025760684965
Zn 3.2352934085428258 6.245829942982811 5.162345822344833
Zn 6.701920132809581 5.352199625849493 8.539839327593688
Zn 6.535332086650502 6.955712377086333 3.5761331916851997
Zn 3.095737745019308 4.08468429257125 6.577593196101636
Zn 5.6482993721188715 6.281423262501493 6.238360833740474
Zn 2.6311061748510354 6.406400520831085 7.718518836822698
Zn 6.347846124314404 4.792649634473393 1.7644824633189524
Zn 3.8760845287726644 8.386650588090456 6.6354826630253
Zn 4.3788620141835395 8.395907741478004 4.108164530139217
Zn 8.15631725635605 3.4851675491752294 7.054056714539541
Zn 7.306369426714518 7.856979340737918 7.981618232272196
Zn 5.871616993284714 2.488715703230444 2.9899991867019136
Zn 4.175624197517885 4.690463532523787 8.848969179629007
