29
Energy = -14.48800087 eV
Zn 8.871729357878872 8.759505398388194 7.721208478847441
Zn 10.393750296103411 7.086298247873517 6.450964660556408
Zn 8.218883050558823 8.673543325007872 10.14310515906047
Zn 8.682576413026952 8.669390801769921 5.1898480490842145
Zn 11.695555081595124 4.971083844799452 5.935493510071862
Zn 8.223340546693537 5.889514770352301 5.184369645451215
Zn 6.444770957279927 8.214651880159453 6.905770853080952
Zn 4.359172866721999 8.097912790926738 5.39599982386128
Zn 6.5958018822776046 7.684991610703575 4.157444928404688
Zn 6.223470261437203 7.170439947418675 9.72308691404681
Zn 9.53579223412611 3.6446201510918934 5.64919240148676
Zn 4.617317448351673 7.250263509878022 2.7388584430612157
Zn 6.5839247675089005 5.253266627236653 3.323956731380633
Zn 5.654270697207776 5.654743598780316 5.987413077703893
Zn 2.516421141518497 7.054354070299566 1.2431737156530158
Zn 2.0241275553888416 7.287703777154629 3.7955149059588935
Zn 7.286136563145043 2.734319827550955 9.282719303080118
Zn 4.267125654213346 7.135764890149349 7.972532468729589
Zn 2.534744964874757 6.458823303121392 6.194363093958607
Zn 7.273053823369938 3.8953185156345604 6.828780390971162
Zn 3.9251100757304083 4.704729828848398 3.068883209957687
Zn 5.767778885374916 4.945539937970526 8.675941975711048
Zn 7.533346025672372 2.1725801635948225 4.958440579105001
Zn 5.648432373998807 2.8842750453540176 3.5568874854120986
Zn 1.1175162730745596 5.175089845750694 2.191313041679406
Zn 4.162481464423215 3.467328709982071 5.604127451869518
Zn 3.334043630588236 4.67248536625619 7.91340613968383
Zn 1.7614568442219534 4.49575490924527 4.59539637199502
Zn 1.8206822345312732 2.968518675594084 6.684620561031227
