26
Energy = -14.91427074 eV
Zn 7.046220814780133 6.848018694647136 2.8834232693685515
Zn 7.017369149420116 4.65315509036129 1.676390603098558
Zn 5.588990637689741 2.6989719421939724 2.22701853876312
Zn 7.256371867068051 9.285983360719738 3.4587877513162066
Zn 8.30668276611074 5.0377763461327145 4.194308842555083
Zn 5.028276899008775 5.050329801598504 4.089373563559891
Zn 4.437542824967411 2.3994318496466756 4.446039757510253
Zn 5.454535525405134 10.442806837858113 4.921850166044447
Zn 6.768707415543795 3.270785444299407 5.165028506217071
Zn 5.458232408077078 7.4601610465634 4.90919879505383
Zn 2.9659600405037505 3.9433013750830836 5.733195765711235
Zn 8.141979434785334 7.344246259215004 5.365411324932357
Zn 7.738389482102272 9.858812087227736 5.983699195482413
Zn 4.896685014632758 2.63904407366802 7.024751312924986
Zn 5.983491445387148 5.477385915787194 6.548591153885011
Zn 3.8318324632799925 4.901476523832913 7.978855435938214
Zn 5.63575595766938 9.686289083180776 7.458550148458133
Zn 8.76320221577782 5.287278034455607 6.730394226757091
Zn 7.123893147331933 7.4993983077064765 7.757755981031598
Zn 3.5877543569437806 8.883650477939222 5.942560594176071
Zn 3.1893726845136516 6.413894720407987 5.932261362208691
Zn 4.351939870693644 7.5041741103753035 8.097039204297563
Zn 7.270785048373945 3.335318461228278 7.736254799018856
Zn 5.416671931324446 3.460441265682529 9.542525406718488
Zn 7.970066180506264 5.408748187633367 9.185044213456285
Zn 5.538241564658293 5.978071849110766 9.780641228070913
