23
Energy = -12.03948969 eV
Zn 7.920784946689696 9.320518548060166 7.328359318196576
Zn 7.820282927651173 9.20083122396613 4.77573679598522
Zn 5.655089157601582 8.950580824921738 6.24390887034234
Zn 6.520926902526992 7.44548395222184 8.493176784616676
Zn 9.095796919741929 7.4387180010778335 8.552649517803566
Zn 9.096792247645526 7.227358657010959 5.725379339892636
Zn 3.501832465507049 8.251016351231984 4.856304566932144
Zn 5.547417424870206 9.554818525110266 3.5161959767788615
Zn 5.009558601714241 6.530662247113558 6.623905846490373
Zn 7.756652156455056 6.0644656547474165 10.338390525564849
Zn 6.760192979403869 6.749633775290262 4.437697771062046
Zn 10.05529931927716 5.258878307088582 9.652554097003692
Zn 2.2311825477445058 6.2946877854859355 6.174757745707622
Zn 10.010350151855604 5.346769301780636 7.129435467318735
Zn 5.856482076995354 4.904374028418598 9.149004208867813
Zn 4.789469146474166 7.408036381301848 2.5563605729936763
Zn 5.470734872120966 5.003828367938129 2.910297527835303
Zn 3.244401003077236 5.683389216481539 3.9497144490968417
Zn 7.510165051109567 5.234115616619627 6.330325847614876
Zn 8.274315866937775 3.8341400170222992 8.467026093188245
Zn 3.8042455792134247 4.437209379113139 7.481416791453885
Zn 5.112269754549476 3.9821057856046025 5.177663207581954
Zn 6.106383225852007 3.0747550671902455 7.303636841112822
