22
Energy = -12.69714159 eV
Zn 7.601655590732489 5.824700800986443 8.743251438903705
Zn 7.019836908535623 7.7721430451125375 7.072260257076407
Zn 3.815219257638462 5.302757616737374 7.151844142273979
Zn 5.1102032420124415 8.004201446633061 3.655773115085548
Zn 2.8308328793048716 3.7039669649613907 5.387492187896656
Zn 7.587011021621875 3.7172833341857037 7.148883388923705
Zn 7.5867849370792815 7.6462916256057 4.439882902541709
Zn 8.768738012608532 6.035767671267551 6.344194036607216
Zn 4.937237167812357 9.402413480677058 9.451955738818677
Zn 6.084436442968552 9.562491218995868 5.402376565210433
Zn 5.442593035502206 10.952878416994544 7.480305875297955
Zn 8.684332838940074 5.458357142139544 3.6862040372686384
Zn 6.1417644206846935 5.582219626999614 5.846764881096795
Zn 9.461646903628463 3.7188348518574483 5.379299964349685
Zn 6.150867303769119 5.652458703005049 3.2248106143927147
Zn 4.665455982857797 3.5361062310938967 3.6479944444980243
Zn 5.561124571612627 4.320045173066898 8.757485937146528
Zn 7.079881118297579 3.345713944897684 4.4351310722089865
Zn 5.192933262103823 3.1278162357393575 6.348281859989227
Zn 4.475339324696829 7.612174339348038 6.280971664115367
Zn 5.204135723609446 6.891485033683585 8.852556326818238
Zn 3.713060060176238 5.944983102204883 4.377369555672615
