28
Energy = -16.27309093 eV
Zn 9.013099721365956 4.354829920814305 4.028671213875198
Zn 8.714148135485924 3.823680338484691 6.5553014683712805
Zn 6.637893135605575 3.822348277861194 4.780640314509222
Zn 5.273438368401617 4.805925013242322 9.724177356724875
Zn 7.845170392796541 4.166180653016542 9.284244852483765
Zn 10.147556905445773 5.845708187087217 5.746082221351186
Zn 6.127510135767238 4.212082077401974 7.285573150815205
Zn 4.106111107483872 3.846581828465336 5.615379134213228
Zn 7.079062926882045 5.207099238946327 2.506614088918078
Zn 8.899402375143417 6.91592165321248 3.586995427422489
Zn 4.707997281131767 4.782241621945106 3.27805081662751
Zn 8.665700467083388 6.1887606591177375 7.794979015418166
Zn 6.462316478866118 6.403663284507466 5.894375941912626
Zn 6.084550593562701 2.331773914556964 10.252027909103104
Zn 7.17750745292996 7.648627491504287 1.8166307386426976
Zn 3.8034604034017923 5.424192087044376 7.76077321514058
Zn 5.138757149955341 7.3191155024115995 3.250061955359521
Zn 7.250405405293015 6.538528639186548 10.004170591556377
Zn 3.631009542859618 6.327195727764298 5.145576753736198
Zn 2.914836299260059 8.785702638283533 8.303278369678553
Zn 1.9461080787057332 7.010473138980329 6.915511047024583
Zn 7.35047586482812 8.377347249587615 8.270358561970639
Zn 7.148154568304833 9.041796780724665 3.916839374734597
Zn 4.843517900612206 7.361196116437092 9.354921733007743
Zn 8.608118136305633 8.00718894778522 5.887320056135208
Zn 4.930533092370655 8.52820213474624 5.624214529248834
Zn 7.043087186343994 10.019034154558929 6.228996814502581
Zn 5.213889674234782 9.668421502753441 7.9520521279436265
