21
Energy = -10.28376619 eV
Zn 4.785948537893121 9.446602647915336 6.972711533170005
Zn 6.734571436788959 6.689816723114523 3.559912210610469
Zn 4.196207446608378 7.486920383853685 8.698081289415773
Zn 6.497146084047796 8.855743305872902 8.76187868721383
Zn 3.636755096672203 4.12433857441528 2.370886114306599
Zn 8.502492147192637 7.53714442394121 7.87427172495499
Zn 6.0068524502547085 4.001868589679569 3.1448948769141274
Zn 9.349380504122317 4.2313043844352585 6.125353970257709
Zn 8.812650393337321 6.905055650292682 5.3154558792605116
Zn 6.41106997128935 7.660266175136988 6.053860845866382
Zn 10.54558115641172 5.63458608985403 7.834090620202085
Zn 4.119526550446272 6.614276124618058 3.6201889147320356
Zn 8.310340223130389 4.664183737444577 3.9197804715525333
Zn 6.620968156384246 6.38120346118122 9.462763840191036
Zn 9.05162821438872 5.700766643790951 9.892230013323188
Zn 4.777873455695564 5.153406561973692 8.051976992673465
Zn 2.1677066558459717 4.983941018793815 4.301610618014648
Zn 7.231286417365639 4.919839243135134 7.3677191508992435
Zn 3.4317267223288854 8.557923435101848 5.09803893207314
Zn 5.473263562586127 4.989885108273391 5.507576613991018
Zn 3.2152666441815816 6.236037749219315 6.322502127563072
