26
Energy = -14.05236412 eV
Zn 7.201062257379725 3.7040926811964447 8.749930261099077
Zn 6.984233840381004 2.5335256676907214 6.550978796554772
Zn 7.331472356423546 5.913426919451784 5.9512006758119
Zn 8.933985931972972 5.910405203731285 3.820873026748331
Zn 4.981430185088017 4.181766259119347 6.380605746786873
Zn 5.817684611455518 6.048038468698244 8.13563385355751
Zn 8.624318406341867 5.908399574509827 8.132927860330947
Zn 7.210384342132325 5.723133667651471 10.34342745432355
Zn 6.740633658057315 3.6978417350205337 4.363729957500421
Zn 6.711708301452941 5.456401044860942 2.5822064461069445
Zn 9.882889963177664 6.738472489478035 6.060956791896359
Zn 2.8787642430854006 5.587264902024457 5.934621619183825
Zn 4.6770417763269005 5.586462904448293 4.088917748060707
Zn 1.9610311933877127 6.957309408420872 7.896250808635766
Zn 8.97846789015914 7.440711711762778 10.57186671644775
Zn 8.931763868910016 8.429076811638273 4.402175164591278
Zn 6.50974788456604 7.657344224270111 3.9265142423519412
Zn 10.452174046915015 7.722705938322473 8.435520314279481
Zn 4.155660506722012 7.834035126721064 8.763385128983025
Zn 4.987315091760354 7.554358963256829 6.051839147817775
Zn 9.062359569115191 9.675464783074208 9.434991195714527
Zn 9.222059408601282 9.394970954502194 6.778706795557201
Zn 6.8465851411543 9.54949647455603 5.611227739718067
Zn 6.67840765590149 8.375083785182726 9.521794066602947
Zn 7.230256060846015 10.589193826438951 8.042056455285191
Zn 4.970142661582151 9.792597326867428 7.429242838949769
