32
Energy = -19.64033749 eV
Zn 10.64985065894523 10.286457792969674 5.283269192182719
Zn 8.163410743416545 10.779475607980928 5.746759454735628
Zn 6.025293290536345 9.504843220107308 10.432794943768888
Zn 5.817713696933565 7.488323273520853 6.180988179341985
Zn 9.132490014428752 10.042088238161497 3.304910436523237
Zn 7.217474809815135 7.464761059767819 11.818847481436675
Zn 6.763427397974256 8.871134354362542 3.884603013850886
Zn 7.047268993375407 6.231855852644522 4.301149561463356
Zn 8.74170249979553 7.670597283226731 2.656557029521539
Zn 4.577066950716047 8.9663383005235 8.108258203928438
Zn 5.839195298005426 4.87175285771053 6.659043975193929
Zn 5.71415196223234 10.004513776914413 5.94540351446681
Zn 7.1202642534146765 9.977615712616021 8.113544165298075
Zn 5.29815722258582 4.409411143696098 9.101512459454254
Zn 8.250846901258296 4.61235700919403 5.878742609990297
Zn 7.952284262345588 7.3484889196148995 7.712175977786967
Zn 10.652614150024272 7.655331921688491 8.83381882852134
Zn 11.473093626658475 8.125416570228618 6.452538589784873
Zn 8.701300383264 8.11034520562399 5.556107081561976
Zn 4.555825865792095 5.514063425396629 11.433174289278853
Zn 9.076764103887124 6.356344184246521 10.3665030804517
Zn 10.143938932173759 5.986424616883515 6.900309355989841
Zn 9.681961659170488 9.763809434304601 7.664469811669426
Zn 4.740200367618236 7.986134391261948 12.075416090607312
Zn 7.867698667828614 4.820166976181899 8.456374940504917
Zn 11.015838272555879 8.121507284577733 3.8883366823963454
Zn 6.105606368557394 7.0489525736836836 9.295095511750372
Zn 8.571220955526627 8.863267451526701 10.005692268883587
Zn 9.730075900146582 5.913656709518997 4.2541240186762845
Zn 3.414188779325269 7.341630645434967 9.936159817375545
Zn 6.970232441693741 5.033761307184677 10.990303699735456
Zn 3.955127033632529 6.344500261634199 7.653975058066611
