36
Energy = -21.19236461 eV
Zn 9.195052983950141 6.154997495429213 3.3011138501297146
Zn 4.964374141921209 6.750852919251545 8.325541987026478
Zn 5.3104713728463295 4.438301393618662 9.800488808096087
Zn 4.451424422473028 9.566693954200655 5.458210684527005
Zn 10.769961073276129 5.607283737552252 5.087656810668979
Zn 8.419972221872412 8.462505621978396 8.536962521265801
Zn 3.685910406744299 7.126708288825322 4.782715683296054
Zn 8.508396935443198 6.745483148245998 6.282035011436392
Zn 4.351925393777286 2.266284560289378 5.191598382125709
Zn 6.047791098356723 3.130685273833606 3.470571639094416
Zn 1.4192910972714494 7.385646127145016 3.3816131187360554
Zn 6.056286233048404 7.559923066792684 6.037302529129683
Zn 7.228635804402486 3.2506913168501774 8.46964558009317
Zn 7.470386272448397 5.9206173315712824 8.706704627453464
Zn 10.173531939421306 6.755703654761069 9.079362244814845
Zn 8.080746322739163 9.348155332610796 6.167140322227911
Zn 5.693953862145995 13.430066663327004 7.7031631409248265
Zn 8.431000833620672 8.463061167362648 3.714788872106244
Zn 6.65968497206602 10.306114706660317 4.119896524086421
Zn 4.201417898870348 4.703416828660864 4.222715411491452
Zn 5.674999288960608 8.102989832529527 3.3577963990872943
Zn 11.249956902577797 5.092986225913279 7.485736830017326
Zn 4.717458365637583 3.1002550409102057 7.72534827385418
Zn 5.874461090911501 9.233304551498307 8.069985614128393
Zn 6.563028323745161 8.03924954913909 10.282207907356936
Zn 2.4046450151050998 3.1763000862424327 6.6041763274808165
Zn 9.466750947735202 4.219085736947967 9.112036561057264
Zn 6.177185224769184 5.046765694802177 6.387614068482864
Zn 1.9179916906842889 9.153639271816537 5.654325050616952
Zn 8.983285932377454 3.953555088894536 6.491749649296735
Zn 6.873593587891967 2.5273209412924706 5.922283005172996
Zn 6.086330635300693 11.168440277259787 6.446318293330443
Zn 5.559369258330294 6.1752654569804735 11.623448482508987
Zn 6.674694335131309 5.768159319618863 3.8402268004957456
Zn 3.367939845265669 5.527323017755059 6.753831416501245
Zn 8.463415563672697 3.7483993561557596 3.9785631728083843
