30
Energy = -17.49289771 eV
Zn 8.854539521448356 7.455442027624176 8.782788596887524
Zn 7.22441848280249 9.158901833251347 7.792735004070067
Zn 9.292654407955663 8.280297632881458 6.420818709233085
Zn 9.836162551444382 5.754551129109998 7.143460796779457
Zn 6.521508646953306 7.108159882412223 9.551553052536022
Zn 8.183621490193048 5.003052114074781 8.990978508236976
Zn 11.037076714147123 6.8748843249726574 5.119821659431879
Zn 4.864692197430774 8.797018948845757 8.695301619658727
Zn 8.54384514787372 3.590416506676854 6.745062003181105
Zn 8.598997344223575 7.32430308913979 4.056991225659276
Zn 7.4560332511134835 9.31162610434549 5.122255538062165
Zn 5.1721074136185585 9.3120804822616 6.197444400198827
Zn 9.393754000001792 4.983174832666681 4.681029244309562
Zn 5.845334790619942 4.660327691007028 9.890797574828067
Zn 6.863572722584319 2.7995239969881522 8.508572539861323
Zn 2.8026506616394333 10.127993204290505 9.47089790116897
Zn 4.213946349998653 6.257974365598029 8.798224683323278
Zn 7.906633932332869 3.039700534682228 4.303215382843426
Zn 4.53238883574541 3.7824983752539274 7.862708138939692
Zn 6.048275856864867 2.800131688936958 6.058558613086722
Zn 3.325902379425367 7.674585644241098 6.772401198734203
Zn 7.312850884844741 5.272044241246381 3.0468565931076728
Zn 5.511862013377577 9.98094143930149 3.6058020541682327
Zn 6.329183188412584 7.664460606905196 2.912400776141034
Zn 2.4826462446997417 5.2169368969366445 7.2067801184472975
Zn 5.5882827983509396 3.3613021270951093 3.5042036633413143
Zn 3.876126666544278 3.9188695863083938 5.336191167310885
Zn 4.098908370584565 7.9567653378127465 4.310440677941588
Zn 4.681393605550716 5.676993408909063 3.329466870739422
Zn 2.5794088110597886 6.029407370177347 4.807519971456417
