38
Energy = -24.62637068 eV
Zn 8.60582551872273 10.90832597212696 5.893747983937688
Zn 5.030792349667096 10.059920642609313 3.5631322083157335
Zn 7.5097875520212485 9.5446170051687 3.821543675887611
Zn 9.582095603497697 8.591852682242056 5.116326909324283
Zn 6.117701342431816 10.455507150240205 5.844173603573252
Zn 9.22227233713472 9.236021052714673 9.757005979899121
Zn 6.111948278410178 7.826691675037661 2.4316825586091855
Zn 3.8483658839365247 8.976423515385715 5.631061394008995
Zn 3.6871003913181295 8.013510814075692 3.230644763573403
Zn 10.058272592141668 9.555353554761956 7.440069352481803
Zn 8.5491818963433 7.276791884272076 3.09025322269509
Zn 5.252588573378137 8.993216881304923 7.8219459900708
Zn 7.413844660291593 7.981567952750814 6.513615145263141
Zn 10.076528327553383 6.163320482646984 4.8029011409663775
Zn 6.983914510578895 8.07527389966214 9.542520955462273
Zn 9.81573932834248 6.969391519876823 7.616055187761598
Zn 2.5867338965865483 6.7338980847648635 5.164518787250643
Zn 7.487207336462631 10.390998450799321 8.219133687044046
Zn 6.860059099234151 5.369137639024936 2.9536139592055686
Zn 4.492067476023502 5.644002329474196 3.794544051532681
Zn 7.634712561365289 5.580524843205467 5.48785220495325
Zn 9.511626352957364 2.4389826229513676 7.9879883103500156
Zn 2.957656691019488 7.727313874304767 7.7820505010097865
Zn 5.864674905070056 3.7884955373029143 4.8195666975500115
Zn 9.701817545156748 4.699841265089649 9.116956996889295
Zn 5.262456025095283 6.496792197361015 6.3664226653795915
Zn 7.2259511448255465 5.782602306631641 8.12288899551279
Zn 9.134896036797018 6.821912442362073 10.426541846146069
Zn 3.5721804878034304 4.439452802989087 5.995938528236538
Zn 1.6847879486179393 5.639378373699593 7.284350119761479
Zn 7.685752992454969 2.7948694560321465 6.2673633991958
Zn 10.075357789683986 4.4372731894120765 6.531667060632
Zn 4.855532203473385 6.705444615703244 9.238677109574006
Zn 5.501988864142389 3.5520074540283657 7.475030305844638
Zn 7.8468796225266795 4.692723169627917 10.977304549784584
Zn 3.432473357004296 4.6327684044363115 8.726113067040353
Zn 7.406586362169788 2.838013714001351 9.19956869764265
Zn 5.5030478188855625 4.316186205047933 10.095634050759342
