33
Energy = -20.3062406 eV
Zn 4.672847865830665 7.675335604220809 6.707623442938727
Zn 7.342333070245078 7.5460354233946445 5.820034484040641
Zn 6.510385004168029 4.978860245805349 4.466712058932961
Zn 8.332269358672178 3.7098824780837028 6.028610836843398
Zn 5.690415026816875 9.682054461285194 5.431467727451295
Zn 5.802217974918419 3.2476859173175887 6.240615590988006
Zn 9.220773358906676 8.956009442900825 7.32480988389663
Zn 9.092765510259731 8.348530320799776 3.008168112881841
Zn 3.3898647409574654 3.431518492443188 7.105627129781354
Zn 5.1640815718768724 7.375941775795711 4.140489502633592
Zn 5.438710472330567 8.991899977861587 10.367415841909727
Zn 9.368070537482813 7.30728856175794 9.308554651143641
Zn 8.371236957222244 9.76054239900212 5.010048858867822
Zn 9.564914498238664 3.818003861616985 8.50781441083404
Zn 7.453310605085313 7.471942126676552 10.942833972334187
Zn 6.681241854511475 9.250456886386687 3.022951333993682
Zn 3.50189049856647 8.137258032101453 9.029428663118358
Zn 2.7574491649975728 6.631361801336383 3.3340896571801557
Zn 7.295835608310662 10.71203027862313 7.194636705423318
Zn 3.449505633185299 5.805345013797336 8.040068334695999
Zn 6.402634158077985 5.798279952281286 7.414395279961472
Zn 8.965587766013257 5.803540640441993 4.466125714777464
Zn 4.988507156472328 10.021618083675738 7.989000206317682
Zn 11.35705394855888 7.329595223658837 7.3947559409219386
Zn 5.223970275731418 3.8950965293526014 8.927593568009097
Zn 10.412842299874848 7.796561051646496 5.111772551068923
Zn 4.163022759966111 5.314560949735144 5.487805626186603
Zn 7.781639330177615 5.213042336793696 9.662978025649679
Zn 7.783397643056472 9.549839336833703 9.430503557729619
Zn 5.365934722238816 6.323356765943138 9.851472501614884
Zn 7.3553415020269535 2.645014767211287 8.264117004517137
Zn 9.043045761187393 5.955399974157816 7.137763350816087
Zn 7.241817476935043 6.711445710568188 2.7412779820537865
