36
Energy = -22.66650829 eV
Zn 7.83351754733011 5.660857545503935 10.34892508873101
Zn 9.969780940857314 6.999839101833448 9.815849063013566
Zn 7.911768133637776 3.9192994699041117 8.501897075657721
Zn 3.367173464910336 3.7064549310481727 6.870815811758847
Zn 5.506830386611181 4.910030766220327 9.78385203672525
Zn 7.581950668765401 2.973388148484263 6.149084913304161
Zn 7.727610836250302 8.161135716087982 10.62152596134462
Zn 5.467463216296863 7.441704722694607 9.544963873462873
Zn 5.159332824837315 3.107679480197316 5.068296846808986
Zn 2.909820802758017 4.238555780445948 4.317375382606728
Zn 7.497743600514669 6.615087540623631 7.838606251146328
Zn 3.6048727867360095 6.1721117424977425 8.412106552039171
Zn 10.347072817768689 4.844420865901874 8.553159716984863
Zn 9.555029478588215 3.1380285886251817 4.405341551533439
Zn 9.242356685338866 9.23888434069877 8.7581423618115
Zn 5.711904840229865 4.607539104344919 7.249972820584559
Zn 9.240221509229228 5.111922576499885 6.152394855199208
Zn 6.657723184970382 9.584314868710889 8.72698059084451
Zn 10.033877695882316 7.339520258436646 7.202103760530731
Zn 1.716210948027215 5.586804208936079 6.769723096002337
Zn 2.690739011670235 7.904296893863231 6.405395051273166
Zn 5.494161303783415 8.164963193259668 6.958871875917965
Zn 9.122658774668977 5.354165114584144 3.158996093586213
Zn 7.236222388527287 3.6116611960489777 3.530839827131174
Zn 5.272901918486573 5.150266973942647 3.155813559333555
Zn 9.128516465950701 7.458125152956672 4.679555643677275
Zn 6.910330852555143 5.932691228214404 5.337445727505537
Zn 8.036478974655635 8.98897633915007 6.51655611917006
Zn 4.411178023410973 6.2827573070510825 5.372983325628526
Zn 2.900049940898751 6.029198945772249 2.4738555160537214
Zn 7.4756959920591335 7.07186273940627 2.4344799743458223
Zn 1.1514477872493543 6.178581075603094 4.381205189238653
Zn 4.282114179548834 9.231246146138709 4.887470338346813
Zn 6.752262022122771 8.68964326191984 4.415020301348889
Zn 4.958386491115637 7.693026732147802 2.804147468740336
Zn 2.3844823694126642 8.301689073190278 3.5719744066651398
