31
Energy = -18.60602058 eV
Zn 5.721013147189818 8.845549411008236 4.547106990463404
Zn 9.859881820306562 8.948524465293866 4.604591482388096
Zn 10.013186280600184 5.776658924267512 7.638532072489688
Zn 5.6220301652697025 8.07817332550846 9.557044272206422
Zn 7.485256300047141 6.982421665949083 5.793621465253727
Zn 3.2802723807086247 9.267422674130442 5.765888780432154
Zn 5.328624797649977 6.932359902196265 6.870749788138377
Zn 7.896824766988898 6.826724303941749 8.768245517783775
Zn 3.517984626639151 8.860212797062445 8.327817880505679
Zn 9.081336892180085 4.212880710565891 5.77012800062359
Zn 8.1037802472721 5.32804879303781 3.6085327906038493
Zn 8.099362010358835 4.2159690151865155 8.255573410121546
Zn 6.5816426727014905 4.5891901290943595 6.077889280769717
Zn 5.647459642726098 2.9553373695641394 8.1184444825149
Zn 4.7506623918044175 2.7525993182756845 5.802048662845535
Zn 3.6540871794357273 4.591077430251706 7.634231429744277
Zn 2.5936285315706007 6.869922181636409 6.7029852851192935
Zn 7.484949675305836 9.315940318504289 8.31531434890197
Zn 9.454039774580576 8.220016174181806 7.076508682848012
Zn 4.110540221791444 5.37868460890557 5.074686211594738
Zn 5.801122278723146 5.365581504451949 9.144150278303208
Zn 5.909970305252805 4.027036842157177 3.6047244664513225
Zn 4.706574786320778 1.7637852850160984 3.4114577791209966
Zn 3.535439531895059 7.633819396102908 3.914679219435751
Zn 5.769665260696641 6.556264177616261 3.195913658857707
Zn 7.98351699061466 7.960452710550662 3.293568432485402
Zn 10.20816605508509 6.430441527329148 4.9729080699541885
Zn 3.532016479916242 6.574983426089786 9.40920051890797
Zn 7.788006929094759 1.6443615847145705 8.746309677042234
Zn 5.438455356235255 9.912329915233117 6.956386214133194
Zn 7.770939704295576 9.913667315433512 5.771198053215803
