34
Energy = -22.62981676
Zn 3.896582898620371 7.303838271971132 8.566558935722432
Zn 4.740173244626185 5.351841964955247 5.603080474516524
Zn 7.473600090510538 2.8584350059347607 6.511653025139797
Zn 4.679959156823535 9.700541627027238 3.717488551414724
Zn 6.019382656216888 10.384041776261544 5.750709012922001
Zn 2.081112156057417 5.329827282389739 4.009762738709304
Zn 2.0950448869686737 3.856446492179274 6.232871229937321
Zn 6.101086787525028 3.625459584893409 8.628168152507717
Zn 10.056234177758066 5.42539118009273 3.9809553970798097
Zn 4.753430936905167 5.263813784800164 10.34148880942373
Zn 7.42397021586439 5.278954177867505 10.336269609835533
Zn 2.58167292993226 6.530399408238644 6.411783444580906
Zn 6.072113262389578 6.021409924916264 7.640958523571215
Zn 4.7322762007613175 2.8221753451142857 6.518739733229555
Zn 8.22769470808339 7.354349937784248 8.546851989147804
Zn 7.346425315429316 9.728423709625003 3.699507959790874
Zn 3.6575334833978483 4.687779273774923 8.092197621697782
Zn 3.4282411352504125 3.1954608831214584 4.187012500462724
Zn 6.045438797582099 7.506332868213043 5.426671405553966
Zn 8.518544394334198 4.745350670048236 8.07705642455186
Zn 6.089564241906998 3.4295612812923593 4.308056718584947
Zn 6.0371930595103285 7.497775724160268 2.838515489791103
Zn 8.471285503276711 7.446221870473769 4.037374297247559
Zn 10.092299666883966 3.9543097508845824 6.209652815482774
Zn 3.8699643465646165 8.831394962273475 6.288370831397028
Zn 8.198158824142137 8.880920220887567 6.269429620302637
Zn 8.754464019151367 3.2641928671048768 4.17759565525575
Zn 6.043762624168231 8.701454205690364 7.82615024095685
Zn 6.077241377615435 7.4117769658621695 10.166138864263766
Zn 4.691928474449503 5.224982274755988 2.9172000901365216
Zn 7.4357614381492745 5.260122091173414 2.906157010212653
Zn 7.406141368318005 5.385734079330306 5.593087948128311
Zn 9.544124257650369 6.612889785173842 6.386300240338281
Zn 3.616901679125054 7.387699067676007 4.055492954054217
