30
Energy = -16.61222905 eV
Zn 9.031057885269753 6.38392387485033 3.953297440842144
Zn 5.9924643498917565 9.713011019666338 3.317805178486562
Zn 8.303556065705648 8.885809999431112 3.8751381754761693
Zn 8.017583299185356 7.537091370011968 6.058753009455909
Zn 9.240907862747475 5.304612404482392 6.447004644629869
Zn 9.701228908488275 3.984897273695702 4.342891190346611
Zn 7.9651090036737 2.081371387138643 4.3386407392290485
Zn 6.6510906648592165 10.01634701616059 5.76326693048369
Zn 7.964905643936893 6.357724305458348 8.333568473039488
Zn 6.56517966027614 8.584765397197987 7.971613437050628
Zn 6.624839011556135 7.093164225682021 3.1811014284357335
Zn 9.313071452907492 2.467759951601937 6.422860719269108
Zn 6.312437415778049 7.272062148490254 10.154283822424896
Zn 7.528020967241079 3.7529206089812877 7.866875557788182
Zn 6.88063847291381 1.4923149078937434 6.6899471735423734
Zn 5.600363942040298 5.153906541814569 8.905093677699758
Zn 3.9900731315264077 7.237616638703558 9.136148879592339
Zn 7.292871626063548 4.51791321881544 3.37491724003428
Zn 4.338931241070208 9.006640979297766 6.911351338467346
Zn 4.076750039605647 10.536177030280019 4.6965984743777485
Zn 4.4651106452281475 7.748881364865482 4.434380156661206
Zn 2.166474771796194 7.48615293137309 7.400844947671397
Zn 5.6284996353365635 3.0001400663717814 4.720539029999093
Zn 4.290365043222842 1.12550299191989 6.212582679357084
Zn 4.807783447343643 5.2816849569249165 4.030935499858423
Zn 5.038973549889958 3.1470127455215526 7.497707478126513
Zn 3.256041411171292 5.141397276701783 7.6450272421370045
Zn 2.2323049534290638 9.016606106944915 5.406395081500828
Zn 2.5635602055456013 6.190682836905023 5.2615709091730025
Zn 3.2828227559550975 3.6212369679200487 5.594311196622917
