36
Energy = -23.55921716 eV
Zn 9.11129788242881 4.324926188620966 8.351455199909127
Zn 10.055062810589666 4.48407197929865 6.020950888401441
Zn 9.690925549008204 6.686362805982923 7.529649181118966
Zn 8.001975242172907 2.891037856764967 6.448408516248594
Zn 6.834749418782749 3.3350172736328085 8.767438750891955
Zn 9.466760662872595 6.6388172756118555 4.81407381992142
Zn 7.360056404086286 5.8249018534616726 9.381100305272662
Zn 9.449878052696313 8.920441231012711 6.305833320437865
Zn 7.578493011493983 8.073349664095485 8.028117072446623
Zn 7.292203847132502 5.702033755846262 6.518567829901441
Zn 8.118716710095073 4.475467941765183 4.210338561209855
Zn 5.803896355420876 1.5658734306574396 6.927985194999746
Zn 4.845572913927961 4.692752638410946 9.806250779681514
Zn 7.084705761396766 7.968684694358947 5.298216814895635
Zn 9.59669598841217 8.687980877684181 3.2469394988297875
Zn 4.490168653697736 2.242947892188994 8.944153235257627
Zn 5.2247180704196525 7.030237045826776 8.506461622444881
Zn 8.467611177509347 10.558194110174094 4.671361853752343
Zn 5.15578435215777 4.559690289121491 7.040950170619744
Zn 5.412549234012691 9.151425617779896 7.01282547031976
Zn 3.397924291792024 2.5114558224449315 6.42414189156969
Zn 7.203315314811141 9.420601282936609 2.633596803381848
Zn 2.7630190913475885 6.1912192933439405 8.834923562478012
Zn 7.625493357931745 6.775205080804987 2.8890409981791185
Zn 5.927106262742483 10.531149877475826 4.721552345671981
Zn 5.702755204135058 5.109175039278054 3.3395102309662734
Zn 4.975340472457005 6.541670861156099 5.564728319370094
Zn 5.994851430349349 3.0520285365580158 4.801763762297549
Zn 3.0068497778025702 7.96924327474029 7.125753608840338
Zn 2.5178847298008016 3.727315544128982 8.611563682475396
Zn 5.164066081687742 7.864702157988503 3.225430745714896
Zn 3.3509446643958003 5.985170551616221 2.7051892405819027
Zn 3.5025059290730107 3.87137231790539 4.223390316849125
Zn 2.658006656696389 5.194074057750248 6.345338810758976
Zn 3.743954571104062 9.303855488042618 5.038963977662766
Zn 2.396883965692005 7.145292408245157 4.699875893347142
