33
Energy = -21.65883744 eV
Zn 7.870742397228645 4.545481822964148 3.3178061073877743
Zn 2.9039419717613066 3.185097451282006 5.1556239788119855
Zn 9.972529579819275 5.425774593036956 4.592823630771679
Zn 6.001901054807984 7.4599079133621045 5.881168671677647
Zn 2.220387152999148 5.169623639489032 6.6574351687386795
Zn 4.891689591541497 5.259867749925393 6.303847071130147
Zn 3.9736546460282134 9.43212890721119 6.952212251968152
Zn 3.1386386231533288 5.40078937558298 3.9986802147767664
Zn 3.1539447732098567 2.8537653412785633 7.629155018565183
Zn 8.190034590902796 7.098323125116022 3.4920361350734663
Zn 4.603881431629372 9.791296416095614 4.481768294871689
Zn 7.63210977624369 2.886817378192621 7.196027147501921
Zn 7.422998060809836 2.567322034037976 4.757504506763797
Zn 9.744469910211095 3.2199863370420987 5.727792423029558
Zn 5.812937300213075 6.101110834068961 8.830378602775884
Zn 8.997764351750872 7.355146818265976 5.9541561281511575
Zn 7.338710608975462 5.309237754867374 6.017947367029273
Zn 6.104158121857327 10.625247390298123 6.405702783326988
Zn 8.212973752079582 7.097129188507302 8.438468057182767
Zn 3.236245289095545 7.388382169666809 5.6727793395367385
Zn 8.097270966931593 9.380253550653071 7.275702848202267
Zn 7.616771447041032 9.309919169139398 4.771823128647384
Zn 5.566882980109111 3.4880696342907025 8.628689760304196
Zn 3.495711730436453 7.288913403067419 8.237524080080151
Zn 6.163184373195222 8.577802822085316 2.8625143267041637
Zn 5.907727755353194 8.604221752545412 8.433421739004183
Zn 5.741912627674021 6.050963294568849 3.5569980269252364
Zn 7.967342229671766 4.641175819109427 8.907782350013319
Zn 5.244322623599593 2.5487597209131034 6.174874973134625
Zn 5.202722597109138 3.6070667123640408 3.777646344403189
Zn 3.782159469790807 7.767995368818831 3.1891729887257707
Zn 3.4286790302838215 4.9249405319148725 8.99908034836692
Zn 9.94930063963365 5.225183435385326 7.3091576415653465
