39
Energy = -26.10417388 eV
Zn 4.494890811692503 3.8539609580374115 1.6853658404729879
Zn 5.615986049950647 6.089975645789569 2.0819399589709455
Zn 6.510601410842295 8.492845071641476 2.3415884085141796
Zn 4.134876528513515 7.890233835466278 3.3261728874824916
Zn 7.169020391988145 3.9626135467111143 2.2274076806592755
Zn 5.7361697959461475 1.7805241501964955 2.3452701334560455
Zn 3.736784861961854 5.371936344477675 3.8491903409164308
Zn 8.121837889002022 6.3471412750349305 2.8224293025640845
Zn 3.553114113912265 2.59854120249621 3.7969853079892117
Zn 5.604931986691513 9.595649211948142 4.531357423984742
Zn 6.286533019496791 6.535387420255214 4.789366046376686
Zn 7.7965223214540815 1.8293578643156745 3.914693608218972
Zn 8.0395863679667 8.546286772036064 4.374810551709133
Zn 5.852659445934834 3.946353839004901 4.647076023202158
Zn 8.885595139769602 4.069150342017721 4.221831577281328
Zn 5.4989860812311475 0.9940065820436061 4.744990191925472
Zn 2.0110672435669867 6.625646005881276 5.328118684998952
Zn 4.180042445447688 7.810485114783384 5.984055297353299
Zn 7.055234133069845 9.947565264347443 6.629625018206025
Zn 6.942249204661374 2.1243134111941604 6.537215932460372
Zn 9.131637837543874 6.331854228714433 5.253726366160518
Zn 4.465765503238349 10.235832829337353 6.887377776688301
Zn 4.132569720926603 2.3567066890467787 6.428069248022756
Zn 4.756462097214965 5.26844767786699 6.547950351646687
Zn 2.3491092039659702 4.117500163008933 5.756431489245395
Zn 9.120991506293558 8.433938023993463 6.6730937081479365
Zn 7.545286256296085 4.694076600742722 6.601896736173031
Zn 3.8770152503583204 8.12569348666503 8.50430708350435
Zn 6.448111138161194 7.21727604472708 7.253619535957347
Zn 5.5560142069555605 3.3605822007019195 8.320195976285106
Zn 5.72678504321581 9.95652680943945 9.004619261195108
Zn 2.2154381031119215 6.092914299831349 7.791388971384856
Zn 2.930944522317586 3.6807627983969207 8.27101432914088
Zn 9.243078646596102 6.27625102561499 7.954479795124173
Zn 4.389171230389978 5.646335385008491 9.170610152099876
Zn 8.118110769143346 9.003093107134093 8.90371739882373
Zn 7.024978226012878 5.228452024477519 9.201077420188312
Zn 6.06506366084547 7.556220494157024 9.927597414311602
Zn 8.610811158929511 6.939595578075452 10.303370093774463
