40
Energy = -27.66483458 eV
Zn 4.773345359778022 3.014726648304685 3.5628316352370044
Zn 6.080473723954206 4.670456215790347 10.424523475717496
Zn 6.063120628117682 11.132737219896123 5.939145075778587
Zn 2.648639761828382 4.05807230631599 7.5707083241656035
Zn 11.266279933022574 5.246357737803609 6.075527848327043
Zn 7.401366587456181 3.169357779293543 8.777264827068112
Zn 8.175840304586343 5.470253001414944 2.90130041328552
Zn 6.070022288012607 4.425415698953466 1.8149814802021855
Zn 1.9279051098339317 7.990101124334409 6.023540616060801
Zn 6.066647342479936 9.437910437617743 7.89421319971881
Zn 1.7396403754587255 6.476027460892811 8.092111561168354
Zn 3.960792491054515 5.4457874651749805 2.910457332371309
Zn 6.06531695211366 6.999230709744719 2.778810952177138
Zn 9.520296980846831 4.084315759262167 7.5322806862413225
Zn 9.508642557068269 3.9940512452663537 4.700110801716375
Zn 10.405281391569666 6.390999405838065 4.013284603820412
Zn 4.776100762156445 3.145045132033684 6.179680270149964
Zn 7.392797087463485 3.15864269244011 6.1656701135743415
Zn 10.206562311793926 8.045776382310674 5.982172930678071
Zn 6.076999475176359 5.259393916908987 7.437647862170545
Zn 3.9523987684054904 7.810350234974237 4.084766886629174
Zn 8.18001067106947 7.827462013797197 4.07719059117986
Zn 6.063117631643575 9.324269744199144 4.071325482950649
Zn 3.9741604525086105 5.632940035827003 9.260154448590558
Zn 3.985331443034252 5.95964715717334 6.078819875000946
Zn 8.183318495122958 5.65076534662134 9.25055966743454
Zn 1.735476944152348 6.331066900792496 4.059521758921108
Zn 6.071919881145759 7.197248230373496 9.33286207411683
Zn 6.0697480390089655 7.522027466566378 6.037558538306774
Zn 0.8743545768402331 5.184845669307465 6.112885929538567
Zn 6.073828018338759 5.170689802861334 4.7723079375459685
Zn 4.055848902164311 9.60097654629382 5.961239810809145
Zn 8.070250851004813 9.611682392211335 5.958623970605001
Zn 3.9584086612670455 7.934994730110641 7.9546036637076165
Zn 8.1792093920814 7.943313746697589 7.950445969118027
Zn 4.782727121843596 3.150991794902724 8.783366029492058
Zn 2.654652573014655 3.9613809568330143 4.750828996027666
Zn 10.410353114844211 6.5280027368649005 8.061965888276221
Zn 7.383521778745003 3.0211796731933602 3.5420850136613735
Zn 8.163784136346568 5.9699993571547925 6.071116334811897
