40
Energy = -27.56706383 eV
Zn 6.002497019148716 8.280069284642636 2.146375139710015
Zn 3.7705302486972925 6.9897262298763865 1.921577151274272
Zn 8.253215049535012 7.185488264731152 2.4557173114561346
Zn 6.176783572715714 5.724361233598407 1.6955655066924085
Zn 4.088064245195169 4.31927015427285 1.4394837470550208
Zn 2.1983907657649406 5.260108995918291 2.912700959003672
Zn 7.553437255069235 9.265833355142371 3.9096426274953795
Zn 5.9915886067141 3.386050720635547 3.0092706282660635
Zn 4.855953802091571 8.534774498508794 4.376053671726906
Zn 7.945573056510671 4.894276747466459 3.664778123729142
Zn 2.621425713096413 7.313305512094415 4.46841778170651
Zn 4.878830759182358 5.7085010553120785 4.133325847055691
Zn 6.905396977519757 6.8613635705398766 5.093412445762064
Zn 9.524022758191627 7.049987589367323 4.714652119349529
Zn 7.742113916838401 2.576726125744582 5.049362603535614
Zn 3.5082885061206888 3.1825257751290983 3.759781745986572
Zn 2.5681450141866726 4.880110631698943 5.5297375948457015
Zn 8.882091921747831 9.162926262054002 6.008059674626327
Zn 6.246384214608371 1.4843838116618393 7.039244886099636
Zn 6.102909103573054 4.388222062553744 5.955709354304529
Zn 5.348677651590946 1.6075438558456867 4.733544760079293
Zn 8.875108218806899 4.735159933869017 6.085831259207036
Zn 6.293967545626707 9.062750919222713 6.427752200655419
Zn 7.9629789955890455 3.0156622223148046 7.948443681490479
Zn 4.649415779324135 6.465499785771357 6.601551601247193
Zn 3.421729321779245 8.801354665517907 6.610725794480654
Zn 3.928793101368772 2.9219417061699855 6.457816812119553
Zn 1.5843588514774938 6.918386552895578 6.84540221483229
Zn 7.92871251860103 8.700299308514905 8.430008151478855
Zn 7.017934306170768 6.237888023493515 7.5586591720487055
Zn 9.740279355493989 7.0685394243405035 7.315196667632789
Zn 5.442433766625376 3.651322778891641 8.434780911902653
Zn 5.135504986695864 8.470132037831222 8.64316608957825
Zn 3.0244951657963224 4.904389025036084 8.041610127390326
Zn 9.537815378049865 4.848267600266085 8.651257633322116
Zn 4.8522120189177596 5.958390760133771 9.477424570007845
Zn 2.7835155349079495 7.510488443553453 8.919855155363896
Zn 9.200385965224564 6.968922488884905 9.885207570737132
Zn 7.299490716807487 4.912329962520204 9.91592939793646
Zn 6.80255762934591 7.4387279386855925 10.378976623515925
