47
Energy = -34.85779855 eV
Zn 7.657776573840318 5.036927599336821 1.8919496202891397
Zn 7.5890549220147925 6.9983199631950335 10.145393538767669
Zn 9.076102475964245 4.2121032090199515 3.949653009644298
Zn 4.971452084819471 12.884448066233457 8.446168717348257
Zn 6.640644956699447 8.92473828965627 8.721200406084629
Zn 9.118178755716134 5.4107870770145245 8.773466744700007
Zn 4.230697590955498 5.8297437403414305 6.039052847947953
Zn 8.361701338498397 2.330526397923012 5.50888165139954
Zn 9.00022034399604 6.789752841738585 3.2533106615819825
Zn 6.097726097035675 5.903855933342637 4.129739193368063
Zn 5.586058596612906 2.953554610112295 8.789709823812428
Zn 9.945073436695823 4.0877890785723405 6.534648434156232
Zn 6.958252140640033 7.48546010039584 1.8862685420871736
Zn 2.2518977772555746 7.771549822765496 6.563932413880961
Zn 4.657115501291217 4.909865468143402 10.164289562093286
Zn 4.5080943103887705 6.76801567070436 1.8957386033048615
Zn 6.117658226803385 5.924316932659279 7.924450956802343
Zn 5.072940505794822 7.422591549935786 10.152313928547372
Zn 10.770769340654024 6.528555208693632 7.214952484137901
Zn 7.167153996430957 4.4807180981358785 10.161419140621648
Zn 4.3994848161407605 2.924634780941057 3.9820039837236676
Zn 8.896680953827621 7.9726768799318615 8.068814633547765
Zn 5.208463768279203 8.827882236021628 3.258731006534227
Zn 5.505805043034081 10.662787653597151 7.2441251610587
Zn 1.4282887845043373 5.3320376601169395 7.256257248279166
Zn 3.3546785831819728 3.928972589521439 8.097294319640675
Zn 1.3908560807497719 5.99080316229305 4.837953424088739
Zn 3.189319004014013 5.045286965977894 3.318078199636068
Zn 6.206764515817267 4.05363465552216 6.030803759553532
Zn 10.7877142003631 5.876374675100302 4.799888119747097
Zn 7.785408807890726 8.912248453138172 3.937398156349731
Zn 6.033308385962559 1.2062671641415792 4.844845466556754
Zn 4.276253610574504 2.0966107242035883 6.587204724372583
Zn 3.8363813012926147 9.52623497446197 5.513963210376878
Zn 9.688281545404179 8.204800975362513 5.473824383044145
Zn 5.2091114199020785 4.323964778028723 1.9048185908658646
Zn 6.9663210801561295 2.9897004048268094 3.2953844089467212
Zn 3.107485478118665 7.617679087493675 3.9676808898808744
Zn 6.005562149309206 7.802449717088331 6.019739250254367
Zn 8.1438303471447 3.1839327314745383 8.087566720033253
Zn 2.499316665362904 3.6573757204709265 5.53125101210298
Zn 7.942159968856428 9.780571755481228 6.523850694608716
Zn 6.726091364721712 1.2668876566269558 7.2516079360319265
Zn 4.090736990585042 8.700495034763684 8.068794711579768
Zn 6.138805930288413 10.620005809834945 4.812170340214062
Zn 3.108045482913183 6.487847639982849 8.793965258623125
Zn 7.970572550338318 6.028514256515496 6.019741910613567
