49
Energy = -36.09129606 eV
Zn 7.922587621102529 5.111111985560318 1.7832189606928945
Zn 7.513812464300362 6.827490653767067 10.045623416946892
Zn 9.3468817384734 4.2416961894457526 3.890221209009455
Zn 3.43269753146922 10.968531668350925 8.62977592874693
Zn 6.704563558170178 8.847301796552939 8.683390976211676
Zn 9.186143095190234 5.297411306545148 8.708760144328835
Zn 4.366233573760651 5.873471818159025 5.858167501322392
Zn 8.497323108429146 2.377997040838584 5.4040151968715655
Zn 9.285522080273449 6.793581798785282 3.297251728604086
Zn 6.242164987418343 5.749609679185623 3.9878789498261766
Zn 5.665932175043478 2.776338585541075 8.608226914949011
Zn 10.212341142042668 3.9928306227063644 6.499628033073006
Zn 7.349156007373021 7.55466065213037 1.816990611026657
Zn 2.2439697336083504 7.684544779188958 6.232155980521026
Zn 4.774147542109468 4.807960516015358 9.913166162971654
Zn 4.973571114910096 6.651306710986285 1.6402584685028962
Zn 6.268986226951121 5.8722087418306 7.74528981411166
Zn 4.996289228851631 7.36002884203742 10.042348297258547
Zn 10.885252986428114 6.4485560630350856 7.217633677024857
Zn 7.243564820155787 4.280100208421494 10.004867408334555
Zn 4.633938003660903 2.762352702492279 3.669057381287917
Zn 8.92808190917336 7.832409723275551 8.023642705945724
Zn 5.4970328829542225 8.77540942239679 3.0690253425320604
Zn 5.425116428253916 10.487799137018774 7.13622634758499
Zn 1.6047852932135336 5.1679508456728325 6.853858816595442
Zn 3.4858940964982152 3.774460169578345 7.812891472748806
Zn 1.6227345969849234 5.864932239515569 4.43340747275224
Zn 3.4947242227871325 4.936862959468114 2.979113192478345
Zn 6.200474437684375 3.9599686195356316 5.967824668332569
Zn 11.128935405160616 5.812597465457587 4.809482880196766
Zn 3.3375926505536424 9.209986898475698 10.640045233092849
Zn 8.056096726946643 8.957512134443693 3.8939687478962095
Zn 6.274933275430413 1.1301845859484008 4.647540552677841
Zn 4.404778046028076 1.8892806102333959 6.33468874900532
Zn 4.022328790657276 9.313230557181612 5.208603474787192
Zn 9.791751549460766 8.121721746938963 5.537841568750192
Zn 5.541866220055667 4.173212481960526 1.6096962103837273
Zn 7.216673060254459 3.06752352025653 3.2219867775867974
Zn 1.7409580521760744 8.983669078004242 8.444728545983933
Zn 3.3407269744642583 7.492893101902655 3.575591551851067
Zn 6.3733828274328985 7.695057354511953 5.724892100029778
Zn 8.276540495279665 3.059976114602134 7.954773939614284
Zn 2.792691975483818 3.566007227568114 5.182913449631285
Zn 7.99943999753022 9.7549972403725 6.5673891829213815
Zn 6.86485445936883 1.1323585925696538 7.072218723758735
Zn 4.465345560475856 8.115205123925678 7.5360647631841
Zn 6.282103673193522 10.547390026785285 4.772813193222248
Zn 3.097434168142078 6.266797215399756 8.584302249677993
Zn 8.16658996577124 5.810459926561223 5.9054878062928005
