5
Energy = -0.73951957 eV
Zn 8.196322485670308 4.9071266540719725 6.293399802347086
Zn 8.196322485670308 7.6796729506222015 6.293399802347086
Zn 5.568281654094512 8.52457844 6.293399802347086
Zn 3.9377907322810137 6.293399802347086 6.293399802347086
Zn 5.568281654094512 4.062221164694171 6.293399802347086
