5
Energy = -0.72384412 eV
Zn 6.368773273032389 6.368773273032389 7.31742123097775
Zn 6.368773273032389 7.992508533455894 4.8436809528195734
Zn 6.368773273032389 4.7450380126088865 4.8436809528195734
Zn 6.368773273032389 9.22907 7.419541614272454
Zn 6.368773273032389 3.5084765460647778 7.419541614272454
