54
Energy = -38.65188168 eV
Zn 2.9413809531095483 5.002020394009416 7.7221250383367614
Zn 4.838784809899854 3.3228780175818984 7.333650828591614
Zn 1.3564994335129166 6.985942212276382 8.29923290496864
Zn 5.885737858665485 3.1004969080276537 4.962396776011135
Zn 6.624810255874319 1.462140835330019 6.907725135819603
Zn 2.8193143156035494 6.113984333507956 10.131878998960627
Zn 4.284852052784024 3.664760711843464 9.873355646446326
Zn 3.6459209858074755 4.637397439168017 5.259235284444664
Zn 2.9629224238199785 6.365977467939344 3.322331395980845
Zn 4.779546906287585 5.475035948941828 11.580719969103567
Zn 6.233997006893274 1.8243019246592764 9.376771447803186
Zn 1.891502204757233 6.540163057797237 5.734167978266563
Zn 1.9423454172926005 8.904741157346795 6.876412251402519
Zn 4.309772488279882 7.283693537457671 6.826392394075563
Zn 6.081201691945392 5.6081635165045896 6.01764377502389
Zn 8.3775053562295 2.35463980814701 5.14708219655128
Zn 3.4907782610213944 8.68308772419371 2.0723470842543157
Zn 3.4149958688434343 8.531771409578921 9.014169874581828
Zn 6.749868909417084 4.04111807009983 10.604277859344105
Zn 5.163954436189253 4.893367584439141 3.167805378459758
Zn 4.664335042562603 7.950600934667959 11.14511563639751
Zn 8.988448314504186 1.858441321523146 7.74242489561701
Zn 7.736535143630017 4.415821628414777 3.564237314444747
Zn 5.473255612374908 5.863497763346423 8.671841282605557
Zn 2.7008446253166976 8.751336968000398 4.503606532731504
Zn 4.542339076181464 6.561427631006621 1.256890841493749
Zn 7.438403081189777 4.0571336663022075 8.051694829502337
Zn 4.287853869960357 9.982209427085566 6.4794338958323925
Zn 6.9542667506394835 6.673176640240803 10.990360790266113
Zn 6.222061682403343 8.557473649919821 9.049753059855748
Zn 8.910908160520869 5.373399799868989 9.983821453575018
Zn 5.240880062369138 7.440729711485237 4.295544599148548
Zn 10.137234146239061 4.141824696479603 8.18629936481584
Zn 7.053676170669907 6.261443478649714 1.8246211822054155
Zn 10.71579835803887 2.8282462000736404 6.011298847751311
Zn 7.788003834450186 6.803799006556248 7.772780020948829
Zn 8.649986630315695 4.992344566001272 5.992888376449474
Zn 10.400492853078012 4.288778748134015 3.9473603654259883
Zn 7.81582722778148 6.961292003798079 4.532136781439797
Zn 9.585207073385462 5.894104856037952 2.2086994330436522
Zn 6.581415083940605 8.48461804290247 6.277588211783529
Zn 6.234575074925155 11.446297668402812 5.394020190013823
Zn 4.848644718866505 10.019231618257455 3.8349443320871264
Zn 6.457769731340706 10.876422872937173 7.88828230315592
Zn 9.041326533922 7.958012625711056 10.22642523793751
Zn 10.494706981764123 6.789330431833857 8.246396782070951
Zn 11.307881240738096 5.419455452289021 6.189942406466959
Zn 6.138750893629662 8.657176602733854 1.9781223256370537
Zn 7.57244374651309 9.68062849497982 3.980413844659742
Zn 10.592891661928547 7.034117692633363 4.245216133254068
Zn 8.706089135097397 9.630192797581264 8.45857215216275
Zn 8.763058432646963 8.265772423317307 2.204890428125528
Zn 9.481673006315507 8.318470744749614 6.230823509624528
Zn 8.499008202086214 10.728919356311327 6.205190520451377
