53
Energy = -38.30825376 eV
Zn 4.371516786993206 2.589253791203662 3.5196265423223756
Zn 3.5683989799268243 4.261883030040396 1.6166541836328912
Zn 2.4649105896658345 4.385108105413327 3.989955328707978
Zn 6.044712357379926 4.09784992117524 1.3965686554319647
Zn 5.298310446944427 1.4821883360285144 5.670146396816473
Zn 6.930189771669032 2.8535670140932154 3.5207242385682043
Zn 2.9635766337862086 2.680330372356477 5.791678232960678
Zn 8.47439821318904 4.57743675582973 2.2673463152891387
Zn 7.883263795849498 1.713298068395909 5.642829201808926
Zn 6.824175796379321 2.3244860291798615 7.897100399946549
Zn 5.381138222025264 5.517234402627858 3.6745297402703114
Zn 4.620481087132199 6.632131214979991 1.2500355423764187
Zn 2.3332300534266457 6.407134305301687 2.320166602836838
Zn 4.28938704979672 2.483707287566042 7.987480620168182
Zn 0.6234522817837385 6.212005633320063 4.2412399961028795
Zn 7.144365057929242 6.381648927223861 0.9561090501280792
Zn 0.9855431300885285 4.577805414556344 6.087706581700459
Zn 9.435857731932584 3.300734740854284 4.391651013493605
Zn 8.799667249205672 7.228685292136849 2.6892523161243695
Zn 7.726795044095678 5.688314413389612 4.715272871474187
Zn 8.646909884443591 4.035384461531535 6.880532783078176
Zn 5.965233867519463 4.057506937076717 5.758825131976391
Zn 8.291889919114551 3.8429958314358252 9.44946930310402
Zn 3.7823756336947265 5.128143354301754 6.617426588931567
Zn 10.46234599715227 5.471322472105003 3.7519529020796134
Zn 1.815036534629354 3.1492670105752185 8.097666457688272
Zn 10.584170974487801 5.757701591212232 6.3349903175219895
Zn 6.311383048143344 8.186481646335482 2.559485414314975
Zn 1.0229211301312238 8.509046444732094 3.3443848112988266
Zn 1.3970353405252385 5.57733589705768 8.424138977569726
Zn 5.690750450523287 3.4959536532046136 9.949045847855144
Zn 10.184796974899033 7.765769383542062 4.818292005261476
Zn 3.5657748961477647 6.955131744910328 4.646463413514491
Zn 7.7449621601385195 8.636252923780066 4.7230643344006165
Zn 5.687696768834113 6.895939508077952 6.036610925427903
Zn 3.6030846955421043 8.743984437025901 2.5013158005244978
Zn 7.258118838898577 5.006554782784716 11.440562894258054
Zn 10.203273432715639 5.315357499340766 8.79588756751525
Zn 3.3417420496586727 4.5434600562831555 9.704489533919304
Zn 6.368295106690043 5.30788906704227 7.9695183421952525
Zn 8.115671633740167 6.941806023864866 6.852905097760558
Zn 1.8024427643198973 7.2911878498868266 6.482376206030743
Zn 10.51683869871208 7.7276237095464815 8.178394363022667
Zn 2.633229401421626 9.632667137734972 4.802661248565436
Zn 5.227122808343337 9.30463409159219 4.575105318272982
Zn 9.828144363737833 9.565678506792722 6.490841638031817
Zn 6.555954260068967 9.742097113982961 6.748666615802581
Zn 3.5438359472314716 6.999295756301009 8.565528518091266
Zn 5.29475820017187 6.113719542888684 10.273934612202448
Zn 7.9829235435642385 6.71487259868188 9.616338821035253
Zn 4.010101694018841 8.914593832785432 6.890369243279126
Zn 5.892903244228743 8.097812564505944 8.623386208098042
Zn 8.369616016062409 9.119891164978554 8.491381336880725
