5
Energy = -0.631145 eV
Zn 6.164191110441872 5.700532278080712 7.615898162633151
Zn 8.17854818980473 3.617490923640044 7.754703588141592
Zn 5.527117353779167 6.863690308326597 5.191803334340291
Zn 4.412433251425294 7.880449167912064 7.538262231628817
Zn 6.2690341089876584 6.475941636934963 2.443105148889591
