6
Energy = -1.26960066 eV
Zn 5.914641804614044 2.9948434076839776 7.3890830880410165
Zn 6.260297881323531 5.651084738725021 6.148167683037883
Zn 7.163289733737467 9.836824787697148 8.552983046122046
Zn 7.994647990254364 7.243870128579579 8.233854458701423
Zn 6.852595189377132 8.466070471708282 6.203116750878602
Zn 9.320552626363698 9.291756435178739 7.008174729716615
