7
Energy = -1.85669749 eV
Zn 6.329363085762639 8.893521333835263 6.329363085762639
Zn 8.789358000000002 7.123050728773633 6.329363085762639
Zn 7.846560888495735 4.254325825346843 6.329363085762639
Zn 6.329363085762639 6.328633523169266 7.621037299144544
Zn 6.329363085762639 6.328633523169266 5.037688872380736
Zn 4.812165283029542 4.254325825346843 6.329363085762639
Zn 3.8693681715252795 7.123050728773633 6.329363085762639
