8
Energy = -2.59686314 eV
Zn 8.688174265337736 6.3208723026573415 4.583470068258638
Zn 5.217617962699346 9.021203831165723 6.414661105205784
Zn 4.521018676836776 6.489418881606096 6.779099470689881
Zn 7.283542605016544 7.353297322853526 6.596722207608884
Zn 4.182678176822545 4.21930755584227 5.4654224910915135
Zn 5.751260672398673 7.767920910970203 8.762785825280421
Zn 6.747017816329541 4.786157348609959 5.512307201946406
Zn 8.854727704697229 5.231327965862881 7.066008544886204
