8
Energy = -1.66372475 eV
Zn 9.14324607801359 6.72042520987244 6.819810117131777
Zn 5.882402746241616 4.84621941884723 9.17125591462132
Zn 6.523942783753863 6.37857675065138 6.352110289874865
Zn 6.022292410172644 8.687332816732917 4.032819141657602
Zn 8.596672691971877 7.476516592214159 4.261624731183993
Zn 4.138093137314454 7.519322562406506 5.777515007882344
Zn 3.5637250430382723 5.77570427986945 7.858094569158691
Zn 7.908121950128562 4.384240493466596 7.514747320837927
