17
Energy = -118.07080316 eV
Zr 9.394989602728165 10.111567078237714 6.1147177403074195
Zr 9.720887871469884 9.559630444296678 9.228685076160351
Zr 10.093484609904284 6.389383303914672 8.914049149396375
Zr 7.8295653102961245 7.345678450188579 10.67458799286462
Zr 7.352086230834037 11.040666080520612 7.712159417394188
Zr 11.159665055956374 8.270183226668822 6.945484600638807
Zr 7.323947082902379 5.049286614024188 8.833876699905812
Zr 10.929909710660157 5.706528406661918 6.153347421416689
Zr 8.792229924361113 7.364538837766937 5.007911582124942
Zr 7.902937912066343 7.950183244123204 7.781921850870729
Zr 8.392171322127721 4.8387323966819595 6.4253502284763435
Zr 6.996724471265019 10.139549546493638 10.214275358170358
Zr 5.138937712562977 6.506825112430316 9.242701956647744
Zr 5.925223411524788 6.460049633174945 6.344080562230608
Zr 6.648893544810809 9.329383111643667 5.478890034518685
Zr 5.08331977887922 9.133286773345043 7.972539589167196
Zr 4.974093175245545 8.552590634492029 10.967802415496545
