15
Energy = -102.3257542 eV
Zr 5.164257662817001 8.816965169275575 5.227683755442464
Zr 6.972564419402687 10.033152660040233 6.877197824793133
Zr 7.912040906153192 8.68629095584538 4.421166718243377
Zr 9.619880656480483 9.291385652102072 6.591491868494877
Zr 6.06406698399105 6.567699284256645 3.7634572725698705
Zr 5.03250742763945 8.035308180005712 8.23188565229557
Zr 4.156876908549117 6.253747608355979 5.8232711353101845
Zr 7.125697616969736 6.840828300519258 6.764008065354309
Zr 6.2133828897348815 4.210699851085621 5.544859739979272
Zr 8.207810585986271 8.509969294460719 9.076947555831481
Zr 4.997332242873909 4.884153850347763 8.061552082968117
Zr 10.176742801077257 6.878451859362382 7.3532171015613255
Zr 6.627623053782169 6.089721977820062 9.904566803871374
Zr 9.336522139703213 5.825696479434789 9.589347235896506
Zr 7.695575745448759 4.053683511577545 8.091775362607743
