11
Energy = -71.93207114 eV
Zr 5.5320720519089 8.761694548121453 5.532927159652765
Zr 7.205842402484424 8.885466220344629 3.5573531273331813
Zr 4.836549734553059 5.78892855458107 6.082555190681092
Zr 6.270287551170899 7.539428602374701 7.93674409238283
Zr 4.9269876442698415 5.10745657374959 8.885083242576144
Zr 7.5083559277164 6.490858681322813 5.105207180853075
Zr 8.539232380350576 8.940096652859642 6.2363354308462196
Zr 7.599349578629446 5.959201014792317 9.903172257335044
Zr 8.597415084164084 8.662758637568253 9.179544234416763
Zr 7.14483132878184 4.60408421760195 7.3476248804273805
Zr 9.23660133480428 6.496414355208108 7.538803537523136
