16
Energy = -106.6622524 eV
Zr 10.222615320967472 7.212169619386801 8.533786064175978
Zr 8.57546139993259 7.656404639385885 5.702525395301735
Zr 7.210425269564604 7.961753840711619 8.266128840053186
Zr 9.395818135748957 10.056007627907286 7.314215762074574
Zr 6.620935307460247 10.93902350257235 8.754095008764729
Zr 4.570584424728268 8.827041617264022 8.235060760652061
Zr 11.474602896427275 8.453936085532714 6.17292567584936
Zr 8.981120964326418 9.588938234005951 10.107991967810122
Zr 6.074713395855397 9.186571462982412 10.861357435123775
Zr 8.445898399877846 5.14895296129841 7.647554539243333
Zr 6.146468565214489 5.98730538856379 6.295952465607104
Zr 10.713815395827435 5.642772348197375 5.940215173780045
Zr 8.25669660944692 4.931772049388508 4.7764934223903674
Zr 3.923486368530325 10.828152889569694 9.693540156654217
Zr 7.98443640453716 6.860652532514554 10.65245680048292
Zr 11.791793895352313 9.703849496661713 8.68331137411578
