12
Energy = -79.67300123 eV
Zr 7.25666372781305 7.158179753202715 3.509478939916668
Zr 9.80451907432346 5.934172475438268 4.395106468878473
Zr 7.49147201949011 4.727274624488574 5.187794515550186
Zr 5.618584727396717 9.143102020183033 6.4623014859727
Zr 8.317733636592672 7.722934545978635 5.9161769271678635
Zr 5.367500319401145 6.404191863564688 5.636490602981277
Zr 6.599430034494934 5.046813141172086 7.954026953762356
Zr 4.411387901377327 7.005769915009466 8.161467410132405
Zr 9.395611451126095 5.550104027268506 7.332912199218439
Zr 5.08435160979767 9.321309552686508 9.491806231457725
Zr 7.303581210869968 7.878743658789863 8.4990962796072
Zr 5.830026616229261 6.7853719394094245 10.602299646794785
