16
Energy = -110.12356619 eV
Zr 6.101429815087005 9.025124137069286 10.107723914464048
Zr 7.373767441962419 7.100023831886438 5.766692796537071
Zr 8.46632408492517 8.26010937386013 8.539242969966425
Zr 6.475431049834434 9.724830964062399 7.156310540728943
Zr 8.391222880319612 5.4323080588189825 7.849297855416163
Zr 10.28567060049019 6.692076283852285 9.985344187503014
Zr 5.785300154261537 6.882100947881947 8.022264074740713
Zr 7.895950402643023 10.621198173641185 12.092918473392345
Zr 8.2874864220247 7.923052557702696 11.924105407456267
Zr 11.314025258182838 9.4113188897463 8.835536232043957
Zr 8.491016980072974 9.40399515778927 5.153227929419843
Zr 9.910088107695815 10.696512277854545 6.930102139195813
Zr 8.60765385277609 11.003520564684713 9.528869685981753
Zr 7.166033086578867 6.114703552284326 10.341077249605064
Zr 10.368579766235747 7.593305885189708 6.6217822937121795
Zr 10.555632734540197 9.41311463951804 11.34160110325364
