13
Energy = -86.62435036 eV
Zr 4.92150744629838 7.252436722994967 7.47904856254888
Zr 7.867509489814534 7.233837780400798 7.469705962254989
Zr 6.707171714833744 5.0194159820747855 8.726076643395261
Zr 6.456933993472773 8.982866002241371 5.681407533775947
Zr 3.8927849646203176 4.852430006352237 8.496110220200507
Zr 8.433464585076605 4.69550164673947 6.32936006179834
Zr 9.158997380997462 7.334192423185647 5.0848628702152165
Zr 2.8296935874355613 5.56306892234421 6.002604763487374
Zr 5.466503045321452 4.216618595554031 6.230313744982617
Zr 6.686797333589915 6.5376941993030995 4.302206105156092
Zr 4.075077833043923 7.571533143829003 4.613715034300397
Zr 4.356400058288514 4.825751134598751 3.5925603190332875
Zr 7.135127227370578 3.841245736003924 3.949809778760365
