14
Energy = -94.35172626 eV
Zr 9.473337318475798 8.042002983256726 9.371889399512048
Zr 6.912318522779975 6.756765146924926 9.726083984947143
Zr 8.686849329116017 5.644974864072562 7.731257808974492
Zr 7.170033252063652 9.45945281949453 10.14822868282762
Zr 10.141437765052085 7.792900685655372 6.436584318409609
Zr 9.908085546774632 5.321943980115298 5.135141071387174
Zr 7.321024709421254 4.252535484127886 5.390689044448918
Zr 5.704706576555238 5.849475218085286 7.288277095888595
Zr 4.911406815068434 5.846955012661554 4.477668053281126
Zr 7.637048741191392 7.08103260596611 4.8442249471938865
Zr 7.494020253083401 8.767490416380712 7.345804007438873
Zr 4.774813442199765 8.3999222993424 8.52986650214931
Zr 5.221453627912089 8.485707091625393 5.613177238739855
Zr 3.138282770861911 6.881076216870364 6.4048836177513895
