12
Energy = -71.22014861 eV
Zr 4.691040962551269 4.696566363007217 3.2080437526745467
Zr 4.6262002779896285 4.621808220593443 6.046819158901842
Zr 4.707834199100112 4.697948086617023 8.883889542559107
Zr 7.382159613471235 4.6996489471334595 3.2030672172407995
Zr 7.464994441131633 4.624172521487083 6.043691918237127
Zr 7.39664751187777 4.701516386997539 8.87793176965214
Zr 4.68890290282135 7.386548722440074 3.2074337913202453
Zr 4.624322204875558 7.459045245094232 6.045633885366304
Zr 4.703305283774006 7.388474729385494 8.888347196023311
Zr 7.378902605093099 7.390751398268617 3.1995340043843776
Zr 7.461167253813561 7.46257134806654 6.037597478405383
Zr 7.394547593666937 7.390972881075808 8.87803478738642
