17
Energy = -118.14447826 eV
Zr 6.875657055904344 9.948044953398028 7.53677916006263
Zr 8.585443464777308 5.509830343897027 8.830733749479638
Zr 11.279048384893736 8.069136586779658 6.187017903794516
Zr 9.540596613100739 6.199882815172854 5.765888036772824
Zr 5.68515868387519 5.988292584461471 9.90150666265217
Zr 7.591621911614696 8.63538097132685 4.932471012529045
Zr 4.758662768067824 8.511921782117621 8.921615727968232
Zr 5.292850264897122 4.345526031810453 5.4432659665622705
Zr 4.67336070521704 9.02714170969346 6.105356092021671
Zr 3.8509155696329853 6.1640462186312766 7.3185800585410625
Zr 7.462270438481538 8.131735326009641 9.848909485017673
Zr 4.931842975709261 6.991770189720469 4.406277044720753
Zr 7.410231355159833 5.773078850762285 4.04854895707238
Zr 9.241307387346527 8.520596326829049 7.711397350954262
Zr 6.638073173906987 6.766449008679318 7.0251741377634325
Zr 8.005829930966929 3.912525263373541 6.32277099385673
Zr 5.9483761609329076 3.9510501482962876 8.200803880344072
