17
Energy = -118.2692071 eV
Zr 6.776054451724997 6.379028343974954 3.3469967727085965
Zr 5.637162764726209 4.132909618748328 4.963081130014588
Zr 8.356337044022618 8.321059334541522 5.044185280709295
Zr 5.495904678802197 8.904987855756056 4.1983830348011475
Zr 6.068826267782623 6.778432030578794 6.160120988876275
Zr 3.923186650141807 6.386005047619678 4.153822185783441
Zr 3.6391073856938125 5.3502194143267365 6.926105320036614
Zr 6.117792662749321 9.650843944701078 6.948675004760893
Zr 7.948744655403649 7.850483273758672 8.179322862386172
Zr 8.498850193763868 5.23190281125945 5.414913036325793
Zr 6.275420232582706 4.266333591263571 7.777154210211689
Zr 10.40829808978284 6.932948977474086 6.9203424370240345
Zr 7.030171225695791 5.9557815534575145 10.225312841053299
Zr 3.5501387561829008 8.276549584635223 6.325383945444573
Zr 4.966668502924168 7.5183815187560405 8.813713117381669
Zr 8.935583805063406 4.794126640685647 8.298095182770389
Zr 9.890551127647631 6.788804953152445 9.82319114440196
