23
Energy = -163.44329543 eV
Zr 5.540377083365905 7.2679743184632075 4.249310321072329
Zr 6.125031797125011 10.113071520126207 4.967565532487358
Zr 8.18243971699212 8.474863889948 3.5763766420112213
Zr 2.9818327102532227 6.102562669237899 5.036991366546049
Zr 8.896648307627583 10.543495202222477 5.503536051253631
Zr 4.874476698224351 4.5846237608035905 3.5744734441779653
Zr 5.153723017364627 5.022920491908376 6.328981115394005
Zr 5.240489698428161 8.518906014318762 9.607111794896241
Zr 7.791881253004173 8.022409746431203 6.39120600580144
Zr 10.424828850349627 7.842323999988314 5.5186659402291145
Zr 7.897013235361547 5.48949671157347 4.623741728320768
Zr 9.788639530257356 9.700915184381799 7.961298135864068
Zr 6.820655291671422 10.266749912618954 7.92221497475869
Zr 9.777866167105445 5.129472848079147 6.814292988034066
Zr 6.8622496592031155 6.322189436483543 8.167309208051618
Zr 7.63954547725577 3.5030835900019244 7.139668264999121
Zr 4.496474858562427 8.303851081410533 6.800533745806739
Zr 3.9431121526374184 6.086418661966625 8.883085341575006
Zr 10.339098927387296 7.089311351511982 8.498572067494365
Zr 5.841559047628935 3.8368879982385358 9.262838179433526
Zr 8.185952981863949 8.246393232252654 10.090853321440933
Zr 8.69364536492169 4.940979473254348 9.755461727780961
Zr 6.128769355479591 6.17398796935834 10.952606022691885
