28
Energy = -201.43750824 eV
Zr 13.165775066821556 7.546025241921176 6.964554154281074
Zr 12.436060484879928 10.058919551424113 5.920210117206551
Zr 9.18684940976403 12.03957762701825 11.070734257343037
Zr 6.417364468716481 9.60479331651497 7.786824615654703
Zr 4.799343851819872 8.849674372281266 10.026757127129196
Zr 7.984558022821529 10.521116385740957 13.01881603330667
Zr 12.908540876721442 9.030232560787653 11.344462439479274
Zr 14.070639697126143 9.770014475583439 8.700450187639252
Zr 5.96915273922467 6.610180103118839 11.495970280824448
Zr 13.286056842543896 7.057912879496229 9.626652531509952
Zr 8.020278788153659 8.877034788068057 10.34127265129625
Zr 10.998184417668808 6.069707021514798 8.363092995809483
Zr 6.132194597848253 6.766010563960238 8.691691486484839
Zr 9.022513475748026 9.845637637094372 6.056071011802291
Zr 8.42871770291534 5.805857718163638 10.232210682291633
Zr 12.889096181837385 12.148392352090159 7.818742979613704
Zr 8.385696953742588 7.459679742750492 12.926179474765412
Zr 6.275197768606433 11.29815493111006 10.54134649204053
Zr 11.039463640168494 9.502638834544278 8.620763307362452
Zr 10.630848640378542 13.108585407740083 8.993542050317565
Zr 10.484130957019207 12.138763137352637 6.400086182139027
Zr 12.399545737902049 11.630631521272882 10.652854798966109
Zr 10.532060839807219 9.630066668312008 12.533319929318381
Zr 8.49179882011173 7.2798777820525915 7.5204757121728365
Zr 5.811369153152041 9.109527603401032 12.62219646887684
Zr 10.696599888622238 7.631295896626183 5.8735368631381855
Zr 8.23056888160594 11.78310499679888 8.25813641574438
Zr 10.848026537353173 6.95441085921921 11.241186843011214
