26
Energy = -186.45308568 eV
Zr 5.095347395160212 9.75852917716616 3.6823385006710265
Zr 5.962022954133042 11.966843173099255 5.33719010391331
Zr 3.7823957066124643 10.264419297401156 6.233705219614646
Zr 8.18795156084993 10.226243389457737 4.069775393454856
Zr 4.131670007323088 7.452085341892291 5.401756722144923
Zr 6.6118641653457955 7.284611021673451 3.6152499872612602
Zr 6.635155634414935 9.246850866157203 6.157311685259162
Zr 5.693008596314605 11.208776845603504 8.217195399361904
Zr 5.514458211917492 4.090045371908208 5.343327103413142
Zr 8.302524390784658 11.567124507375583 6.938406558366906
Zr 9.225756091812526 7.41381534084346 4.658286894698938
Zr 4.68085343166303 8.375665109458504 8.360462666395662
Zr 6.650403050316848 6.609771409379162 6.453671133581005
Zr 9.765280914284798 9.254948945035435 6.569393341200741
Zr 8.458170157374369 4.628267998876076 5.02631932461352
Zr 4.374657917923249 5.20909862714648 8.005007318448477
Zr 6.650704503638385 6.635733459863512 9.713086644596668
Zr 7.203792032930249 4.356116545987147 7.77321190213795
Zr 7.591773078244768 1.9596649678232714 6.202890165199798
Zr 9.414528328070446 6.531571243618863 7.728215636936124
Zr 5.20391632401627 2.2829118381829763 7.826711824228901
Zr 7.884506541535014 9.258771865102862 8.868119097290883
Zr 9.871344600943777 3.488825854796396 7.520089220147262
Zr 5.911358382580304 3.8325615428255926 10.296255303529247
Zr 7.8902796647550195 1.9566084352294628 9.177394116653415
Zr 8.84796760335254 4.632228361534624 10.14185775414454
