24
Energy = -172.15275361 eV
Zr 7.748111211475714 11.54104990469315 14.250421304540984
Zr 10.268732035162202 13.2294757405175 8.689951143130868
Zr 10.594199364290391 9.068066468045293 9.631656441307264
Zr 10.40833581378171 12.353995318215539 13.42752681854567
Zr 9.162735287431106 11.24262635934878 10.970191072885706
Zr 9.586862735756078 6.145636056945075 9.938497274728675
Zr 11.823739623192552 9.653451859232858 12.61904452013925
Zr 12.11056675258576 12.259142520768412 10.975729769898306
Zr 13.536894087949685 9.907967782833161 10.370158908639752
Zr 7.58090551384343 8.016550189784429 10.880507372808763
Zr 8.71869206557424 9.298284065976052 13.318864937541013
Zr 11.106784081922356 6.66735258544393 7.77985828335412
Zr 12.19703890300218 11.282361904315701 8.068158133641212
Zr 6.348156907660446 10.684680118777909 11.82644663096768
Zr 10.780484558479303 9.162572062724777 6.496208704030961
Zr 8.35957567649202 8.043041691173249 7.921470582526819
Zr 8.946541883303038 11.066124913379783 7.480029163989082
Zr 10.158897149264618 7.27137856562003 12.318421615222059
Zr 7.3886454370667005 12.988025897733467 9.560071114369084
Zr 7.607356538301588 13.462560580341867 12.447856294992041
Zr 9.871379703600356 14.202092838466152 11.150688499025119
Zr 13.162496682694824 8.544103582660066 8.011864502708834
Zr 6.790563578153983 10.15078975035326 9.05805959905578
Zr 12.493655723595852 7.090360143076851 10.59082080781965
