27
Energy = -195.08245586 eV
Zr 5.187459354001175 6.1329017927885445 5.016585498077122
Zr 3.096036170770245 7.308311986029924 7.073530923222243
Zr 5.85301306066412 10.563919839015647 9.280674071820773
Zr 5.649713798051476 3.14179347554356 6.1234477970354995
Zr 6.982389639683946 11.185213609437861 6.854458573376959
Zr 9.994240132527393 5.871228690051461 3.7618150054223976
Zr 8.488812116696561 7.331361667185638 5.982946308037825
Zr 3.3739595462299286 4.557244455356964 7.065433588269503
Zr 3.7650807424776045 8.821940042021055 9.348467858898157
Zr 6.416116291677903 7.725692813461363 10.339821949832086
Zr 6.75404054567366 4.825725633044791 10.458150797509004
Zr 9.546591381799415 10.108127029018574 5.977699857478595
Zr 4.137509124012949 10.309014648854843 6.8121105015759476
Zr 9.330113139020023 8.70372642238981 3.382844853514037
Zr 6.787829539674621 9.521818674152614 4.410611719000354
Zr 10.836953234535862 8.021696020968875 7.837426099274255
Zr 3.975318623634373 5.932676163234157 9.678846694238228
Zr 8.897438609535099 6.332870573691448 9.148775026547513
Zr 5.081262184220811 3.1629376303347425 8.936281288021734
Zr 6.006657762639044 8.384617228720488 7.211239756870631
Zr 8.547035346542543 9.395121764970998 8.84764585169003
Zr 7.298558035152226 6.696932946174862 3.2466770186592413
Zr 6.165333082419138 5.603077028981859 7.676812554450749
Zr 8.064396993526046 3.488282622812731 8.091030093070492
Zr 11.405547368282877 7.8442608434724885 5.174047814115452
Zr 10.510025569665345 5.3048728861775984 6.670425343179718
Zr 7.954820624166856 4.381847250180055 5.145210168522339
