24
Energy = -167.15793133 eV
Zr 6.44660784694677 6.2756911136130595 3.337575039898804
Zr 6.420598210689614 6.377569048312603 9.63818217993892
Zr 8.047284745315888 4.241364172114932 4.678116955943978
Zr 7.966907305493709 4.259474185621033 8.3011416105096
Zr 8.928761408612534 7.167157025033047 4.655748096302191
Zr 8.848801587476128 7.202845856576535 8.333467625772641
Zr 6.32075794065374 8.956430242452404 4.611976102443045
Zr 6.3175675938844105 8.92521031453403 8.29587074429872
Zr 3.9446413366955486 7.081733817679732 4.578527086246711
Zr 3.9066772007703947 7.043600756200566 8.256593818067083
Zr 4.963902181811394 4.165427713759082 4.616494882263656
Zr 4.938696740993715 4.232934534866438 8.268636609715246
Zr 6.4183032857061635 6.331822414594153 6.437516992132693
Zr 9.431693764271087 2.575831190511143 6.5487280039152305
Zr 10.136853690381333 5.34116390107783 6.539990393147906
Zr 10.861072358848743 8.367947958718371 6.841987040094649
Zr 8.784863495593026 9.78733751081988 5.741494098325501
Zr 6.685741137880611 11.212392083929885 6.797402853443485
Zr 4.149976550706922 9.409596492590996 6.451192254238232
Zr 1.8181741564777643 7.7374579158225085 6.461841707861519
Zr 2.685718410766263 5.067064746167438 6.276999265468803
Zr 3.550488160387115 2.4670811994220463 6.509065130906052
Zr 6.515278295409529 2.428843361408888 6.442462952441565
Zr 9.046315189580131 10.240926775406285 8.477324351240107
