29
Energy = -210.8166138 eV
Zr 8.086861364057086 5.7789981533609645 3.566407962115938
Zr 8.132111715947595 8.17750203450636 6.5718003085872185
Zr 10.329333593872848 7.564724108136035 4.706064318552177
Zr 5.486700798905423 7.479740857831824 4.094968883024926
Zr 7.418670258169934 3.0926205268456486 4.55561597756353
Zr 5.876157199918132 6.346013134368456 10.80032020040418
Zr 5.303503327077937 4.720669538830294 4.072114600783195
Zr 7.254998689603211 5.333855972354826 6.521650489568219
Zr 9.496596894724116 4.256355640349017 8.528804365318358
Zr 10.67473152334155 6.716945662459356 7.597578227093749
Zr 7.960332647789067 2.4994599764397836 7.144817496706633
Zr 9.12658823497758 10.502517291510271 4.984640601026815
Zr 10.740989108754714 9.580995545287731 6.957184609782163
Zr 5.54514013078054 7.40384237272564 7.812058483074858
Zr 3.712812723474331 8.907017414251053 5.658966904678173
Zr 7.939336121328027 10.86108673960273 7.774784629608931
Zr 5.074373470289878 3.3627218573662 6.696507447153664
Zr 6.794484816409288 9.130366899478792 10.059543612991876
Zr 9.57612286572307 8.939122085459935 9.321979962930758
Zr 6.57964893634254 4.011527889394133 9.252090055324523
Zr 4.786918447880632 10.23821651470762 8.074076291097239
Zr 3.8061383347039857 5.3157402303732235 8.946510608445966
Zr 3.5087219536499092 5.9155221548705414 5.98819243409045
Zr 8.467355991618522 6.4630655831247585 9.840921147257875
Zr 4.004533955830849 8.226626270297038 10.230454027416028
Zr 9.921565577352856 4.486119268652159 5.606850067504778
Zr 7.894019103596336 8.655614587039015 3.4232300626230474
Zr 6.221909559498696 10.286869647815854 5.341859026813966
Zr 2.602726657216143 7.922565065013217 7.929114644935138
