24
Energy = -166.82792589 eV
Zr 2.7777798802485516 9.402843480617847 5.093573791792263
Zr 2.721078324216206 7.315006701609001 6.869796809926851
Zr 4.427643271004205 5.037670574829597 6.811852187106584
Zr 6.751274672723503 5.297398151020817 4.5353749541712025
Zr 4.8012827304324714 7.426222492616756 4.7681173178186445
Zr 5.373235793104005 10.18481127214433 4.544901811525539
Zr 4.4986039722645526 9.568891385249842 7.413078184178017
Zr 4.369072588181779 7.075130234291791 9.197588559916833
Zr 5.92521083962689 4.569514862139249 9.168900180034983
Zr 9.20072101427237 5.700337059096405 2.990278753051999
Zr 8.975215648745463 3.3607824774321173 4.214036715688598
Zr 7.771219931195509 8.07588202986421 4.554982622948499
Zr 7.214506528142298 3.7780145461416144 6.7139534283034
Zr 6.820578070880237 7.004933565538071 7.39705871501205
Zr 9.44291664578504 5.761567730366081 5.890374365070884
Zr 6.508081929346295 9.368523057454649 9.462525651899334
Zr 6.970120115795626 6.655226766231239 10.610322369535709
Zr 7.207604602454423 10.27332557117313 6.676277630892949
Zr 8.93767611525713 4.967966734861773 8.726036840387286
Zr 9.629359381856997 8.571484114312383 6.77715710824714
Zr 9.228543373453727 8.145486271264868 9.929571900489139
Zr 10.171665976979655 5.848432396078577 10.977571321731611
Zr 9.171815908840482 10.575562425910972 8.705070016427152
Zr 11.238208333476196 6.606959969770517 8.406815319189029
