26
Energy = -185.74705238 eV
Zr 7.180026111179771 3.374446449081108 5.506615810734042
Zr 5.586599772190863 3.9481707609796555 7.897348589620208
Zr 5.931566457049571 5.541647548951125 10.125903132069464
Zr 8.31740107178053 4.4453210349345555 8.278889583971623
Zr 8.676612662088631 6.33944670696616 10.694788625941934
Zr 9.831454003242055 5.240673449063017 5.857506399845188
Zr 10.285574470598261 6.535652174644242 8.457928904190362
Zr 6.845267347135053 8.324114716582836 11.47156769023207
Zr 8.393751378299664 5.084616903473957 3.3355069762954694
Zr 5.588621421324457 4.876662450138409 3.32434717497233
Zr 4.262835555439798 4.469479233154559 5.588298748789704
Zr 4.026023878997035 6.444877872043472 7.6622621807122915
Zr 11.604913994682256 7.460096225669552 6.037967840938457
Zr 6.873220449468868 6.254110183564716 5.754890527452541
Zr 4.365440111646826 8.0558932840084 9.920023391437393
Zr 7.047916041402172 7.668671216487851 8.450729166029406
Zr 9.251706832386125 7.720721406387408 3.9594689750844636
Zr 9.305235884596508 8.790259996876213 6.541653966173904
Zr 9.342320885589087 9.160674029073414 9.609600621489905
Zr 8.101960302173898 11.138407377261338 10.747295939751929
Zr 4.35179874295491 7.381673428256519 4.737962792235291
Zr 6.622608625577779 7.389912233959645 2.828810085872183
Zr 4.875645195051994 9.342030101017203 7.091386640378991
Zr 5.737071046941504 10.388664529558996 9.703324651906282
Zr 6.837375481478112 9.318199643736124 4.922876743246948
Zr 7.532515456289495 10.809181047516251 7.615492384839513
