22
Energy = -155.62853979 eV
Zr 10.482968750401229 7.745972167894695 10.377631435855594
Zr 10.007160455546375 6.594238774071896 5.637014511833517
Zr 4.967727512945621 4.636709835664821 8.00866490198434
Zr 7.538242964135259 4.922408018807894 6.459001537356132
Zr 7.5504525139380325 7.957183781519026 10.620883784241867
Zr 7.2341917950082575 7.634189433561817 4.851490317542327
Zr 11.902696206189772 7.208004796594033 7.936968691816271
Zr 9.613423837866616 5.574778898467988 8.451959825345723
Zr 7.544362754589807 10.521830804456934 6.001650502677421
Zr 11.70009210241242 9.178993787513024 5.947051366884877
Zr 9.456072673751954 9.229675891977845 4.47010753939431
Zr 4.757401819371668 9.056847439501556 9.604270051854936
Zr 6.766927285252755 10.488814518715625 8.709377852579035
Zr 6.608920768208534 7.281460228065331 7.927802762224648
Zr 11.751748681604806 9.878969915397418 8.906752178147592
Zr 9.282632625746736 10.317263218027609 10.241809576145465
Zr 4.975238496452743 6.33597533236272 10.39142643894497
Zr 4.947965862707765 6.27937476647255 5.659225451497446
Zr 3.4965297318207744 7.160082441098605 7.9516096176931725
Zr 7.3012973609567196 4.858671338253826 9.609801070331676
Zr 4.98183010013907 9.216002744554924 6.437783400768495
Zr 9.294250848322871 8.747188125806543 7.6745996691855005
