23
Energy = -161.86433589 eV
Zr 8.492462894220797 8.88311857944123 13.438129104689043
Zr 5.785236652146964 8.07879206852094 12.605884200782626
Zr 9.770421157297989 11.035616419403295 5.2177077184113125
Zr 7.03376218539933 11.653069562863761 9.662276372798786
Zr 7.194055194553276 11.644233397668602 6.469351949307621
Zr 9.335868057884483 10.82634817683356 8.112715727983643
Zr 6.043385689692083 6.796755893145754 9.85679013403126
Zr 8.632534903861538 7.845707345252849 7.5782879565430985
Zr 7.659891903410416 9.114329856500465 5.207616462578219
Zr 7.934991997233532 6.27357930875169 12.235236545397772
Zr 7.980554345092299 8.773592172041772 10.414401102889322
Zr 10.492953585063875 7.654198365205688 11.849924433468734
Zr 6.784267608914508 10.814551328644834 12.369275969146933
Zr 10.617276039490452 8.233901840205405 5.294071615029471
Zr 5.002349851886124 9.641101323409679 10.378303713881419
Zr 10.596222126179855 5.76187584869601 7.084278262678865
Zr 11.12411529157257 8.688095993603781 9.248995269505668
Zr 6.131305130471465 9.319372321689409 7.860290528472245
Zr 12.078843588113395 6.029431826022352 9.533156122207398
Zr 11.993937811375366 10.268738712540973 6.839198905003671
Zr 9.134312509548446 5.926172263178428 9.710490166113189
Zr 9.668887974788449 10.775830060436785 11.367919415695475
Zr 12.815786641230757 7.542812515845905 7.1181352379872695
