21
Energy = -150.09746206 eV
Zr 6.744935030585244 4.6598016932286 3.22444752619985
Zr 4.316976190892365 8.736276575071411 3.3820280600265678
Zr 6.391516021944869 7.142709774552688 2.3005313673502843
Zr 8.460950818832025 3.909216464548583 5.078064744609252
Zr 8.696521593478593 6.7935817209999705 4.446415997965195
Zr 3.9288516525578165 5.550470698882813 3.834186389479221
Zr 5.408172130494356 3.273450243419214 5.463381705515479
Zr 7.18337200497747 9.342832592394155 4.0105861135053384
Zr 5.13695435078306 9.876351509587424 5.955843619422888
Zr 5.830411158622485 7.0488600432737325 5.194669867731003
Zr 7.802019653784396 8.550429733650649 6.887718011991546
Zr 3.0442922894681597 7.833581022666623 5.777198689953271
Zr 7.868852544420708 2.7454080312652174 7.412567569382713
Zr 6.534315604385027 5.364658247644702 7.205908374860097
Zr 9.273181680584923 5.7152653491800445 7.363874487217225
Zr 7.385367936996625 7.186159955462312 9.391767318504469
Zr 3.5343156000142684 5.264918882355844 7.033649900255518
Zr 4.781946618544925 7.9859425588032265 8.147295872835558
Zr 5.176705201480958 3.089965842958374 8.436975037971171
Zr 7.584895283712916 4.352558519695797 9.724825930241598
Zr 4.9524429549012785 5.614556861821165 9.765059736444636
