32
Energy = -231.67075685 eV
Zr 2.9659351095824005 6.5905558572525464 9.519133945335744
Zr 4.744925376527045 3.1287074421297696 5.446709452103009
Zr 3.482480948201645 5.590878299871091 4.827064468810209
Zr 3.334790137104979 4.578364580796836 7.682673963016567
Zr 3.1778541955974733 9.3570763155084 9.237829035516146
Zr 3.0741176918950175 7.634376505578619 6.720129973019717
Zr 4.755574860258287 7.89357577457504 11.216984033783021
Zr 7.753211153048323 3.492755963235346 5.605798697387291
Zr 5.822204079131042 5.5976967968617455 6.696071079650372
Zr 6.1710250123320085 5.30949987987548 3.7276409034458493
Zr 5.9889632393564245 3.0591730049720973 8.060112213702824
Zr 7.439261090057159 7.675484858391853 10.96167157263735
Zr 4.546333556760312 10.24029681678506 7.012594809805616
Zr 5.715196893920611 7.821868759412042 8.37141576179377
Zr 5.516271716031108 5.152170013116466 10.033061683982325
Zr 5.88468841145418 10.362166992309103 9.856641417893844
Zr 8.3823434603619 5.1266383527905175 8.369362668559981
Zr 8.743640685303047 8.307774511670853 7.593291303913183
Zr 7.2052156644537595 11.001411654453038 7.3092175268862425
Zr 5.873835252442775 8.25419135578603 5.112131852481247
Zr 8.338197137230798 6.434258439727776 5.567387216558241
Zr 8.064448794976466 7.5649983299995345 2.926263818828084
Zr 10.531798502191789 4.399384938857403 5.57792506877
Zr 10.00436914511619 7.1034862306041715 10.043500101425716
Zr 9.123636471431986 4.879352042851516 3.166825588029124
Zr 8.887667582612591 10.037678533191178 9.974932021312478
Zr 11.235144076428375 6.442711989164675 7.3829295815741105
Zr 9.910499445408435 11.062759678634917 7.3043484255824325
Zr 8.84549727134105 9.689823328557932 4.765022066556851
Zr 10.795135212901537 7.129211809031851 4.274497647585698
Zr 11.455505617919105 9.116271958234693 8.840384224395372
Zr 11.463856394521896 9.11400002082718 6.052459268060474
