36
Energy = -258.58521927 eV
Zr 12.434091792342626 6.959408258663878 3.937792943646402
Zr 11.14915726690976 5.289307981926195 6.053105765915353
Zr 9.664350436127624 3.5747577377029303 8.282364040909833
Zr 8.221476218216706 2.0577917778733514 10.415041850329219
Zr 9.70366245559206 6.24073486366798 3.5539118633081923
Zr 8.307391473859358 4.355741817922662 5.739803595076793
Zr 6.745700875790216 2.8207387963386665 8.092376445296551
Zr 6.726571215497514 5.9355636460516985 3.6680658968074646
Zr 5.244920712666043 4.2439720184289005 5.91172562552285
Zr 3.9192791402895826 5.6745997872119585 3.879808661405014
Zr 11.585338577029466 8.203697942871957 6.357425751644205
Zr 8.675302342641515 4.829455753998908 10.789389508688506
Zr 10.236063362498587 6.494979013891379 8.620321421801115
Zr 10.702318984864759 9.028942310651859 3.5945101684865497
Zr 7.81434279923486 8.783639396724137 3.5628119553374464
Zr 5.968496787543824 3.533269597466975 10.849126079825036
Zr 8.72209787498714 7.4625892611154185 6.0751040271569705
Zr 7.233223163486281 5.734947030377872 8.350589376456346
Zr 10.06261974638826 9.60454669654319 8.554270548886224
Zr 5.698911872972166 7.209290838004647 6.196560259863154
Zr 9.337317766411749 10.378755487957829 5.710098275641387
Zr 4.42077473870848 4.851021824470603 8.772694249081383
Zr 8.555199366102402 7.8611382300782315 10.858768969510667
Zr 4.804847868682503 8.57402255578381 3.739705068979531
Zr 7.214764473170993 8.780180352178856 8.374064593750873
Zr 5.906720571929374 6.399245166910948 10.964887957683754
Zr 2.9016048713583698 6.385435612046028 6.657617846906394
Zr 6.286942699701386 10.227921612738415 5.840710270011554
Zr 2.1439594318783444 7.70950901678569 4.256026846306282
Zr 4.303209992810465 7.9471981036380415 8.870414682963041
Zr 8.457659229584696 10.682774381561602 10.6307917356909
Zr 7.928386690177232 11.809150903149938 7.982130558977409
Zr 3.3970101409014775 9.346213111794928 6.312719138701608
Zr 5.862532382180115 9.423824612919534 11.13370281093946
Zr 5.107666912402878 10.951240585056075 8.637459118710385
Zr 6.382033930027058 12.399750144759466 10.580848919523788
