32
Energy = -231.07856786 eV
Zr 7.44498057310281 11.728205245649411 6.387586026781578
Zr 5.664987472491991 11.546098492598077 8.684136456041545
Zr 4.966111242629964 10.296321482258286 5.794120224152638
Zr 7.462072649609636 9.815794419150832 4.450734275004724
Zr 5.344098497895648 8.168048056087216 3.6126784662129863
Zr 8.822229162557944 11.447279682246768 8.82440673036385
Zr 9.636557082455155 9.720477373844629 6.303978867535416
Zr 7.193460329390879 5.633356195562286 3.2469125422842273
Zr 6.955096043719323 9.031489134718965 8.014289375695446
Zr 3.786848077960771 9.396381753166361 8.297350958758527
Zr 9.049693265782548 7.555787651637273 4.300064157769633
Zr 9.99128274323267 10.509795408013671 11.293493787969382
Zr 3.513522468804795 7.604097103080724 6.009172526394999
Zr 4.494788822499572 5.525432300389478 4.026559822056474
Zr 10.493555640220709 8.869782024373142 8.880263827665779
Zr 7.175036077597008 11.08937844441068 11.156258148234427
Zr 6.4236939403418205 6.673739780298518 6.013502028913201
Zr 3.9899944723453244 4.7940243769153055 6.634762983914186
Zr 4.494004405683241 6.652706338410699 8.756087615553389
Zr 5.33094290044458 8.937489311988722 10.59659175181106
Zr 8.238352636536575 8.441684982638963 10.986898829972835
Zr 11.186716547535449 6.940953000882476 6.060219366399586
Zr 6.407614952749066 3.646509155265202 5.386450240382519
Zr 12.138651811134443 6.717228946798464 8.620944634099478
Zr 9.322044257159728 4.738273011167042 5.063161594521729
Zr 8.82123143139905 6.319502270554038 7.864796168391999
Zr 6.112089995091084 4.092282227356262 8.36390020766506
Zr 6.888275851176262 6.110228005924765 10.403824222811329
Zr 10.140416677318786 6.15014640091501 10.55134405829878
Zr 8.535166704305102 3.0422704895711603 7.175370961296779
Zr 10.933477244684733 4.3197493243127845 7.910299242695752
Zr 8.629957897268575 3.85026302138346 9.81221502017242
