30
Energy = -217.73678412 eV
Zr 8.247529925481537 2.5799392769367717 5.381454934893703
Zr 10.657437917783897 4.0758423902875 5.934699932909723
Zr 8.643671709689766 3.7092682086813102 8.169933773232612
Zr 9.324006278516649 4.347866323971767 3.403054028625487
Zr 5.756504452140994 3.312416951892495 6.7102200160598455
Zr 6.2307061670829045 4.208934339179713 3.7603870736206826
Zr 10.768448920514476 6.094542988019011 7.972002982876388
Zr 8.10454132779051 5.5177072497185 5.779838197576857
Zr 6.060040097189284 5.0569807918287815 9.340754512362883
Zr 10.362751204344548 6.927609585250126 4.808583933022733
Zr 8.908097982236887 5.562758553396507 10.40288938468188
Zr 3.391443917667918 4.933430051794125 7.801301300681425
Zr 7.845867856869051 6.64015344101662 2.9692735420142853
Zr 3.60171237966846 4.907146571649263 4.934781646384028
Zr 5.557425133504177 6.2128243264652365 6.46001203582527
Zr 6.827332014940538 7.7934978058459885 10.740879995399935
Zr 8.095215073614854 7.1645971780310385 8.183372472740112
Zr 7.774704948179338 8.701648716995853 4.826042433904009
Zr 9.9343981741488 8.217735075278918 10.01690228324655
Zr 5.096966831394495 7.260679042288874 3.803786238213112
Zr 5.999218991145055 8.823819917398287 7.6610262116513255
Zr 3.035899062173252 7.606982633388247 6.265383926279191
Zr 3.918625523361084 7.354874723723921 9.332571952107408
Zr 9.961945598753164 9.110051473852236 7.140527865027515
Zr 7.78975350295015 10.954625887597308 6.444293917554262
Zr 7.978900707157394 10.357455709174458 9.405252881175238
Zr 4.994229389469493 10.079656653992409 5.329009058771512
Zr 5.042570498956169 10.03532752013204 10.199472043380597
Zr 3.3004749687764554 9.95457312340175 7.897812558409767
Zr 5.582311422289003 11.697142428639664 7.929178444954912
