37
Energy = -267.06462645 eV
Zr 7.60817101477905 5.552642264464802 2.2075249540187887
Zr 9.149597077054741 8.441555640620386 2.5938312808560338
Zr 8.025098122302891 6.774167130960695 4.576807133497328
Zr 6.4420786062640145 8.164665819137502 2.2833041692411733
Zr 10.008693621881655 10.92127687080441 5.035924064386013
Zr 6.828216984624026 4.152930079555652 5.084094533294191
Zr 5.072816942520651 6.0205925025506195 3.8748247394553155
Zr 10.847472716779519 7.857195958840887 4.964565977836611
Zr 7.448518953763635 9.566755376085514 4.952174619288953
Zr 9.410225751038425 6.029200299787602 7.102745800811212
Zr 6.086224309369887 7.13414601935861 6.73049779340427
Zr 4.463749798687325 8.803919347687408 4.264186573767836
Zr 5.747929874995402 1.9194371927503604 7.327609612567153
Zr 12.279531606230194 9.838502444062959 6.455828675723125
Zr 10.734570702300173 11.865208545699168 7.748562990780717
Zr 7.814359129832098 3.6258229776436552 7.762469255396332
Zr 4.577027456798198 4.459236475217271 6.946484857260799
Zr 3.1448171303272976 7.375802527275161 6.474360158540728
Zr 11.896192788990763 7.268967182063783 7.816279959203257
Zr 3.7709332059726415 9.152535389137405 8.73897620526005
Zr 9.425651875011512 9.029832645886605 7.391114792370626
Zr 2.3679167680928166 10.020717382775855 6.226826123268505
Zr 9.947816650802684 4.700909894492911 9.578191630508307
Zr 5.005071445408502 3.6517551727054034 9.596551747164044
Zr 7.967984187577304 11.64482296667297 7.272833868101549
Zr 7.1300655218148306 6.126309591877721 9.507784048298655
Zr 6.784092752730932 9.250350732281921 9.018022731722063
Zr 7.559997950046464 3.3153659122124464 10.666094973168848
Zr 11.768283826802906 9.730533373236517 9.312111921684307
Zr 5.140022999212358 10.311688093005133 6.568847834287065
Zr 3.913707562354527 6.292624226292684 9.264860678262405
Zr 9.820423853248801 7.6355780513465845 10.07236150735483
Zr 4.9528706744426465 8.170903135005172 11.18452658362998
Zr 9.096223099308459 10.71545129479865 9.91493339310438
Zr 8.71808605597996 5.533696371643174 12.064212292570689
Zr 7.496449481602098 8.05197185506173 11.930480939769735
Zr 5.739023662105643 5.480870734244131 11.96919650161787
