39
Energy = -286.24399025 eV
Zr 2.4980351814672224 8.817924960555791 3.597724115400185
Zr 2.4852416490703555 6.159177051540885 4.961620740117186
Zr 3.9405155420436393 6.609108844772872 2.3777854097974997
Zr 4.960730344462215 9.323634362664027 2.2597766463361992
Zr 2.3628679481635615 8.84707149335124 6.510780219377602
Zr 1.957488903208873 6.1309211298318145 7.887118580848013
Zr 4.382246147166415 10.757311819402853 4.905026447226806
Zr 5.05818335976075 7.912590456220025 4.8254416657869195
Zr 3.760484753306478 4.2432790382675325 6.792393907375031
Zr 6.905557125420415 7.061194205894173 2.6439714805064116
Zr 5.283512559189484 4.869106198509021 4.3380019974602515
Zr 2.8696064136706254 8.20661951600809 9.419663629640649
Zr 4.8217885265663964 7.07545935095554 7.44453593190549
Zr 7.249946806923105 10.104036180044698 3.836296475361645
Zr 4.524696019162483 10.218302143866488 7.99476469997336
Zr 4.565384678376572 5.50288708160039 9.684825712608568
Zr 8.647743990399018 3.3840109208142866 5.5428148139297555
Zr 7.820243006544244 6.200922218526165 5.343140041330198
Zr 6.526714323552474 4.276747137648952 7.296832062952812
Zr 9.528260633781152 8.310903800798487 4.019532747930988
Zr 10.77540089853481 5.421735123450614 4.771135090020243
Zr 9.043959061517251 2.7511926146943093 8.679624539748156
Zr 9.669379802950187 5.423864023559736 7.55860544423557
Zr 11.278782274118855 3.1126670458456966 6.641685227611803
Zr 6.809005840826108 3.6980794125844643 10.214597526446534
Zr 7.57169806967567 6.557246404152117 9.143107178477488
Zr 6.761981487361491 11.469219196828265 6.485369501741792
Zr 7.516488288134287 8.640780877078463 6.746110761366839
Zr 5.488417988907168 8.35819693825041 10.447024829343897
Zr 10.971168736120704 8.018713418869757 6.508606322830594
Zr 11.63816650723381 4.02365090158996 9.325627951041936
Zr 9.47905306704289 10.557531871705638 5.90905043961883
Zr 6.724295863825654 5.987404309029816 11.863382946555097
Zr 12.611146665134791 5.649898674130353 7.155285488350411
Zr 9.412401391148112 4.879013958852117 10.976752061964428
Zr 11.258800602601546 6.938336854610892 9.641683832432802
Zr 7.318165077302363 10.187453522150914 9.235533680787492
Zr 8.79414504155971 8.006101862530215 11.298574912184305
Zr 9.812741211710527 9.257824390417197 8.806628310115928
