39
Energy = -285.43368827 eV
Zr 11.818998620518805 9.596274444777935 6.584329047612942
Zr 10.369045862065645 11.948399244066929 6.642315073817948
Zr 10.585605028821199 10.282684993988942 9.13345685648838
Zr 9.82240340893387 10.046797905891353 4.276463559087239
Zr 10.973457384661922 7.300792691846549 5.014726863318351
Zr 10.949155334473776 7.29564970953328 8.257113774290266
Zr 8.173965007478824 11.87924831014079 8.558228766692125
Zr 7.754620030169094 11.889975455260283 5.604269708319979
Zr 8.815843704638546 9.335912637171496 6.903703098623455
Zr 8.66841748298042 7.408288279288999 2.8919534362985835
Zr 9.536593779729552 7.151765951639641 11.076218141155424
Zr 10.35074815902143 4.8319783814092565 6.745873147328146
Zr 7.8773538989067795 9.052425997533295 9.692532235455145
Zr 10.271904762881514 4.627800199905019 9.818704051809798
Zr 9.703552739453082 4.825120903891886 3.981990727183454
Zr 6.657274165016685 9.451032750813203 4.524706128745255
Zr 7.458326706677803 3.9108312536159446 6.339675984903446
Zr 5.732754676393992 10.6815485869794 7.300864345703097
Zr 8.275656818057007 6.108711431238758 8.550386533391565
Zr 8.052092275491644 6.677585129575591 5.497266089426188
Zr 6.93237475107845 4.719284605903988 3.263916781563742
Zr 5.931081371108098 8.032511949008276 7.22674057434401
Zr 5.037711963006864 9.235997871060825 10.057679482724504
Zr 5.3079912916590395 7.1552851011070295 3.1196158004857053
Zr 5.569503299501575 5.773704740152515 8.780567267038535
Zr 3.7225333539806726 8.656191299671368 5.310272009262726
Zr 3.149230121495103 8.747659122931124 8.13859064095617
Zr 5.016086489347933 5.510340304573302 5.618027386161648
Zr 7.890271690534209 4.717583951562468 11.442175820418205
Zr 6.225923191408961 7.046352262364724 11.536405558788891
Zr 7.404328283202227 3.1387508764863585 9.195064731571078
Zr 4.013425321676118 4.444377227516611 2.91723730713199
Zr 5.294292442068305 2.6336987928015327 4.809291462067281
Zr 3.399765184750858 6.785214792885157 10.40004962564329
Zr 2.468462453087592 6.382194624756081 4.210106337956384
Zr 2.6639931528253116 6.000074601780464 7.3200980918240965
Zr 4.453761958236765 3.358542905670649 7.6647495760646125
Zr 5.087775986329152 4.255045881017018 11.053835172891674
Zr 2.6267216563481877 3.7158851595771094 5.374173205323472
