31
Energy = -223.06703276 eV
Zr 10.112842719386165 3.589166135892009 8.822333796247447
Zr 8.621062117159072 4.906624334284605 10.668042343553209
Zr 11.448587217440275 6.013202879344825 10.35147074645197
Zr 5.999763569358525 5.951560468567311 10.52704518757015
Zr 9.900063884409153 4.248046311155634 6.039301802577421
Zr 8.661853555118027 7.6386816154562 11.314324501543835
Zr 5.742066219835379 8.90361223789284 10.982297957738327
Zr 3.442622219138546 6.90655716482959 10.81652228347134
Zr 7.345876162917749 4.6390806402019855 7.824050012527383
Zr 12.29757618194816 4.96628088259491 7.610860974038074
Zr 9.735888319124452 6.4356114882702595 8.159932737145562
Zr 12.39920345792595 7.9161842764890356 7.971419472959605
Zr 4.5867283497979985 5.679545613741522 7.862228656264941
Zr 10.843459214428199 8.94005917526656 10.08188629777508
Zr 7.164142301258611 7.853173995724263 8.662752231039867
Zr 5.790313307235111 5.176494091439415 5.35689627687211
Zr 9.704720785157653 8.934424384686002 6.664713946541397
Zr 3.924408926917644 8.272905742033519 8.56397160580604
Zr 8.42415702525476 10.35812919703539 9.724098834769084
Zr 6.02695241403251 8.332563597362144 6.180945285983008
Zr 11.386385957724807 6.708075919195506 5.516931393099538
Zr 3.5135255324316295 7.118925434018176 5.349910722960146
Zr 10.985999566761762 10.886844543678002 8.101511061893913
Zr 8.404562465815507 6.644803310649019 5.138990368132804
Zr 5.56982977175562 10.732992361574084 8.460229706521597
Zr 7.7029363180859445 9.598231578246876 4.108933921389375
Zr 6.0032851601172315 7.131970824961998 3.432292792040139
Zr 3.4010944273478527 9.978400364911753 6.3600929152277805
Zr 8.020594275229211 11.049463190172682 6.872735848698144
Zr 4.624556433489064 9.497263306666692 3.806145077125504
Zr 5.686653146209153 11.413195341686748 5.525128377956314
