38
Energy = -279.36875376 eV
Zr 2.325686851493642 6.414587452714557 8.108343087051264
Zr 2.4880217192188834 4.78357913691108 5.499690608890659
Zr 2.857691889799876 3.4260373784598137 7.770875525224535
Zr 2.7739610888435813 7.664793792002551 5.4316395648320395
Zr 5.141095084845792 7.323416281767134 9.803693851729141
Zr 4.042841831306229 9.230889148961793 7.887027682557227
Zr 3.766075315949087 4.804563083138744 10.003868508397899
Zr 4.996964100286826 3.0590942468276716 5.67058252489778
Zr 3.9177680133940416 10.333085668385722 5.190040546036924
Zr 4.965004466962117 5.566818698383019 7.177900475821651
Zr 4.448639970626354 8.468145917697877 3.0819233364081553
Zr 4.688412280808689 5.63688968900135 3.9144915724194393
Zr 5.505733835506305 2.6920593558628374 8.668596653613575
Zr 7.747926637011806 7.360776571541219 10.843163548426238
Zr 6.34621298840277 10.270587923693121 9.893693174489245
Zr 7.543262413519993 8.578573294606018 8.067035479300294
Zr 5.820766810636337 8.027330528960624 5.633406730663174
Zr 6.125903608720727 11.150441957742231 6.844800728714793
Zr 6.388559182986786 4.579813286424929 10.964708507454182
Zr 6.616839335899413 10.331172487051175 3.8299373385141626
Zr 8.595343704468043 11.452273108555163 8.41535185124541
Zr 8.145391183925984 2.610422458974533 9.7145337266538
Zr 7.745289761085468 5.360177817102824 8.3134661522031
Zr 7.2023230178598645 7.44315835410814 2.844496501014076
Zr 9.404444546534876 9.5190379267964 10.243255122638793
Zr 7.356561362970668 5.199820474179076 4.884665116175343
Zr 9.338254498412534 4.921876803186644 10.887429980315376
Zr 7.915626743538539 2.796274300461804 6.779530125809477
Zr 9.233014230161983 9.439841828451637 2.9432392930342406
Zr 8.909715173736865 7.845123306728318 5.630296451466666
Zr 8.959902904872967 11.007609195208762 5.624113216878646
Zr 10.393196049702357 3.8121545244878656 8.45915631784239
Zr 9.906738721724368 4.932607561380815 5.960677623276072
Zr 10.240108224750648 6.922182241882888 8.76803454143541
Zr 10.37553188446449 6.814670852116738 3.5156555160207397
Zr 10.798474002190092 9.626891583695123 7.588397015188669
Zr 11.3210309556913 9.445195659058987 4.684823032560688
Zr 11.810913765983797 7.107308448112767 6.199944552256398
