36
Energy = -264.24942414 eV
Zr 5.269299744462246 4.569552362982683 10.812015648674485
Zr 6.388336477296888 7.310954389784165 11.017903924999377
Zr 3.504466081818708 6.5956210751864415 9.710853350682726
Zr 4.973998475124025 9.300855521638848 9.115569052095479
Zr 8.192285641090827 4.660076668771226 10.835203235991617
Zr 7.378696029674041 10.115783828051574 10.685207646623759
Zr 6.544117261520845 2.712850406425811 9.061398581832783
Zr 9.432968956918785 7.911411310153682 10.661780896739073
Zr 3.9607905978071396 3.9917600163132763 8.188939992697833
Zr 10.253951196929963 5.6913542154172365 9.043404571393122
Zr 2.4826921890729423 8.659653548713493 7.6417125108842
Zr 4.856576769991591 6.899651493659076 7.0063595955546365
Zr 1.9827812389527641 5.9689969272838805 7.199343101873741
Zr 7.768384134770182 8.415164516672252 8.376742639938017
Zr 9.144088051240484 3.4177547533363923 8.05585765549681
Zr 7.098874731052442 11.364381636429393 7.963465896219313
Zr 6.844484716955542 5.598795444978988 8.507352292222325
Zr 9.740634850952311 10.498792731787711 9.190105022063543
Zr 9.560462028192093 10.764742999206387 6.284734999854862
Zr 3.004578582200839 7.634133208827289 4.913458513412587
Zr 10.735107566769098 8.100041200369581 7.715040182235035
Zr 7.447272081962897 8.676596061983672 5.636234885703825
Zr 10.365806535637137 8.017654054007377 4.820402680552183
Zr 8.445929962068963 5.872331042409687 5.934787813094377
Zr 11.195144249497142 5.073561441579936 6.337525790108361
Zr 3.6224563763299127 4.718135139574941 5.247931564192373
Zr 6.908879969887231 11.557517918139299 5.056059632193327
Zr 6.313822720491021 3.694393450435074 6.152780611042232
Zr 5.702926493910519 6.442165124635847 4.140643681876239
Zr 4.681679696582907 9.979942880322739 6.17737233462768
Zr 9.246829337523573 3.0153838856946393 5.21524200441517
Zr 8.154746973288121 7.243882254525987 3.0179306015482075
Zr 8.760251249060838 10.150766667834151 3.446997269189114
Zr 10.273069366670319 5.197249030636458 3.6133876581430675
Zr 5.825350409878886 9.433744701033932 3.366076918101371
Zr 7.562002078033981 4.258934813087991 3.351106910269147
