31
Energy = -225.61594674 eV
Zr 3.7896671935125124 8.497065144301498 2.9125827305768173
Zr 3.272304277144079 7.041482132427581 5.373220612879046
Zr 5.160049593138625 6.0967441914315055 3.302013557593323
Zr 3.2559199911193533 9.92966600130795 5.434922976109271
Zr 6.885551154127083 8.527311982543804 2.3383540076761307
Zr 5.127516244079029 10.884307475493493 3.3686376047375197
Zr 5.676082799158382 5.6797035370276445 6.227708310783756
Zr 4.402808626154581 8.169021491716046 7.783443367985733
Zr 6.005733206404381 8.578649592667942 5.053359877074843
Zr 4.500923942424119 5.213543871615487 9.176949704376723
Zr 7.896859789092036 3.4894400056086234 5.888969261229866
Zr 5.433908303554424 2.9956992846556547 7.4192801589814374
Zr 7.8173960975103505 6.111517921792731 3.9464824699174006
Zr 5.810175995129384 11.376984842962191 6.165499894672466
Zr 7.813598521194464 10.922369022665206 4.037724720692484
Zr 7.975691088308089 1.9505908401862542 8.384186945630569
Zr 6.037642554979958 2.779019907765717 10.228323729074422
Zr 7.699576226790038 7.723187216224517 7.354417832310512
Zr 6.353560571873343 5.127959097849229 11.544870492266343
Zr 6.065884703969409 7.656436109988453 10.2295392371939
Zr 9.306689606540928 8.546442856472398 4.497143225755377
Zr 6.33638040004793 10.150016829368639 8.666551976938882
Zr 7.467522521604355 4.951306922079305 8.659102329190018
Zr 8.66094185722151 10.536660731438356 6.775261429560207
Zr 9.78908116342768 5.788482324027226 6.042864263865755
Zr 10.150816675740055 3.572573250122598 7.8500955332279005
Zr 9.016368667443194 3.7108447233079818 10.670868009590588
Zr 8.65107625054799 6.632679364965642 11.186935378722062
Zr 10.589885454987712 8.418450293860882 7.184471654018734
Zr 8.88395372037544 9.002965828532567 9.597080743182971
Zr 10.41134099358335 6.209890050569851 9.01896084434907
