47
Energy = -347.34756876 eV
Zr 1.7938541633924523 9.080269896253489 5.508544569214074
Zr 4.448120929444681 9.349801585998096 4.2075632441314905
Zr 3.3129364456215433 11.150739263866988 6.457280681392595
Zr 3.0009935974086424 6.6537140115950235 4.361687803985692
Zr 2.0409402608257357 9.261757467553315 8.558371897339251
Zr 1.4802904515402062 6.772149878659645 6.956663475793339
Zr 6.335319812721493 10.898573757015651 6.341322162168296
Zr 8.709234808674307 12.51947108181187 5.638570232940671
Zr 4.256462500557111 8.360084177122575 7.213565147632433
Zr 5.768398291037915 6.352745314499774 3.1166396115994575
Zr 8.33715592092483 9.896420347565927 4.0072957393850315
Zr 8.117680191148974 12.25061471220142 8.394790866640914
Zr 4.636881212883999 10.790250957329807 8.940009378409622
Zr 2.413550938393522 4.161083058831833 6.309670229494948
Zr 4.714485249202797 8.10011624571113 10.340024394959071
Zr 10.878878895584492 11.22756976034346 4.586150279833329
Zr 6.6355939419050625 7.993207432073901 5.5306839052356835
Zr 8.590206972961997 6.756034411490435 3.2250740658505435
Zr 11.114957701014257 12.06952830513097 7.569825253697721
Zr 9.434113851966199 9.850845291664472 6.972143102381293
Zr 7.7144824413959014 3.895543669276128 2.8587101616760138
Zr 3.018381401439043 5.983826260984175 9.166288208511581
Zr 4.675428073533094 3.869752888801882 3.899106766903729
Zr 10.978108839342632 8.331245438543823 4.245046895162928
Zr 7.420551009938537 4.882639551317435 5.370487630512843
Zr 7.153854499813604 9.431914470263006 9.07184854765396
Zr 4.729292797598074 5.594986036173728 6.629123087384123
Zr 9.669807657959392 10.58862016229888 10.018141377044612
Zr 9.168160544182552 7.133468400812316 6.365155918003716
Zr 12.550339349524247 9.774626623472969 6.2595754435615705
Zr 4.102784983996472 2.9559327573823495 8.901086175963846
Zr 6.995372530976044 6.5479059821021055 8.494353113086254
Zr 5.447393218084288 5.0904152321463485 10.715153352095374
Zr 4.380917878265248 2.1526604929887 6.199576715648431
Zr 11.905897090074342 9.418045939064978 8.926843164438242
Zr 7.360402292583133 7.377176607274337 11.280831247614488
Zr 9.777118698947623 7.478174602716934 9.50184486317256
Zr 11.901917823815122 7.086720210763583 7.093010489358455
Zr 6.713858272242818 1.8562367481529545 4.8647490039173285
Zr 10.3928229820665 5.042634088093158 4.738286775421532
Zr 6.942319419568201 3.6692002172809013 7.873446099211233
Zr 8.49222641527413 4.636540380899101 10.540577450767639
Zr 6.5527203925149085 2.3976663498701947 10.51510910224813
Zr 6.462085256265254 0.949006523873763 7.896204948174973
Zr 9.906315057321443 4.638627057574153 7.803251205458853
Zr 9.129425170981571 2.3152436179489464 6.1068937926894105
Zr 9.039630908821692 2.07172739995325 9.077919371776058
