48
Energy = -353.91795536 eV
Zr 6.041341849360306 6.541167437780819 2.4563632438743253
Zr 4.935297116684889 2.785396343396499 7.037445138814545
Zr 4.0503904674517015 7.84927274851151 3.809033428201712
Zr 5.07510492342403 4.849467129167349 4.694804236401263
Zr 3.369252500079936 5.187671843173753 7.0688176274786025
Zr 2.682496825507747 8.092008662392606 6.268288830827134
Zr 8.781034263079842 6.6236435650155085 2.174760636336042
Zr 7.378488057927789 4.1343111040049205 2.7932483434469026
Zr 7.486032041055247 3.0163490633130294 5.523221896905224
Zr 4.691565358767426 4.297914550731263 9.67490311616173
Zr 7.248379727628599 8.929516425196528 3.9280742718753285
Zr 3.3849772696328673 10.164422580504727 8.242576096747682
Zr 4.471405184475693 10.336967308812532 5.36686941785526
Zr 5.572240194625453 7.689466469476271 6.298067176127585
Zr 6.47427935696335 5.169127166433288 7.475598370891269
Zr 7.26351157976715 2.734403697512805 8.874576774593294
Zr 5.0140433286606 12.089962969531745 9.956977349468483
Zr 8.062877682456632 6.036192936895045 5.087989039402339
Zr 10.458903239095319 7.762060922883684 4.066977379984348
Zr 3.6849694538002393 7.225548641293081 8.982109721175604
Zr 9.807288510650752 3.5350301731829448 7.0294951090493605
Zr 10.085145807713495 4.449515471862102 3.931801792002614
Zr 7.317934640608105 11.626623291470217 5.6782388620621465
Zr 4.773524646340163 9.358115145258791 10.99143745531756
Zr 4.9056614514114605 12.508784926043354 7.208614524141913
Zr 6.447133043492622 10.12258642013342 8.17242887049878
Zr 8.710799552119774 8.501606829539298 6.626079658211604
Zr 4.926448566945919 6.551744828814275 11.640987280940333
Zr 9.12838059047121 6.14030181755145 8.484069308306145
Zr 9.776255405855622 10.491496260755664 4.640845681854656
Zr 7.301494124469676 4.937397489942216 11.016359583852102
Zr 6.66592947055769 7.519481418650512 9.488489818190475
Zr 9.701916620395092 3.6415247413447123 10.117670142357872
Zr 7.487277014844499 12.8370723389285 8.56452386509939
Zr 11.76206284833223 4.882586164188305 8.898915879376567
Zr 11.338653331504293 6.06861566147287 6.193540608194242
Zr 9.357089753698945 9.316873636080894 9.490301007693114
Zr 9.864077214906084 11.584789212411437 7.356720938740847
Zr 7.32068497031781 10.893432897789971 11.212328617905515
Zr 7.406309624758326 8.05435753706108 12.198483322711146
Zr 11.63111338515842 9.299257804090317 6.505384781127599
Zr 11.879143315280427 7.681978029467766 8.782617392155453
Zr 10.109821341472985 6.5667849729178815 11.147620362644252
Zr 9.92129786189714 12.176786352086648 10.470156237552091
Zr 10.007193977659297 9.604449176463207 12.363506130061715
Zr 12.10342906349102 10.677856946857927 9.397557275939754
Zr 12.456036201333852 8.467199799189272 11.41462634654902
Zr 12.200672928332681 11.268679687079178 12.161411978599176
