40
Energy = -294.85213363 eV
Zr 6.118341726183369 8.482367927608601 11.489205742056246
Zr 3.4241764427697805 7.521089622251959 10.774866021083017
Zr 4.217084039859081 10.069804902060005 9.758940173942968
Zr 8.102463793647596 6.2062904425050816 11.771165465428385
Zr 9.078057747864783 8.678590935628737 10.9109270988615
Zr 5.5466316012908345 5.477678752885713 11.011155423278197
Zr 7.216502311700795 10.298143076046593 9.195611285591301
Zr 2.680658143903173 8.16441528509051 7.89165563366637
Zr 5.497079453973961 7.694103942375337 8.634255466375452
Zr 7.964188331819015 3.8618326990576266 9.970713476729347
Zr 3.2595576513522455 5.293501708365495 8.973627861472558
Zr 10.49168037632971 6.053701660119178 10.038209185577006
Zr 7.021471359658711 12.104891248992146 6.64305963746076
Zr 9.626603310748749 11.472476168351664 7.449707804410217
Zr 8.26660389681096 6.773474052932036 8.684790916223971
Zr 4.77766911016442 10.283867869883355 6.976386968771474
Zr 10.555373279839557 8.974380459066166 8.606827553923866
Zr 5.219752716205477 3.0878629927031556 9.557315860426593
Zr 7.822938779314788 9.22604602398642 6.558471276938878
Zr 6.357770569574743 4.980558555667594 7.369804359585434
Zr 3.976576610481892 3.078237070883672 7.106090661504512
Zr 3.0551706081161965 5.718481915389594 6.0653328754301095
Zr 5.7039616488596065 7.424161435681983 5.489208952188742
Zr 8.9328910665529 11.218299439728558 4.598991240891829
Zr 3.3160561864612794 8.673685147834867 4.792954628790984
Zr 6.04276405680469 10.44444140793383 4.32088923717931
Zr 10.778729986637064 9.255282537863662 5.7338428540449895
Zr 11.386615543406254 6.528861218269798 7.091539993173252
Zr 3.9034020119975494 6.096763447729221 3.4370837387087914
Zr 9.55496783899042 4.058328189236726 7.569965242492616
Zr 6.8760105110394685 2.286797582946936 7.198422690903676
Zr 5.242874099669095 3.7918273654179213 4.752151486348575
Zr 8.399269348477143 8.395390913189072 3.5028179689343606
Zr 8.72078476925544 6.323436421192929 5.53824132149428
Zr 5.503601955265056 8.214895285467525 2.614091947151342
Zr 6.788860561238989 5.563089303798801 3.014965330019061
Zr 11.318050759203297 7.100021977389718 4.0646925131531875
Zr 10.992119641179412 4.4381829469798975 5.06460936368354
Zr 8.289090601798536 3.4008077726610084 4.695688923039647
Zr 9.539331059895648 5.417894992807722 2.7760145900225544
