43
Energy = -315.42435127 eV
Zr 9.410936100086653 7.001177585216713 2.9734332036652105
Zr 10.20915827869199 9.68517970367327 3.8503378840697287
Zr 8.029902160054881 4.261168837417364 3.7234397173900837
Zr 10.603939790907326 4.86852045771346 4.528349916382556
Zr 11.372379472732167 10.489574374228225 6.320607327397428
Zr 6.672045209432942 6.57607738529374 2.588452952552491
Zr 7.398614344365746 9.252830953496465 3.555577554309188
Zr 8.977849156846169 8.972087976881411 6.595304462182708
Zr 9.140298132449214 3.803424640408071 6.74194759915088
Zr 11.293756648387914 7.43383859235374 5.454056492083419
Zr 8.453110970298054 11.65420774519333 5.338697561330504
Zr 12.001183741914621 5.042965322718232 7.160756853108104
Zr 7.786919019756625 6.497168829257525 5.473713637624165
Zr 9.770551790991803 12.489072442046702 7.630498055435167
Zr 4.799978301283097 7.8922852424842755 4.341563511836936
Zr 12.187236024614503 8.004711533755657 8.220935829851289
Zr 5.243981565341866 4.981603987301404 4.377228206234029
Zr 10.416517599385712 3.5742208771024417 9.225685806662213
Zr 7.590417062772786 10.295504332482732 8.49995126377421
Zr 9.612058848838409 6.364114340660854 8.2866989081989
Zr 12.131521772708895 5.654621527180797 10.006686422167123
Zr 10.6591105080518 10.343096310699092 9.393045412999644
Zr 5.735790044596893 10.443576673182141 5.864738391367309
Zr 5.963930104771565 7.73677009227046 7.70590467150657
Zr 6.700203172610559 12.84717423149067 7.825683299796761
Zr 9.603117605004893 5.394919542647951 11.436980165953539
Zr 6.217326191514461 4.383226392741303 7.098447013666645
Zr 8.722307670560474 12.584631269672936 10.11920887772284
Zr 3.281312096528491 8.875621892459264 6.423326628954685
Zr 11.040205006605994 8.052255771665626 11.08173517807596
Zr 3.755570986519012 6.006649093967989 6.638501494407085
Zr 7.993195963012891 7.949058918414662 10.330084607205617
Zr 8.899676723932929 10.380231130273177 11.946701149727122
Zr 7.56096521429104 4.430198648714891 9.648655956599292
Zr 4.487117342593147 10.665318097173865 8.43414683389497
Zr 6.1916657040183125 11.487512161103266 10.853330403676184
Zr 3.007490592292281 7.749953665208499 8.991398223270284
Zr 8.833036800423892 7.616209935583963 13.143671225885571
Zr 4.758832175289355 5.492726082749606 9.578099155239089
Zr 6.417473188338596 8.980502276482252 12.847927125504429
Zr 5.076422909904861 8.645886761763261 10.525597138570872
Zr 6.521834796130224 5.958798187514871 12.103909725424773
Zr 3.7506348851276905 6.853616062394801 12.105301210603791
