49
Energy = -362.96115985 eV
Zr 9.798417612393315 11.248281212953344 4.587161908246067
Zr 7.326548336686127 12.103981296824754 6.1737856015684605
Zr 9.058956039299895 11.316594154740713 8.17804336653685
Zr 11.3416258001327 8.595568446911086 4.218552305580015
Zr 8.994329007363035 8.977431388695166 2.5510191085232163
Zr 6.846097077694286 10.839311824142374 3.5694346874469396
Zr 12.649830614325634 6.137144742378018 5.69068162033246
Zr 11.638422613293548 8.872452515776102 6.93025394077755
Zr 8.737480996569259 9.213540248394489 5.92399327212586
Zr 7.778360696306523 9.823408742569779 10.803387360602931
Zr 10.639991336214806 6.075928697826119 2.963747007433413
Zr 5.915175248545236 12.030861406344068 8.887741151308413
Zr 4.559299465635224 11.373183425480505 5.96676019939942
Zr 9.539803523714554 8.482018152604967 8.86438958421924
Zr 6.042802348329591 8.179644023214214 2.058242128856518
Zr 4.038516705770634 9.825026566027168 3.342862609082658
Zr 6.495197168317059 9.611128506698478 8.051957086261307
Zr 8.230321539946694 6.217233515437399 1.3517098189169439
Zr 9.952642166267774 6.28028454604104 6.127961010526537
Zr 7.751920121770382 6.709556677210545 4.1501683458011875
Zr 7.477304875202454 6.794142474846751 7.386892253978938
Zr 5.71698150167182 8.656484489780807 5.351259032315336
Zr 11.760750394182738 6.475055012248273 8.629336252360469
Zr 10.952746218177353 3.75721503006423 4.751741381003946
Zr 2.6799360534264878 8.981027889599833 5.693100202371759
Zr 8.376137610124495 3.9615855529313597 3.4160173282141333
Zr 11.323312277739884 3.954043355932679 7.470315967233529
Zr 6.296296692716001 7.149385424075402 10.023800303321389
Zr 3.961397997672547 6.801468517657798 3.976564796674191
Zr 9.135507342600976 7.060753670740752 11.2943071759153
Zr 5.894420149158273 4.824994072461259 5.460552615266928
Zr 3.390183024199626 9.760456247454895 8.382749341500338
Zr 5.0270584086393075 9.716457682340655 10.942464866375502
Zr 5.8280039474138 5.125701647173415 2.4404518389293446
Zr 6.760943508900768 7.609249479362095 12.754088686355239
Zr 9.082675390864459 4.946703818648713 9.250553636787249
Zr 8.392634680656663 3.5683585842847343 6.6513501056865545
Zr 4.376098255267833 6.830152022880549 7.355571445121373
Zr 1.714989190132207 7.157514299263823 7.949811753377122
Zr 5.890478910535025 4.478276225399679 8.672389781882691
Zr 3.4140779005591 4.000900327571051 6.810764881046048
Zr 7.394114415035591 4.7089426115078865 11.752164899464224
Zr 5.82679295852159 2.124284059137291 6.663818506854014
Zr 2.9993080916561095 7.647257045850846 10.389153346616839
Zr 4.528062295521199 5.791781976674371 12.037635707400373
Zr 7.288236505718199 2.2133108264547388 9.437506513866833
Zr 2.9329287324962237 4.797352545881369 9.636006951676293
Zr 4.189108473790516 2.07069424528587 8.94349613945699
Zr 5.0046084742505474 3.1487264604069836 11.300321964976963
