46
Energy = -340.38628734 eV
Zr 11.017267882632542 9.051648499704484 3.337133424265256
Zr 10.573203214330716 10.180898291907795 6.181976120055093
Zr 11.945244970509549 7.402574660167332 5.582503368345231
Zr 8.623484590794556 10.651672301253214 3.852850501328066
Zr 10.448674363892366 6.058474929697545 2.972536586624271
Zr 12.046578862197883 4.6187432871156435 4.84026315569547
Zr 8.332297470661986 12.13437917868238 6.396021946962067
Zr 10.013905194933601 7.918673003614251 8.153187211708154
Zr 8.49364793297538 8.173898649565588 2.180963869209613
Zr 11.846308281223784 5.235513633005342 7.774337698682213
Zr 7.5205333546824225 9.348443210281584 6.53685799574765
Zr 8.949353135683687 10.515601590459589 8.8343240925756
Zr 9.526905363326625 2.9975065462388213 4.041396857471201
Zr 9.065017764028346 7.693515401987429 5.035252180038232
Zr 10.795643030583603 5.99912131042957 10.354568653486949
Zr 7.500960122557575 5.585916425735477 3.390431303397395
Zr 5.746002075584023 11.241909160140533 4.99760265834251
Zr 11.16539658430169 2.6660812000444305 6.560671282852104
Zr 8.379556359371058 7.460888446851887 11.005091378106812
Zr 6.016639425559884 11.295689603305942 8.148105647210087
Zr 8.239424063059008 5.506597922914717 8.742690373247452
Zr 6.086688096820214 8.618328358291764 3.8168006178445
Zr 9.23908330978686 4.9642804758298675 5.964266973935089
Zr 6.613032316560062 8.501042048342361 9.148079184208685
Zr 3.4788174289296823 11.751611950236457 6.549446103392272
Zr 10.227233567275993 3.2303536239839126 9.290004841331683
Zr 6.450045274194728 6.269680048325857 6.1723821479102385
Zr 8.662550310708122 4.553968707354594 11.538580750052562
Zr 4.427662617614786 8.918884763820785 6.734557144099385
Zr 2.9604706531858547 9.495616120959932 4.368158146659553
Zr 8.391330775785205 2.1540487924741747 6.965526001922487
Zr 3.2798928795406948 10.409074514799062 9.175632714468382
Zr 4.082673280451735 6.655068349298404 4.421674863124117
Zr 6.602567016776555 3.3835370299618464 4.8834763758482165
Zr 5.846053002647428 5.497102793123088 10.501582164676122
Zr 7.299111049650475 2.7848555395758923 9.855853993330737
Zr 5.945818529543443 3.6825705636267223 7.589723615259956
Zr 1.4619403308185936 9.892937278285293 6.923689535541837
Zr 4.1745197114129615 8.161239053185797 10.765040807551904
Zr 4.156937281174645 6.441619508014832 8.256250248249065
Zr 1.6999658089650684 7.145898207922673 6.059264733796565
Zr 3.3833518937101275 4.469103223283445 6.157565641149256
Zr 1.6060320685253986 7.988694154239889 9.080413972889724
Zr 3.642614031164978 3.6068410947282827 9.099115864607533
Zr 2.7108470778595044 5.753378902976576 10.769472219804296
Zr 1.4021572992379068 5.18294941729669 8.22883513870265
