40
Energy = -291.30073053 eV
Zr 12.930636815985302 8.54442490622842 7.423350190284491
Zr 11.963409954196743 7.273958006471081 9.629106084586258
Zr 11.790602524641967 5.818866358087569 7.059274387398225
Zr 11.323267951081485 10.479244499003718 6.320304801794
Zr 11.109225477335189 10.142568411140553 9.282580864171285
Zr 11.51894249235364 7.875737483844972 4.954293642545464
Zr 9.844431838596226 5.438023128835111 9.421947690186524
Zr 9.66170578877915 3.402310816205283 7.395261765737532
Zr 9.799763292463048 8.030658329109638 7.532597398419765
Zr 9.518695443924063 8.18653535765968 10.8865833710256
Zr 9.300795585272018 5.773597488061154 5.25504684991336
Zr 7.309117709412041 3.3424142465429787 9.481643073627778
Zr 9.064095304597613 9.518694052550305 4.931425132291352
Zr 8.29055924058348 10.932132999393668 10.483904467174266
Zr 8.507675463865494 7.362979073334247 2.880960606221704
Zr 8.842596331478049 11.309057459750917 7.549022180223091
Zr 7.882618021087812 0.9866174859257074 7.884975839301498
Zr 7.20104561415131 6.232913374626705 10.315038529590844
Zr 7.283524928278086 5.487232358431318 7.3712700314608135
Zr 7.375721965858184 2.918457631739278 5.836833904977528
Zr 5.2186600386140025 5.43521386888836 12.01709475380389
Zr 5.337142314144265 2.1283309467743523 7.781086712017786
Zr 6.662432667401192 7.841050868764856 5.164762503182228
Zr 6.954269997044505 8.942950540340815 8.699439474430061
Zr 6.819173678552639 8.57912504368862 11.845395169200787
Zr 7.026779634119224 9.922822575016312 3.024574181888518
Zr 6.503653348831986 5.193945474282017 3.8862800609753276
Zr 5.904389708375023 10.635700711548022 5.9690916482733645
Zr 5.724122630827688 7.431357337367421 2.1810037720856053
Zr 6.2081757310709005 11.90178143980649 8.555194363909687
Zr 2.4715306685093212 6.5345108998349515 7.280090292129472
Zr 4.693141239110858 4.837704868923079 9.140876290986371
Zr 4.9335760933580985 7.244356710084085 7.2850953771870985
Zr 5.272236114408391 10.590126059352947 10.83754231786154
Zr 4.648321795743127 4.418945578365673 6.0428993488482075
Zr 4.4150914806993455 7.683062710826605 10.266464595366097
Zr 3.037741528723812 9.0844683524014 5.8189813205590175
Zr 3.7355872010920366 6.640308441284854 4.279334182494125
Zr 3.9857816896949556 9.985768678574974 8.332864887905227
Zr 4.337668621910719 9.443326390608991 3.519378424028356
