46
Energy = -338.35946891 eV
Zr 9.831034766524558 5.3978128337043305 2.3211823799061624
Zr 7.943232707079621 3.6378717220796255 4.119634194051656
Zr 10.327029841220408 4.838443283668681 5.346648028329556
Zr 8.29210042593124 2.151438936599155 6.467404310522736
Zr 11.231854856759075 7.225969090985917 4.1064623999197165
Zr 9.691777574171232 8.321429876746517 2.164512414228096
Zr 5.601881140035329 4.897503617890385 3.4617367908277537
Zr 5.35044094179778 3.045564918060098 5.677237858287076
Zr 8.650078560353915 2.894153792154374 9.120905113341419
Zr 4.586253916933496 7.450981511094157 3.319311170050444
Zr 10.587208117215983 4.884599226392013 8.250292121879486
Zr 8.041121559040933 6.740963741514916 4.094962204143237
Zr 3.0650581533563983 5.092086363025535 4.976865870809816
Zr 5.867309954053746 2.006535763996017 8.413128794062382
Zr 11.995759009809609 7.123315790419995 6.935162177810564
Zr 5.094315564005797 6.653972217607266 6.15602455557381
Zr 9.686691440961338 9.61879973936371 4.96233224625418
Zr 6.934213144410827 9.289917658533321 3.0303517951727366
Zr 7.642625238185799 4.946633660962235 6.846812773393414
Zr 9.207459010052267 7.367972370986875 7.056575182281668
Zr 2.565819094282375 8.049595888155567 5.26851805591629
Zr 6.820884616056746 3.2509735944246767 11.047606129720885
Zr 3.179078714360925 3.529870147785712 7.722758743822402
Zr 5.45484851357019 4.9818406634427825 8.838843192532522
Zr 10.746184555624207 7.556789266658229 9.664516970396217
Zr 6.909007076619427 9.144056604876706 6.118473046978776
Zr 7.367668621251224 11.595160722780648 4.478896701305142
Zr 4.6045263604332085 10.119991369064005 4.694452662742056
Zr 4.118334413409376 2.999187476151917 10.59235218341431
Zr 8.400727653373506 5.644175165172336 10.15145538746564
Zr 4.042148267952388 9.282403577941572 7.568830240129252
Zr 11.425720120910507 10.013338258950537 7.795342719997069
Zr 6.537173603752923 7.678050858112877 8.791086275596328
Zr 2.4398520868658085 6.5649776201807395 7.698594442488807
Zr 2.7186308105982047 5.262474801030743 10.253276924337737
Zr 6.0866820602913725 11.903467883059054 7.048177893401804
Zr 5.4303328133822895 5.71262263248278 11.63065273376835
Zr 9.213582238945095 12.160594646775525 6.652002708395307
Zr 8.613322636874877 10.0695620226591 8.661173143487845
Zr 10.780580959117943 10.018464273850674 10.827735724849465
Zr 8.075130348912333 8.545402699698766 11.231120667206842
Zr 3.9029053956770166 7.740573152085779 10.070569411546789
Zr 10.385112648222965 12.392727461765144 9.348401957107749
Zr 5.962040281206542 10.438377524999169 9.901135775133982
Zr 7.581278007114853 12.9185320339263 9.086108470591524
Zr 8.382857965339129 11.474265570656527 11.370178770992641
