41
Energy = -299.42984494 eV
Zr 4.626429248520145 10.920431740702197 6.258574467822966
Zr 3.9203865552838058 6.227444573510711 4.5272896575505985
Zr 4.810161604385108 3.814335292318967 3.511531625418325
Zr 5.646996148184092 8.578152257058898 3.9860919494944738
Zr 2.9946171841862714 8.71782148102795 5.314496828082189
Zr 6.879279489261741 5.549030989326051 2.8231606306713597
Zr 8.596879903744913 7.743576034573329 3.627628851890934
Zr 7.583248940091352 10.486363311495266 5.077174710174706
Zr 10.42785623627127 9.698147440019586 4.54332781125367
Zr 7.020284434525687 12.072519853763636 7.7163492540334095
Zr 4.686758943994295 3.497699087798914 6.270134337346441
Zr 5.515688755577337 8.295636728032727 7.134842350641735
Zr 2.9128105234070234 6.479424781072113 7.304768247096969
Zr 2.8000104163821566 9.286383741588864 8.019656426591602
Zr 9.304531412315727 5.016204218432808 4.673930119950182
Zr 6.599482106479491 5.815802391043516 5.750173332280066
Zr 7.179340405494669 3.102663008323469 4.564690961063333
Zr 11.4583422967484 7.0564613541639325 5.636572624871935
Zr 8.746867820000624 8.032166139221541 6.43839135869579
Zr 9.85538655154181 11.294198901937996 6.946338422224861
Zr 12.151075856714675 9.611684542679674 6.708324410539798
Zr 7.925397212570931 9.638350535077453 8.943583589136654
Zr 10.21653704951014 5.288940086131796 7.5496715597588375
Zr 9.394420595795832 12.312485677751585 9.589118505492761
Zr 11.691355823440423 10.538471017718004 9.402764639041758
Zr 10.253557063403667 7.957809693801741 8.868138607050886
Zr 4.919927173339461 10.556695037433732 9.390332852784546
Zr 7.735834946520573 3.661918286147253 7.411023095185858
Zr 7.522813790940498 6.482869082769595 8.95963538840052
Zr 7.044213494979265 11.736939129656177 10.831899428222485
Zr 4.437610467691085 7.594311040748939 9.910387149195216
Zr 13.003453106455535 7.685547066905152 8.616589147336704
Zr 11.535315131771087 5.741627234418491 10.352188092370211
Zr 9.482427181277243 10.125510598518275 11.59100107849441
Zr 5.034278760013818 5.116695779109361 8.530292381909938
Zr 11.898647837907712 8.336471568806555 11.319469497213506
Zr 6.626337467963206 8.849973041629916 11.528729572827107
Zr 9.04876073312031 4.445555688823852 10.555733136046848
Zr 9.165202868232031 7.158073236614784 11.831028723093146
Zr 6.564188003788417 5.734410606486869 11.663574061890133
Zr 6.527173684187885 3.4344543292096166 10.059358023857934
