49
Energy = -361.66160427 eV
Zr 9.595746829026163 4.019826253644225 4.196840998097007
Zr 11.474220014348887 5.69646651270816 5.992461361503444
Zr 10.852803608135316 6.613984479017151 3.199592137177306
Zr 12.315084860678901 8.412395196136547 4.894017805205414
Zr 8.762735719892675 5.244397982276137 1.6208123730748443
Zr 12.475010546015307 8.33481164613878 7.750950165068989
Zr 9.716589889742835 3.573534167798163 7.255904158346604
Zr 7.032392833555905 3.595564400870818 5.859581733627775
Zr 9.920520118879026 9.52304245481566 3.676190013332621
Zr 8.708356833017573 7.963049124867951 1.656593764424725
Zr 11.054376376097604 5.897386660733686 8.93892558258026
Zr 11.347961156452957 10.854013877019817 6.278516950618767
Zr 8.000908085157349 6.571020658336405 4.429149344108967
Zr 9.793816844983734 8.092971518760384 6.42518561581156
Zr 12.161148739229503 10.904058813824797 9.071447822470441
Zr 6.779370604286551 4.033822997016226 3.0875687472550117
Zr 11.083176272968542 8.428834873545004 10.474475035823543
Zr 9.389050359347614 3.8220808741940866 10.093804444117003
Zr 7.033453788517076 2.898607316040986 8.756125297356974
Zr 8.552349823145578 11.478899292388043 5.640855174792343
Zr 6.876772990437478 9.335925208675107 3.3697245780684577
Zr 8.050885613196698 5.77328881834414 7.910935988002453
Zr 6.160086779093716 6.635939509599162 2.031498304033825
Zr 5.136920523010258 7.051928519976067 7.40105843253863
Zr 5.053076952323955 5.681750820639348 4.724144895085647
Zr 9.345188662638016 10.034666527566026 8.43097653865795
Zr 5.627411580950622 11.333343532652098 5.010717032176886
Zr 4.43681598009276 4.017640307379959 7.396715945698215
Zr 9.025500887847093 6.332581505195809 11.232308084235763
Zr 5.733230552114701 6.089761583925796 9.976566083801515
Zr 6.923466329500398 3.97854354165278 11.617868022512166
Zr 4.122490163820074 8.517076634198318 4.879248233844543
Zr 10.339986930653458 11.32668003494962 11.056846181455482
Zr 7.420339651619363 8.434320706262653 9.506906474883921
Zr 4.4491817322130585 3.285611825048566 10.085203308346298
Zr 6.857004211240583 9.028375466198584 6.324185678615338
Zr 3.941752542590575 10.51024050482418 7.005348328448001
Zr 9.724385698857967 12.688554406933807 8.423729868014696
Zr 6.6589621613632435 11.52957589273785 7.892052574939172
Zr 6.4099141785130955 6.727817488047408 12.84414828122185
Zr 2.6368272259336836 6.0240427625425 6.277481563127886
Zr 8.705633008835271 9.251073064820718 12.151922858701717
Zr 2.809927759296398 5.813408502030876 9.332659799389106
Zr 4.102332886740911 5.005102725848775 12.169873775411409
Zr 3.710353626473016 7.676911373834391 11.777481156315808
Zr 2.3026200458035757 8.358200458933354 7.622646941549861
Zr 5.848457377875942 9.482475334734918 12.012628712612324
Zr 7.50191347140029 11.497316653355641 10.5541075924209
Zr 4.528078495909102 9.382627493549284 9.4761302025241
