42
Energy = -309.55486035 eV
Zr 11.707166459068384 6.430126512504566 6.630292705034814
Zr 10.271985301730808 5.996331168445584 3.6980461102566733
Zr 10.491562946950967 3.973387271563317 5.7018058283519935
Zr 10.484684689662013 9.35396652595843 7.700033577347663
Zr 10.390343326030957 4.240647860213032 8.523688947490275
Zr 11.096932518746355 8.667122996329976 4.885661856736597
Zr 9.980598512169129 7.1018484962890875 9.472746773085573
Zr 8.993659740999401 4.848054178285505 11.079706968941586
Zr 8.249667397798607 3.531879758408793 3.931876857406978
Zr 9.072582787797906 6.775601224859163 6.274050589306358
Zr 7.586545424615896 6.0395563422640945 2.2557964422321475
Zr 9.056127144056287 10.554544943899066 5.319759464565591
Zr 7.511378575100841 8.662849897775159 7.705247696139833
Zr 8.086749713030237 2.6390956034185957 9.825316743629637
Zr 8.397847109599498 9.720398388463162 10.272535348045864
Zr 9.199039812553732 8.69465726766285 2.6426510247859665
Zr 7.529633871491825 7.1170642416054015 11.449379586274558
Zr 8.328053401552285 2.5568983505236678 6.905852115803458
Zr 7.4809268216274765 5.3013270279367655 8.524244082223658
Zr 8.291308483613307 11.48083788440391 7.945333811204211
Zr 7.030760937056516 8.30408910659731 4.4949442074868955
Zr 7.0642696892114945 10.921973107032585 3.196279372762008
Zr 6.362198582792356 8.627423390106767 1.643765355640668
Zr 5.660035749041046 10.880514777824684 9.164628229622224
Zr 6.5133002039891466 5.296478796915472 5.562931021597259
Zr 5.746979600532077 2.6400825187581227 8.432411412045616
Zr 5.780072429702019 4.664132390009742 10.795870095298566
Zr 5.5278507771087115 4.075986639272288 3.023627029403644
Zr 6.009894466668931 10.814098104082033 6.044167111813151
Zr 4.619374785769109 7.130764958694783 12.175969922896341
Zr 5.226974751738176 7.5151107984263055 9.30065510252319
Zr 4.624540246325237 6.77008715551957 2.9357221875028268
Zr 5.818482974426434 9.544882753106592 11.635630580958745
Zr 4.463085961934006 9.631315649948592 3.760018307147318
Zr 5.581439185313599 2.626994803835513 5.559790087338642
Zr 4.784016286801154 7.627386094838481 6.147508089259081
Zr 4.214872997752055 4.940208350419296 7.797868477387233
Zr 3.5179450951626556 9.877167762279322 7.444263442378536
Zr 3.5761309655839195 4.989810205212376 5.04133420053526
Zr 2.858015120412869 6.012545590549589 10.328815451273547
Zr 3.1384105412289527 9.135393871634465 10.336035540934073
Zr 2.3612213129606174 7.328914674948279 7.915997537484612
