5
Energy = -23.97214388 eV
Zr 6.392293608238675 7.008252165010831 6.395317023194632
Zr 9.423418754278341 9.377206115368105 9.437361449296654
Zr 9.717111297159622 11.795086791807568 10.499317554311894
Zr 11.174621388778258 9.778036071612412 11.328505290874931
Zr 8.293016066032065 7.450939568233517 7.574735238305946
