5
Energy = -29.47882184 eV
Zr 8.079732464369547 7.464558362242447 8.759435478150246
Zr 7.3613908446963014 5.969771953384775 6.490865358387743
Zr 5.434992208644078 6.531203086345277 8.333471897552458
Zr 6.4973533534049395 8.6325163539043 6.769677159492236
Zr 9.193970108458693 7.932921174346857 6.184366795098656
