52
Energy = -385.39405238 eV
Zr 11.162205719990242 9.942768691295374 5.422949880030813
Zr 11.155636591002892 10.518801447094836 8.501021466333638
Zr 10.222973137128696 8.732020230596921 2.7132592453102693
Zr 11.869721444455214 7.764864697682525 7.858938137414051
Zr 9.21542625574872 12.004868651055748 6.795260967969964
Zr 8.572674539296079 10.977876375936518 4.041117711159315
Zr 11.358745318306152 6.885226107109615 5.223042442116976
Zr 6.685284726977557 12.892045833319948 5.452906410213805
Zr 7.140082661222844 9.388870602570396 2.045775610712739
Zr 8.47651513770669 10.852585328648562 9.562980844171053
Zr 8.516090846067593 7.652496416764132 4.326419904325743
Zr 9.15596293807195 8.912394293330319 7.210758168756417
Zr 9.523260220241632 4.6304139598295775 4.577907315944336
Zr 10.815773968528488 5.406464063850751 10.36104639875443
Zr 9.830728201750999 8.247888574775738 10.163462159217028
Zr 6.480505792599157 12.253474244662993 8.22918374688881
Zr 11.593032197496775 4.372954692644372 7.029545887792803
Zr 5.3723021825614445 11.22898546040073 3.5538407178682347
Zr 6.581732981771428 10.026747838754273 6.189735733026662
Zr 6.665630441072555 6.693396204404463 1.882965690794609
Zr 9.474910019542413 6.004716753519355 7.549256753979251
Zr 4.074596407857732 11.672348163286344 6.557750393172248
Zr 5.320928820945749 7.987218422271397 4.27229399862984
Zr 6.775369362428909 8.42561622117739 8.801826009617546
Zr 8.894071694395029 6.520083592727643 12.488037829350905
Zr 4.097395208019379 8.578822114807487 1.9566431948075977
Zr 2.0301310220144146 9.520773403291852 7.325413266606672
Zr 4.489727013843889 10.239087689315829 9.108571985805549
Zr 4.017320263646033 5.733029801312117 2.6503994605166095
Zr 9.94563326171393 2.1688997524276536 6.374413764171025
Zr 6.813191793264385 8.23913064895203 11.539343546954226
Zr 7.82938259778644 5.747287987557436 9.841587905853205
Zr 9.588265114267061 3.0291075138414407 9.209302990702605
Zr 2.9244847891236536 10.065646188254206 4.495420219112636
Zr 7.54165841439915 3.7597195839253374 6.948567401790209
Zr 8.734738013410636 3.819081992069859 11.903766277571407
Zr 6.838169712461772 6.609025826328563 6.369957001204993
Zr 6.450548447582746 4.604666536805277 4.04152254505732
Zr 7.806697419272771 2.0192641908584408 4.613721258944608
Zr 4.228008582569939 7.998235550527517 6.990043370317522
Zr 6.036497357214292 5.303962974159417 12.032682050550427
Zr 2.285053737859157 7.39651592815469 4.580989875014943
Zr 4.309828354619304 7.1404098151219335 10.100512687388244
Zr 6.562048939457337 2.813452742160126 10.309485226421605
Zr 7.329912223458126 1.0469222370027136 7.477168664798729
Zr 5.211022522911312 4.928321487322743 8.196008429809513
Zr 5.063261982185387 2.2399465994799823 5.700921984855124
Zr 2.3845995789046364 5.976171693842954 8.03086042038857
Zr 3.877579840804205 5.120252662347519 5.459531459318865
Zr 3.6026627771489452 4.067196362708846 10.270574823062212
Zr 4.713206097736369 1.7541866556672416 8.589079013167654
Zr 2.725991086087581 3.2136457073290416 7.42697041464299
