55
Energy = -408.55643821 eV
Zr 4.785023159478022 4.647635502840055 2.553810399758808
Zr 9.35243020758291 3.775726116266874 6.728322471183349
Zr 6.60288003658498 2.359953685268421 7.01815771130329
Zr 5.634347558234456 6.917595831175313 4.518370459180993
Zr 4.190583766344091 9.5222088562002 3.7180129395572172
Zr 6.637693820633567 9.053467272919518 2.1405485634827324
Zr 4.3742324856771635 7.3539601221912765 1.7046846822355475
Zr 2.1450726601096637 7.561985356560161 9.025489707620489
Zr 8.497944137643708 6.159938118031537 9.537798576108857
Zr 7.335947678305456 9.48471379781167 5.253064341516422
Zr 10.605705887372222 7.325957524203421 8.031104376884619
Zr 8.435699773568247 3.007960225727644 9.505306122392371
Zr 2.765972751724615 6.5430683517080865 3.8973198958373065
Zr 4.304545904873431 4.540218183449967 12.19101929325026
Zr 2.84869223836438 4.600115758896256 9.73771197813879
Zr 13.436188538066894 7.928885213255356 5.962898918076093
Zr 10.194443835147482 11.030929734921875 7.755794144213674
Zr 11.870628034765847 7.504599342861444 3.636264672381334
Zr 4.9650942371584605 8.108905270739589 7.489369801614013
Zr 2.8202551938582396 10.245942579489478 8.409176617639334
Zr 4.390919445385787 4.072335350942646 5.189526338688982
Zr 8.216305842466 11.493703930321425 9.83372638570188
Zr 6.971139483852295 6.00297769286517 1.6638477031067094
Zr 13.28816495557651 6.50635332929479 8.422981269889606
Zr 10.282671538369561 8.734992973231366 5.681976353084437
Zr 12.261634435016434 10.517729324022984 5.120678006911002
Zr 6.616256244976713 11.653664115376795 3.8633395643103143
Zr 7.813049701388586 8.923513648820181 8.260719933057086
Zr 5.2960824647579665 6.622643925756171 10.110238321045337
Zr 11.41993825245461 6.699451029425776 10.83647081902103
Zr 11.178735767713126 4.402347789369109 8.906725724116013
Zr 2.8782046239575796 5.726907239251424 6.893293745214929
Zr 5.488426400804102 7.138304243499266 12.921351155226391
Zr 3.834336575738668 9.218825897870742 10.979125503112666
Zr 6.055969992147476 5.077689106992303 7.572511616256209
Zr 10.041604852442738 5.062556242926773 4.039070332759512
Zr 2.415137499599805 8.661155160205464 6.052099173873682
Zr 8.686366141118107 7.4265291641802795 3.335507431399734
Zr 12.632764667585866 9.519876497954778 8.168113785069659
Zr 3.822702585255021 2.9432932651667896 7.65745761451088
Zr 9.948841652682974 4.447612086620878 11.612302123368577
Zr 5.510353972684256 3.0138241715987437 9.921470074262068
Zr 7.126197400628307 4.545207229587631 11.899358889420496
Zr 9.475646139326248 11.864918105302287 5.115225746100663
Zr 7.384261530220551 12.117352670514707 7.0048640203902135
Zr 4.629000307708624 10.990018704931964 6.219351710351047
Zr 8.687557221587397 7.054696585014041 12.372629239228745
Zr 5.532476752745874 10.858668875231851 9.023688732652467
Zr 9.632010608686079 10.11290130329431 3.087349645843519
Zr 6.889338163947223 9.206199566272131 11.156153920163257
Zr 7.27680622590336 4.324518924348516 4.404722178783691
Zr 12.031016357416073 5.390564675553709 5.9472206223595165
Zr 8.314537588134122 6.539700954106608 6.2296688084557195
Zr 9.899314416234887 9.140629477333382 10.371632255737534
Zr 2.732309068208517 6.778030680511816 11.774836366365637
