53
Energy = -392.88346309 eV
Zr 10.683155605766515 3.8584798810699814 5.593434693458432
Zr 12.244351630176432 5.3505980543058245 7.878805534995256
Zr 11.307819519414643 7.1447010868276 5.3505033406727645
Zr 11.636436325395755 8.2393800837678 8.279856979495234
Zr 8.9099711370341 2.8286636650212005 3.388680915777049
Zr 8.542252203003857 1.7287829298715705 6.171291672521987
Zr 11.205495022619576 6.523509003071172 10.557322723213996
Zr 10.254997506975442 2.8835197955495886 8.321596819171747
Zr 10.771597752414019 10.163280696902989 4.989737226845263
Zr 9.631876882613396 6.038115154700048 7.538629618623739
Zr 9.749242985336462 5.732165040018199 2.946407509022407
Zr 10.445040575557385 8.5925434335562 2.6650783449694844
Zr 9.23463164625605 4.489212720798129 10.425395327193185
Zr 7.954855520813598 4.972534522443909 5.045337896710671
Zr 6.157710754096434 2.3090571397621877 4.420831150076198
Zr 10.382889039961395 9.247187146452655 10.988200626767934
Zr 6.793918267390284 4.665788878156833 2.337146887389818
Zr 8.545272956551447 11.816471264010694 5.945122967983865
Zr 5.717835451933237 1.4954534039288014 7.192717863163862
Zr 7.608658340698953 7.791029100183284 1.8749436383672293
Zr 8.691547183322598 6.86888808624244 12.42089957748568
Zr 9.094526616211708 9.370012286646448 7.4403169910537335
Zr 7.465186074457947 4.027355112384205 7.914384404587277
Zr 7.460120421529096 1.978696188412802 9.630202937452562
Zr 8.250804802840007 10.707341005174309 3.217485486891448
Zr 8.538165291625786 8.112310654164046 4.7101360917167066
Zr 8.336721409979324 7.498654662665532 9.809605753093065
Zr 5.84542198327078 12.107068099687726 4.665346502319181
Zr 5.62121498594337 6.983828000923253 4.275273539045067
Zr 6.932484349008732 7.179229648678183 6.9508829885235075
Zr 8.435437917278207 11.288747410645158 9.7629849113954
Zr 6.55548180272813 4.547678019038147 11.341128023039797
Zr 4.139321198969325 4.192713047838615 3.3171404385498677
Zr 7.726188068034057 9.680257882415448 12.03369376035185
Zr 5.109616548045165 4.746533648311149 6.271587038612574
Zr 4.039265669814462 7.0135463437833145 2.161022775915458
Zr 6.089629055324835 9.748508000748874 5.796146378657803
Zr 6.341234665687532 12.162333148607232 7.838988548736218
Zr 5.493705455081777 9.682885210294529 2.6694117176779706
Zr 3.3227175763503967 2.802457247151897 5.91265601508561
Zr 6.2200733982879495 9.265898563881787 8.893101819727532
Zr 4.472733162358968 3.349477398337902 9.007020654287386
Zr 5.700100070612597 6.070143250901527 9.225879664469563
Zr 4.0171631889630595 7.70008789358367 7.144396897824712
Zr 3.38604776159752 9.061343179103513 4.496700110169164
Zr 5.528065336959239 7.847911830176356 11.612755816849667
Zr 5.46292575729857 11.12796565572902 10.679510625121758
Zr 2.5981456667308436 6.029650978411012 4.892601787525392
Zr 2.223193655278377 5.058047289568514 7.628137511505861
Zr 3.821238129322365 10.762108444876526 7.738050136181085
Zr 2.885194991375515 6.40460540868777 9.98935489935243
Zr 3.2317408195321167 9.173472815174229 10.017422103875989
Zr 1.4768632539015385 8.005160755438268 7.793187537705324
