53
Energy = -390.98131994 eV
Zr 8.93658238112367 4.727375548096446 1.5370624259422412
Zr 7.509386269665094 9.174371490966523 1.6506224298648782
Zr 9.746615624489493 7.469285083275891 1.524631413682494
Zr 6.989629360871679 6.569805900594263 0.6423242326838016
Zr 6.074438673351314 4.487647546493902 2.551003614828714
Zr 4.928776734571277 7.561889536295843 2.7524883327003384
Zr 10.537356269085452 5.675313529942776 3.883960022837937
Zr 8.579551771828017 3.2672276532014806 3.9414541141713877
Zr 12.153751746255292 8.106361198106374 5.113859055145383
Zr 7.668313364303598 6.80449511770793 3.5198748545914396
Zr 9.419006281227489 8.821478495107153 4.363471547186093
Zr 6.4395507468248 9.893251919875533 4.088559011069867
Zr 3.3162752503747353 4.380233202985745 4.031821834953753
Zr 2.33338478851989 6.933501244860669 4.714805963240546
Zr 8.0386013248119 2.2663106972793745 6.9797113691998804
Zr 5.1276687889061785 6.33290555547105 5.437203467119363
Zr 10.598289366227263 3.9286700045776897 6.182771045811077
Zr 10.215518640486595 6.8600677144006035 6.837674110934401
Zr 4.0198843427615545 9.141178757407095 5.691814898256107
Zr 12.809234981602696 7.7021423006311 8.01856761926798
Zr 5.8608186517172065 3.1239085073025668 5.1294286655435855
Zr 8.430803629795648 11.566371876542048 6.098694467616579
Zr 7.9092836050454025 5.355198871877004 6.137872179503213
Zr 7.0668252083318706 8.64672560822695 6.4828674378163695
Zr 10.397842192676837 9.783430688738955 7.029475685576035
Zr 5.547420182491099 11.667950429047496 6.503201811864095
Zr 5.457372647500282 1.3050333964560161 7.5954839903196465
Zr 8.944592888712437 4.142493388823796 8.613475033669635
Zr 3.3235338680107107 2.346046628974429 6.347556447901725
Zr 12.776533085983996 7.560396679363961 11.002587354913258
Zr 2.64845466852143 4.927615274692671 6.90470548786822
Zr 5.828761763715616 4.3866047529040175 8.040476015051535
Zr 10.695553136441594 8.980818150031894 9.72060542381392
Zr 7.194276915711774 10.276368491559564 8.798905585341272
Zr 8.165666010056643 7.165570215054293 9.107968107331782
Zr 11.034962909812867 5.9313520124881025 9.645642889823398
Zr 3.832310468781325 10.12399593186896 8.535463434880773
Zr 2.2845378684013333 7.702453976546112 7.678953098949036
Zr 9.6807027682786 11.861808825581067 9.123562230194642
Zr 4.983578084950022 12.51708658967461 9.283216035775451
Zr 7.8488639737692125 4.960840963992358 11.090045799039457
Zr 5.213622773007598 7.313127066510054 8.63971854616534
Zr 7.377993267264363 13.349540674024556 8.065025415601326
Zr 8.542567499659123 10.07870980149831 11.54158418256422
Zr 6.470351134621881 2.4549331611800445 10.064465807815472
Zr 3.6080837559876686 2.924270846127869 9.314207644495747
Zr 2.598224597089324 5.637656331527688 9.605016259705776
Zr 7.381364606250912 12.58700267878975 10.802953238808291
Zr 9.652247791604836 7.254000513026493 11.821465924817437
Zr 5.480707784892185 10.399206255632222 11.277252967315286
Zr 5.000993645419892 5.187278948681525 11.039981624114112
Zr 6.634256709061978 7.679516317328551 11.791978312656752
Zr 3.608878502019165 8.029128126112008 10.81854118206528
