52
Energy = -385.79198549 eV
Zr 10.141897695811393 11.120414635292555 4.186721406024414
Zr 7.71540302506606 12.875173950685985 5.057355849040788
Zr 8.045308609866929 11.617478896535953 2.2788538397086664
Zr 11.241455769736593 8.311814174731566 3.721232695112576
Zr 9.26065345204118 8.933813289046629 6.277247996391613
Zr 6.662296821150069 11.402392475478207 7.731327844241819
Zr 8.936798813615392 8.803638378034917 2.274023866165732
Zr 9.80725123078203 11.513907690283292 7.203675213234981
Zr 5.460667307228291 12.09772326408256 2.983214098438175
Zr 4.842747927610526 12.28813763829736 5.621735980606039
Zr 11.192500412790615 8.790675671365703 8.471414820302195
Zr 6.405193741222516 8.209237530671562 7.276589452305881
Zr 4.030403928279677 7.308262473091383 1.8718129008321351
Zr 3.867386735400146 9.621882769000033 4.0884762299573305
Zr 5.081331933740394 9.299656950957127 9.645850713093147
Zr 9.38005648059979 4.283195769558705 6.146092201058276
Zr 6.969512773421066 6.343678475946102 1.7119436580007026
Zr 10.010718107465234 5.666412653092028 2.8957707881490364
Zr 9.143860942257847 6.543816132531837 8.24461790562864
Zr 3.998622808102374 10.10628432985034 7.039874978664675
Zr 2.701987751698872 6.3931634873981595 4.2971402126279825
Zr 3.1812999895616345 3.5848441646503217 10.506966398688284
Zr 6.077475437844775 9.306440679808764 1.9669524565935628
Zr 4.773369398374583 7.976776114443984 12.351594508504043
Zr 5.034468535175408 5.047509372035193 12.239073420822573
Zr 4.699536431018647 4.709423573101252 2.8871215750235995
Zr 7.252213490316382 9.355276415114476 11.887657476677806
Zr 3.1262135736105243 6.628009632798182 10.321070934918923
Zr 8.413189764756256 9.337415656080083 9.238380105827819
Zr 2.353088989650413 4.5984050494201085 7.979111501710184
Zr 6.8809423597062125 10.155037097831428 4.756179834554958
Zr 7.258089323596456 6.846897794985021 13.256206832055033
Zr 4.192661993122871 4.134969024284398 5.710847512788688
Zr 6.721513178891207 6.926315303652652 10.289919801707036
Zr 5.554901830077461 7.201628797240566 4.36572373358166
Zr 3.6431103075418916 7.102017105558199 7.123037623708969
Zr 5.0669256193868595 5.056004934528358 8.826504178676
Zr 6.689540658732182 5.3379091427045005 6.434991023480795
Zr 9.498571754622077 7.1750321986481405 11.228285203076137
Zr 4.5056662634680045 2.2156965848584074 8.164348884695237
Zr 8.495733344617117 6.895755484670146 4.6568681880438785
Zr 7.676483687677865 3.765195995614756 8.838005941753204
Zr 6.948482728840722 2.2995739632235233 6.23407596616744
Zr 12.03277778340749 9.803341590594924 5.984800468039351
Zr 7.465707878122816 4.214731884755161 3.7428915248223333
Zr 8.228755801000517 4.47683068291089 11.805003253807184
Zr 10.46727355072408 4.221779577681124 9.606198510465642
Zr 5.862071194637444 2.425690305184501 10.975038443174972
Zr 9.562241302385777 1.7668117437296005 7.843044763585346
Zr 11.430046159595161 6.767936705959284 6.143756243699073
Zr 7.027368634900683 0.7996705924898538 8.800371790532571
Zr 8.919220501543903 1.8887049413684391 10.679258618738771
