54
Energy = -397.55400691 eV
Zr 13.201306042401843 8.724703587696965 5.167110908589219
Zr 13.310537999797958 9.402887667502664 7.940815050515766
Zr 13.87084029892342 6.742244066173831 7.014383241626015
Zr 10.698985613609077 8.659946635578212 3.9064491759630777
Zr 12.48409801732025 7.038918437478273 9.534077627952678
Zr 10.79790395683722 9.97979899545818 9.134176713056442
Zr 11.211103248963761 10.688139201868795 6.2574754004167055
Zr 12.040341905002128 6.030939972087128 4.699450714192326
Zr 9.864053092161846 7.875274485802877 10.750106468026045
Zr 12.000530790027693 4.730223955442038 7.548976001839118
Zr 8.822155600883157 10.833200037438353 4.405992784417279
Zr 10.933175021643777 7.655168259387231 6.971079190130916
Zr 8.806517802894229 12.130624145294805 8.161596541165904
Zr 10.637553187497108 4.834757353539313 10.268505293579539
Zr 8.370188026799608 10.93653086264828 10.828036655716717
Zr 6.769441640585035 11.97409267947656 6.114127030717113
Zr 7.963494067032655 7.273070715399929 5.238794212116821
Zr 7.633309792254597 8.709432433283327 12.624551667013803
Zr 9.30613341828117 6.121199648101723 2.872108332265156
Zr 8.211568935274295 8.695520552305222 2.4750839573515595
Zr 7.00401279919749 8.359210217870157 9.715548016704151
Zr 8.695163708184255 5.925631331856762 8.284101287039821
Zr 6.53499605423099 13.0081024204944 9.791626941887236
Zr 8.415454662218446 9.492912528783787 7.215358914391981
Zr 9.566424421589788 4.5942063859235835 5.62141187696358
Zr 7.946877968094419 5.9249610725114055 11.386520783435715
Zr 9.710776659926148 2.938803786364777 8.026034058936181
Zr 5.494781699337236 10.265390016556458 11.479793101381087
Zr 8.373768000230294 1.8668019963000824 5.440306999550661
Zr 7.254294241911732 4.01000842780503 3.782268275796753
Zr 5.664317883304929 10.788974077702752 8.611450582691488
Zr 7.741043679151877 3.4780605105828606 10.110826184635096
Zr 6.092768563207342 6.809778657450341 3.026354765802604
Zr 5.595527276024042 5.702062988078657 9.052125209492877
Zr 5.448000099966111 8.53090089923467 6.878710663815738
Zr 6.110707121694811 9.872124566607113 4.065003755386518
Zr 4.059970463785437 11.170757586276101 5.870092858308683
Zr 5.10457696134654 5.4515239722343205 5.594387379781517
Zr 6.885282148929816 3.5335993767351144 7.240072805564045
Zr 5.106945202218211 7.134412804489162 11.83210301753926
Zr 3.838449673112522 8.215695735033075 9.6416308877647
Zr 5.488318167446556 4.264554564594905 11.905300571908503
Zr 5.264293418604689 2.3064486517165275 5.241825800115296
Zr 4.508638640447128 4.0897471239326695 2.9413908772717456
Zr 4.908364524575881 2.6964665259681366 9.700599781038681
Zr 3.5580563925532305 8.260410840145067 4.673962470364555
Zr 1.5635094092813908 10.423864183262866 4.524393070065524
Zr 2.2956583411768827 9.543758146383327 7.184640435356598
Zr 3.1224046310461357 5.122426636235649 10.348686125528275
Zr 2.8276289764493505 6.681202631353672 7.29792894297307
Zr 3.588840539430608 3.746873039754594 7.543297219126688
Zr 2.6611853657542124 3.1419498821757283 4.846222686963829
Zr 2.207799108614276 5.667412651962215 4.391656406639121
Zr 0.7081841588507468 7.949907832160258 5.3945053478563105
