6
Energy = -36.38413014 eV
Zr 11.250625346456124 9.362431793999896 12.949111274844007
Zr 10.48475021610017 8.812052943248995 10.287564507213641
Zr 12.319756494272449 10.967146366465391 10.926686802164163
Zr 9.574870848190885 11.193915633591672 11.674488773567193
Zr 10.274951676103234 11.057679814799302 8.8602234291394
Zr 10.835115061212 13.311020801770837 10.227009774680287
