8
Energy = -51.0405433 eV
Zr 4.891287084728416 6.522222963172244 3.658735699875318
Zr 7.470033908661862 7.085660696861813 4.750115084739933
Zr 6.164175482889921 4.578563860267028 5.223196911643076
Zr 3.4995007669246805 5.16276048654978 5.83900109222686
Zr 4.95483448506157 7.539526485701866 6.287925145063193
Zr 7.360542276179789 7.255514210375128 7.632462026425361
Zr 5.443354834300678 5.113601759015346 7.942716230296831
Zr 8.384134077569021 4.910012454372602 6.8337107260458865
