9
Energy = -57.81128495 eV
Zr 8.879949846986113 7.241740777620317 4.740495652980617
Zr 6.575890922695748 8.562596307039591 5.665007777804103
Zr 8.539051561844234 7.629951396275337 7.638743486907906
Zr 7.666953534945476 5.199176828332321 6.255944080267339
Zr 7.6635369774900095 7.845433130760934 10.37391341103704
Zr 6.219998499378786 6.255186142565789 4.079822965789137
Zr 5.807482146562499 8.451999912838994 8.435554009701084
Zr 5.015907297507782 6.3144604924959005 6.623689342150074
Zr 6.700194523094206 5.711515385580887 8.923069179621184
