 running on   32 total cores
 distrk:  each k-point on   32 cores,    1 groups
 distr:  one band on    8 cores,    4 groups
 using from now: INCAR     
 vasp.5.3.5 31Mar14 (build Feb 01 2018 12:10:03) gamma-only                     
  
 POSCAR found type information on POSCAR  Ag
 POSCAR found :  1 types and      11 ions
 scaLAPACK will be used
 LDA part: xc-table for Pade appr. of Perdew
 POSCAR, INCAR and KPOINTS ok, starting setup
 WARNING: small aliasing (wrap around) errors must be expected
 FFT: planning ...
 WAVECAR not read
 entering main loop
       N       E                     dE             d eps       ncg     rms          rms(c)
DAV:   1     0.106778443037E+04    0.10678E+04   -0.19786E+04   320   0.553E+02
DAV:   2     0.333793785021E+03   -0.73399E+03   -0.64489E+03   584   0.112E+02
DAV:   3     0.571025066019E+01   -0.32808E+03   -0.30586E+03   456   0.889E+01
DAV:   4    -0.193206861830E+02   -0.25031E+02   -0.24711E+02   344   0.284E+01
DAV:   5    -0.196761347412E+02   -0.35545E+00   -0.35503E+00   368   0.405E+00    0.182E+01
DAV:   6    -0.526988524784E+01    0.14406E+02   -0.41350E+01   336   0.144E+01    0.874E+00
DAV:   7    -0.427321555925E+01    0.99667E+00   -0.28615E+00   352   0.519E+00    0.488E+00
DAV:   8    -0.725645642498E+01   -0.29832E+01   -0.17228E+00   352   0.325E+00    0.234E+00
DAV:   9    -0.982209741549E+01   -0.25656E+01   -0.75780E-01   360   0.185E+00    0.123E+00
DAV:  10    -0.131756722898E+02   -0.33536E+01   -0.10715E+00   328   0.207E+00    0.225E+00
DAV:  11    -0.131517455773E+02    0.23927E-01   -0.16416E-02   368   0.321E-01    0.220E+00
DAV:  12    -0.131208760194E+02    0.30870E-01   -0.26360E-03   336   0.233E-01    0.225E+00
DAV:  13    -0.141777969926E+02   -0.10569E+01   -0.33579E-01   336   0.206E+00    0.173E+00
DAV:  14    -0.165970046365E+02   -0.24192E+01   -0.12329E+00   328   0.337E+00    0.123E+00
DAV:  15    -0.179126528636E+02   -0.13156E+01   -0.39678E-01   320   0.121E+00    0.578E-01
DAV:  16    -0.184406472243E+02   -0.52799E+00   -0.62432E-02   320   0.456E-01    0.384E-01
DAV:  17    -0.191969132788E+02   -0.75627E+00   -0.12214E-01   336   0.672E-01    0.229E-01
DAV:  18    -0.193405590594E+02   -0.14365E+00   -0.90229E-03   360   0.358E-01    0.117E-01
DAV:  19    -0.194193147540E+02   -0.78756E-01   -0.89005E-03   336   0.342E-01    0.950E-02
DAV:  20    -0.194545612759E+02   -0.35247E-01   -0.24137E-03   344   0.148E-01    0.591E-02
DAV:  21    -0.194629532581E+02   -0.83920E-02   -0.10907E-03   320   0.111E-01    0.271E-02
DAV:  22    -0.194638820492E+02   -0.92879E-03   -0.52529E-04   240   0.397E-02    0.136E-02
DAV:  23    -0.194655310871E+02   -0.16490E-02   -0.21948E-04   232   0.200E-02    0.132E-02
DAV:  24    -0.194673431369E+02   -0.18120E-02   -0.99903E-05   224   0.133E-02    0.129E-02
DAV:  25    -0.194677592309E+02   -0.41609E-03   -0.46023E-05   240   0.168E-02    0.896E-03
DAV:  26    -0.194678410445E+02   -0.81814E-04   -0.15004E-05   240   0.804E-03
   1 F= -.19467841E+02 E0= -.19467841E+02  d E =-.194678E+02  mag=     0.9993
 curvature:   0.00 expect dE= 0.000E+00 dE for cont linesearch  0.000E+00
 trial: gam= 0.00000 g(F)=  0.172E-01 g(S)=  0.000E+00 ort = 0.000E+00 (trialstep = 0.100E+01)
 search vector abs. value=  0.172E-01
 bond charge predicted
       N       E                     dE             d eps       ncg     rms          rms(c)
DAV:   1    -0.194837967522E+02   -0.16038E-01   -0.11647E+00   336   0.319E+00    0.954E-02
DAV:   2    -0.194844112727E+02   -0.61452E-03   -0.55825E-03   344   0.305E-01    0.707E-02
DAV:   3    -0.194844389666E+02   -0.27694E-04   -0.10325E-04   216   0.391E-02
   2 F= -.19484439E+02 E0= -.19484439E+02  d E =-.165979E-01  mag=     0.9997
 ZBRENT: can't locate minimum, use default step
 trial-energy change:   -0.016598  1 .order   -0.016260   -0.017189   -0.015331
 step:   4.0000(harm=  9.2517)  dis= 0.02074  next Energy=   -19.547354 (dE=-0.795E-01)
 bond charge predicted
       N       E                     dE             d eps       ncg     rms          rms(c)
DAV:   1    -0.195205424926E+02   -0.36131E-01   -0.10511E+01   320   0.961E+00    0.269E-01
DAV:   2    -0.195254941235E+02   -0.49516E-02   -0.49959E-02   344   0.913E-01    0.203E-01
DAV:   3    -0.195254288939E+02    0.65230E-04   -0.94155E-04   352   0.113E-01
   3 F= -.19525429E+02 E0= -.19525429E+02  d E =-.575878E-01  mag=     0.9999
 curvature:  -2.75 expect dE=-0.218E-01 dE for cont linesearch -0.211E-01
 ZBRENT: increasing intervall
 opt :  10.0000  next Energy=   -19.571098 (dE=-0.103E+00)
 bond charge predicted
       N       E                     dE             d eps       ncg     rms          rms(c)
DAV:   1    -0.195536946365E+02   -0.28201E-01   -0.42128E+01   320   0.193E+01    0.477E-01
DAV:   2    -0.195734559406E+02   -0.19761E-01   -0.19953E-01   344   0.183E+00    0.371E-01
DAV:   3    -0.195732327496E+02    0.22319E-03   -0.34662E-03   360   0.218E-01    0.229E-01
DAV:   4    -0.195729712984E+02    0.26145E-03   -0.12010E-03   320   0.126E-01    0.489E-02
DAV:   5    -0.195729900258E+02   -0.18727E-04   -0.40256E-05   224   0.428E-02
   4 F= -.19572990E+02 E0= -.19572990E+02  d E =-.105149E+00  mag=     1.0000
 curvature:  -5.97 expect dE=-0.151E-01 dE for cont linesearch -0.756E-02
 ZBRENT: increasing intervall
 opt :  22.0000  next Energy=   -19.547313 (dE=-0.795E-01)
 bond charge predicted
       N       E                     dE             d eps       ncg     rms          rms(c)
DAV:   1    -0.194834453532E+02    0.89526E-01   -0.17015E+02   320   0.391E+01    0.737E-01
DAV:   2    -0.195651833685E+02   -0.81738E-01   -0.81014E-01   352   0.377E+00    0.635E-01
DAV:   3    -0.195652632155E+02   -0.79847E-04   -0.12913E-02   352   0.429E-01    0.455E-01
DAV:   4    -0.195637769952E+02    0.14862E-02   -0.48065E-03   320   0.249E-01    0.172E-01
DAV:   5    -0.195639237698E+02   -0.14677E-03   -0.48803E-04   352   0.958E-02    0.528E-02
DAV:   6    -0.195639374649E+02   -0.13695E-04   -0.89274E-05   200   0.298E-02
   5 F= -.19563937E+02 E0= -.19563937E+02  d E =-.960964E-01  mag=     1.0000
 curvature:  20.28 expect dE= 0.116E+00 dE for cont linesearch  0.331E-01
 ZBRENT: bracketing found
 ZBRENT: interpolating
 opt :  15.6190  next Energy=   -19.586098 (dE=-0.118E+00)
 bond charge predicted
       N       E                     dE             d eps       ncg     rms          rms(c)
DAV:   1    -0.195602506622E+02    0.36731E-02   -0.47609E+01   320   0.206E+01    0.435E-01
DAV:   2    -0.195836510686E+02   -0.23400E-01   -0.23617E-01   352   0.200E+00    0.286E-01
DAV:   3    -0.195836085439E+02    0.42525E-04   -0.41890E-03   352   0.246E-01    0.179E-01
DAV:   4    -0.195834700142E+02    0.13853E-03   -0.12169E-03   336   0.126E-01    0.534E-02
DAV:   5    -0.195835240774E+02   -0.54063E-04   -0.52185E-05   240   0.447E-02
   6 F= -.19583524E+02 E0= -.19583524E+02  d E =-.115683E+00  mag=     1.0000
 curvature:  -8.03 expect dE=-0.205E-01 dE for cont linesearch -0.248E-03
 trial: gam= 0.19122 g(F)=  0.256E-02 g(S)=  0.000E+00 ort =-0.728E-03 (trialstep = 0.392E+01)
 search vector abs. value=  0.291E-02
 bond charge predicted
       N       E                     dE             d eps       ncg     rms          rms(c)
DAV:   1    -0.195910003600E+02   -0.75303E-02   -0.30082E+00   320   0.517E+00    0.699E-02
DAV:   2    -0.195924682815E+02   -0.14679E-02   -0.14625E-02   336   0.522E-01    0.696E-02
DAV:   3    -0.195924717551E+02   -0.34736E-05   -0.26304E-04   264   0.766E-02
   7 F= -.19592472E+02 E0= -.19592472E+02  d E =-.894768E-02  mag=     1.0000
 ZBRENT: can't locate minimum, use default step
 trial-energy change:   -0.008948  1 .order   -0.008556   -0.009492   -0.007620
 step:  15.6952(harm= 19.8976)  dis= 0.02945  next Energy=   -19.607592 (dE=-0.241E-01)
 bond charge predicted
       N       E                     dE             d eps       ncg     rms          rms(c)
DAV:   1    -0.195982711178E+02   -0.58028E-02   -0.27134E+01   320   0.156E+01    0.227E-01
DAV:   2    -0.196112001184E+02   -0.12929E-01   -0.13170E-01   344   0.157E+00    0.221E-01
DAV:   3    -0.196112067576E+02   -0.66391E-05   -0.25041E-03   360   0.228E-01    0.145E-01
DAV:   4    -0.196109429572E+02    0.26380E-03   -0.49919E-04   352   0.768E-02    0.867E-02
DAV:   5    -0.196109249189E+02    0.18038E-04   -0.43922E-04   344   0.666E-02
   8 F= -.19610925E+02 E0= -.19610925E+02  d E =-.274008E-01  mag=     1.0000
 curvature: -11.13 expect dE=-0.102E-01 dE for cont linesearch -0.458E-02
 ZBRENT: increasing intervall
 opt :  39.2381  next Energy=   -19.616682 (dE=-0.332E-01)
 bond charge predicted
       N       E                     dE             d eps       ncg     rms          rms(c)
DAV:   1    -0.195561537566E+02    0.54789E-01   -0.10895E+02   320   0.313E+01    0.509E-01
DAV:   2    -0.196090945830E+02   -0.52941E-01   -0.54203E-01   336   0.318E+00    0.427E-01
DAV:   3    -0.196090932152E+02    0.13678E-05   -0.10324E-02   368   0.469E-01    0.263E-01
DAV:   4    -0.196081988351E+02    0.89438E-03   -0.17226E-03   344   0.145E-01    0.153E-01
DAV:   5    -0.196081530460E+02    0.45789E-04   -0.12171E-03   360   0.112E-01    0.423E-02
DAV:   6    -0.196081747327E+02   -0.21687E-04   -0.69905E-05   216   0.243E-02
   9 F= -.19608175E+02 E0= -.19608175E+02  d E =-.246507E-01  mag=     1.0000
 curvature: -14.01 expect dE=-0.398E-01 dE for cont linesearch -0.818E-02
 ZBRENT: bracketing found
 ZBRENT: interpolating
 opt :  26.4374  next Energy=   -19.616797 (dE=-0.333E-01)
 bond charge predicted
       N       E                     dE             d eps       ncg     rms          rms(c)
DAV:   1    -0.196018280629E+02    0.63250E-02   -0.32070E+01   320   0.169E+01    0.237E-01
DAV:   2    -0.196168732301E+02   -0.15045E-01   -0.15362E-01   344   0.168E+00    0.235E-01
DAV:   3    -0.196169490508E+02   -0.75821E-04   -0.28741E-03   368   0.240E-01    0.156E-01
DAV:   4    -0.196167163976E+02    0.23265E-03   -0.52204E-04   360   0.780E-02    0.971E-02
DAV:   5    -0.196167362375E+02   -0.19840E-04   -0.52909E-04   360   0.723E-02
  10 F= -.19616736E+02 E0= -.19616736E+02  d E =-.332122E-01  mag=     1.0000
 curvature: -10.06 expect dE=-0.102E-01 dE for cont linesearch -0.666E-05
 trial: gam= 0.36204 g(F)=  0.102E-02 g(S)=  0.000E+00 ort =-0.439E-04 (trialstep = 0.843E+01)
 search vector abs. value=  0.137E-02
 bond charge predicted
       N       E                     dE             d eps       ncg     rms          rms(c)
DAV:   1    -0.196208487953E+02   -0.41324E-02   -0.65246E+00   320   0.757E+00    0.135E-01
DAV:   2    -0.196238966302E+02   -0.30478E-02   -0.32111E-02   328   0.761E-01    0.101E-01
DAV:   3    -0.196238861171E+02    0.10513E-04   -0.63010E-04   368   0.117E-01
  11 F= -.19623886E+02 E0= -.19623886E+02  d E =-.714988E-02  mag=     1.0000
 trial-energy change:   -0.007150  1 .order   -0.006824   -0.008427   -0.005221
 step:  22.1499(harm= 22.1499)  dis= 0.03656  next Energy=   -19.627811 (dE=-0.111E-01)
 bond charge predicted
       N       E                     dE             d eps       ncg     rms          rms(c)
DAV:   1    -0.196207989973E+02    0.30976E-02   -0.17335E+01   320   0.123E+01    0.244E-01
DAV:   2    -0.196288832207E+02   -0.80842E-02   -0.85952E-02   328   0.124E+00    0.180E-01
DAV:   3    -0.196288432065E+02    0.40014E-04   -0.16988E-03   368   0.192E-01    0.114E-01
DAV:   4    -0.196287160719E+02    0.12713E-03   -0.41399E-04   336   0.697E-02    0.399E-02
DAV:   5    -0.196287256175E+02   -0.95456E-05   -0.66686E-05   224   0.295E-02
  12 F= -.19628726E+02 E0= -.19628726E+02  d E =-.119894E-01  mag=     1.0000
 curvature: -15.12 expect dE=-0.314E-02 dE for cont linesearch -0.491E-04
 trial: gam= 0.10913 g(F)=  0.208E-03 g(S)=  0.000E+00 ort = 0.666E-04 (trialstep = 0.112E+02)
 search vector abs. value=  0.239E-03
 bond charge predicted
       N       E                     dE             d eps       ncg     rms          rms(c)
DAV:   1    -0.196294911512E+02   -0.77508E-03   -0.20044E+00   320   0.424E+00    0.766E-02
DAV:   2    -0.196304321122E+02   -0.94096E-03   -0.97485E-03   344   0.409E-01    0.558E-02
DAV:   3    -0.196304276792E+02    0.44330E-05   -0.14583E-04   232   0.523E-02
  13 F= -.19630428E+02 E0= -.19630428E+02  d E =-.170206E-02  mag=     1.0000
 trial-energy change:   -0.001702  1 .order   -0.001375   -0.002403   -0.000347
 step:  13.0596(harm= 13.0596)  dis= 0.00577  next Energy=   -19.630130 (dE=-0.140E-02)
 bond charge predicted
       N       E                     dE             d eps       ncg     rms          rms(c)
DAV:   1    -0.196305402837E+02   -0.10817E-03   -0.59101E-02   328   0.731E-01    0.212E-02
DAV:   2    -0.196305672564E+02   -0.26973E-04   -0.24585E-04   224   0.687E-02
  14 F= -.19630567E+02 E0= -.19630567E+02  d E =-.184164E-02  mag=     1.0000
 curvature:  -7.24 expect dE=-0.277E-03 dE for cont linesearch -0.537E-04
 trial: gam=-0.00200 g(F)=  0.383E-04 g(S)=  0.000E+00 ort = 0.420E-04 (trialstep = 0.115E+02)
 search vector abs. value=  0.381E-04
 reached required accuracy - stopping structural energy minimisation
Application 90921190 resources: utime ~2720s, stime ~47s, Rss ~53448, inblocks ~81351, outblocks ~150454
