  41  41   0   0
  0.2624001E+03  0.2207577E-08  0.2207577E-08  0.2207577E-08  0.1000000E-15
  1.000000000000000E-004
  CAR 
 unknown system                          
      2.05422707    -10.26179265  301     -3.22113471      1.00000000
    -10.262  0.0000E+00  0.0000E+00  0.0000E+00  0.0000E+00
    -10.221  0.0000E+00  0.0000E+00  0.0000E+00  0.0000E+00
    -10.180  0.0000E+00  0.0000E+00  0.0000E+00  0.0000E+00
    -10.139  0.0000E+00  0.0000E+00  0.0000E+00  0.0000E+00
    -10.098  0.0000E+00  0.0000E+00  0.0000E+00  0.0000E+00
    -10.057  0.0000E+00  0.0000E+00  0.0000E+00  0.0000E+00
    -10.015  0.0000E+00  0.0000E+00  0.0000E+00  0.0000E+00
     -9.974  0.0000E+00  0.0000E+00  0.0000E+00  0.0000E+00
     -9.933  0.0000E+00  0.0000E+00  0.0000E+00  0.0000E+00
     -9.892  0.0000E+00  0.0000E+00  0.0000E+00  0.0000E+00
     -9.851  0.0000E+00  0.0000E+00  0.0000E+00  0.0000E+00
     -9.810  0.0000E+00  0.0000E+00  0.0000E+00  0.0000E+00
     -9.769  0.0000E+00  0.0000E+00  0.0000E+00  0.0000E+00
     -9.728  0.0000E+00  0.0000E+00  0.0000E+00  0.0000E+00
     -9.687  0.0000E+00  0.0000E+00  0.1000E-02  0.1000E-02
     -9.646  0.0000E+00  0.0000E+00  0.1000E-02  0.1000E-02
     -9.605  0.0000E+00  0.0000E+00  0.1000E-02  0.1000E-02
     -9.564  0.0000E+00  0.0000E+00  0.1000E-02  0.1000E-02
     -9.523  0.0000E+00  0.0000E+00  0.1000E-02  0.1000E-02
     -9.482  0.0000E+00  0.0000E+00  0.1000E-02  0.1000E-02
     -9.441  0.0000E+00  0.0000E+00  0.1000E-02  0.1000E-02
     -9.400  0.0000E+00  0.0000E+00  0.1000E-02  0.1000E-02
     -9.359  0.0000E+00  0.0000E+00  0.1000E-02  0.1000E-02
     -9.318  0.0000E+00  0.0000E+00  0.1000E-02  0.1000E-02
     -9.277  0.0000E+00  0.0000E+00  0.1000E-02  0.1000E-02
     -9.235  0.0000E+00  0.0000E+00  0.1000E-02  0.1000E-02
     -9.194  0.0000E+00  0.0000E+00  0.2000E-02  0.2000E-02
     -9.153  0.0000E+00  0.0000E+00  0.2000E-02  0.2000E-02
     -9.112  0.0000E+00  0.0000E+00  0.3000E-02  0.3000E-02
     -9.071  0.0000E+00  0.0000E+00  0.4000E-02  0.4000E-02
     -9.030  0.0000E+00  0.0000E+00  0.5000E-02  0.5000E-02
     -8.989  0.0000E+00  0.0000E+00  0.6000E-02  0.6000E-02
     -8.948  0.0000E+00  0.0000E+00  0.8000E-02  0.8000E-02
     -8.907  0.0000E+00  0.0000E+00  0.1000E-01  0.1000E-01
     -8.866  0.0000E+00  0.0000E+00  0.1100E-01  0.1000E-01
     -8.825  0.0000E+00  0.0000E+00  0.1200E-01  0.1200E-01
     -8.784  0.0000E+00  0.0000E+00  0.1300E-01  0.1300E-01
     -8.743  0.0000E+00  0.0000E+00  0.1500E-01  0.1400E-01
     -8.702  0.0000E+00  0.2434E-01  0.1700E-01  0.1700E-01
     -8.661  0.0000E+00  0.0000E+00  0.1800E-01  0.1800E-01
     -8.620  0.0000E+00  0.0000E+00  0.2000E-01  0.2000E-01
     -8.579  0.0000E+00  0.0000E+00  0.2100E-01  0.2100E-01
     -8.538  0.0000E+00  0.2436E-01  0.2400E-01  0.2400E-01
     -8.496  0.0000E+00  0.0000E+00  0.2600E-01  0.2600E-01
     -8.455  0.0000E+00  0.0000E+00  0.2800E-01  0.2800E-01
     -8.414  0.0000E+00  0.0000E+00  0.3100E-01  0.3100E-01
     -8.373  0.0000E+00  0.0000E+00  0.3500E-01  0.3400E-01
     -8.332  0.0000E+00  0.0000E+00  0.3800E-01  0.3700E-01
     -8.291  0.2436E-01  0.0000E+00  0.4000E-01  0.3900E-01
     -8.250  0.0000E+00  0.0000E+00  0.4200E-01  0.4200E-01
     -8.209  0.0000E+00  0.0000E+00  0.4500E-01  0.4500E-01
     -8.168  0.0000E+00  0.0000E+00  0.4800E-01  0.4700E-01
     -8.127  0.0000E+00  0.0000E+00  0.5100E-01  0.5000E-01
     -8.086  0.0000E+00  0.0000E+00  0.5300E-01  0.5200E-01
     -8.045  0.0000E+00  0.0000E+00  0.5600E-01  0.5600E-01
     -8.004  0.0000E+00  0.0000E+00  0.5900E-01  0.5900E-01
     -7.963  0.0000E+00  0.0000E+00  0.6300E-01  0.6200E-01
     -7.922  0.0000E+00  0.0000E+00  0.6500E-01  0.6500E-01
     -7.881  0.0000E+00  0.0000E+00  0.6800E-01  0.6700E-01
     -7.840  0.0000E+00  0.0000E+00  0.7100E-01  0.7100E-01
     -7.799  0.0000E+00  0.0000E+00  0.7300E-01  0.7300E-01
     -7.758  0.0000E+00  0.2436E-01  0.7500E-01  0.7500E-01
     -7.716  0.0000E+00  0.0000E+00  0.7900E-01  0.7800E-01
     -7.675  0.0000E+00  0.0000E+00  0.8100E-01  0.8000E-01
     -7.634  0.0000E+00  0.0000E+00  0.8300E-01  0.8300E-01
     -7.593  0.0000E+00  0.0000E+00  0.8600E-01  0.8600E-01
     -7.552  0.0000E+00  0.0000E+00  0.8800E-01  0.8800E-01
     -7.511  0.0000E+00  0.0000E+00  0.9100E-01  0.9100E-01
     -7.470  0.0000E+00  0.0000E+00  0.9300E-01  0.9300E-01
     -7.429  0.0000E+00  0.0000E+00  0.9700E-01  0.9700E-01
     -7.388  0.0000E+00  0.0000E+00  0.9900E-01  0.9900E-01
     -7.347  0.0000E+00  0.1494E-05  0.1030E+00  0.1020E+00
     -7.306  0.9465E-17  0.0000E+00  0.1040E+00  0.1040E+00
     -7.265  0.0000E+00  0.0000E+00  0.1080E+00  0.1070E+00
     -7.224  0.0000E+00  0.0000E+00  0.1110E+00  0.1100E+00
     -7.183  0.0000E+00  0.5438E-02  0.1130E+00  0.1112E+00
     -7.142  0.0000E+00  0.0000E+00  0.1150E+00  0.1140E+00
     -7.101  0.0000E+00  0.0000E+00  0.1180E+00  0.1170E+00
     -7.060  0.0000E+00  0.0000E+00  0.1220E+00  0.1210E+00
     -7.019  0.0000E+00  0.0000E+00  0.1240E+00  0.1230E+00
     -6.978  0.0000E+00  0.0000E+00  0.1260E+00  0.1250E+00
     -6.936  0.5409E-17  0.0000E+00  0.1280E+00  0.1280E+00
     -6.895  0.0000E+00  0.0000E+00  0.1310E+00  0.1310E+00
     -6.854  0.0000E+00  0.0000E+00  0.1330E+00  0.1330E+00
     -6.813  0.2436E-01  0.0000E+00  0.1380E+00  0.1370E+00
     -6.772  0.0000E+00  0.0000E+00  0.1410E+00  0.1400E+00
     -6.731  0.0000E+00  0.0000E+00  0.1450E+00  0.1450E+00
     -6.690  0.0000E+00  0.0000E+00  0.1500E+00  0.1490E+00
     -6.649  0.0000E+00  0.0000E+00  0.1550E+00  0.1540E+00
     -6.608  0.0000E+00  0.2052E-04  0.1590E+00  0.1570E+00
     -6.567  0.0000E+00  0.2436E-01  0.1640E+00  0.1630E+00
     -6.526  0.0000E+00  0.0000E+00  0.1680E+00  0.1680E+00
     -6.485  0.0000E+00  0.0000E+00  0.1740E+00  0.1730E+00
     -6.444  0.0000E+00  0.0000E+00  0.1780E+00  0.1780E+00
     -6.403  0.0000E+00  0.2436E-01  0.1820E+00  0.1820E+00
     -6.362  0.0000E+00  0.0000E+00  0.1870E+00  0.1850E+00
     -6.321  0.0000E+00  0.0000E+00  0.1900E+00  0.1900E+00
     -6.280  0.0000E+00  0.0000E+00  0.1940E+00  0.1940E+00
     -6.239  0.0000E+00  0.0000E+00  0.1980E+00  0.1970E+00
     -6.198  0.0000E+00  0.0000E+00  0.2020E+00  0.2010E+00
     -6.156  0.7609E-04  0.0000E+00  0.2030E+00  0.2030E+00
     -6.115  0.0000E+00  0.0000E+00  0.2060E+00  0.2060E+00
     -6.074  0.0000E+00  0.0000E+00  0.2080E+00  0.2080E+00
     -6.033  0.0000E+00  0.0000E+00  0.2100E+00  0.2090E+00
     -5.992  0.0000E+00  0.0000E+00  0.2100E+00  0.2100E+00
     -5.951  0.1952E-06  0.0000E+00  0.2100E+00  0.2100E+00
     -5.910  0.0000E+00  0.0000E+00  0.2110E+00  0.2110E+00
     -5.869  0.0000E+00  0.0000E+00  0.2110E+00  0.2110E+00
     -5.828  0.0000E+00  0.0000E+00  0.2110E+00  0.2110E+00
     -5.787  0.0000E+00  0.0000E+00  0.2110E+00  0.2110E+00
     -5.746  0.0000E+00  0.0000E+00  0.2120E+00  0.2110E+00
     -5.705  0.0000E+00  0.0000E+00  0.2120E+00  0.2120E+00
     -5.664  0.0000E+00  0.0000E+00  0.2120E+00  0.2120E+00
     -5.623  0.0000E+00  0.0000E+00  0.2130E+00  0.2130E+00
     -5.582  0.0000E+00  0.0000E+00  0.2130E+00  0.2130E+00
     -5.541  0.0000E+00  0.0000E+00  0.2130E+00  0.2130E+00
     -5.500  0.0000E+00  0.0000E+00  0.2140E+00  0.2140E+00
     -5.459  0.0000E+00  0.0000E+00  0.2140E+00  0.2140E+00
     -5.417  0.0000E+00  0.0000E+00  0.2140E+00  0.2140E+00
     -5.376  0.0000E+00  0.0000E+00  0.2140E+00  0.2140E+00
     -5.335  0.0000E+00  0.0000E+00  0.2140E+00  0.2140E+00
     -5.294  0.0000E+00  0.0000E+00  0.2140E+00  0.2140E+00
     -5.253  0.0000E+00  0.0000E+00  0.2140E+00  0.2140E+00
     -5.212  0.0000E+00  0.0000E+00  0.2140E+00  0.2140E+00
     -5.171  0.0000E+00  0.0000E+00  0.2140E+00  0.2140E+00
     -5.130  0.0000E+00  0.0000E+00  0.2140E+00  0.2140E+00
     -5.089  0.0000E+00  0.0000E+00  0.2140E+00  0.2140E+00
     -5.048  0.0000E+00  0.0000E+00  0.2140E+00  0.2140E+00
     -5.007  0.0000E+00  0.0000E+00  0.2140E+00  0.2140E+00
     -4.966  0.0000E+00  0.0000E+00  0.2150E+00  0.2140E+00
     -4.925  0.0000E+00  0.0000E+00  0.2160E+00  0.2160E+00
     -4.884  0.0000E+00  0.0000E+00  0.2160E+00  0.2160E+00
     -4.843  0.0000E+00  0.0000E+00  0.2170E+00  0.2160E+00
     -4.802  0.0000E+00  0.0000E+00  0.2170E+00  0.2170E+00
     -4.761  0.0000E+00  0.0000E+00  0.2170E+00  0.2170E+00
     -4.720  0.0000E+00  0.0000E+00  0.2170E+00  0.2170E+00
     -4.679  0.0000E+00  0.0000E+00  0.2170E+00  0.2170E+00
     -4.637  0.0000E+00  0.0000E+00  0.2170E+00  0.2170E+00
     -4.596  0.0000E+00  0.0000E+00  0.2170E+00  0.2170E+00
     -4.555  0.0000E+00  0.0000E+00  0.2180E+00  0.2170E+00
     -4.514  0.0000E+00  0.0000E+00  0.2180E+00  0.2180E+00
     -4.473  0.0000E+00  0.0000E+00  0.2180E+00  0.2180E+00
     -4.432  0.0000E+00  0.0000E+00  0.2190E+00  0.2190E+00
     -4.391  0.0000E+00  0.0000E+00  0.2190E+00  0.2190E+00
     -4.350  0.0000E+00  0.0000E+00  0.2190E+00  0.2190E+00
     -4.309  0.0000E+00  0.0000E+00  0.2190E+00  0.2190E+00
     -4.268  0.0000E+00  0.0000E+00  0.2190E+00  0.2190E+00
     -4.227  0.0000E+00  0.0000E+00  0.2200E+00  0.2190E+00
     -4.186  0.0000E+00  0.0000E+00  0.2200E+00  0.2200E+00
     -4.145  0.0000E+00  0.0000E+00  0.2210E+00  0.2210E+00
     -4.104  0.0000E+00  0.0000E+00  0.2210E+00  0.2210E+00
     -4.063  0.0000E+00  0.0000E+00  0.2210E+00  0.2210E+00
     -4.022  0.0000E+00  0.0000E+00  0.2210E+00  0.2210E+00
     -3.981  0.0000E+00  0.0000E+00  0.2210E+00  0.2210E+00
     -3.940  0.0000E+00  0.0000E+00  0.2210E+00  0.2210E+00
     -3.899  0.0000E+00  0.0000E+00  0.2220E+00  0.2210E+00
     -3.857  0.0000E+00  0.0000E+00  0.2220E+00  0.2220E+00
     -3.816  0.0000E+00  0.0000E+00  0.2220E+00  0.2220E+00
     -3.775  0.0000E+00  0.0000E+00  0.2220E+00  0.2220E+00
     -3.734  0.0000E+00  0.0000E+00  0.2220E+00  0.2220E+00
     -3.693  0.0000E+00  0.0000E+00  0.2220E+00  0.2220E+00
     -3.652  0.0000E+00  0.0000E+00  0.2220E+00  0.2220E+00
     -3.611  0.0000E+00  0.0000E+00  0.2220E+00  0.2220E+00
     -3.570  0.0000E+00  0.0000E+00  0.2230E+00  0.2220E+00
     -3.529  0.0000E+00  0.0000E+00  0.2230E+00  0.2230E+00
     -3.488  0.0000E+00  0.0000E+00  0.2240E+00  0.2240E+00
     -3.447  0.0000E+00  0.0000E+00  0.2240E+00  0.2240E+00
     -3.406  0.0000E+00  0.0000E+00  0.2240E+00  0.2240E+00
     -3.365  0.0000E+00  0.0000E+00  0.2250E+00  0.2250E+00
     -3.324  0.0000E+00  0.0000E+00  0.2250E+00  0.2250E+00
     -3.283  0.0000E+00  0.0000E+00  0.2250E+00  0.2250E+00
     -3.242  0.0000E+00  0.0000E+00  0.2250E+00  0.2250E+00
     -3.201  0.0000E+00  0.0000E+00  0.2260E+00  0.2250E+00
     -3.160  0.0000E+00  0.0000E+00  0.2260E+00  0.2260E+00
     -3.119  0.0000E+00  0.0000E+00  0.2260E+00  0.2260E+00
     -3.077  0.0000E+00  0.0000E+00  0.2260E+00  0.2260E+00
     -3.036  0.0000E+00  0.0000E+00  0.2260E+00  0.2260E+00
     -2.995  0.0000E+00  0.0000E+00  0.2260E+00  0.2260E+00
     -2.954  0.0000E+00  0.0000E+00  0.2270E+00  0.2260E+00
     -2.913  0.0000E+00  0.2706E-03  0.2280E+00  0.2270E+00
     -2.872  0.0000E+00  0.0000E+00  0.2280E+00  0.2280E+00
     -2.831  0.0000E+00  0.0000E+00  0.2290E+00  0.2280E+00
     -2.790  0.0000E+00  0.0000E+00  0.2290E+00  0.2290E+00
     -2.749  0.0000E+00  0.0000E+00  0.2300E+00  0.2300E+00
     -2.708  0.0000E+00  0.0000E+00  0.2300E+00  0.2300E+00
     -2.667  0.0000E+00  0.0000E+00  0.2300E+00  0.2300E+00
     -2.626  0.0000E+00  0.0000E+00  0.2300E+00  0.2300E+00
     -2.585  0.0000E+00  0.0000E+00  0.2310E+00  0.2310E+00
     -2.544  0.0000E+00  0.0000E+00  0.2310E+00  0.2310E+00
     -2.503  0.0000E+00  0.0000E+00  0.2310E+00  0.2310E+00
     -2.462  0.0000E+00  0.0000E+00  0.2310E+00  0.2310E+00
     -2.421  0.0000E+00  0.0000E+00  0.2310E+00  0.2310E+00
     -2.380  0.0000E+00  0.0000E+00  0.2320E+00  0.2310E+00
     -2.338  0.0000E+00  0.0000E+00  0.2320E+00  0.2320E+00
     -2.297  0.0000E+00  0.0000E+00  0.2330E+00  0.2330E+00
     -2.256  0.0000E+00  0.0000E+00  0.2330E+00  0.2330E+00
     -2.215  0.0000E+00  0.0000E+00  0.2330E+00  0.2330E+00
     -2.174  0.0000E+00  0.0000E+00  0.2330E+00  0.2330E+00
     -2.133  0.0000E+00  0.0000E+00  0.2340E+00  0.2340E+00
     -2.092  0.0000E+00  0.0000E+00  0.2350E+00  0.2340E+00
     -2.051  0.0000E+00  0.0000E+00  0.2350E+00  0.2350E+00
     -2.010  0.0000E+00  0.0000E+00  0.2360E+00  0.2350E+00
     -1.969  0.0000E+00  0.0000E+00  0.2360E+00  0.2360E+00
     -1.928  0.0000E+00  0.0000E+00  0.2360E+00  0.2360E+00
     -1.887  0.0000E+00  0.0000E+00  0.2360E+00  0.2360E+00
     -1.846  0.0000E+00  0.0000E+00  0.2370E+00  0.2370E+00
     -1.805  0.0000E+00  0.0000E+00  0.2380E+00  0.2370E+00
     -1.764  0.0000E+00  0.0000E+00  0.2380E+00  0.2380E+00
     -1.723  0.0000E+00  0.0000E+00  0.2380E+00  0.2380E+00
     -1.682  0.0000E+00  0.0000E+00  0.2390E+00  0.2380E+00
     -1.641  0.0000E+00  0.0000E+00  0.2390E+00  0.2380E+00
     -1.600  0.0000E+00  0.0000E+00  0.2400E+00  0.2390E+00
     -1.558  0.0000E+00  0.0000E+00  0.2400E+00  0.2400E+00
     -1.517  0.0000E+00  0.0000E+00  0.2400E+00  0.2400E+00
     -1.476  0.0000E+00  0.0000E+00  0.2400E+00  0.2400E+00
     -1.435  0.0000E+00  0.0000E+00  0.2400E+00  0.2400E+00
     -1.394  0.0000E+00  0.0000E+00  0.2400E+00  0.2400E+00
     -1.353  0.0000E+00  0.0000E+00  0.2410E+00  0.2410E+00
     -1.312  0.0000E+00  0.0000E+00  0.2420E+00  0.2410E+00
     -1.271  0.0000E+00  0.0000E+00  0.2420E+00  0.2420E+00
     -1.230  0.0000E+00  0.0000E+00  0.2430E+00  0.2430E+00
     -1.189  0.0000E+00  0.2332E-01  0.2440E+00  0.2440E+00
     -1.148  0.0000E+00  0.0000E+00  0.2460E+00  0.2450E+00
     -1.107  0.0000E+00  0.0000E+00  0.2460E+00  0.2460E+00
     -1.066  0.0000E+00  0.0000E+00  0.2460E+00  0.2460E+00
     -1.025  0.0000E+00  0.0000E+00  0.2460E+00  0.2460E+00
     -0.984  0.0000E+00  0.0000E+00  0.2470E+00  0.2470E+00
     -0.943  0.0000E+00  0.0000E+00  0.2480E+00  0.2470E+00
     -0.902  0.0000E+00  0.0000E+00  0.2480E+00  0.2480E+00
     -0.861  0.0000E+00  0.0000E+00  0.2480E+00  0.2480E+00
     -0.820  0.0000E+00  0.0000E+00  0.2480E+00  0.2480E+00
     -0.778  0.0000E+00  0.0000E+00  0.2480E+00  0.2480E+00
     -0.737  0.0000E+00  0.0000E+00  0.2490E+00  0.2480E+00
     -0.696  0.0000E+00  0.0000E+00  0.2500E+00  0.2500E+00
     -0.655  0.0000E+00  0.0000E+00  0.2500E+00  0.2500E+00
     -0.614  0.0000E+00  0.0000E+00  0.2500E+00  0.2500E+00
     -0.573  0.0000E+00  0.0000E+00  0.2500E+00  0.2500E+00
     -0.532  0.0000E+00  0.0000E+00  0.2510E+00  0.2500E+00
     -0.491  0.0000E+00  0.0000E+00  0.2520E+00  0.2520E+00
     -0.450  0.0000E+00  0.0000E+00  0.2520E+00  0.2520E+00
     -0.409  0.0000E+00  0.0000E+00  0.2520E+00  0.2520E+00
     -0.368  0.0000E+00  0.0000E+00  0.2530E+00  0.2520E+00
     -0.327  0.0000E+00  0.0000E+00  0.2530E+00  0.2530E+00
     -0.286  0.0000E+00  0.0000E+00  0.2540E+00  0.2530E+00
     -0.245  0.0000E+00  0.0000E+00  0.2540E+00  0.2540E+00
     -0.204  0.0000E+00  0.0000E+00  0.2540E+00  0.2540E+00
     -0.163  0.0000E+00  0.0000E+00  0.2550E+00  0.2540E+00
     -0.122  0.0000E+00  0.0000E+00  0.2550E+00  0.2550E+00
     -0.081  0.0000E+00  0.0000E+00  0.2560E+00  0.2550E+00
     -0.039  0.0000E+00  0.0000E+00  0.2560E+00  0.2560E+00
      0.002  0.0000E+00  0.0000E+00  0.2570E+00  0.2570E+00
      0.043  0.0000E+00  0.0000E+00  0.2570E+00  0.2570E+00
      0.084  0.0000E+00  0.0000E+00  0.2580E+00  0.2570E+00
      0.125  0.0000E+00  0.0000E+00  0.2590E+00  0.2580E+00
      0.166  0.0000E+00  0.0000E+00  0.2590E+00  0.2590E+00
      0.207  0.0000E+00  0.0000E+00  0.2590E+00  0.2590E+00
      0.248  0.0000E+00  0.0000E+00  0.2590E+00  0.2590E+00
      0.289  0.0000E+00  0.0000E+00  0.2600E+00  0.2590E+00
      0.330  0.0000E+00  0.0000E+00  0.2600E+00  0.2600E+00
      0.371  0.0000E+00  0.0000E+00  0.2600E+00  0.2600E+00
      0.412  0.0000E+00  0.0000E+00  0.2610E+00  0.2600E+00
      0.453  0.0000E+00  0.0000E+00  0.2610E+00  0.2610E+00
      0.494  0.0000E+00  0.0000E+00  0.2620E+00  0.2610E+00
      0.535  0.0000E+00  0.0000E+00  0.2620E+00  0.2620E+00
      0.576  0.0000E+00  0.0000E+00  0.2620E+00  0.2620E+00
      0.617  0.0000E+00  0.0000E+00  0.2630E+00  0.2630E+00
      0.658  0.0000E+00  0.0000E+00  0.2640E+00  0.2640E+00
      0.699  0.0000E+00  0.0000E+00  0.2660E+00  0.2650E+00
      0.741  0.0000E+00  0.0000E+00  0.2660E+00  0.2660E+00
      0.782  0.0000E+00  0.0000E+00  0.2680E+00  0.2670E+00
      0.823  0.0000E+00  0.0000E+00  0.2690E+00  0.2690E+00
      0.864  0.0000E+00  0.0000E+00  0.2690E+00  0.2690E+00
      0.905  0.0000E+00  0.0000E+00  0.2710E+00  0.2700E+00
      0.946  0.0000E+00  0.0000E+00  0.2720E+00  0.2720E+00
      0.987  0.0000E+00  0.0000E+00  0.2740E+00  0.2730E+00
      1.028  0.0000E+00  0.0000E+00  0.2740E+00  0.2740E+00
      1.069  0.0000E+00  0.0000E+00  0.2760E+00  0.2760E+00
      1.110  0.0000E+00  0.0000E+00  0.2770E+00  0.2770E+00
      1.151  0.0000E+00  0.0000E+00  0.2790E+00  0.2790E+00
      1.192  0.0000E+00  0.0000E+00  0.2820E+00  0.2810E+00
      1.233  0.0000E+00  0.0000E+00  0.2830E+00  0.2830E+00
      1.274  0.8029E-05  0.0000E+00  0.2840E+00  0.2840E+00
      1.315  0.0000E+00  0.0000E+00  0.2860E+00  0.2860E+00
      1.356  0.0000E+00  0.0000E+00  0.2870E+00  0.2870E+00
      1.397  0.0000E+00  0.0000E+00  0.2880E+00  0.2880E+00
      1.438  0.0000E+00  0.0000E+00  0.2900E+00  0.2900E+00
      1.479  0.0000E+00  0.0000E+00  0.2910E+00  0.2910E+00
      1.521  0.0000E+00  0.0000E+00  0.2920E+00  0.2920E+00
      1.562  0.0000E+00  0.0000E+00  0.2920E+00  0.2920E+00
      1.603  0.0000E+00  0.0000E+00  0.2920E+00  0.2920E+00
      1.644  0.0000E+00  0.0000E+00  0.2920E+00  0.2920E+00
      1.685  0.0000E+00  0.0000E+00  0.2920E+00  0.2920E+00
      1.726  0.0000E+00  0.0000E+00  0.2920E+00  0.2920E+00
      1.767  0.0000E+00  0.0000E+00  0.2920E+00  0.2920E+00
      1.808  0.0000E+00  0.0000E+00  0.2920E+00  0.2920E+00
      1.849  0.0000E+00  0.0000E+00  0.2920E+00  0.2920E+00
      1.890  0.0000E+00  0.0000E+00  0.2920E+00  0.2920E+00
      1.931  0.0000E+00  0.0000E+00  0.2920E+00  0.2920E+00
      1.972  0.0000E+00  0.0000E+00  0.2920E+00  0.2920E+00
      2.013  0.0000E+00  0.0000E+00  0.2920E+00  0.2920E+00
      2.054  0.0000E+00  0.0000E+00  0.2920E+00  0.2920E+00
