25
Energy = -50.92095061 eV
Ag 12.377107263575217 12.949931387300133 8.608282126839539
Ag 10.39306841554277 9.596579149429276 12.60424702814982
Ag 9.749805392805287 11.7974712444517 8.175789193226972
Ag 12.025496595888384 13.399057691288462 13.927238057545392
Ag 11.999523780804276 10.164004987830422 8.066188213218593
Ag 8.563171982138122 9.343994944664782 14.652570772144658
Ag 7.200041707677401 10.734970940254208 8.156158746625396
Ag 15.201208680844728 10.073975437574461 13.640437399138806
Ag 11.099087948621522 8.485125259725935 10.105309819910117
Ag 13.98437804394087 12.115851576424975 12.232749063316303
Ag 12.50579547146552 10.586382959737133 14.281102031278882
Ag 9.466830740755196 8.994907413416607 7.7692305047234305
Ag 8.002114788201983 11.185811216361566 12.638669142956326
Ag 9.755570376692074 13.384974414073605 12.246229108937191
Ag 14.485306555852613 12.462587500623343 14.97770886865814
Ag 10.11494916599835 14.219902954666198 9.59431928889721
Ag 11.364205323307488 11.49930466527239 10.766574889045302
Ag 13.741528614887525 8.272789871963436 9.276441928068216
Ag 14.0717533541077 11.028265930920046 9.708265541245549
Ag 9.982612446793876 11.68453187674633 14.52607217112401
Ag 14.371298475689732 14.68196637514928 13.233301549549603
Ag 7.932770312135443 12.545345105530744 10.183493865999608
Ag 13.152247197135766 9.373322272077711 11.80706429765557
Ag 8.73618237494262 9.87366397373761 10.29076190883801
Ag 12.389980626283682 14.211316486868494 11.197830118996215
