18
Energy = -116.58550931 eV
Fe 11.96699744973953 10.202065847620277 11.150651392289701
Fe 12.406599718544449 8.609231484849728 9.57529971966116
Fe 9.684343202272414 10.631504607894291 6.5319991881093715
Fe 11.454419218948718 10.74654365623578 8.804748606932002
Fe 10.830564916327269 8.73721104440216 7.75878064779509
Fe 10.197518654250066 11.657355107885776 10.533284480895292
Fe 9.783669160842361 10.235236965093096 12.58873471785873
Fe 10.081926105929668 8.949748187156278 10.482014361050592
Fe 10.901921979160601 6.841001518037883 9.472531219249591
Fe 8.222681105034995 8.766883076807773 12.24624825020946
Fe 8.84144694625841 12.284313058981466 8.731946929337779
Fe 8.04211634751505 10.750518602482481 10.777113432445798
Fe 8.850849143428771 6.929052433005999 10.674321299068644
Fe 9.055289913738374 10.073047740852427 8.6275912610038
Fe 8.954664482732568 7.495941489324886 8.369619234515028
Fe 7.452408762820784 8.640387258802196 9.818016332211998
Fe 6.910202142725828 10.813191908066601 8.728769198946397
Fe 8.01710337008234 9.291488632852424 6.78305234877162
