14
Energy = -90.97856225 eV
Fe 9.661969790593696 11.64278666327782 9.239995971971988
Fe 11.008525427968834 9.990764341166669 8.014752754598607
Fe 9.809480706499189 9.539219244324439 10.155195543658381
Fe 8.525506022870436 10.144857342357314 7.912657116867854
Fe 7.586769558999335 10.669188644333508 10.153726182015347
Fe 11.553569699261535 8.161047712204224 9.568518311360231
Fe 8.204106806500432 8.822309024755034 11.645905110417816
Fe 9.612937858164035 9.072356497126043 6.1964166704591515
Fe 9.79798329318043 7.8175311295808685 8.121855034510936
Fe 9.5395182993034 7.090639827712469 10.496315429807087
Fe 7.572154430873886 8.25850361456992 9.510924026051194
Fe 6.293676484369555 9.725528182528068 8.2842324045426
Fe 7.560165653711495 8.017315541506179 7.038024669294872
Fe 8.206139300916602 6.233676415225696 8.622727885718872
