10
Energy = -63.09245862 eV
Fe 9.89339653105207 9.400596535580574 7.747823988956086
Fe 9.970059574733678 10.999541572834215 9.42722756130804
Fe 9.319390402449852 7.122727727018725 6.630780810401648
Fe 9.495317595421197 7.354884594647818 8.890789005826036
Fe 8.649124876557947 9.187754800865187 10.176010983958834
Fe 7.919571460440085 10.560212680636605 8.513420868080907
Fe 7.775481314465052 8.73348502621231 6.83718302220103
Fe 7.612226888297136 6.8269605636674005 10.05184427357078
Fe 7.409823135801542 6.396667380145153 7.761540098246734
Fe 6.667486616729656 8.458597163705745 8.844374446872648
