15
Energy = -96.52670457 eV
Fe 8.864766604374182 7.299578364029007 8.805329143946432
Fe 9.995435205584881 10.137000391360365 6.201084403490715
Fe 6.805174457845478 8.449903499049466 8.280068649518274
Fe 9.155334810626131 7.582580988840028 11.199053985967232
Fe 11.398761115035306 10.29059282049175 8.110278155467762
Fe 9.835051662806153 11.952462605808908 7.729999840532329
Fe 9.661568433109965 9.764830477754536 11.973955838662496
Fe 7.558918337506277 8.741789451094244 12.274439401632312
Fe 6.975617263276178 7.541671563208306 10.288941116586022
Fe 8.456343147082682 8.14036986689676 6.595546974691546
Fe 10.701209202874045 8.828010502915529 9.958683720558945
Fe 8.147797979814726 9.715896247430768 10.277499410001536
Fe 10.64097181739393 8.173527900096241 7.4910046262338374
Fe 8.936114809939205 9.778908227608726 8.205612151763292
Fe 10.306479298580483 11.160357964748309 9.942125221719905
