18
Energy = -118.44992805 eV
Fe 10.912787221511806 9.66597520853468 5.767889502379869
Fe 9.534699564739505 10.826911198167641 7.463727269380555
Fe 8.150024454044484 9.273465063623773 8.756003129567482
Fe 10.149839413991593 8.474635847082848 7.777246701932539
Fe 8.757482681207023 11.845488898703813 9.528155286674277
Fe 11.89582674731849 10.285300293453695 7.888658746317964
Fe 11.083549690407796 12.264969259094977 8.88654995471948
Fe 10.257435111237475 10.068476989001148 9.72489668620733
Fe 8.209886762540114 9.93131597416396 11.057369255157688
Fe 11.89192757169939 8.323474726644971 9.47102695193229
Fe 8.4152015647596 11.852502127726558 11.991400363514376
Fe 9.538924903638435 7.805673476558103 10.127901222621798
Fe 9.29974208233962 8.243851717869772 12.53649961016588
Fe 12.609829552453784 10.614255556601865 10.167243592464645
Fe 7.812418828708804 9.820655291387204 13.354240726121775
Fe 9.9977264736119 10.421456430645362 13.217102017870616
Fe 11.311177709243491 9.158329581202405 11.704074706397815
Fe 10.795824688726453 11.812128574809236 11.23700891942782
