22
Energy = -148.91731503 eV
Fe 10.689232373261257 12.956620278110167 10.87987406507227
Fe 11.985926591955277 11.047000541684142 7.763480320706929
Fe 12.704524443631364 11.919120409871047 9.938930408108146
Fe 10.660768811137235 12.973714688761472 8.444276957830546
Fe 9.345011880407382 11.059518436641534 7.436268643362713
Fe 8.468289970695338 12.357563466257249 9.551246036519744
Fe 7.145774333323233 11.0357430089934 8.179834376330971
Fe 8.431901290682854 8.884890341234026 7.403966917693093
Fe 7.023982421549468 10.96602054203361 10.793594040725106
Fe 8.402865560638055 9.643300752299496 9.553256736572681
Fe 9.230234204837384 11.08532158443578 11.63533863304069
Fe 10.640033960281626 9.007601996874834 8.242314525971606
Fe 10.501026986677822 11.011453089760392 9.581946330023444
Fe 11.719171921843254 10.734825930676596 11.805276839135123
Fe 12.550293556980847 9.509512610470258 9.807262763889112
Fe 10.300124121771455 9.02064631329345 10.719600569610256
Fe 11.612670229026227 7.21030736938233 9.904099337406356
Fe 12.252068536302263 8.303381558450567 11.974153356260503
Fe 10.288606447495937 9.167915184045588 13.09656604640187
Fe 9.19075968040332 7.37270216340271 9.518947966961745
Fe 8.255742088678074 8.75675940613968 11.780780038186302
Fe 9.991511135496324 7.001211683649759 11.828397874793083
