23
Energy = -155.55810078 eV
Fe 12.160404532837008 7.88968127579171 10.374497140455052
Fe 8.873074325669648 8.937434062228872 6.946302174199953
Fe 10.749158312986307 11.672427619818224 10.279402660426223
Fe 11.42576617989595 12.37323652706884 12.3880985325043
Fe 10.23686386685006 14.3397367491949 12.656443960589655
Fe 12.30205581971273 10.152530343211744 11.559243517114698
Fe 12.18135949425456 10.056171910623414 9.012572878640368
Fe 11.589807054696744 10.2242427534968 13.739056220652982
Fe 8.837414946293674 12.816786476945985 11.693265385004947
Fe 10.84669213879665 8.301920456512201 12.508536756490386
Fe 8.248662005925919 8.55642771501528 9.197096593996688
Fe 8.523209895030648 8.596020117518734 11.802023675195318
Fe 10.683949732917277 13.959119515715148 10.477703451872792
Fe 7.442360530466138 10.624734427774056 8.275326901923286
Fe 12.802441044900917 8.083949683004345 7.992226360205045
Fe 9.74388262994807 10.652543662008949 12.442742656956037
Fe 11.305367203140008 9.671854653832693 6.810673521094241
Fe 8.824598128543471 12.745683196268029 9.287611509874798
Fe 9.764826997684594 10.65285820731408 8.322242150375505
Fe 9.856409035503663 7.03038274480328 10.479892951059226
Fe 10.540056207495025 8.056694267323856 8.392712351066054
Fe 10.271426993477041 9.38266500566974 10.39439863454898
Fe 8.291363237941558 10.724048943826936 10.469080330721429
