29
Energy = -197.27332581 eV
Fe 10.511811764933679 10.975272202616102 7.295334855110277
Fe 10.765768718551152 8.620930687918127 7.947968411959205
Fe 8.543756597005558 9.599410535016377 7.308580246343333
Fe 8.574846954070365 11.619880209505139 8.780110054097056
Fe 12.375746031894664 10.474253619020807 8.607634898731519
Fe 10.799477649772568 12.388476250300542 9.210910599797783
Fe 6.758142060050171 8.077883335217182 7.486421101481944
Fe 11.160918218142413 6.238980191755776 7.926382237808546
Fe 8.901433347916285 7.004230920879347 7.6955585803460425
Fe 6.495012641795324 10.27995080359326 8.5137813888885
Fe 12.97933383196541 7.90151533029433 8.194952733690211
Fe 6.737718097597627 12.541561864534826 9.86180122940661
Fe 10.09150626164596 10.004722883026004 9.723071092993697
Fe 13.012046242319794 12.66849252148686 9.533867616112214
Fe 8.063375780084273 8.60692029610623 9.322911532940704
Fe 8.796862124248896 13.600543661927126 10.339920321803532
Fe 10.024740670396893 7.341352536970238 9.964551139257505
Fe 7.805767678797123 10.542903472529256 10.615932068977433
Fe 12.221503603500796 6.424297445234503 9.981770457781785
Fe 11.314557408765076 13.453705900510828 11.193574319963732
Fe 12.206198925473771 8.757697411858594 10.315053065083562
Fe 12.16577383144548 11.145589244527093 11.078789706930525
Fe 9.755282527136224 11.70946768905867 11.43195302829749
Fe 8.59114734740939 8.354095473799209 11.652916166803955
Fe 7.573407948806446 12.557234771513668 12.029018117013571
Fe 10.652578400423932 9.477455805553351 12.017886131562303
Fe 11.033177282076913 7.153626487649664 12.11881075232799
Fe 8.540911687959168 10.379266796543634 13.012057688393488
Fe 9.648174860500745 8.272715041250722 13.72964373201212
