21
Energy = -139.67979971 eV
Fe 13.455100705482035 11.65547982816228 10.044069068234569
Fe 11.935721574838924 9.968261094513517 9.261999442893035
Fe 8.846368503462342 12.212385092335953 11.056336457227104
Fe 9.816188990317855 13.647138907521345 9.48351956694175
Fe 11.430463769435308 8.07469213714883 10.804594142838281
Fe 7.883861990648342 7.635160449278494 9.22074476689986
Fe 12.599892699262961 10.21199858429566 11.69164526304333
Fe 7.638239102363191 12.307601494157991 9.061812064397373
Fe 9.00582312166415 8.146423013253257 11.283240961224317
Fe 9.914369702583402 6.474760396507297 9.610339609024784
Fe 9.801318247594127 8.938002343341468 8.940062862304973
Fe 9.790562082434905 11.345299148173138 8.740969018219955
Fe 10.831583513340671 11.581954659813237 12.61092285762893
Fe 9.545109204154933 7.3055602709694245 7.408870090908183
Fe 10.223501129275363 10.231720638385394 10.890689644735469
Fe 7.929806516316421 10.044611362609588 10.090599173625362
Fe 11.342624358044494 12.164532549642496 10.407354364993195
Fe 9.02620364926073 13.055802795998426 7.400509843342369
Fe 8.56482731907024 10.318663137701174 12.618655002090614
Fe 11.683212813716878 7.546057014761662 8.455393735763412
Fe 10.681895477725138 9.080569552421636 12.8643465346554
