34
Energy = -231.57926602 eV
Fe 15.007918123249665 11.971262583973209 17.671758269755273
Fe 11.381142340911474 11.295547444701137 10.35443608402955
Fe 12.381173222571185 12.919595296448502 8.731190600631994
Fe 12.77674467261989 10.22971307788672 12.029707934133668
Fe 8.517976077743363 13.545188852119463 9.671296812563327
Fe 10.165423531971507 15.648857351672282 12.33131126672144
Fe 9.47426205118132 15.650406929028675 10.225826334149263
Fe 11.358285972925568 9.705096858004799 13.882813935388299
Fe 10.61347120971135 14.474224099129794 8.492197329040742
Fe 16.114054433285492 11.754095757973424 13.762831814795762
Fe 10.5359052571843 9.514603088252723 11.548946278910769
Fe 13.673161402622288 11.406965064456058 14.020579403762818
Fe 14.522641699708721 13.810874817096131 13.207676460928694
Fe 14.904960016939402 12.930583426893307 15.454060126581576
Fe 12.523801666775585 12.646193912953198 12.326483355424276
Fe 12.633154880307808 13.879884992740356 14.718081288489207
Fe 13.620287239595744 11.310506425249313 10.000655556042167
Fe 8.999764558643298 11.483116069831244 10.6881023077149
Fe 8.729792570534256 13.7495585655061 11.941129228583293
Fe 14.855668524336954 10.489576058362136 15.910927045544813
Fe 13.416007587203591 13.876153939397241 10.537207311048952
Fe 12.451720363590873 15.044971261340297 12.454654520637648
Fe 10.304526810512067 11.676882610702432 12.595614593952083
Fe 14.92023009016482 12.110236505852734 11.703809783450414
Fe 10.704878308750335 13.775059392830027 13.598863054226078
Fe 15.073474845868475 9.846234319505603 12.127779553639705
Fe 15.930860757592614 9.45805257931498 14.206365434189014
Fe 10.139637674947268 12.082808289520479 8.627284533537633
Fe 11.281782636346389 11.815512436012087 14.82111277841956
Fe 12.933317424526772 12.12295327808461 16.430832376679373
Fe 10.83461682663496 13.57769928746989 10.748669953800174
Fe 12.602781838791877 9.854707112676014 15.917378637967378
Fe 13.661716970981551 8.88364632452695 13.999361889396
Fe 11.855672664994549 15.727973467397131 10.273709237695742
