33
Energy = -224.31482728 eV
Fe 16.80561886242919 14.690773631989273 7.849966681859707
Fe 9.913096357091696 8.68195922492516 13.874150045058817
Fe 9.241916794990031 15.103289814410813 11.848447164828833
Fe 14.060457715995732 12.060764066553274 8.979810531520199
Fe 11.103410750755064 15.01217682882449 13.593840811468286
Fe 12.337936430914697 8.754597306645078 13.890268517132293
Fe 14.632362930923989 14.384678524104487 8.53065540755444
Fe 12.87199600471225 11.457159976163576 14.080890522491009
Fe 11.179685977712447 9.15127803122874 10.145660251423788
Fe 15.516862361153724 11.353614102129422 10.915798368893514
Fe 8.431784043160349 12.893957942299188 11.612833189077737
Fe 9.181213516037385 9.198008763771362 11.698693658460426
Fe 8.955548814250472 13.793750901986947 13.750438615032035
Fe 14.193191232530452 10.035555171116716 12.61885060693739
Fe 14.873593415038487 12.683440713920643 13.154974756986807
Fe 13.348561415189897 14.563304544237209 12.392589428790831
Fe 12.99746934329967 8.207773060537956 11.639668352392672
Fe 9.691735177284164 11.20792221546041 10.629095680753228
Fe 10.802537067504737 7.559241097408192 12.029061441410342
Fe 11.573476859163025 10.385981990669736 12.19990516087578
Fe 11.460560861174095 15.45114290800218 11.23148984305269
Fe 12.78228304185169 13.875682698668001 10.04704577271655
Fe 16.350475488958182 12.737333012693451 8.959854110814609
Fe 13.574584679801747 9.979770107021059 10.175435836444935
Fe 15.169677044087434 13.794870065270272 10.898673498779708
Fe 11.786706607770698 11.602138043891 9.74881347587048
Fe 13.32120924921081 12.052376059763898 11.568844355792848
Fe 10.840875958957293 12.795149339459172 14.709548750995221
Fe 13.045209370507472 13.74868739031947 14.528464778900103
Fe 10.939841050610937 10.424354731426575 14.97003989808175
Fe 10.238567159311375 13.633828141367314 9.994022007452966
Fe 11.15408642823097 12.887470462636072 12.16633729246859
Fe 9.361967207369942 11.238429533688679 13.235819142088976
