37
Energy = -258.00566967 eV
Fe 11.265418063657274 11.186993332290054 6.31229977981751
Fe 8.578586906806427 10.934755862681182 5.863644444854439
Fe 9.707232126837173 13.050239003550793 6.4696023518092085
Fe 7.643920500676888 8.483359985698133 6.1721486519745365
Fe 10.00188461082928 9.284161216454587 7.032357234782652
Fe 10.169313976591315 6.737334042553644 6.843182240866553
Fe 11.69150904193537 12.565476421805338 8.297270989101108
Fe 5.146738429011129 6.173269809628418 8.780567469783307
Fe 6.155729857566602 10.402385042560212 6.520572825303126
Fe 11.785886097410582 10.124727758711243 8.674937688370887
Fe 7.25927176039663 6.043902533461399 7.514957141080366
Fe 9.65834284288414 11.454734622724157 8.081982190771473
Fe 12.162101235074877 8.202174047425533 6.989624108529995
Fe 7.390173156331805 12.421981831378291 7.6303653440356864
Fe 7.794453247421669 10.075164529896384 8.040307598529282
Fe 11.870318118161439 5.851494599290663 8.239460593292934
Fe 8.563125327628251 7.85660803383072 8.247233070341387
Fe 6.053727561869142 8.32183969403945 8.150863886649397
Fe 9.479439715159609 13.506146060585595 8.976299538087247
Fe 7.052931552534263 4.597322864635441 9.42894209300631
Fe 9.433625900578795 5.6998383503960035 9.125596403178521
Fe 10.781743389940758 7.8847249172932035 8.98929224418896
Fe 7.27167138786217 6.872206550841799 9.844545644509973
Fe 9.492673455549273 9.702474137689672 9.670807504496834
Fe 5.129869501218202 8.075709548780376 10.41428832182369
Fe 8.032609273054716 11.681431361859133 9.999033776468247
Fe 7.2070042545944375 9.23998202786883 10.31544399229521
Fe 12.99417738956117 7.759759390586296 9.18534332861986
Fe 10.579375135140328 11.608086073655356 10.346781052012387
Fe 5.695175928519371 5.811109150438852 11.178139269458441
Fe 9.280384469156656 7.756100346691135 10.958204022472918
Fe 11.202324632431033 6.23704381445749 10.58763753180404
Fe 5.82500090377525 10.761492072063211 8.999003483154786
Fe 11.257544243736147 9.020075343829555 11.058948156626515
Fe 8.40491581432633 5.451955732576405 11.281916916523974
Fe 9.056227763851668 9.843368691045345 11.885391974973672
Fe 7.148815044564889 7.543813813371531 12.116249753048876
