35
Energy = -239.80104573 eV
Fe 13.867205417459122 6.014259477506545 15.318037596040503
Fe 12.091170499010406 14.336781841146198 9.006774025244736
Fe 13.906039116633982 15.98134606065053 12.182113860814525
Fe 12.089463881349012 14.325784260234823 11.654742842238267
Fe 12.483457355464449 10.09570499252692 10.623924356852088
Fe 10.015869532615316 14.694090382021342 10.032836033229447
Fe 15.203356992206617 7.483626808569945 14.104569594505767
Fe 14.077019605181043 14.920538657376436 10.11268667889933
Fe 13.382364033101807 12.433596349098687 9.822706689570195
Fe 14.695535088198117 9.893697570612433 14.161655216609013
Fe 14.407143980801353 12.087914035772176 15.848656901124894
Fe 11.896902836902237 16.38436972282432 10.654622034673377
Fe 14.47320732914272 10.856846685040633 11.711234844838541
Fe 14.416127321965567 13.269338177073209 11.804185320518146
Fe 10.729747539018907 14.103825928048153 13.899353030667537
Fe 12.936534098219193 8.052653375185038 14.497317633909685
Fe 15.655803826284828 12.336404233499964 13.669433458579329
Fe 13.29183539391775 14.098702168292482 13.822620666039358
Fe 10.242873989521064 10.715848990360202 11.602869904140558
Fe 15.737532388281279 14.824476161310326 13.052383603006232
Fe 11.99270876123235 9.767801315528347 13.04077252666656
Fe 9.760093962004463 13.113122153091844 11.90457855758241
Fe 13.905043793297654 8.56952621848644 12.252228318341002
Fe 15.699111332286028 14.132404671595033 15.29226700786325
Fe 11.965064509085362 15.445422070622344 15.504800026841647
Fe 14.21888307587547 16.13645882586912 14.686782854714737
Fe 10.70378144521396 11.632353298950434 13.917609446484711
Fe 12.468038352926389 10.33797786646251 15.404006479538705
Fe 12.030608587720186 12.839008002547466 15.670187928467342
Fe 13.359258801887211 11.734092197560313 13.739051933457134
Fe 12.109973592272244 12.049964680919174 11.90063575092738
Fe 13.759281843204345 14.360051558585544 16.542667750493653
Fe 9.984730088587353 15.651513328064421 12.171392099118231
Fe 10.876200334011443 12.368217831230877 9.826961470039729
Fe 11.93803425876261 16.311857666592907 13.320032019848346
