30
Energy = -205.38567188 eV
Fe 12.807154568013337 9.083429124211257 11.178198194739332
Fe 13.110982487704815 8.293910845606275 8.782302124040887
Fe 12.09874740094415 11.822306595184605 11.343466272850133
Fe 12.223958242846848 10.406560568922885 9.295443934936548
Fe 11.93777311399015 12.776497437260677 9.144967484905338
Fe 12.430702320844633 6.771646438017084 10.518024839759804
Fe 10.651003637477078 9.908442955770672 11.842670997298189
Fe 10.482006940277856 13.67712695559697 10.847440486956957
Fe 11.11350082366465 7.607414741321546 12.208327508528509
Fe 11.468883214308995 6.579417800137333 8.312413038001344
Fe 11.295061896712088 8.831309039067074 7.292201167816032
Fe 10.468951606475617 10.95224014298304 7.772556715553722
Fe 10.67861494024725 8.631265995525409 9.719374982284078
Fe 9.872032507059886 12.078436070072872 12.421458624344082
Fe 10.014160236039517 11.260197342837394 10.008610530944683
Fe 8.247797865996654 12.822601190385596 10.4873919966058
Fe 9.71990657468153 13.323868405365292 8.601633247060118
Fe 9.402072330268076 7.566928777160005 8.221460603139912
Fe 8.796875396929613 9.458699694139076 6.922724846767174
Fe 8.934842386838882 8.122262480148583 11.343015531556478
Fe 10.071039141336511 6.299034574858813 10.2635901908169
Fe 8.198603674766522 11.587686637581037 8.261384488096198
Fe 8.2095742805967 10.566480266587593 11.447882553385513
Fe 8.328857707700545 9.406889153650456 9.31343192070015
Fe 7.193015368791908 7.7440636095744955 7.504077461179873
Fe 7.5880608299330685 7.015872824817599 9.735453857959625
Fe 6.631425344185312 8.77136281501182 11.366362091873286
Fe 6.533308078107448 10.048655197675094 7.544880834754271
Fe 6.4106263277705064 10.814450927771711 9.796604341349221
Fe 5.760894925438825 8.516873305018489 9.273990222251893
