34
Energy = -235.72504553 eV
Fe 10.930312948511515 10.604568096158713 8.490932081914774
Fe 9.623867576705749 12.076457265285203 7.232324150406019
Fe 12.020610002486103 8.231955241264105 9.150698143966627
Fe 8.220972749974877 7.696601422920544 9.878209746648722
Fe 11.995133484324667 11.398355799364284 6.3766336531926004
Fe 8.627059620857155 11.68742150912094 9.553677598219503
Fe 12.120008965438174 12.744474181974345 8.33220484568143
Fe 12.281572678451885 13.596837703727685 10.751375160949378
Fe 12.89000252547817 11.864868380825643 12.232998742769244
Fe 6.876697103283166 11.873829847581206 11.472591455818092
Fe 9.057199901668774 11.109539577178847 11.857233138202048
Fe 13.343283661634178 10.270486471609194 8.230029496883525
Fe 8.33427273067662 8.265181935195024 14.313026317193948
Fe 14.151432172882126 12.196907406138545 7.370029035103501
Fe 9.50759847922221 10.395315895037387 14.210091100273797
Fe 10.328570047870356 6.908591947797511 10.378673906443433
Fe 11.208858628516674 10.186104242705492 12.469693211212114
Fe 9.257179899798032 8.492245321325443 12.217654090122515
Fe 10.006741515390097 8.118474691806238 8.09625403995239
Fe 11.78996176413918 8.07897637520952 11.684708244257411
Fe 10.961456390215599 11.836648707593643 10.62986525065942
Fe 8.093639365191848 12.21639368737672 13.603287693080963
Fe 12.546981911007226 10.094482719300725 10.520881595805506
Fe 8.357430499452073 9.809079355454582 8.260774921988087
Fe 7.065436943299362 7.7623890888948015 12.124597104122538
Fe 7.203564977606964 9.992792227196468 13.10118082629888
Fe 7.438369747689021 9.715788350582347 10.643395736011165
Fe 10.854582818517548 8.369650741257416 13.967329383005033
Fe 10.634723756382078 12.50949285968898 12.960806478177183
Fe 13.83243044150724 12.035973537305606 9.843955709172853
Fe 10.008641633154078 9.472733903808093 10.265824019372076
Fe 9.8760641845228 9.87152248220111 6.347350131484537
Fe 11.981060950465306 8.977175537544964 6.763708631219899
Fe 10.09522710953512 13.471819349133439 9.198518826300019
