4
Energy = -21.97190259 eV
Fe 10.089644207418447 8.387431115556694 8.332064121154964
Fe 8.087070122852277 9.088470051919685 7.62074041240952
Fe 9.160153867795536 9.832499211136536 9.776577866353861
Fe 7.92405683369312 7.969876495525084 9.552123221788195
