4
Energy = -19.61042478 eV
Fe 10.359237455624527 9.092972211367671 10.834631972169449
Fe 10.001398765426352 10.820167426093139 8.99867105607391
Fe 9.524142003705553 12.185976901109644 7.527791607592944
Fe 10.480290958585472 7.708449236844137 12.353879384112927
