46
Energy = -320.35730942 eV
Fe 8.478544507560363 7.192075268793975 5.3092792302084995
Fe 7.049737876683434 8.84139349896008 6.500549494461033
Fe 10.27994256920466 6.256099743297748 6.563511183630908
Fe 11.013492665723549 10.612581098155095 6.505834260157768
Fe 8.545132186027697 10.860662548030733 7.08916171206208
Fe 11.781133579624228 8.292114400431144 7.208837139000362
Fe 9.6162090878264 8.723926547218266 6.608707087974974
Fe 7.870820599386496 6.7357134564252235 7.495244653929557
Fe 6.491447739327539 10.502320467186328 8.564222486174817
Fe 8.320961638133367 4.8165742337633874 6.279109544018852
Fe 12.203935714301055 12.495532394814134 6.787437178194271
Fe 9.851817197154869 12.778098970715998 7.1191032144547215
Fe 12.927609389852758 10.489051319601542 7.89674589667452
Fe 10.511969422973262 9.674589637660707 8.720601618488066
Fe 11.959900364568822 6.311619386802636 9.142513439771617
Fe 7.479335080584051 12.783113380287704 8.52747705212086
Fe 8.2158532207043 9.010896750968652 8.567786824222502
Fe 11.425587907726763 12.051339951124422 8.794111911030843
Fe 9.112964796079352 11.501299256570741 9.43320794189923
Fe 8.08606821088957 6.950471701058913 9.980310897593831
Fe 10.070855010692496 7.354372067428926 8.577739025036138
Fe 6.0666001622362264 7.979338292609402 8.5388226783267
Fe 12.656938638146446 8.730679539006635 9.588729302446543
Fe 11.148275948311053 10.492686361560327 10.863945274460688
Fe 8.793355514517787 9.429191800972028 10.74860927691282
Fe 10.683696106727652 8.072070385857613 10.772493654711885
Fe 13.189072192743986 11.065242797869503 10.2680869285104
Fe 10.991772626107101 12.920185947180636 10.993333384114846
Fe 10.264352997508334 5.800985039583962 10.845517229361644
Fe 8.173284799373661 13.416123117439605 11.027765644474028
Fe 9.655172891336504 13.82033001594193 9.175845507912493
Fe 12.810126417692334 6.945857304207664 11.267706393696749
Fe 6.981532491761465 11.287266375949192 10.753660452876009
Fe 9.396226780080472 5.1708596103936975 8.599288473985851
Fe 10.092195755721715 14.886498226103212 11.379600287120153
Fe 6.541914378042001 8.786864536713699 10.770314054780194
Fe 12.525891868997693 9.146657046301616 12.211741269452734
Fe 9.231080256694947 11.455917157548312 11.866385360669174
Fe 8.619894317858694 7.475975027077246 12.199585231126017
Fe 11.471651654942741 11.494413091357567 13.0265572769844
Fe 9.73767938312972 13.209588387774497 13.199228911001217
Fe 11.033696793522815 7.15606009479077 12.850824142273138
Fe 7.292932507177344 12.191085401528444 13.024593786362551
Fe 7.605835071655911 9.7742982855244 12.809305152347
Fe 10.094999483838015 9.458403644815741 12.97637576566212
Fe 9.198915722327834 11.149989958075068 14.120606294805288
