5
Energy = -28.95793187 eV
Fe 7.5202784678985735 5.196821198710891 6.00832304435964
Fe 6.2342168734738745 6.117908215493724 7.651114654836406
Fe 7.823124263179735 7.4509625114412925 5.961682819142425
Fe 5.71865574229165 6.649571387975896 5.476077089813933
Fe 8.520213269033903 6.312971106800407 7.837923836359864
