53
Energy = -375.39359725 eV
Fe 7.960323486892714 11.711130546367453 7.145654112467509
Fe 9.935454603734414 11.63688070971201 8.218583862150767
Fe 10.413638598478187 6.650822589174641 11.972868321172248
Fe 9.948838213048663 12.631492985857127 10.680864733527862
Fe 9.250435076761816 7.884437875821335 10.210729544099495
Fe 12.127852228034593 15.652113647356623 9.902188174582278
Fe 10.939849068779147 13.89879835974122 9.018191561612
Fe 8.510414265809068 7.7462822414126284 12.915380584923698
Fe 11.211187866697118 11.439043308758135 15.351905990424337
Fe 12.095158731327286 9.68357233587554 13.736147431858786
Fe 9.713534577447033 13.7356996004228 6.998093085006937
Fe 7.761766804022602 9.3252684019552 11.19746616023205
Fe 11.97866704883589 11.469312984675945 9.376491974534762
Fe 13.199999949848003 14.505892050549544 13.369498399568423
Fe 10.613611870187862 7.530382406071614 14.298742827339373
Fe 11.02173957734863 13.651170792731087 14.250075233821812
Fe 11.879668133385973 10.452450546895067 6.996672792581687
Fe 11.738794252840862 8.173196145902354 10.454425758083136
Fe 14.160290256983654 8.789316999364171 11.209441153824548
Fe 10.860478828140403 11.638318612483362 12.794013837780959
Fe 10.275244974362728 9.085880881461511 12.312091181835376
Fe 9.449718383720914 15.027286560184013 10.55405961731333
Fe 12.919316218635284 12.160448328190858 13.914557261338079
Fe 12.854733491382532 12.639841284906137 11.37935976389103
Fe 8.530830889107287 11.406439817541829 12.160151333140618
Fe 8.376016542691918 13.632603259480707 8.897012562885404
Fe 12.4911323575146 7.619240906590129 12.68706009684445
Fe 14.39737203962465 11.189375820426598 10.287221920600588
Fe 7.818856815731024 11.458116879637203 9.76373132529895
Fe 12.248159615352373 10.130388384228812 11.32416635510597
Fe 9.950486144072205 10.285393388622584 10.335956873493771
Fe 13.645804864211085 10.16524117280849 15.289676925079672
Fe 12.876134032410917 7.609518296046249 15.084298941977746
Fe 14.934153741048164 12.983162916352295 12.592276181099681
Fe 14.185912361531027 10.694604439817752 12.678518715808305
Fe 12.029315742804178 12.814257348478655 7.132517803924113
Fe 9.75350700354696 9.747766344214075 14.479311972288349
Fe 14.510552819070936 8.591020972947035 13.695081275148715
Fe 11.496970982569163 9.18075353058864 16.091544006976534
Fe 10.73665431410725 9.077012401979 8.480761314265104
Fe 9.036054097515391 12.049857559645085 14.436767368478963
Fe 7.519554852463719 13.366167655350445 11.169298705009876
Fe 13.947440626717325 14.98185727992816 11.216122507679215
Fe 11.379148766893934 14.427790763747787 11.850318110361933
Fe 7.6297316042996925 9.95932992539288 13.624535939954336
Fe 9.184303479172636 13.807202856534698 12.816973649522081
Fe 14.011374026528046 11.544765133873312 7.905452484435743
Fe 13.191282337445 9.459898436815955 8.95694936674062
Fe 15.346665258293807 13.316653695925195 10.277923617073295
Fe 13.351561040301831 13.578918229011677 9.130343383048965
Fe 10.195545313830628 11.864504940482675 5.632541696502816
Fe 9.50335978472385 9.802579805688332 6.57424970948678
Fe 8.287635313383749 9.522770915642653 8.557965767466989
