6
Energy = -35.45665371 eV
Fe 7.33058882788745 7.89442656868281 9.17945490023397
Fe 9.031290155845975 9.13213217200124 8.399373892556582
Fe 6.766340893308284 9.141355357832666 7.39160144755839
Fe 6.7547439973101815 6.653504429156489 7.395015046271146
Fe 9.032054068960331 6.656574069055002 8.39682791947075
Fe 8.45501505668755 7.892040403271788 6.607759793909271
