6
Energy = -35.18153869 eV
Fe 11.009851858167293 9.221737784021144 11.258034455537915
Fe 9.113658302445513 10.50310638106368 11.197682401502826
Fe 12.291407892155837 10.747135975680061 10.126624344994967
Fe 11.137508928839782 11.50468676378118 12.16134011594412
Fe 10.274834717003836 10.096674109918256 9.263427578454
Fe 10.454971157578305 12.333874270296318 10.31563407763606
