7
Energy = -40.64543551 eV
Fe 9.863202234443722 8.017436630425465 10.53015289345561
Fe 8.6945013 10.03939303820633 10.532144093265979
Fe 7.525800365556276 8.017436630425465 10.53015289345561
Fe 7.525800365556276 9.371565969574537 6.8588497065443965
Fe 8.6945013 8.6945013 8.6945013
Fe 9.863202234443722 9.371565969574537 6.8588497065443965
Fe 8.6945013 7.349609561793676 6.85685850673402
