8
Energy = -49.39853257 eV
Fe 7.351155991178081 7.850577855650637 10.38684684947135
Fe 9.373742011494778 8.99307463311253 7.239807769502332
Fe 8.787570257089657 10.825922797375991 8.526635811470266
Fe 8.37304964751366 6.937283880876911 8.522927013965862
Fe 7.439158096182283 7.901224789345102 6.677316779557362
Fe 7.118697101260539 9.223445230844472 8.545370170207427
Fe 9.285933221368246 9.000298842355651 9.84357116615922
Fe 10.572925673912756 7.570403970438344 8.55975643966606
