9
Energy = -56.18586009 eV
Fe 9.558038556733003 10.362913277436895 7.924690026905665
Fe 8.774318094154104 8.638208764806944 6.586535092260487
Fe 9.009988430459922 7.253232832887954 10.133706368948232
Fe 10.646277480424157 9.488844013599586 9.789833371174812
Fe 10.170515330178826 7.894065324518424 8.27430547209633
Fe 8.442934603626904 9.382090865995306 9.880317496047871
Fe 7.810436040483551 7.2275959443465725 8.169558943401542
Fe 7.2382352178973095 9.71911837038975 7.899161975800773
Fe 6.579392866916672 8.342828980544304 9.697833476862572
