 vasp.5.3.5 31Mar14 (build Feb 01 2018 12:10:03) gamma-only                     
  
 executed on             LinuxIFC date 2019.03.21  21:43:44
 running on   32 total cores
 distrk:  each k-point on   32 cores,    1 groups
 distr:  one band on NCORES_PER_BAND=   8 cores,    4 groups


--------------------------------------------------------------------------------------------------------


 INCAR:
 POTCAR:    PAW_PBE Ag 02Apr2005                  
 POTCAR:    PAW_PBE Ag 02Apr2005                  
   VRHFIN =Ag : s1 d10                                                          
   LEXCH  = PE                                                                  
   EATOM  =  1037.2675 eV,   76.2370 Ry                                         
                                                                                
   TITEL  = PAW_PBE Ag 02Apr2005                                                
   LULTRA =        F    use ultrasoft PP ?                                      
   IUNSCR =        1    unscreen: 0-lin 1-nonlin 2-no                           
   RPACOR =    2.000    partial core radius                                     
   POMASS =  107.868; ZVAL   =   11.000    mass and valenz                      
   RCORE  =    2.500    outmost cutoff radius                                   
   RWIGS  =    2.840; RWIGS  =    1.503    wigner-seitz radius (au A)           
   ENMAX  =  249.844; ENMIN  =  187.383 eV                                      
   ICORE  =        3    local potential                                         
   LCOR   =        T    correct aug charges                                     
   LPAW   =        T    paw PP                                                  
   EAUG   =  412.496                                                            
   DEXC   =    0.000                                                            
   RMAX   =    2.560    core radius for proj-oper                               
   RAUG   =    1.300    factor for augmentation sphere                          
   RDEP   =    2.576    radius for radial grids                                 
   RDEPT  =    2.072    core radius for aug-charge                              
                                                                                
   Atomic configuration                                                         
   12 entries                                                                   
     n  l   j            E        occ.                                          
     1  0  0.50    -25324.9161   2.0000                                         
     2  0  0.50     -3728.5341   2.0000                                         
     2  1  1.50     -3344.0404   6.0000                                         
     3  0  0.50      -683.5581   2.0000                                         
     3  1  1.50      -557.3225   6.0000                                         
     3  2  2.50      -358.3853  10.0000                                         
     4  0  0.50       -95.0341   2.0000                                         
     4  1  1.50       -58.5511   6.0000                                         
     4  2  2.50        -7.4440  10.0000                                         
     5  0  0.50        -4.4045   1.0000                                         
     5  1  0.50        -1.3606   0.0000                                         
     4  3  2.50        -1.3606   0.0000                                         
   Description                                                                  
     l       E           TYP  RCUT    TYP  RCUT                                 
     2     -7.4439781     23  2.400                                             
     2     -8.8045607     23  2.400                                             
     0     -4.4044681     23  2.400                                             
     0      1.9520038     23  2.400                                             
     1     -1.3605826     23  2.500                                             
     1     27.2116520     23  2.500                                             
     3     -4.0817478     23  2.400                                             
  local pseudopotential read in
  partial core-charges read in
  partial kinetic energy density read in
  atomic valenz-charges read in
  non local Contribution for L=           2  read in
    real space projection operators read in
  non local Contribution for L=           2  read in
    real space projection operators read in
  non local Contribution for L=           0  read in
    real space projection operators read in
  non local Contribution for L=           0  read in
    real space projection operators read in
  non local Contribution for L=           1  read in
    real space projection operators read in
  non local Contribution for L=           1  read in
    real space projection operators read in
    PAW grid and wavefunctions read in
 
   number of l-projection  operators is LMAX  =           6
   number of lm-projection operators is LMMAX =          18
 

 ----------------------------------------------------------------------------- 
|                                                                             |
|  ADVICE TO THIS USER RUNNING 'VASP/VAMP'   (HEAR YOUR MASTER'S VOICE ...):  |
|                                                                             |
|      You have a (more or less) 'large supercell' and for larger cells       |
|      it might be more efficient to use real space projection opertators     |
|      So try LREAL= Auto  in the INCAR   file.                               |
|      Mind: At the moment your POTCAR file does not contain real space       |
|       projectors, and has to be modified,  BUT if you                       |
|      want to do an extremely  accurate calculation you might also keep the  |
|      reciprocal projection scheme          (i.e. LREAL=.FALSE.)             |
|                                                                             |
 ----------------------------------------------------------------------------- 

  PAW_PBE Ag 02Apr2005                  :
 energy of atom  1       EATOM=-1037.2675
 kinetic energy error for atom=    0.0689 (will be added to EATOM!!)
 
 
 POSCAR: Al22, -66.48649615 <s> Ag </s>          
  positions in direct lattice
  No initial velocities read in
 exchange correlation table for  LEXCH =        8
   RHO(1)=    0.500       N(1)  =     2000
   RHO(2)=  100.500       N(2)  =     4000
 


--------------------------------------------------------------------------------------------------------


 ion  position               nearest neighbor table
   1  0.593  0.491  0.685-   6 2.69   3 2.75   5 2.78   7 2.94   2 2.99
   2  0.644  0.573  0.571-  12 2.73  15 2.78   7 2.82   6 2.86   9 2.88   8 2.91   1 2.99
   3  0.513  0.408  0.610-  11 2.61   1 2.75   6 2.76  10 2.82  15 2.85   5 2.88   4 3.01  14 3.39

   4  0.576  0.369  0.480-   6 2.67  13 2.70  11 2.82  15 2.86   3 3.01   8 3.18  19 3.33
   5  0.456  0.503  0.703-   1 2.78  10 2.80   7 2.81   3 2.88  14 2.95
   6  0.644  0.430  0.576-   4 2.67   1 2.69   8 2.76   3 2.76   2 2.86  15 2.88
   7  0.517  0.601  0.624-   9 2.70  14 2.76   5 2.81   2 2.82  17 2.87   1 2.94  15 3.05
   8  0.677  0.489  0.456-  19 2.70   6 2.76  12 2.78   2 2.91  15 2.94   4 3.18
   9  0.574  0.696  0.548-  18 2.69   7 2.70  17 2.76  12 2.78   2 2.88
  10  0.373  0.419  0.628-  14 2.75   5 2.80  20 2.81   3 2.82  11 2.86
  11  0.439  0.391  0.504-   3 2.61  16 2.73   4 2.82  20 2.83  13 2.84  10 2.86  22 3.01  15 3.04
                            14 3.19
  12  0.612  0.611  0.444-   2 2.73   8 2.78  21 2.78   9 2.78  18 2.89  15 2.90  19 2.90  17 3.13

  13  0.494  0.381  0.374-   4 2.70  16 2.71  19 2.75  11 2.84  22 3.13
  14  0.411  0.536  0.566-  17 2.63  20 2.69  10 2.75   7 2.76  15 2.91   5 2.95  22 2.96  11 3.19
                             3 3.39
  15  0.541  0.504  0.510-   2 2.78  22 2.83   3 2.85   4 2.86   6 2.88  19 2.88  12 2.90  14 2.91
                             8 2.94  17 2.97  11 3.04   7 3.05
  16  0.362  0.403  0.392-  13 2.71  20 2.72  22 2.73  11 2.73
  17  0.465  0.630  0.494-  14 2.63  18 2.72   9 2.76  22 2.79   7 2.87  21 2.90  15 2.97  12 3.13

  18  0.530  0.728  0.425-   9 2.69  17 2.72  21 2.73  12 2.89
  19  0.573  0.493  0.370-   8 2.70  13 2.75  21 2.76  15 2.88  12 2.90  22 3.06   4 3.33
  20  0.316  0.461  0.507-  14 2.69  16 2.72  10 2.81  11 2.83  22 3.08
  21  0.505  0.613  0.356-  18 2.73  22 2.75  19 2.76  12 2.78  17 2.90
  22  0.432  0.516  0.421-  16 2.73  21 2.75  17 2.79  15 2.83  14 2.96  11 3.01  19 3.06  20 3.08
                            13 3.13
 
  LATTYP: Found a simple cubic cell.
 ALAT       =    20.0306502849
  
  Lattice vectors:
  
 A1 = (  20.0306502849,   0.0000000000,   0.0000000000)
 A2 = (   0.0000000000,  20.0306502849,   0.0000000000)
 A3 = (   0.0000000000,   0.0000000000,  20.0306502849)


Analysis of symmetry for initial positions (statically):
=====================================================================
 Subroutine PRICEL returns:
 Original cell was already a primitive cell.
 

 Routine SETGRP: Setting up the symmetry group for a 
 simple cubic supercell.


 Subroutine GETGRP returns: Found  1 space group operations
 (whereof  1 operations were pure point group operations)
 out of a pool of 48 trial point group operations.


The static configuration has the point symmetry C_1 .


Analysis of symmetry for dynamics (positions and initial velocities):
=====================================================================
 Subroutine PRICEL returns:
 Original cell was already a primitive cell.
 

 Routine SETGRP: Setting up the symmetry group for a 
 simple cubic supercell.


 Subroutine GETGRP returns: Found  1 space group operations
 (whereof  1 operations were pure point group operations)
 out of a pool of 48 trial point group operations.


The dynamic configuration has the point symmetry C_1 .


Analysis of magnetic symmetry:
=====================================================================
 Subroutine PRICEL returns:
 Original cell was already a primitive cell.
 

 Subroutine MAGSYM returns: Found  1 space group operations
 (whereof  1 operations were pure point group operations)
 out of a pool of  1 trial space group operations
 (whereof  1 operations were pure point group operations)
 and found also     1 'primitive' translations


The magnetic configuration has the point symmetry C_1 .
 
 
 KPOINTS: Gamma-point only                        
  k-points in reciprocal lattice
Space group operators:
 irot       det(A)        alpha          n_x          n_y          n_z        tau_x        tau_y        tau_z
    1     1.000000     0.000000     1.000000     0.000000     0.000000     0.000000     0.000000     0.000000


--------------------------------------------------------------------------------------------------------




 Dimension of arrays:
   k-points           NKPTS =      1   k-points in BZ     NKDIM =      1   number of bands    NBANDS=    156
   number of dos      NEDOS =    301   number of ions     NIONS =     22
   non local maximal  LDIM  =      6   non local SUM 2l+1 LMDIM =     18
   total plane-waves  NPLWV = 512000
   max r-space proj   IRMAX =      1   max aug-charges    IRDMAX=   3332
   dimension x,y,z NGX =    80 NGY =   80 NGZ =   80
   dimension x,y,z NGXF=   160 NGYF=  160 NGZF=  160
   support grid    NGXF=   160 NGYF=  160 NGZF=  160
   ions per type =              22
 NGX,Y,Z   is equivalent  to a cutoff of   6.64,  6.64,  6.64 a.u.
 NGXF,Y,Z  is equivalent  to a cutoff of  13.28, 13.28, 13.28 a.u.


 I would recommend the setting:
   dimension x,y,z NGX =    77 NGY =   77 NGZ =   77
 SYSTEM =  unknown system                          
 POSCAR =  Al22, -66.48649615 <s> Ag </s>          

 Startparameter for this run:
   NWRITE =      2    write-flag & timer
   PREC   = normal    normal or accurate (medium, high low for compatibility)
   ISTART =      0    job   : 0-new  1-cont  2-samecut
   ICHARG =      2    charge: 1-file 2-atom 10-const
   ISPIN  =      2    spin polarized calculation?
   LNONCOLLINEAR =      F non collinear calculations
   LSORBIT =      F    spin-orbit coupling
   INIWAV =      1    electr: 0-lowe 1-rand  2-diag
   LASPH  =      F    aspherical Exc in radial PAW
   METAGGA=      F    non-selfconsistent MetaGGA calc.

 Electronic Relaxation 1
   ENCUT  =  249.8 eV  18.36 Ry    4.29 a.u.  25.82 25.82 25.82*2*pi/ulx,y,z
   ENINI  =  249.8     initial cutoff
   ENAUG  =  412.5 eV  augmentation charge cutoff
   NELM   =     60;   NELMIN=  2; NELMDL= -5     # of ELM steps 
   EDIFF  = 0.1E-03   stopping-criterion for ELM
   LREAL  =      F    real-space projection
   NLSPLINE    = F    spline interpolate recip. space projectors
   LCOMPAT=      F    compatible to vasp.4.4
   GGA_COMPAT  = T    GGA compatible to vasp.4.4-vasp.4.6
   LMAXPAW     = -100 max onsite density
   LMAXMIX     =    2 max onsite mixed and CHGCAR
   VOSKOWN=      0    Vosko Wilk Nusair interpolation
   ROPT   =    0.00000
 Ionic relaxation
   EDIFFG = 0.1E-02   stopping-criterion for IOM
   NSW    =   1000    number of steps for IOM
   NBLOCK =      1;   KBLOCK =   1000    inner block; outer block 
   IBRION =      2    ionic relax: 0-MD 1-quasi-New 2-CG
   NFREE  =      1    steps in history (QN), initial steepest desc. (CG)
   ISIF   =      2    stress and relaxation
   IWAVPR =     11    prediction:  0-non 1-charg 2-wave 3-comb
   ISYM   =      2    0-nonsym 1-usesym 2-fastsym
   LCORR  =      T    Harris-Foulkes like correction to forces

   POTIM  = 0.1000    time-step for ionic-motion
   TEIN   =    0.0    initial temperature
   TEBEG  =    0.0;   TEEND  =   0.0 temperature during run
   SMASS  =  -3.00    Nose mass-parameter (am)
   estimated Nose-frequenzy (Omega)   =  0.10E-29 period in steps =****** mass=  -0.917E-26a.u.
   SCALEE = 1.0000    scale energy and forces
   NPACO  =    256;   APACO  = 16.0  distance and # of slots for P.C.
   PSTRESS=    0.0 pullay stress

  Mass of Ions in am
   POMASS = 107.87
  Ionic Valenz
   ZVAL   =  11.00
  Atomic Wigner-Seitz radii
   RWIGS  =  -1.00
  virtual crystal weights 
   VCA    =   1.00
   NELECT =     242.0000    total number of electrons
   NUPDOWN=      -1.0000    fix difference up-down

 DOS related values:
   EMIN   =  10.00;   EMAX   =-10.00  energy-range for DOS
   EFERMI =   0.00
   ISMEAR =     0;   SIGMA  =   0.00  broadening in eV -4-tet -1-fermi 0-gaus

 Electronic relaxation 2 (details)
   IALGO  =     38    algorithm
   LDIAG  =      T    sub-space diagonalisation (order eigenvalues)
   LSUBROT=      F    optimize rotation matrix (better conditioning)
   TURBO    =      0    0=normal 1=particle mesh
   IRESTART =      0    0=no restart 2=restart with 2 vectors
   NREBOOT  =      0    no. of reboots
   NMIN     =      0    reboot dimension
   EREF     =   0.00    reference energy to select bands
   IMIX   =      4    mixing-type and parameters
     AMIX     =   0.40;   BMIX     =  1.00
     AMIX_MAG =   1.60;   BMIX_MAG =  1.00
     AMIN     =   0.10
     WC   =   100.;   INIMIX=   1;  MIXPRE=   1;  MAXMIX= -45

 Intra band minimization:
   WEIMIN = 0.0010     energy-eigenvalue tresh-hold
   EBREAK =  0.16E-06  absolut break condition
   DEPER  =   0.30     relativ break condition  

   TIME   =   0.40     timestep for ELM

  volume/ion in A,a.u.               =     365.31      2465.24
  Fermi-wavevector in a.u.,A,eV,Ry     =   0.509313  0.962462  3.529350  0.259400
  Thomas-Fermi vector in A             =   1.521761
 
 Write flags
   LWAVE  =      F    write WAVECAR
   LCHARG =      F    write CHGCAR
   LVTOT  =      F    write LOCPOT, total local potential
   LVHAR  =      F    write LOCPOT, Hartree potential only
   LELF   =      F    write electronic localiz. function (ELF)
   LORBIT =      0    0 simple, 1 ext, 2 COOP (PROOUT)


 Dipole corrections
   LMONO  =      F    monopole corrections only (constant potential shift)
   LDIPOL =      F    correct potential (dipole corrections)
   IDIPOL =      0    1-x, 2-y, 3-z, 4-all directions 
   EPSILON=  1.0000000 bulk dielectric constant

 Exchange correlation treatment:
   GGA     =    PE    GGA type
   LEXCH   =     8    internal setting for exchange type
   VOSKOWN=      0    Vosko Wilk Nusair interpolation
   LHFCALC =     F    Hartree Fock is set to
   LHFONE  =     F    Hartree Fock one center treatment
   AEXX    =    0.0000 exact exchange contribution

 Linear response parameters
   LEPSILON=     F    determine dielectric tensor
   LRPA    =     F    only Hartree local field effects (RPA)
   LNABLA  =     F    use nabla operator in PAW spheres
   LVEL    =     F    velocity operator in full k-point grid
   LINTERFAST=   F  fast interpolation
   KINTER  =     0    interpolate to denser k-point grid
   CSHIFT  =0.1000    complex shift for real part using Kramers Kronig
   OMEGAMAX=  -1.0    maximum frequency
   DEG_THRESHOLD= 0.2000000E-02 threshold for treating states as degnerate
   RTIME   =    0.100 relaxation time in fs

 Orbital magnetization related:
   ORBITALMAG=     F  switch on orbital magnetization
   LCHIMAG   =     F  perturbation theory with respect to B field
   DQ        =  0.001000  dq finite difference perturbation B field



--------------------------------------------------------------------------------------------------------


 conjugate gradient relaxation of ions
 charge density and potential will be updated during run
 spin polarized calculation
 Variant of blocked Davidson
 Davidson routine will perform the subspace rotation
 perform sub-space diagonalisation
    after iterative eigenvector-optimisation
 modified Broyden-mixing scheme, WC =      100.0
 initial mixing is a Kerker type mixing with AMIX =  0.4000 and BMIX =      1.0000
 Hartree-type preconditioning will be used
 using additional bands           35
 reciprocal scheme for non local part
 use partial core corrections
 calculate Harris-corrections to forces 
   (improved forces if not selfconsistent)
 use gradient corrections 
 use of overlap-Matrix (Vanderbilt PP)
 Gauss-broadening in eV      SIGMA  =   0.00


--------------------------------------------------------------------------------------------------------


  energy-cutoff  :      249.84
  volume of cell :     8036.84
      direct lattice vectors                 reciprocal lattice vectors
    20.030650285  0.000000000  0.000000000     0.049923492  0.000000000  0.000000000
     0.000000000 20.030650285  0.000000000     0.000000000  0.049923492  0.000000000
     0.000000000  0.000000000 20.030650285     0.000000000  0.000000000  0.049923492

  length of vectors
    20.030650285 20.030650285 20.030650285     0.049923492  0.049923492  0.049923492


 
 k-points in units of 2pi/SCALE and weight: Gamma-point only                        
   0.00000000  0.00000000  0.00000000       1.000
 
 k-points in reciprocal lattice and weights: Gamma-point only                        
   0.00000000  0.00000000  0.00000000       1.000
 
 position of ions in fractional coordinates (direct lattice) 
   0.59312585  0.49093127  0.68457163
   0.64444234  0.57282919  0.57102874
   0.51265137  0.40762476  0.61044723
   0.57608995  0.36867128  0.47997494
   0.45594839  0.50250228  0.70273619
   0.64444863  0.43017795  0.57646741
   0.51739462  0.60116172  0.62430414
   0.67662672  0.48930585  0.45644174
   0.57406867  0.69604435  0.54756440
   0.37343449  0.41869496  0.62764265
   0.43930114  0.39147266  0.50410044
   0.61223228  0.61138848  0.44445809
   0.49405433  0.38125821  0.37386099
   0.41072995  0.53553397  0.56625582
   0.54077443  0.50392494  0.50975989
   0.36170736  0.40315423  0.39246900
   0.46521430  0.63045496  0.49408946
   0.52990028  0.72802774  0.42492457
   0.57341461  0.49349734  0.36998005
   0.31636109  0.46073897  0.50658925
   0.50529349  0.61262386  0.35630616
   0.43156380  0.51642439  0.42125237
 
 position of ions in cartesian coordinates  (Angst):
  11.88069647  9.83367257 13.71241486
  12.90859920 11.47414110 11.43807695
  10.26874022  8.16498901 12.22765500
  11.53945627  7.38472543  9.61421008
   9.13294266 10.06544742 14.07626285
  12.90872511  8.61674409 11.54701702
  10.36375062 12.04166020 12.50521799
  13.55327327  9.80111444  9.14282493
  11.49896872 13.94222098 10.96807091
   7.48013564  8.38673229 12.57209048
   8.79948748  7.84145202 10.09745970
  12.26341061 12.24650888  8.90278456
   9.89622945  7.63684996  7.48867875
   8.22718792 10.72709363 11.34247233
  10.83206342 10.09394421 10.21082203
   7.24523365  8.07544144  7.86140922
   9.31854494 12.62842288  9.89693326
  10.61424710 14.58286913  8.51151539
  11.48586745  9.88507256  7.41094099
   6.33691828  9.22890124 10.14731213
  10.12135713 12.27125438  7.13704403
   8.64450356 10.34431629  8.43795896
 


--------------------------------------------------------------------------------------------------------


 use parallel FFT for wavefunctions z direction half grid
 k-point  1 :   0.0000 0.0000 0.0000  plane waves:   36180

 maximum and minimum number of plane-waves per node :      4530     4519

 maximum number of plane-waves:     36180
 maximum index in each direction: 
   IXMAX=   25   IYMAX=   25   IZMAX=   25
   IXMIN=  -25   IYMIN=  -25   IZMIN=    0

 WARNING: aliasing errors must be expected set NGX to 102 to avoid them
 WARNING: aliasing errors must be expected set NGY to 102 to avoid them
 WARNING: aliasing errors must be expected set NGZ to 102 to avoid them
 aliasing errors are usually negligible using standard VASP settings
 and one can safely disregard these warnings

 parallel 3D FFT for wavefunctions:
    minimum data exchange during FFTs selected (reduces bandwidth)
 parallel 3D FFT for charge:
    minimum data exchange during FFTs selected (reduces bandwidth)


 total amount of memory used by VASP on root node    58192. kBytes
========================================================================

   base      :      30000. kBytes
   nonl-proj :       2243. kBytes
   fftplans  :       5772. kBytes
   grid      :      14451. kBytes
   one-center:         46. kBytes
   wavefun   :       5680. kBytes
 
     INWAV:  cpu time    0.00: real time    0.00
 Broyden mixing: mesh for mixing (old mesh)
   NGX = 51   NGY = 51   NGZ = 51
  (NGX  =160   NGY  =160   NGZ  =160)
  gives a total of 132651 points

 initial charge density was supplied:
 charge density of overlapping atoms calculated
 number of electron     242.0000000 magnetization      22.0000000
 keeping initial charge density in first step


--------------------------------------------------------------------------------------------------------


 Maximum index for augmentation-charges          256 (set IRDMAX)


--------------------------------------------------------------------------------------------------------


 First call to EWALD:  gamma=   0.088
 Maximum number of real-space cells 3x 3x 3
 Maximum number of reciprocal cells 3x 3x 3

 FEWALD executed in parallel
    FEWALD:  cpu time    0.00: real time    0.00


----------------------------------------- Iteration    1(   1)  ---------------------------------------


    POTLOK:  cpu time    0.23: real time    0.23
    SETDIJ:  cpu time    0.01: real time    0.01
     EDDAV:  cpu time    1.90: real time    1.90
       DOS:  cpu time    0.00: real time    0.00
    --------------------------------------------
      LOOP:  cpu time    2.14: real time    2.16

 eigenvalue-minimisations  :   624
 total energy-change (2. order) : 0.2119801E+04  (-0.4453438E+04)
 number of electron     242.0000000 magnetization      22.0000000
 augmentation part      242.0000000 magnetization      22.0000000

 Free energy of the ion-electron system (eV)
  ---------------------------------------------------
  alpha Z        PSCENC =        51.22410705
  Ewald energy   TEWEN  =     38818.92794997
  -Hartree energ DENC   =    -60698.05409815
  -exchange      EXHF   =         0.00000000
  -V(xc)+E(xc)   XCENC  =      -241.79086934
  PAW double counting   =     22074.18791753   -21059.82139533
  entropy T*S    EENTRO =         0.00000000
  eigenvalues    EBANDS =       356.75766227
  atomic energy  EATOM  =     22818.36986190
  ---------------------------------------------------
  free energy    TOTEN  =      2119.80113590 eV

  energy without entropy =     2119.80113590  energy(sigma->0) =     2119.80113590


--------------------------------------------------------------------------------------------------------




----------------------------------------- Iteration    1(   2)  ---------------------------------------


     EDDAV:  cpu time    3.01: real time    3.01
       DOS:  cpu time    0.00: real time    0.00
    --------------------------------------------
      LOOP:  cpu time    3.01: real time    3.02

 eigenvalue-minimisations  :  1072
 total energy-change (2. order) :-0.1631801E+04  (-0.1459462E+04)
 number of electron     242.0000000 magnetization      22.0000000
 augmentation part      242.0000000 magnetization      22.0000000

 Free energy of the ion-electron system (eV)
  ---------------------------------------------------
  alpha Z        PSCENC =        51.22410705
  Ewald energy   TEWEN  =     38818.92794997
  -Hartree energ DENC   =    -60698.05409815
  -exchange      EXHF   =         0.00000000
  -V(xc)+E(xc)   XCENC  =      -241.79086934
  PAW double counting   =     22074.18791753   -21059.82139533
  entropy T*S    EENTRO =        -0.00000000
  eigenvalues    EBANDS =     -1275.04287991
  atomic energy  EATOM  =     22818.36986190
  ---------------------------------------------------
  free energy    TOTEN  =       488.00059372 eV

  energy without entropy =      488.00059372  energy(sigma->0) =      488.00059372


--------------------------------------------------------------------------------------------------------




----------------------------------------- Iteration    1(   3)  ---------------------------------------


     EDDAV:  cpu time    2.42: real time    2.42
       DOS:  cpu time    0.00: real time    0.00
    --------------------------------------------
      LOOP:  cpu time    2.43: real time    2.43

 eigenvalue-minimisations  :   824
 total energy-change (2. order) :-0.5042423E+03  (-0.4606931E+03)
 number of electron     242.0000000 magnetization      22.0000000
 augmentation part      242.0000000 magnetization      22.0000000

 Free energy of the ion-electron system (eV)
  ---------------------------------------------------
  alpha Z        PSCENC =        51.22410705
  Ewald energy   TEWEN  =     38818.92794997
  -Hartree energ DENC   =    -60698.05409815
  -exchange      EXHF   =         0.00000000
  -V(xc)+E(xc)   XCENC  =      -241.79086934
  PAW double counting   =     22074.18791753   -21059.82139533
  entropy T*S    EENTRO =         0.00000000
  eigenvalues    EBANDS =     -1779.28515216
  atomic energy  EATOM  =     22818.36986190
  ---------------------------------------------------
  free energy    TOTEN  =       -16.24167854 eV

  energy without entropy =      -16.24167854  energy(sigma->0) =      -16.24167854


--------------------------------------------------------------------------------------------------------




----------------------------------------- Iteration    1(   4)  ---------------------------------------


     EDDAV:  cpu time    2.07: real time    2.07
       DOS:  cpu time    0.00: real time    0.00
    --------------------------------------------
      LOOP:  cpu time    2.07: real time    2.08

 eigenvalue-minimisations  :   672
 total energy-change (2. order) :-0.2748416E+02  (-0.2715691E+02)
 number of electron     242.0000000 magnetization      22.0000000
 augmentation part      242.0000000 magnetization      22.0000000

 Free energy of the ion-electron system (eV)
  ---------------------------------------------------
  alpha Z        PSCENC =        51.22410705
  Ewald energy   TEWEN  =     38818.92794997
  -Hartree energ DENC   =    -60698.05409815
  -exchange      EXHF   =         0.00000000
  -V(xc)+E(xc)   XCENC  =      -241.79086934
  PAW double counting   =     22074.18791753   -21059.82139533
  entropy T*S    EENTRO =         0.00000000
  eigenvalues    EBANDS =     -1806.76931307
  atomic energy  EATOM  =     22818.36986190
  ---------------------------------------------------
  free energy    TOTEN  =       -43.72583945 eV

  energy without entropy =      -43.72583945  energy(sigma->0) =      -43.72583945


--------------------------------------------------------------------------------------------------------




----------------------------------------- Iteration    1(   5)  ---------------------------------------


     EDDAV:  cpu time    2.18: real time    2.18
       DOS:  cpu time    0.00: real time    0.00
    CHARGE:  cpu time    0.08: real time    0.09
    MIXING:  cpu time    0.01: real time    0.01
    --------------------------------------------
      LOOP:  cpu time    2.28: real time    2.28

 eigenvalue-minimisations  :   720
 total energy-change (2. order) :-0.4076946E+00  (-0.4070472E+00)
 number of electron     241.9999880 magnetization      19.1334377
 augmentation part      113.8282855 magnetization      17.6532699

 Broyden mixing:
  rms(total) = 0.26761E+01    rms(broyden)= 0.26756E+01
  rms(prec ) = 0.27293E+01
  weight for this iteration     100.00

 Free energy of the ion-electron system (eV)
  ---------------------------------------------------
  alpha Z        PSCENC =        51.22410705
  Ewald energy   TEWEN  =     38818.92794997
  -Hartree energ DENC   =    -60698.05409815
  -exchange      EXHF   =         0.00000000
  -V(xc)+E(xc)   XCENC  =      -241.79086934
  PAW double counting   =     22074.18791753   -21059.82139533
  entropy T*S    EENTRO =         0.00000000
  eigenvalues    EBANDS =     -1807.17700770
  atomic energy  EATOM  =     22818.36986190
  ---------------------------------------------------
  free energy    TOTEN  =       -44.13353407 eV

  energy without entropy =      -44.13353407  energy(sigma->0) =      -44.13353407


--------------------------------------------------------------------------------------------------------




----------------------------------------- Iteration    1(   6)  ---------------------------------------


    POTLOK:  cpu time    0.22: real time    0.22
    SETDIJ:  cpu time    0.01: real time    0.01
     EDDAV:  cpu time    1.96: real time    1.97
       DOS:  cpu time    0.00: real time    0.00
    CHARGE:  cpu time    0.08: real time    0.08
    MIXING:  cpu time    0.01: real time    0.01
    --------------------------------------------
      LOOP:  cpu time    2.29: real time    2.29

 eigenvalue-minimisations  :   632
 total energy-change (2. order) : 0.2734944E+02  (-0.8261256E+01)
 number of electron     241.9999875 magnetization      17.0996669
 augmentation part      116.3370977 magnetization      11.4465539

 Broyden mixing:
  rms(total) = 0.14192E+01    rms(broyden)= 0.14191E+01
  rms(prec ) = 0.14414E+01
  weight for this iteration     100.00

 eigenvalues of (default mixing * dielectric matrix)
  average eigenvalue GAMMA=   0.8517
  0.8517

 Free energy of the ion-electron system (eV)
  ---------------------------------------------------
  alpha Z        PSCENC =        51.22410705
  Ewald energy   TEWEN  =     38818.92794997
  -Hartree energ DENC   =    -60611.87454606
  -exchange      EXHF   =         0.00000000
  -V(xc)+E(xc)   XCENC  =      -229.44946006
  PAW double counting   =     22814.95012567   -21816.63149032
  entropy T*S    EENTRO =         0.00000000
  eigenvalues    EBANDS =     -1862.30064602
  atomic energy  EATOM  =     22818.36986190
  ---------------------------------------------------
  free energy    TOTEN  =       -16.78409788 eV

  energy without entropy =      -16.78409788  energy(sigma->0) =      -16.78409788


--------------------------------------------------------------------------------------------------------




----------------------------------------- Iteration    1(   7)  ---------------------------------------


    POTLOK:  cpu time    0.22: real time    0.22
    SETDIJ:  cpu time    0.01: real time    0.01
     EDDAV:  cpu time    2.04: real time    2.04
       DOS:  cpu time    0.00: real time    0.00
    CHARGE:  cpu time    0.08: real time    0.08
    MIXING:  cpu time    0.01: real time    0.01
    --------------------------------------------
      LOOP:  cpu time    2.37: real time    2.37

 eigenvalue-minimisations  :   664
 total energy-change (2. order) : 0.7390364E+01  (-0.5528813E+00)
 number of electron     241.9999873 magnetization      14.1420146
 augmentation part      116.3217035 magnetization       8.7146961

 Broyden mixing:
  rms(total) = 0.85213E+00    rms(broyden)= 0.85212E+00
  rms(prec ) = 0.86581E+00
  weight for this iteration     100.00

 eigenvalues of (default mixing * dielectric matrix)
  average eigenvalue GAMMA=   0.9766
  0.7435  1.2097

 Free energy of the ion-electron system (eV)
  ---------------------------------------------------
  alpha Z        PSCENC =        51.22410705
  Ewald energy   TEWEN  =     38818.92794997
  -Hartree energ DENC   =    -60661.62223078
  -exchange      EXHF   =         0.00000000
  -V(xc)+E(xc)   XCENC  =      -222.99718490
  PAW double counting   =     23271.68668060   -22283.88341663
  entropy T*S    EENTRO =         0.00000000
  eigenvalues    EBANDS =     -1801.09950142
  atomic energy  EATOM  =     22818.36986190
  ---------------------------------------------------
  free energy    TOTEN  =        -9.39373421 eV

  energy without entropy =       -9.39373421  energy(sigma->0) =       -9.39373421


--------------------------------------------------------------------------------------------------------




----------------------------------------- Iteration    1(   8)  ---------------------------------------


    POTLOK:  cpu time    0.22: real time    0.22
    SETDIJ:  cpu time    0.00: real time    0.01
     EDDAV:  cpu time    2.02: real time    2.01
       DOS:  cpu time    0.00: real time    0.00
    CHARGE:  cpu time    0.08: real time    0.08
    MIXING:  cpu time    0.00: real time    0.01
    --------------------------------------------
      LOOP:  cpu time    2.33: real time    2.34

 eigenvalue-minimisations  :   652
 total energy-change (2. order) :-0.2729229E+01  (-0.1756827E+00)
 number of electron     241.9999872 magnetization      12.0421858
 augmentation part      116.1359189 magnetization       6.8102801

 Broyden mixing:
  rms(total) = 0.44017E+00    rms(broyden)= 0.44016E+00
  rms(prec ) = 0.44480E+00
  weight for this iteration     100.00

 eigenvalues of (default mixing * dielectric matrix)
  average eigenvalue GAMMA=   1.2439
  2.1995  0.9148  0.6174

 Free energy of the ion-electron system (eV)
  ---------------------------------------------------
  alpha Z        PSCENC =        51.22410705
  Ewald energy   TEWEN  =     38818.92794997
  -Hartree energ DENC   =    -60722.50006702
  -exchange      EXHF   =         0.00000000
  -V(xc)+E(xc)   XCENC  =      -224.65643792
  PAW double counting   =     23784.64419239   -22807.44100513
  entropy T*S    EENTRO =         0.00000000
  eigenvalues    EBANDS =     -1730.69156441
  atomic energy  EATOM  =     22818.36986190
  ---------------------------------------------------
  free energy    TOTEN  =       -12.12296318 eV

  energy without entropy =      -12.12296318  energy(sigma->0) =      -12.12296318


--------------------------------------------------------------------------------------------------------




----------------------------------------- Iteration    1(   9)  ---------------------------------------


    POTLOK:  cpu time    0.22: real time    0.22
    SETDIJ:  cpu time    0.01: real time    0.01
     EDDAV:  cpu time    2.12: real time    2.12
       DOS:  cpu time    0.00: real time    0.00
    CHARGE:  cpu time    0.08: real time    0.08
    MIXING:  cpu time    0.00: real time    0.01
    --------------------------------------------
      LOOP:  cpu time    2.44: real time    2.55

 eigenvalue-minimisations  :   696
 total energy-change (2. order) :-0.4576299E+01  (-0.1223202E+00)
 number of electron     241.9999872 magnetization      10.0424549
 augmentation part      116.0818306 magnetization       4.9983686

 Broyden mixing:
  rms(total) = 0.25327E+00    rms(broyden)= 0.25326E+00
  rms(prec ) = 0.25842E+00
  weight for this iteration     100.00

 eigenvalues of (default mixing * dielectric matrix)
  average eigenvalue GAMMA=   1.2430
  2.1485  0.6154  0.8177  1.3903

 Free energy of the ion-electron system (eV)
  ---------------------------------------------------
  alpha Z        PSCENC =        51.22410705
  Ewald energy   TEWEN  =     38818.92794997
  -Hartree energ DENC   =    -60743.91481886
  -exchange      EXHF   =         0.00000000
  -V(xc)+E(xc)   XCENC  =      -227.91936651
  PAW double counting   =     23991.48561593   -23018.34169574
  entropy T*S    EENTRO =         0.00000000
  eigenvalues    EBANDS =     -1706.53091616
  atomic energy  EATOM  =     22818.36986190
  ---------------------------------------------------
  free energy    TOTEN  =       -16.69926243 eV

  energy without entropy =      -16.69926243  energy(sigma->0) =      -16.69926243


--------------------------------------------------------------------------------------------------------




----------------------------------------- Iteration    1(  10)  ---------------------------------------


    POTLOK:  cpu time    0.22: real time    0.22
    SETDIJ:  cpu time    0.01: real time    0.01
     EDDAV:  cpu time    1.97: real time    1.97
       DOS:  cpu time    0.00: real time    0.00
    CHARGE:  cpu time    0.08: real time    0.08
    MIXING:  cpu time    0.01: real time    0.01
    --------------------------------------------
      LOOP:  cpu time    2.29: real time    2.32

 eigenvalue-minimisations  :   632
 total energy-change (2. order) :-0.8495745E+01  (-0.3206028E+00)
 number of electron     241.9999872 magnetization       7.5644059
 augmentation part      116.0909779 magnetization       2.8474603

 Broyden mixing:
  rms(total) = 0.17194E+00    rms(broyden)= 0.17192E+00
  rms(prec ) = 0.17478E+00
  weight for this iteration     100.00

 eigenvalues of (default mixing * dielectric matrix)
  average eigenvalue GAMMA=   1.4608
  2.8399  1.9911  0.9215  0.9215  0.6299

 Free energy of the ion-electron system (eV)
  ---------------------------------------------------
  alpha Z        PSCENC =        51.22410705
  Ewald energy   TEWEN  =     38818.92794997
  -Hartree energ DENC   =    -60739.95143491
  -exchange      EXHF   =         0.00000000
  -V(xc)+E(xc)   XCENC  =      -234.43365459
  PAW double counting   =     23982.90896766   -23009.69174635
  entropy T*S    EENTRO =        -0.00000000
  eigenvalues    EBANDS =     -1712.54905840
  atomic energy  EATOM  =     22818.36986190
  ---------------------------------------------------
  free energy    TOTEN  =       -25.19500766 eV

  energy without entropy =      -25.19500766  energy(sigma->0) =      -25.19500766


--------------------------------------------------------------------------------------------------------




----------------------------------------- Iteration    1(  11)  ---------------------------------------


    POTLOK:  cpu time    0.22: real time    0.22
    SETDIJ:  cpu time    0.00: real time    0.01
     EDDAV:  cpu time    2.01: real time    2.01
       DOS:  cpu time    0.00: real time    0.00
    CHARGE:  cpu time    0.08: real time    0.08
    MIXING:  cpu time    0.01: real time    0.01
    --------------------------------------------
      LOOP:  cpu time    2.33: real time    2.34

 eigenvalue-minimisations  :   648
 total energy-change (2. order) :-0.9369771E+01  (-0.4634003E+00)
 number of electron     241.9999871 magnetization       7.4045106
 augmentation part      116.1025928 magnetization       4.9430001

 Broyden mixing:
  rms(total) = 0.20423E+00    rms(broyden)= 0.20406E+00
  rms(prec ) = 0.22075E+00
  weight for this iteration     100.00

 eigenvalues of (default mixing * dielectric matrix)
  average eigenvalue GAMMA=   1.2480
  2.9262  1.9809  0.6290  0.9209  0.9209  0.1101

 Free energy of the ion-electron system (eV)
  ---------------------------------------------------
  alpha Z        PSCENC =        51.22410705
  Ewald energy   TEWEN  =     38818.92794997
  -Hartree energ DENC   =    -60735.25434548
  -exchange      EXHF   =         0.00000000
  -V(xc)+E(xc)   XCENC  =      -241.46071795
  PAW double counting   =     23967.69580259   -22994.72236452
  entropy T*S    EENTRO =         0.00000000
  eigenvalues    EBANDS =     -1719.34507174
  atomic energy  EATOM  =     22818.36986190
  ---------------------------------------------------
  free energy    TOTEN  =       -34.56477818 eV

  energy without entropy =      -34.56477818  energy(sigma->0) =      -34.56477818


--------------------------------------------------------------------------------------------------------




----------------------------------------- Iteration    1(  12)  ---------------------------------------


    POTLOK:  cpu time    0.22: real time    0.22
    SETDIJ:  cpu time    0.00: real time    0.01
     EDDAV:  cpu time    2.28: real time    2.29
       DOS:  cpu time    0.00: real time    0.00
    CHARGE:  cpu time    0.08: real time    0.08
    MIXING:  cpu time    0.01: real time    0.01
    --------------------------------------------
      LOOP:  cpu time    2.61: real time    2.61

 eigenvalue-minimisations  :   768
 total energy-change (2. order) :-0.1598119E+00  (-0.7641987E-02)
 number of electron     241.9999871 magnetization       7.1638264
 augmentation part      116.0825024 magnetization       4.7412628

 Broyden mixing:
  rms(total) = 0.19158E+00    rms(broyden)= 0.19157E+00
  rms(prec ) = 0.20787E+00
  weight for this iteration     100.00

 eigenvalues of (default mixing * dielectric matrix)
  average eigenvalue GAMMA=   1.0720
  2.9263  1.9800  0.6290  0.9208  0.9208  0.1172  0.0100

 Free energy of the ion-electron system (eV)
  ---------------------------------------------------
  alpha Z        PSCENC =        51.22410705
  Ewald energy   TEWEN  =     38818.92794997
  -Hartree energ DENC   =    -60735.15530750
  -exchange      EXHF   =         0.00000000
  -V(xc)+E(xc)   XCENC  =      -241.56650657
  PAW double counting   =     23966.83645660   -22993.88314483
  entropy T*S    EENTRO =         0.00000000
  eigenvalues    EBANDS =     -1719.47800671
  atomic energy  EATOM  =     22818.36986190
  ---------------------------------------------------
  free energy    TOTEN  =       -34.72459009 eV

  energy without entropy =      -34.72459009  energy(sigma->0) =      -34.72459009


--------------------------------------------------------------------------------------------------------




----------------------------------------- Iteration    1(  13)  ---------------------------------------


    POTLOK:  cpu time    0.22: real time    0.22
    SETDIJ:  cpu time    0.01: real time    0.01
     EDDAV:  cpu time    2.03: real time    2.03
       DOS:  cpu time    0.00: real time    0.00
    CHARGE:  cpu time    0.08: real time    0.08
    MIXING:  cpu time    0.01: real time    0.01
    --------------------------------------------
      LOOP:  cpu time    2.35: real time    2.36

 eigenvalue-minimisations  :   656
 total energy-change (2. order) :-0.5660729E+00  (-0.3959647E-02)
 number of electron     241.9999871 magnetization       4.9674881
 augmentation part      116.0954119 magnetization       2.5719194

 Broyden mixing:
  rms(total) = 0.18118E+00    rms(broyden)= 0.18118E+00
  rms(prec ) = 0.19576E+00
  weight for this iteration     100.00

 eigenvalues of (default mixing * dielectric matrix)
  average eigenvalue GAMMA=   1.2995
  3.3369  2.3083  1.3357  0.9313  0.6998  0.6998  0.6360  0.4480

 Free energy of the ion-electron system (eV)
  ---------------------------------------------------
  alpha Z        PSCENC =        51.22410705
  Ewald energy   TEWEN  =     38818.92794997
  -Hartree energ DENC   =    -60732.64228843
  -exchange      EXHF   =         0.00000000
  -V(xc)+E(xc)   XCENC  =      -242.05066283
  PAW double counting   =     23948.30768501   -22975.22668577
  entropy T*S    EENTRO =         0.00000000
  eigenvalues    EBANDS =     -1722.20062987
  atomic energy  EATOM  =     22818.36986190
  ---------------------------------------------------
  free energy    TOTEN  =       -35.29066297 eV

  energy without entropy =      -35.29066297  energy(sigma->0) =      -35.29066297


--------------------------------------------------------------------------------------------------------




----------------------------------------- Iteration    1(  14)  ---------------------------------------


    POTLOK:  cpu time    0.22: real time    0.22
    SETDIJ:  cpu time    0.00: real time    0.01
     EDDAV:  cpu time    1.97: real time    1.97
       DOS:  cpu time    0.00: real time    0.00
    CHARGE:  cpu time    0.08: real time    0.08
    MIXING:  cpu time    0.01: real time    0.01
    --------------------------------------------
      LOOP:  cpu time    2.30: real time    2.86

 eigenvalue-minimisations  :   632
 total energy-change (2. order) :-0.4123939E+01  (-0.1696342E+00)
 number of electron     241.9999872 magnetization       3.2340021
 augmentation part      116.1526506 magnetization       1.0265547

 Broyden mixing:
  rms(total) = 0.11523E+00    rms(broyden)= 0.11521E+00
  rms(prec ) = 0.11914E+00
  weight for this iteration     100.00

 eigenvalues of (default mixing * dielectric matrix)
  average eigenvalue GAMMA=   1.5321
  5.1743  2.1180  2.1180  1.1073  0.8754  0.5958  0.5958  0.6350  0.5690

 Free energy of the ion-electron system (eV)
  ---------------------------------------------------
  alpha Z        PSCENC =        51.22410705
  Ewald energy   TEWEN  =     38818.92794997
  -Hartree energ DENC   =    -60716.04952555
  -exchange      EXHF   =         0.00000000
  -V(xc)+E(xc)   XCENC  =      -245.68738589
  PAW double counting   =     23830.38138211   -22856.86583509
  entropy T*S    EENTRO =         0.00000000
  eigenvalues    EBANDS =     -1739.71515668
  atomic energy  EATOM  =     22818.36986190
  ---------------------------------------------------
  free energy    TOTEN  =       -39.41460218 eV

  energy without entropy =      -39.41460218  energy(sigma->0) =      -39.41460218


--------------------------------------------------------------------------------------------------------




----------------------------------------- Iteration    1(  15)  ---------------------------------------


    POTLOK:  cpu time    0.22: real time    0.22
    SETDIJ:  cpu time    0.00: real time    0.01
     EDDAV:  cpu time    1.98: real time    1.98
       DOS:  cpu time    0.00: real time    0.00
    CHARGE:  cpu time    0.08: real time    0.08
    MIXING:  cpu time    0.01: real time    0.01
    --------------------------------------------
      LOOP:  cpu time    2.31: real time    2.31

 eigenvalue-minimisations  :   636
 total energy-change (2. order) :-0.2021488E+01  (-0.6405017E-01)
 number of electron     241.9999872 magnetization       2.8864645
 augmentation part      116.1389979 magnetization       0.7871036

 Broyden mixing:
  rms(total) = 0.66042E-01    rms(broyden)= 0.66023E-01
  rms(prec ) = 0.71001E-01
  weight for this iteration     100.00

 eigenvalues of (default mixing * dielectric matrix)
  average eigenvalue GAMMA=   1.5134
  5.7435  2.0991  2.0991  1.1772  0.8525  0.6977  0.6977  0.6199  0.5734  0.5734

 Free energy of the ion-electron system (eV)
  ---------------------------------------------------
  alpha Z        PSCENC =        51.22410705
  Ewald energy   TEWEN  =     38818.92794997
  -Hartree energ DENC   =    -60708.49203808
  -exchange      EXHF   =         0.00000000
  -V(xc)+E(xc)   XCENC  =      -247.53565043
  PAW double counting   =     23812.93737699   -22839.53707507
  entropy T*S    EENTRO =        -0.00000000
  eigenvalues    EBANDS =     -1747.33062278
  atomic energy  EATOM  =     22818.36986190
  ---------------------------------------------------
  free energy    TOTEN  =       -41.43609045 eV

  energy without entropy =      -41.43609045  energy(sigma->0) =      -41.43609045


--------------------------------------------------------------------------------------------------------




----------------------------------------- Iteration    1(  16)  ---------------------------------------


    POTLOK:  cpu time    0.22: real time    0.22
    SETDIJ:  cpu time    0.01: real time    0.01
     EDDAV:  cpu time    2.07: real time    2.07
       DOS:  cpu time    0.00: real time    0.00
    CHARGE:  cpu time    0.08: real time    0.08
    MIXING:  cpu time    0.01: real time    0.01
    --------------------------------------------
      LOOP:  cpu time    2.40: real time    2.42

 eigenvalue-minimisations  :   672
 total energy-change (2. order) :-0.5685920E+00  (-0.4555509E-02)
 number of electron     241.9999872 magnetization       2.8513911
 augmentation part      116.1327620 magnetization       2.7276328

 Broyden mixing:
  rms(total) = 0.15349E+00    rms(broyden)= 0.15336E+00
  rms(prec ) = 0.16565E+00
  weight for this iteration     100.00

 eigenvalues of (default mixing * dielectric matrix)
  average eigenvalue GAMMA=   1.3806
  5.7833  2.1008  2.1008  1.1605  0.8532  0.7005  0.7005  0.6213  0.5722  0.5722
  0.0210

 Free energy of the ion-electron system (eV)
  ---------------------------------------------------
  alpha Z        PSCENC =        51.22410705
  Ewald energy   TEWEN  =     38818.92794997
  -Hartree energ DENC   =    -60705.05214930
  -exchange      EXHF   =         0.00000000
  -V(xc)+E(xc)   XCENC  =      -248.06869885
  PAW double counting   =     23823.22197309   -22849.58849104
  entropy T*S    EENTRO =         0.00000000
  eigenvalues    EBANDS =     -1751.03923528
  atomic energy  EATOM  =     22818.36986190
  ---------------------------------------------------
  free energy    TOTEN  =       -42.00468246 eV

  energy without entropy =      -42.00468246  energy(sigma->0) =      -42.00468246


--------------------------------------------------------------------------------------------------------




----------------------------------------- Iteration    1(  17)  ---------------------------------------


    POTLOK:  cpu time    0.22: real time    0.22
    SETDIJ:  cpu time    0.01: real time    0.01
     EDDAV:  cpu time    2.13: real time    2.13
       DOS:  cpu time    0.00: real time    0.00
    CHARGE:  cpu time    0.08: real time    0.08
    MIXING:  cpu time    0.01: real time    0.01
    --------------------------------------------
      LOOP:  cpu time    2.46: real time    2.48

 eigenvalue-minimisations  :   700
 total energy-change (2. order) : 0.7907899E-02  (-0.1567859E-03)
 number of electron     241.9999872 magnetization       2.6476150
 augmentation part      116.1332364 magnetization       2.5277322

 Broyden mixing:
  rms(total) = 0.15099E+00    rms(broyden)= 0.15098E+00
  rms(prec ) = 0.16331E+00
  weight for this iteration     100.00

 eigenvalues of (default mixing * dielectric matrix)
  average eigenvalue GAMMA=   1.3198
  5.9201  2.1090  2.1090  1.1470  0.8522  0.7196  0.7196  0.6208  0.5648  0.5648
  0.2556  0.2556

 Free energy of the ion-electron system (eV)
  ---------------------------------------------------
  alpha Z        PSCENC =        51.22410705
  Ewald energy   TEWEN  =     38818.92794997
  -Hartree energ DENC   =    -60704.88973924
  -exchange      EXHF   =         0.00000000
  -V(xc)+E(xc)   XCENC  =      -248.06511421
  PAW double counting   =     23822.82120148   -22849.18713987
  entropy T*S    EENTRO =         0.00000000
  eigenvalues    EBANDS =     -1751.19790164
  atomic energy  EATOM  =     22818.36986190
  ---------------------------------------------------
  free energy    TOTEN  =       -41.99677456 eV

  energy without entropy =      -41.99677456  energy(sigma->0) =      -41.99677456


--------------------------------------------------------------------------------------------------------




----------------------------------------- Iteration    1(  18)  ---------------------------------------


    POTLOK:  cpu time    0.22: real time    0.22
    SETDIJ:  cpu time    0.01: real time    0.01
     EDDAV:  cpu time    2.03: real time    2.03
       DOS:  cpu time    0.00: real time    0.00
    CHARGE:  cpu time    0.08: real time    0.08
    MIXING:  cpu time    0.01: real time    0.01
    --------------------------------------------
      LOOP:  cpu time    2.36: real time    2.38

 eigenvalue-minimisations  :   656
 total energy-change (2. order) :-0.1043794E+00  (-0.3291350E-03)
 number of electron     241.9999872 magnetization       1.7708655
 augmentation part      116.1279646 magnetization       1.6603537

 Broyden mixing:
  rms(total) = 0.14043E+00    rms(broyden)= 0.14043E+00
  rms(prec ) = 0.15194E+00
  weight for this iteration     100.00

 eigenvalues of (default mixing * dielectric matrix)
  average eigenvalue GAMMA=   1.3702
  6.6304  1.8963  1.8963  1.2511  0.7295  0.7295  0.8513  0.8513  0.8321  0.6077
  0.5114  0.5114  0.5137

 Free energy of the ion-electron system (eV)
  ---------------------------------------------------
  alpha Z        PSCENC =        51.22410705
  Ewald energy   TEWEN  =     38818.92794997
  -Hartree energ DENC   =    -60704.27061090
  -exchange      EXHF   =         0.00000000
  -V(xc)+E(xc)   XCENC  =      -248.16972559
  PAW double counting   =     23827.65070922   -22854.00623865
  entropy T*S    EENTRO =        -0.00000000
  eigenvalues    EBANDS =     -1751.82720701
  atomic energy  EATOM  =     22818.36986190
  ---------------------------------------------------
  free energy    TOTEN  =       -42.10115400 eV

  energy without entropy =      -42.10115400  energy(sigma->0) =      -42.10115400


--------------------------------------------------------------------------------------------------------




----------------------------------------- Iteration    1(  19)  ---------------------------------------


    POTLOK:  cpu time    0.22: real time    0.22
    SETDIJ:  cpu time    0.01: real time    0.01
     EDDAV:  cpu time    1.98: real time    1.98
       DOS:  cpu time    0.00: real time    0.00
    CHARGE:  cpu time    0.08: real time    0.08
    MIXING:  cpu time    0.01: real time    0.01
    --------------------------------------------
      LOOP:  cpu time    2.31: real time    2.31

 eigenvalue-minimisations  :   632
 total energy-change (2. order) :-0.4603957E+00  (-0.6078476E-02)
 number of electron     241.9999872 magnetization       0.9919256
 augmentation part      116.1261803 magnetization       0.9267702

 Broyden mixing:
  rms(total) = 0.94383E-01    rms(broyden)= 0.94381E-01
  rms(prec ) = 0.10173E+00
  weight for this iteration     100.00

 eigenvalues of (default mixing * dielectric matrix)
  average eigenvalue GAMMA=   1.5095
  7.6831  2.1850  1.9794  1.9794  1.2001  1.2001  0.8957  0.6214  0.6051  0.6051
  0.5335  0.5335  0.5556  0.5556

 Free energy of the ion-electron system (eV)
  ---------------------------------------------------
  alpha Z        PSCENC =        51.22410705
  Ewald energy   TEWEN  =     38818.92794997
  -Hartree energ DENC   =    -60699.43788493
  -exchange      EXHF   =         0.00000000
  -V(xc)+E(xc)   XCENC  =      -248.63989545
  PAW double counting   =     23835.90047259   -22862.02290260
  entropy T*S    EENTRO =         0.00000000
  eigenvalues    EBANDS =     -1756.88325822
  atomic energy  EATOM  =     22818.36986190
  ---------------------------------------------------
  free energy    TOTEN  =       -42.56154968 eV

  energy without entropy =      -42.56154968  energy(sigma->0) =      -42.56154968


--------------------------------------------------------------------------------------------------------




----------------------------------------- Iteration    1(  20)  ---------------------------------------


    POTLOK:  cpu time    0.22: real time    0.22
    SETDIJ:  cpu time    0.01: real time    0.01
     EDDAV:  cpu time    2.05: real time    2.05
       DOS:  cpu time    0.00: real time    0.00
    CHARGE:  cpu time    0.09: real time    0.08
    MIXING:  cpu time    0.01: real time    0.01
    --------------------------------------------
      LOOP:  cpu time    2.38: real time    2.40

 eigenvalue-minimisations  :   664
 total energy-change (2. order) :-0.3611821E+00  (-0.5129040E-02)
 number of electron     241.9999872 magnetization       0.2180605
 augmentation part      116.1235386 magnetization       0.1931595

 Broyden mixing:
  rms(total) = 0.53346E-01    rms(broyden)= 0.53342E-01
  rms(prec ) = 0.56893E-01
  weight for this iteration     100.00

 eigenvalues of (default mixing * dielectric matrix)
  average eigenvalue GAMMA=   1.6028
  8.6713  2.4029  2.4029  2.0615  1.3900  1.3900  0.8654  0.5524  0.5524  0.7269
  0.7269  0.6176  0.6176  0.5322  0.5322

 Free energy of the ion-electron system (eV)
  ---------------------------------------------------
  alpha Z        PSCENC =        51.22410705
  Ewald energy   TEWEN  =     38818.92794997
  -Hartree energ DENC   =    -60694.99526015
  -exchange      EXHF   =         0.00000000
  -V(xc)+E(xc)   XCENC  =      -249.00554274
  PAW double counting   =     23845.52079467   -22871.52715729
  entropy T*S    EENTRO =         0.00000000
  eigenvalues    EBANDS =     -1761.43748520
  atomic energy  EATOM  =     22818.36986190
  ---------------------------------------------------
  free energy    TOTEN  =       -42.92273179 eV

  energy without entropy =      -42.92273179  energy(sigma->0) =      -42.92273179


--------------------------------------------------------------------------------------------------------




----------------------------------------- Iteration    1(  21)  ---------------------------------------


    POTLOK:  cpu time    0.22: real time    0.23
    SETDIJ:  cpu time    0.01: real time    0.01
     EDDAV:  cpu time    2.00: real time    2.00
       DOS:  cpu time    0.00: real time    0.00
    CHARGE:  cpu time    0.08: real time    0.08
    MIXING:  cpu time    0.01: real time    0.01
    --------------------------------------------
      LOOP:  cpu time    2.33: real time    3.11

 eigenvalue-minimisations  :   640
 total energy-change (2. order) :-0.3515418E+00  (-0.4121683E-02)
 number of electron     241.9999872 magnetization      -0.3188516
 augmentation part      116.1146395 magnetization      -0.3114797

 Broyden mixing:
  rms(total) = 0.31750E-01    rms(broyden)= 0.31745E-01
  rms(prec ) = 0.34052E-01
  weight for this iteration     100.00

 eigenvalues of (default mixing * dielectric matrix)
  average eigenvalue GAMMA=   1.7390
 10.1731  2.6858  2.6858  2.1619  1.6741  1.6741  0.9613  0.9613  0.5460  0.5460
  0.7889  0.6335  0.6238  0.6238  0.5421  0.5421

 Free energy of the ion-electron system (eV)
  ---------------------------------------------------
  alpha Z        PSCENC =        51.22410705
  Ewald energy   TEWEN  =     38818.92794997
  -Hartree energ DENC   =    -60689.45037033
  -exchange      EXHF   =         0.00000000
  -V(xc)+E(xc)   XCENC  =      -249.36739758
  PAW double counting   =     23858.66242384   -22884.65009670
  entropy T*S    EENTRO =         0.00000000
  eigenvalues    EBANDS =     -1766.99075172
  atomic energy  EATOM  =     22818.36986190
  ---------------------------------------------------
  free energy    TOTEN  =       -43.27427357 eV

  energy without entropy =      -43.27427357  energy(sigma->0) =      -43.27427357


--------------------------------------------------------------------------------------------------------




----------------------------------------- Iteration    1(  22)  ---------------------------------------


    POTLOK:  cpu time    0.22: real time    0.22
    SETDIJ:  cpu time    0.01: real time    0.01
     EDDAV:  cpu time    2.04: real time    2.04
       DOS:  cpu time    0.00: real time    0.00
    CHARGE:  cpu time    0.08: real time    0.08
    MIXING:  cpu time    0.01: real time    0.01
    --------------------------------------------
      LOOP:  cpu time    2.37: real time    2.38

 eigenvalue-minimisations  :   656
 total energy-change (2. order) :-0.2207965E+00  (-0.2166775E-02)
 number of electron     241.9999872 magnetization      -0.1884852
 augmentation part      116.1239941 magnetization      -0.1576120

 Broyden mixing:
  rms(total) = 0.38103E-01    rms(broyden)= 0.38101E-01
  rms(prec ) = 0.41043E-01
  weight for this iteration     100.00

 eigenvalues of (default mixing * dielectric matrix)
  average eigenvalue GAMMA=   1.7192
 10.2533  2.5030  2.5030  2.2802  2.2802  1.6323  1.2747  0.5468  0.5468  0.8696
  0.8696  0.6597  0.6597  0.6342  0.6342  0.5399  0.5399

 Free energy of the ion-electron system (eV)
  ---------------------------------------------------
  alpha Z        PSCENC =        51.22410705
  Ewald energy   TEWEN  =     38818.92794997
  -Hartree energ DENC   =    -60681.31155491
  -exchange      EXHF   =         0.00000000
  -V(xc)+E(xc)   XCENC  =      -249.63972506
  PAW double counting   =     23855.28116047   -22881.16102571
  entropy T*S    EENTRO =         0.00000000
  eigenvalues    EBANDS =     -1775.18584376
  atomic energy  EATOM  =     22818.36986190
  ---------------------------------------------------
  free energy    TOTEN  =       -43.49507004 eV

  energy without entropy =      -43.49507004  energy(sigma->0) =      -43.49507004


--------------------------------------------------------------------------------------------------------




----------------------------------------- Iteration    1(  23)  ---------------------------------------


    POTLOK:  cpu time    0.22: real time    0.22
    SETDIJ:  cpu time    0.01: real time    0.01
     EDDAV:  cpu time    2.06: real time    2.06
       DOS:  cpu time    0.00: real time    0.00
    CHARGE:  cpu time    0.08: real time    0.08
    MIXING:  cpu time    0.01: real time    0.01
    --------------------------------------------
      LOOP:  cpu time    2.39: real time    2.41

 eigenvalue-minimisations  :   664
 total energy-change (2. order) :-0.3675202E-01  (-0.4075504E-03)
 number of electron     241.9999872 magnetization      -0.0415586
 augmentation part      116.1181031 magnetization      -0.0230377

 Broyden mixing:
  rms(total) = 0.25287E-01    rms(broyden)= 0.25286E-01
  rms(prec ) = 0.27532E-01
  weight for this iteration     100.00

 eigenvalues of (default mixing * dielectric matrix)
  average eigenvalue GAMMA=   1.7017
  9.9398  2.9924  2.6021  2.6021  1.9343  1.9343  1.2825  0.5483  0.5483  0.8418
  0.8418  0.8462  0.5397  0.5397  0.7528  0.6475  0.6187  0.6187

 Free energy of the ion-electron system (eV)
  ---------------------------------------------------
  alpha Z        PSCENC =        51.22410705
  Ewald energy   TEWEN  =     38818.92794997
  -Hartree energ DENC   =    -60680.19950228
  -exchange      EXHF   =         0.00000000
  -V(xc)+E(xc)   XCENC  =      -249.67382162
  PAW double counting   =     23859.08145693   -22884.99532176
  entropy T*S    EENTRO =         0.00000000
  eigenvalues    EBANDS =     -1776.26655225
  atomic energy  EATOM  =     22818.36986190
  ---------------------------------------------------
  free energy    TOTEN  =       -43.53182206 eV

  energy without entropy =      -43.53182206  energy(sigma->0) =      -43.53182206


--------------------------------------------------------------------------------------------------------




----------------------------------------- Iteration    1(  24)  ---------------------------------------


    POTLOK:  cpu time    0.22: real time    0.22
    SETDIJ:  cpu time    0.00: real time    0.01
     EDDAV:  cpu time    2.04: real time    2.04
       DOS:  cpu time    0.00: real time    0.00
    CHARGE:  cpu time    0.08: real time    0.08
    MIXING:  cpu time    0.02: real time    0.01
    --------------------------------------------
      LOOP:  cpu time    2.37: real time    2.43

 eigenvalue-minimisations  :   656
 total energy-change (2. order) :-0.2412994E-01  (-0.3460812E-03)
 number of electron     241.9999872 magnetization       0.0815934
 augmentation part      116.1191944 magnetization       0.0882503

 Broyden mixing:
  rms(total) = 0.11750E-01    rms(broyden)= 0.11749E-01
  rms(prec ) = 0.13188E-01
  weight for this iteration     100.00

 eigenvalues of (default mixing * dielectric matrix)
  average eigenvalue GAMMA=   1.7049
  9.5742  3.3115  2.7768  2.7768  2.1198  2.1198  1.3745  0.9624  0.9624  0.9531
  0.5476  0.5476  0.5407  0.5407  0.7417  0.6452  0.6452  0.6264  0.6264

 Free energy of the ion-electron system (eV)
  ---------------------------------------------------
  alpha Z        PSCENC =        51.22410705
  Ewald energy   TEWEN  =     38818.92794997
  -Hartree energ DENC   =    -60678.24878123
  -exchange      EXHF   =         0.00000000
  -V(xc)+E(xc)   XCENC  =      -249.71173395
  PAW double counting   =     23859.73775604   -22885.61011187
  entropy T*S    EENTRO =         0.00000000
  eigenvalues    EBANDS =     -1778.24499991
  atomic energy  EATOM  =     22818.36986190
  ---------------------------------------------------
  free energy    TOTEN  =       -43.55595200 eV

  energy without entropy =      -43.55595200  energy(sigma->0) =      -43.55595200


--------------------------------------------------------------------------------------------------------




----------------------------------------- Iteration    1(  25)  ---------------------------------------


    POTLOK:  cpu time    0.22: real time    0.22
    SETDIJ:  cpu time    0.01: real time    0.01
     EDDAV:  cpu time    2.10: real time    2.10
       DOS:  cpu time    0.00: real time    0.00
    CHARGE:  cpu time    0.08: real time    0.08
    MIXING:  cpu time    0.02: real time    0.01
    --------------------------------------------
      LOOP:  cpu time    2.43: real time    2.45

 eigenvalue-minimisations  :   680
 total energy-change (2. order) :-0.1432242E-01  (-0.2061491E-03)
 number of electron     241.9999872 magnetization       0.1062543
 augmentation part      116.1209951 magnetization       0.1028756

 Broyden mixing:
  rms(total) = 0.48737E-02    rms(broyden)= 0.48717E-02
  rms(prec ) = 0.59384E-02
  weight for this iteration     100.00

 eigenvalues of (default mixing * dielectric matrix)
  average eigenvalue GAMMA=   1.6996
  9.2787  3.7581  2.8917  2.8917  2.0325  2.0325  1.8180  1.0204  1.0204  0.5477
  0.5477  0.9906  0.5404  0.5404  0.8149  0.6852  0.6852  0.6471  0.6246  0.6246

 Free energy of the ion-electron system (eV)
  ---------------------------------------------------
  alpha Z        PSCENC =        51.22410705
  Ewald energy   TEWEN  =     38818.92794997
  -Hartree energ DENC   =    -60675.88667582
  -exchange      EXHF   =         0.00000000
  -V(xc)+E(xc)   XCENC  =      -249.74368451
  PAW double counting   =     23861.72145836   -22887.58049229
  entropy T*S    EENTRO =         0.00000000
  eigenvalues    EBANDS =     -1780.60279907
  atomic energy  EATOM  =     22818.36986190
  ---------------------------------------------------
  free energy    TOTEN  =       -43.57027442 eV

  energy without entropy =      -43.57027442  energy(sigma->0) =      -43.57027442


--------------------------------------------------------------------------------------------------------




----------------------------------------- Iteration    1(  26)  ---------------------------------------


    POTLOK:  cpu time    0.22: real time    0.22
    SETDIJ:  cpu time    0.01: real time    0.01
     EDDAV:  cpu time    1.59: real time    1.59
       DOS:  cpu time    0.00: real time    0.00
    CHARGE:  cpu time    0.09: real time    0.08
    MIXING:  cpu time    0.01: real time    0.02
    --------------------------------------------
      LOOP:  cpu time    1.92: real time    1.94

 eigenvalue-minimisations  :   460
 total energy-change (2. order) :-0.7204024E-02  (-0.5208293E-04)
 number of electron     241.9999872 magnetization       0.0822453
 augmentation part      116.1224901 magnetization       0.0766132

 Broyden mixing:
  rms(total) = 0.62550E-02    rms(broyden)= 0.62546E-02
  rms(prec ) = 0.68874E-02
  weight for this iteration     100.00

 eigenvalues of (default mixing * dielectric matrix)
  average eigenvalue GAMMA=   1.7435
  9.2213  4.3993  3.0036  3.0036  2.3172  2.1612  2.1612  1.1497  1.0618  1.0618
  0.5477  0.5477  0.5404  0.5404  0.8389  0.8389  0.6632  0.6632  0.6425  0.6253
  0.6253

 Free energy of the ion-electron system (eV)
  ---------------------------------------------------
  alpha Z        PSCENC =        51.22410705
  Ewald energy   TEWEN  =     38818.92794997
  -Hartree energ DENC   =    -60673.56562689
  -exchange      EXHF   =         0.00000000
  -V(xc)+E(xc)   XCENC  =      -249.76860418
  PAW double counting   =     23862.00376009   -22887.87893462
  entropy T*S    EENTRO =         0.00000000
  eigenvalues    EBANDS =     -1782.88999175
  atomic energy  EATOM  =     22818.36986190
  ---------------------------------------------------
  free energy    TOTEN  =       -43.57747844 eV

  energy without entropy =      -43.57747844  energy(sigma->0) =      -43.57747844


--------------------------------------------------------------------------------------------------------




----------------------------------------- Iteration    1(  27)  ---------------------------------------


    POTLOK:  cpu time    0.22: real time    0.22
    SETDIJ:  cpu time    0.01: real time    0.01
     EDDAV:  cpu time    1.60: real time    1.60
       DOS:  cpu time    0.00: real time    0.00
    CHARGE:  cpu time    0.08: real time    0.08
    MIXING:  cpu time    0.02: real time    0.02
    --------------------------------------------
      LOOP:  cpu time    1.94: real time    1.98

 eigenvalue-minimisations  :   464
 total energy-change (2. order) :-0.7654287E-03  (-0.2859125E-04)
 number of electron     241.9999872 magnetization       0.0756234
 augmentation part      116.1250253 magnetization       0.0709430

 Broyden mixing:
  rms(total) = 0.53282E-02    rms(broyden)= 0.53281E-02
  rms(prec ) = 0.57834E-02
  weight for this iteration     100.00

 eigenvalues of (default mixing * dielectric matrix)
  average eigenvalue GAMMA=   1.7479
  9.1313  5.0838  2.9771  2.9771  2.5245  2.1897  2.1897  1.2355  1.0827  1.0827
  0.5477  0.5477  0.9973  0.5404  0.5404  0.8257  0.7501  0.6710  0.6710  0.6423
  0.6229  0.6229

 Free energy of the ion-electron system (eV)
  ---------------------------------------------------
  alpha Z        PSCENC =        51.22410705
  Ewald energy   TEWEN  =     38818.92794997
  -Hartree energ DENC   =    -60671.47968297
  -exchange      EXHF   =         0.00000000
  -V(xc)+E(xc)   XCENC  =      -249.78575805
  PAW double counting   =     23860.50748228   -22886.39213541
  entropy T*S    EENTRO =         0.00000000
  eigenvalues    EBANDS =     -1784.95006864
  atomic energy  EATOM  =     22818.36986190
  ---------------------------------------------------
  free energy    TOTEN  =       -43.57824387 eV

  energy without entropy =      -43.57824387  energy(sigma->0) =      -43.57824387


--------------------------------------------------------------------------------------------------------




----------------------------------------- Iteration    1(  28)  ---------------------------------------


    POTLOK:  cpu time    0.22: real time    0.22
    SETDIJ:  cpu time    0.01: real time    0.01
     EDDAV:  cpu time    1.58: real time    1.58
       DOS:  cpu time    0.00: real time    0.00
    CHARGE:  cpu time    0.08: real time    0.08
    MIXING:  cpu time    0.02: real time    0.02
    --------------------------------------------
      LOOP:  cpu time    1.92: real time    1.93

 eigenvalue-minimisations  :   456
 total energy-change (2. order) :-0.1187365E-02  (-0.6995187E-05)
 number of electron     241.9999872 magnetization       0.0327712
 augmentation part      116.1251451 magnetization       0.0282268

 Broyden mixing:
  rms(total) = 0.51590E-02    rms(broyden)= 0.51590E-02
  rms(prec ) = 0.55343E-02
  weight for this iteration     100.00

 eigenvalues of (default mixing * dielectric matrix)
  average eigenvalue GAMMA=   1.7538
  9.1742  5.4712  2.9669  2.9669  2.6870  2.1604  2.1604  1.6237  1.1379  1.1379
  0.5477  0.5477  0.9853  0.8821  0.8821  0.5404  0.5404  0.7425  0.6590  0.6590
  0.6154  0.6154  0.6331

 Free energy of the ion-electron system (eV)
  ---------------------------------------------------
  alpha Z        PSCENC =        51.22410705
  Ewald energy   TEWEN  =     38818.92794997
  -Hartree energ DENC   =    -60670.74483438
  -exchange      EXHF   =         0.00000000
  -V(xc)+E(xc)   XCENC  =      -249.79002532
  PAW double counting   =     23860.83482382   -22886.72831331
  entropy T*S    EENTRO =        -0.00000000
  eigenvalues    EBANDS =     -1785.67300096
  atomic energy  EATOM  =     22818.36986190
  ---------------------------------------------------
  free energy    TOTEN  =       -43.57943123 eV

  energy without entropy =      -43.57943123  energy(sigma->0) =      -43.57943123


--------------------------------------------------------------------------------------------------------




----------------------------------------- Iteration    1(  29)  ---------------------------------------


    POTLOK:  cpu time    0.22: real time    0.22
    SETDIJ:  cpu time    0.01: real time    0.01
     EDDAV:  cpu time    1.58: real time    1.58
       DOS:  cpu time    0.00: real time    0.00
    CHARGE:  cpu time    0.08: real time    0.08
    MIXING:  cpu time    0.02: real time    0.02
    --------------------------------------------
      LOOP:  cpu time    1.92: real time    1.92

 eigenvalue-minimisations  :   456
 total energy-change (2. order) :-0.7302816E-03  (-0.1201300E-04)
 number of electron     241.9999872 magnetization      -0.0132983
 augmentation part      116.1252975 magnetization      -0.0155278

 Broyden mixing:
  rms(total) = 0.23176E-02    rms(broyden)= 0.23175E-02
  rms(prec ) = 0.25173E-02
  weight for this iteration     100.00

 eigenvalues of (default mixing * dielectric matrix)
  average eigenvalue GAMMA=   1.7761
  9.4269  5.4058  3.0828  3.0828  3.0762  2.1963  2.1963  2.1270  1.1710  1.1710
  0.5477  0.5477  0.9825  0.9825  0.5404  0.5404  0.8950  0.6763  0.6763  0.7094
  0.7094  0.6279  0.6279  0.6269

 Free energy of the ion-electron system (eV)
  ---------------------------------------------------
  alpha Z        PSCENC =        51.22410705
  Ewald energy   TEWEN  =     38818.92794997
  -Hartree energ DENC   =    -60670.33042615
  -exchange      EXHF   =         0.00000000
  -V(xc)+E(xc)   XCENC  =      -249.79154424
  PAW double counting   =     23861.01415993   -22886.91073077
  entropy T*S    EENTRO =         0.00000000
  eigenvalues    EBANDS =     -1786.08353920
  atomic energy  EATOM  =     22818.36986190
  ---------------------------------------------------
  free energy    TOTEN  =       -43.58016152 eV

  energy without entropy =      -43.58016152  energy(sigma->0) =      -43.58016152


--------------------------------------------------------------------------------------------------------




----------------------------------------- Iteration    1(  30)  ---------------------------------------


    POTLOK:  cpu time    0.22: real time    0.22
    SETDIJ:  cpu time    0.00: real time    0.01
     EDDAV:  cpu time    1.58: real time    1.58
       DOS:  cpu time    0.00: real time    0.00
    CHARGE:  cpu time    0.08: real time    0.09
    MIXING:  cpu time    0.02: real time    0.02
    --------------------------------------------
      LOOP:  cpu time    1.92: real time    3.60

 eigenvalue-minimisations  :   456
 total energy-change (2. order) :-0.4500812E-03  (-0.1579338E-04)
 number of electron     241.9999872 magnetization      -0.0138486
 augmentation part      116.1249754 magnetization      -0.0130091

 Broyden mixing:
  rms(total) = 0.14106E-02    rms(broyden)= 0.14102E-02
  rms(prec ) = 0.15882E-02
  weight for this iteration     100.00

 eigenvalues of (default mixing * dielectric matrix)
  average eigenvalue GAMMA=   1.7886
  9.4809  5.6104  3.5260  3.0808  3.0808  2.3525  2.1998  2.1998  1.2696  1.2696
  1.0277  1.0277  0.5477  0.5477  0.9170  0.9170  0.5404  0.5404  0.6629  0.6629
  0.6992  0.6992  0.6131  0.6131  0.6287

 Free energy of the ion-electron system (eV)
  ---------------------------------------------------
  alpha Z        PSCENC =        51.22410705
  Ewald energy   TEWEN  =     38818.92794997
  -Hartree energ DENC   =    -60670.01175478
  -exchange      EXHF   =         0.00000000
  -V(xc)+E(xc)   XCENC  =      -249.79183162
  PAW double counting   =     23861.23081710   -22887.13043113
  entropy T*S    EENTRO =         0.00000000
  eigenvalues    EBANDS =     -1786.39933008
  atomic energy  EATOM  =     22818.36986190
  ---------------------------------------------------
  free energy    TOTEN  =       -43.58061160 eV

  energy without entropy =      -43.58061160  energy(sigma->0) =      -43.58061160


--------------------------------------------------------------------------------------------------------




----------------------------------------- Iteration    1(  31)  ---------------------------------------


    POTLOK:  cpu time    0.22: real time    0.22
    SETDIJ:  cpu time    0.01: real time    0.01
     EDDAV:  cpu time    1.49: real time    1.49
       DOS:  cpu time    0.00: real time    0.00
    CHARGE:  cpu time    0.08: real time    0.09
    MIXING:  cpu time    0.02: real time    0.02
    --------------------------------------------
      LOOP:  cpu time    1.83: real time    1.83

 eigenvalue-minimisations  :   416
 total energy-change (2. order) :-0.3065513E-03  (-0.2020372E-05)
 number of electron     241.9999872 magnetization      -0.0101281
 augmentation part      116.1251567 magnetization      -0.0093755

 Broyden mixing:
  rms(total) = 0.11112E-02    rms(broyden)= 0.11111E-02
  rms(prec ) = 0.12227E-02
  weight for this iteration     100.00

 eigenvalues of (default mixing * dielectric matrix)
  average eigenvalue GAMMA=   1.7772
  9.4429  5.9924  3.7004  3.0943  3.0943  2.2778  2.2778  2.3416  1.2990  1.2990
  1.0421  1.0421  0.5477  0.5477  0.9683  0.5404  0.5404  0.7900  0.7900  0.6800
  0.6800  0.6966  0.6496  0.6496  0.6110  0.6110

 Free energy of the ion-electron system (eV)
  ---------------------------------------------------
  alpha Z        PSCENC =        51.22410705
  Ewald energy   TEWEN  =     38818.92794997
  -Hartree energ DENC   =    -60669.84495229
  -exchange      EXHF   =         0.00000000
  -V(xc)+E(xc)   XCENC  =      -249.79263701
  PAW double counting   =     23861.15371341   -22887.05157403
  entropy T*S    EENTRO =         0.00000000
  eigenvalues    EBANDS =     -1786.56738715
  atomic energy  EATOM  =     22818.36986190
  ---------------------------------------------------
  free energy    TOTEN  =       -43.58091815 eV

  energy without entropy =      -43.58091815  energy(sigma->0) =      -43.58091815


--------------------------------------------------------------------------------------------------------




----------------------------------------- Iteration    1(  32)  ---------------------------------------


    POTLOK:  cpu time    0.22: real time    0.22
    SETDIJ:  cpu time    0.01: real time    0.01
     EDDAV:  cpu time    1.55: real time    1.55
       DOS:  cpu time    0.00: real time    0.00
    --------------------------------------------
      LOOP:  cpu time    1.78: real time    1.87

 eigenvalue-minimisations  :   440
 total energy-change (2. order) :-0.8389178E-04  (-0.5679714E-06)
[...]
     88      -6.7775      1.00000
     89      -6.7586      1.00000
     90      -6.7225      1.00000
     91      -6.7090      1.00000
     92      -6.6823      1.00000
     93      -6.6609      1.00000
     94      -6.6138      1.00000
     95      -6.6068      1.00000
     96      -6.5884      1.00000
     97      -6.5767      1.00000
     98      -6.5639      1.00000
     99      -6.5414      1.00000
    100      -6.5146      1.00000
    101      -6.4973      1.00000
    102      -6.4798      1.00000
    103      -6.4651      1.00000
    104      -6.4411      1.00000
    105      -6.4221      1.00000
    106      -6.4126      1.00000
    107      -6.4002      1.00000
    108      -6.3880      1.00000
    109      -6.3775      1.00000
    110      -6.3321      1.00000
    111      -6.3205      1.00000
    112      -6.2912      1.00000
    113      -6.2798      1.00000
    114      -6.1270      1.00000
    115      -5.2029      1.00000
    116      -5.0068      1.00000
    117      -4.7669      1.00000
    118      -4.6207      1.00000
    119      -4.5113      1.00000
    120      -3.7827      1.00000
    121      -3.3408      1.00000
    122      -3.0663      0.00000
    123      -2.8671      0.00000
    124      -2.8473      0.00000
    125      -2.6093      0.00000
    126      -2.4937      0.00000
    127      -2.4194      0.00000
    128      -2.2866      0.00000
    129      -2.0618      0.00000
    130      -1.5905      0.00000
    131      -1.3500      0.00000
    132      -1.2674      0.00000
    133      -1.1689      0.00000
    134      -1.1009      0.00000
    135      -0.9686      0.00000
    136      -0.7278      0.00000
    137      -0.6954      0.00000
    138      -0.5561      0.00000
    139      -0.4936      0.00000
    140      -0.4245      0.00000
    141      -0.2865      0.00000
    142      -0.1123      0.00000
    143       0.0536      0.00000
    144       0.3558      0.00000
    145       0.3932      0.00000
    146       0.4839      0.00000
    147       0.5925      0.00000
    148       0.7207      0.00000
    149       0.7576      0.00000
    150       0.7843      0.00000
    151       0.7997      0.00000
    152       0.8094      0.00000
    153       0.8759      0.00000
    154       0.9152      0.00000
    155       0.9411      0.00000
    156       0.9647      0.00000


--------------------------------------------------------------------------------------------------------


 soft charge-density along one line, spin component           1
         0         1         2         3         4         5         6         7         8         9
 total charge-density along one line
 
 soft charge-density along one line, spin component           2
         0         1         2         3         4         5         6         7         8         9
 total charge-density along one line
 
 pseudopotential strength for first ion, spin component:           1
-10.330   0.001  -0.008  -0.001  -0.001 -10.304   0.001  -0.008
  0.001 -10.337  -0.000   0.006   0.002   0.001 -10.310  -0.000
 -0.008  -0.000 -10.327   0.003  -0.006  -0.008  -0.000 -10.301
 -0.001   0.006   0.003 -10.325   0.005  -0.001   0.006   0.002
 -0.001   0.002  -0.006   0.005 -10.323  -0.001   0.002  -0.006
-10.304   0.001  -0.008  -0.001  -0.001 -10.254   0.000  -0.007
  0.001 -10.310  -0.000   0.006   0.002   0.000 -10.260  -0.000
 -0.008  -0.000 -10.301   0.002  -0.006  -0.007  -0.000 -10.251
 -0.001   0.006   0.002 -10.299   0.004  -0.001   0.006   0.002
 -0.001   0.002  -0.006   0.004 -10.297  -0.001   0.002  -0.006
 -0.002   0.001  -0.001  -0.003  -0.001  -0.002   0.001  -0.001
 -0.003   0.001  -0.002  -0.005  -0.001  -0.003   0.001  -0.002
  0.005   0.027   0.002   0.000   0.003   0.004   0.026   0.002
  0.000  -0.003   0.032   0.006   0.000   0.000  -0.003   0.030
 -0.003   0.000  -0.003   0.027   0.006  -0.003   0.000  -0.003
  0.006   0.033   0.002   0.000   0.004   0.006   0.032   0.002
  0.000  -0.004   0.039   0.007   0.000   0.000  -0.004   0.037
 -0.004   0.000  -0.003   0.033   0.007  -0.004   0.000  -0.003
 pseudopotential strength for first ion, spin component:           2
-10.330   0.001  -0.008  -0.001  -0.001 -10.304   0.001  -0.008
  0.001 -10.337  -0.000   0.006   0.002   0.001 -10.310  -0.000
 -0.008  -0.000 -10.327   0.003  -0.006  -0.008  -0.000 -10.301
 -0.001   0.006   0.003 -10.325   0.005  -0.001   0.006   0.002
 -0.001   0.002  -0.006   0.005 -10.323  -0.001   0.002  -0.006
-10.304   0.001  -0.008  -0.001  -0.001 -10.254   0.000  -0.007
  0.001 -10.310  -0.000   0.006   0.002   0.000 -10.260  -0.000
 -0.008  -0.000 -10.301   0.002  -0.006  -0.007  -0.000 -10.251
 -0.001   0.006   0.002 -10.299   0.004  -0.001   0.006   0.002
 -0.001   0.002  -0.006   0.004 -10.297  -0.001   0.002  -0.006
 -0.002   0.001  -0.001  -0.003  -0.001  -0.002   0.001  -0.001
 -0.003   0.001  -0.002  -0.005  -0.001  -0.003   0.001  -0.002
  0.005   0.027   0.002   0.000   0.003   0.004   0.026   0.002
  0.000  -0.003   0.032   0.006   0.000   0.000  -0.003   0.030
 -0.003   0.000  -0.003   0.027   0.006  -0.003   0.000  -0.003
  0.006   0.033   0.002   0.000   0.004   0.006   0.032   0.002
  0.000  -0.004   0.039   0.007   0.000   0.000  -0.004   0.037
 -0.004   0.000  -0.003   0.033   0.007  -0.004   0.000  -0.003
 total augmentation occupancy for first ion, spin component:           1
  2.525   0.077   0.016  -0.005  -0.034  -0.590  -0.070  -0.035   0.003   0.014   0.102  -0.030   0.053  -0.002  -0.023  -0.001
  0.077   2.885   0.046  -0.010   0.070  -0.070  -0.901  -0.041   0.017  -0.057  -0.024   0.006   0.186   0.004   0.016   0.006
  0.016   0.046   2.777  -0.080  -0.170  -0.036  -0.041  -0.713   0.104   0.169   0.065   0.024   0.022   0.103  -0.114  -0.001
 -0.005  -0.010  -0.080   2.727   0.121   0.003   0.017   0.103  -0.735  -0.067   0.243   0.000   0.005  -0.022   0.136   0.000
 -0.034   0.070  -0.170   0.121   2.754   0.014  -0.057   0.169  -0.067  -0.702  -0.036   0.009   0.028  -0.052   0.147  -0.000
 -0.590  -0.070  -0.036   0.003   0.014   0.616   0.064   0.053  -0.002   0.002  -0.085   0.018  -0.067   0.003   0.020   0.004
 -0.070  -0.901  -0.041   0.017  -0.057   0.064   0.888   0.038  -0.025   0.047   0.015  -0.003  -0.218  -0.004  -0.011   0.012
 -0.035  -0.041  -0.713   0.103   0.169   0.053   0.038   0.630  -0.124  -0.168  -0.064  -0.013  -0.020  -0.122   0.118   0.001
  0.003   0.017   0.104  -0.735  -0.067  -0.002  -0.025  -0.124   0.714   0.024  -0.214   0.003  -0.002   0.018  -0.156  -0.000
  0.014  -0.057   0.169  -0.067  -0.702   0.002   0.047  -0.168   0.024   0.627   0.050  -0.022  -0.024   0.052  -0.139   0.001
  0.102  -0.024   0.065   0.243  -0.036  -0.085   0.015  -0.064  -0.214   0.050   1.813  -0.254   0.006  -0.207  -0.074  -0.001
 -0.030   0.006   0.024   0.000   0.009   0.018  -0.003  -0.013   0.003  -0.022  -0.254   0.051  -0.000   0.042   0.025   0.000
  0.053   0.186   0.022   0.005   0.028  -0.067  -0.218  -0.020  -0.002  -0.024   0.006  -0.000   0.074   0.002   0.006  -0.004
 -0.002   0.004   0.103  -0.022  -0.052   0.003  -0.004  -0.122   0.018   0.052  -0.207   0.042   0.002   0.066  -0.020  -0.000
 -0.023   0.016  -0.114   0.136   0.147   0.020  -0.011   0.118  -0.156  -0.139  -0.074   0.025   0.006  -0.020   0.108   0.000
 -0.001   0.006  -0.001   0.000  -0.000   0.004   0.012   0.001  -0.000   0.001  -0.001   0.000  -0.004  -0.000   0.000   0.000
  0.000  -0.001   0.012   0.004   0.002  -0.000   0.000   0.007  -0.001  -0.002   0.019  -0.004  -0.000  -0.005   0.001  -0.000
 -0.000   0.000   0.005   0.008  -0.005  -0.001  -0.000  -0.007   0.009   0.007   0.008  -0.002   0.000   0.001  -0.006  -0.000
 total augmentation occupancy for first ion, spin component:           2
 -0.000   0.000   0.000  -0.000  -0.000   0.000  -0.000  -0.000   0.000   0.000   0.000  -0.000  -0.000   0.000   0.000   0.000
  0.000  -0.000  -0.000   0.000  -0.000  -0.000   0.000   0.000  -0.000   0.000  -0.000   0.000   0.000   0.000   0.000  -0.000
  0.000  -0.000   0.000  -0.000   0.000  -0.000   0.000  -0.000  -0.000  -0.000   0.000  -0.000   0.000   0.000  -0.000  -0.000
 -0.000   0.000  -0.000  -0.000  -0.000   0.000  -0.000  -0.000   0.000   0.000  -0.000   0.000   0.000  -0.000   0.000  -0.000
 -0.000  -0.000   0.000  -0.000   0.000   0.000   0.000  -0.000   0.000  -0.000  -0.000   0.000   0.000  -0.000   0.000  -0.000
  0.000  -0.000  -0.000   0.000   0.000  -0.000   0.000  -0.000  -0.000  -0.000  -0.000   0.000   0.000   0.000   0.000  -0.000
 -0.000   0.000   0.000  -0.000   0.000   0.000  -0.000  -0.000   0.000  -0.000  -0.000   0.000  -0.000  -0.000  -0.000   0.000
 -0.000   0.000  -0.000  -0.000  -0.000  -0.000  -0.000   0.000   0.000  -0.000  -0.000   0.000  -0.000  -0.000   0.000   0.000
  0.000  -0.000  -0.000   0.000   0.000  -0.000   0.000   0.000   0.000  -0.000   0.000  -0.000  -0.000   0.000  -0.000   0.000
  0.000   0.000  -0.000   0.000  -0.000  -0.000  -0.000  -0.000  -0.000   0.000   0.000  -0.000  -0.000   0.000  -0.000   0.000
  0.000  -0.000   0.000  -0.000  -0.000  -0.000  -0.000  -0.000   0.000   0.000  -0.000   0.000   0.000  -0.000  -0.000  -0.000
 -0.000   0.000  -0.000   0.000   0.000   0.000   0.000   0.000  -0.000  -0.000   0.000  -0.000  -0.000   0.000  -0.000   0.000
 -0.000   0.000   0.000   0.000   0.000   0.000  -0.000  -0.000  -0.000  -0.000   0.000  -0.000   0.000  -0.000   0.000  -0.000
  0.000   0.000   0.000  -0.000  -0.000   0.000  -0.000  -0.000   0.000   0.000  -0.000   0.000  -0.000  -0.000  -0.000   0.000
  0.000   0.000  -0.000   0.000   0.000   0.000  -0.000   0.000  -0.000  -0.000  -0.000  -0.000   0.000  -0.000   0.000  -0.000
  0.000  -0.000  -0.000  -0.000  -0.000  -0.000   0.000   0.000   0.000   0.000  -0.000   0.000  -0.000   0.000  -0.000   0.000
 -0.000  -0.000  -0.000   0.000   0.000  -0.000   0.000  -0.000   0.000  -0.000   0.000  -0.000   0.000   0.000  -0.000  -0.000
 -0.000  -0.000   0.000   0.000  -0.000  -0.000   0.000  -0.000   0.000   0.000   0.000   0.000  -0.000   0.000  -0.000  -0.000


------------------------ aborting loop because EDIFF is reached ----------------------------------------


    CHARGE:  cpu time    0.08: real time    0.08
    FORLOC:  cpu time    0.01: real time    0.01
    FORNL :  cpu time    1.22: real time    1.22
    STRESS:  cpu time    1.41: real time    1.42
    FORCOR:  cpu time    0.23: real time    0.23
    FORHAR:  cpu time    0.04: real time    0.03
    MIXING:  cpu time    0.01: real time    0.01
    OFIELD:  cpu time    0.00: real time    0.00

  FORCE on cell =-STRESS in cart. coord.  units (eV):
  Direction    XX          YY          ZZ          XY          YZ          ZX
  --------------------------------------------------------------------------------------
  Alpha Z    51.22411    51.22411    51.22411
  Ewald   12306.32608 11986.39810 13760.09662  3637.84019  -172.76703   924.72554
  Hartree 19661.79390 19378.59310 20880.92880  3268.00659  -142.04338   800.15357
  E(xc)   -1275.57497 -1275.72646 -1275.02290     0.76397    -0.10338     0.32204
  Local  -35553.24688-34946.58228-38218.60532 -6899.07740   310.01116 -1722.55981
  n-local  -235.70898  -236.42583  -236.83678     0.04783     1.04844     0.05831
  augment  2021.60041  2020.98366  2019.87438    -2.31817     1.15899    -0.73869
  Kinetic  3016.16388  3014.31246  3010.97144    -5.17845     2.90214    -1.99884
  Fock        0.00000     0.00000     0.00000     0.00000     0.00000     0.00000
  -------------------------------------------------------------------------------------
  Total      -7.42245    -7.22316    -7.36965     0.08456     0.20694    -0.03787
  in kB      -1.47970    -1.43997    -1.46917     0.01686     0.04125    -0.00755
  external pressure =       -1.46 kB  Pullay stress =        0.00 kB


 VOLUME and BASIS-vectors are now :
 -----------------------------------------------------------------------------
  energy-cutoff  :      249.84
  volume of cell :     8036.84
      direct lattice vectors                 reciprocal lattice vectors
    20.030650285  0.000000000  0.000000000     0.049923492  0.000000000  0.000000000
     0.000000000 20.030650285  0.000000000     0.000000000  0.049923492  0.000000000
     0.000000000  0.000000000 20.030650285     0.000000000  0.000000000  0.049923492

  length of vectors
    20.030650285 20.030650285 20.030650285     0.049923492  0.049923492  0.049923492


 FORCES acting on ions
    electron-ion (+dipol)            ewald-force                    non-local-force                 convergence-correction
 -----------------------------------------------------------------------------------------------
   -.572E+03 0.670E+02 -.118E+04   0.571E+03 -.668E+02 0.118E+04   0.765E+00 -.194E+00 0.458E+01   -.710E-02 -.562E-02 -.498E-02
   -.110E+04 -.463E+03 -.494E+03   0.110E+04 0.463E+03 0.495E+03   0.369E+01 -.496E+00 -.112E+01   0.376E-02 -.806E-04 0.733E-02
   -.649E+02 0.944E+03 -.748E+03   0.642E+02 -.942E+03 0.746E+03   0.638E+00 -.196E+01 0.233E+01   -.123E-01 -.159E-02 -.302E-02
   -.555E+03 0.115E+04 0.286E+03   0.555E+03 -.114E+04 -.287E+03   0.398E+00 -.329E+01 0.503E+00   -.456E-02 0.155E-02 -.809E-02
   0.442E+03 -.571E+02 -.122E+04   -.440E+03 0.576E+02 0.121E+04   -.257E+01 -.571E+00 0.477E+01   -.514E-02 0.453E-02 0.201E-02
   -.999E+03 0.736E+03 -.498E+03   0.996E+03 -.734E+03 0.496E+03   0.283E+01 -.230E+01 0.180E+01   -.433E-02 -.586E-02 0.632E-03
   0.136E+03 -.823E+03 -.904E+03   -.136E+03 0.821E+03 0.902E+03   0.462E+00 0.169E+01 0.211E+01   0.102E-02 0.337E-02 0.431E-02
   -.126E+04 0.211E+03 0.443E+03   0.126E+04 -.211E+03 -.442E+03   0.471E+01 -.196E+00 -.106E+01   -.165E-02 -.366E-02 0.187E-02
   -.411E+03 -.116E+04 -.394E+03   0.410E+03 0.115E+04 0.393E+03   0.151E+01 0.446E+01 0.102E+01   0.145E-02 0.390E-02 -.358E-02
   0.854E+03 0.637E+03 -.736E+03   -.852E+03 -.634E+03 0.732E+03   -.216E+01 -.336E+01 0.404E+01   -.593E-02 0.249E-02 -.754E-05
   0.401E+03 0.104E+04 0.940E+01   -.399E+03 -.104E+04 -.869E+01   -.142E+01 -.189E+01 -.728E+00   -.232E-02 -.677E-03 -.642E-03
   -.849E+03 -.642E+03 0.591E+03   0.848E+03 0.639E+03 -.590E+03   0.682E+00 0.249E+01 -.117E+01   0.158E-02 -.749E-03 0.793E-02
   0.268E+02 0.826E+03 0.983E+03   -.258E+02 -.823E+03 -.979E+03   -.100E+01 -.315E+01 -.389E+01   -.114E-02 0.224E-02 -.110E-01
   0.890E+03 -.426E+03 -.420E+03   -.889E+03 0.426E+03 0.419E+03   -.107E+01 -.752E+00 0.830E+00   0.555E-02 0.824E-02 -.314E-02
   -.197E+03 0.471E+02 -.202E+02   0.196E+03 -.465E+02 0.203E+02   0.133E+01 -.586E+00 -.110E+00   0.293E-02 0.242E-02 0.507E-02
   0.840E+03 0.543E+03 0.715E+03   -.836E+03 -.541E+03 -.711E+03   -.365E+01 -.206E+01 -.347E+01   -.178E-02 -.306E-02 0.167E-02
   0.675E+03 -.918E+03 0.564E+02   -.674E+03 0.917E+03 -.557E+02   -.490E+00 0.180E+01 -.698E+00   0.723E-02 -.422E-02 0.304E-02
   0.603E+01 -.114E+04 0.472E+03   -.618E+01 0.114E+04 -.470E+03   0.153E+00 0.550E+01 -.283E+01   0.343E-02 0.107E-02 -.104E-02
   -.481E+03 0.168E+03 0.115E+04   0.479E+03 -.168E+03 -.115E+04   0.223E+01 0.360E+00 -.184E+01   0.455E-02 0.819E-03 -.262E-02
   0.126E+04 0.397E+02 0.294E+02   -.125E+04 -.402E+02 -.283E+02   -.496E+01 0.538E+00 -.112E+01   0.398E-02 0.317E-02 0.425E-02
   0.249E+03 -.563E+03 0.113E+04   -.248E+03 0.561E+03 -.113E+04   -.687E+00 0.212E+01 -.451E+01   0.362E-02 0.188E-02 0.209E-02
   0.721E+03 -.213E+03 0.739E+03   -.720E+03 0.214E+03 -.738E+03   -.139E+01 -.645E+00 -.122E+01   0.489E-02 -.531E-03 0.250E-02
 -----------------------------------------------------------------------------------------------
   0.391E-01 0.246E+01 0.173E+01   0.455E-12 -.966E-12 0.114E-12   0.200E-02 -.250E+01 -.176E+01   -.229E-02 0.964E-02 0.462E-02
 
 
 POSITION                                       TOTAL-FORCE (eV/Angst)
 -----------------------------------------------------------------------------------
     11.91735     10.08572     13.70125        -0.009749     -0.010383     -0.004766
     13.07084     11.53171     11.59942        -0.000214      0.000808      0.008341
     10.23787      8.27086     12.26765        -0.010354     -0.003429      0.001756
     11.65058      7.63565      9.40769        -0.006320      0.004586     -0.009504
      9.05047     10.09274     14.04443        -0.006029      0.006450     -0.000448
     13.03479      8.57156     11.67241        -0.011502     -0.008051     -0.003664
     10.37168     12.06171     12.53328         0.005308      0.007952      0.004815
     13.57847      9.77001      9.23877        -0.000735     -0.003676      0.003597
     11.73326     13.92052     11.03568         0.004274      0.001346      0.002597
      7.34680      8.25827     12.49445        -0.004023      0.009897     -0.001015
      8.75304      7.82118     10.00524        -0.003709     -0.004519     -0.010455
     12.27790     12.23105      8.84587         0.004565     -0.002329      0.004114
      9.71314      7.72852      7.36040        -0.005594      0.007978     -0.010129
      8.29039     10.58016     11.40416        -0.006989     -0.007869      0.005865
     10.91720     10.15760     10.31884         0.011397     -0.005469      0.002263
      6.96423      7.91646      7.73861         0.001020     -0.005354      0.007911
      9.43948     12.56856      9.87301         0.014148      0.012927     -0.005952
     10.71231     14.59106      8.51731         0.005074     -0.003663      0.000174
     11.40558      9.84400      7.49897         0.004407      0.001398      0.000776
      6.28934      9.23158     10.08184         0.002365      0.004936      0.001684
      9.98604     12.22025      7.14508         0.006410      0.000705      0.001704
      8.57957     10.18439      8.46480         0.006250     -0.004239      0.000336
 -----------------------------------------------------------------------------------
    total drift:                                0.038820     -0.029401     -0.028981


--------------------------------------------------------------------------------------------------------



  FREE ENERGIE OF THE ION-ELECTRON SYSTEM (eV)
  ---------------------------------------------------
  free  energy   TOTEN  =       -44.24028499 eV

  energy  without entropy=      -44.24028499  energy(sigma->0) =      -44.24028499
 
 d Force = 0.4229538E-05[ 0.786E-05, 0.598E-06]  d Energy =-0.3400928E-06 0.457E-05
 d Force = 0.3647475E-02[ 0.365E-02, 0.364E-02]  d Ewald  = 0.3647475E-02-0.269E-09


--------------------------------------------------------------------------------------------------------


    POTLOK:  cpu time    0.23: real time    0.24


--------------------------------------------------------------------------------------------------------




--------------------------------------------------------------------------------------------------------


  
 reached required accuracy - stopping structural energy minimisation
     LOOP+:  cpu time    7.22: real time    7.73
    4ORBIT:  cpu time    0.00: real time    0.00

 total amount of memory used by VASP on root node    58192. kBytes
========================================================================

   base      :      30000. kBytes
   nonl-proj :       2243. kBytes
   fftplans  :       5772. kBytes
   grid      :      14451. kBytes
   one-center:         46. kBytes
   wavefun   :       5680. kBytes
 
  
  
 General timing and accounting informations for this job:
 ========================================================
  
                  Total CPU time used (sec):      394.849
                            User time (sec):      391.320
                          System time (sec):        3.528
                         Elapsed time (sec):      418.612
  
                   Maximum memory used (kb):       67192.
                   Average memory used (kb):           0.
  
                          Minor page faults:       600967
                          Major page faults:            0
                 Voluntary context switches:         5526
