unknown system                          
           1
    20.030650    0.000000    0.000000
     0.000000   20.030650    0.000000
     0.000000    0.000000   20.030650
   Ag
  22
Direct configuration=     1
   0.59312585  0.49093127  0.68457163
   0.64444234  0.57282919  0.57102874
   0.51265137  0.40762476  0.61044723
   0.57608995  0.36867128  0.47997494
   0.45594839  0.50250228  0.70273619
   0.64444863  0.43017795  0.57646741
   0.51739462  0.60116172  0.62430414
   0.67662672  0.48930585  0.45644174
   0.57406867  0.69604435  0.54756440
   0.37343449  0.41869496  0.62764265
   0.43930114  0.39147266  0.50410044
   0.61223228  0.61138848  0.44445809
   0.49405433  0.38125821  0.37386099
   0.41072995  0.53553397  0.56625582
   0.54077443  0.50392494  0.50975989
   0.36170736  0.40315423  0.39246900
   0.46521430  0.63045496  0.49408946
   0.52990028  0.72802774  0.42492457
   0.57341461  0.49349734  0.36998005
   0.31636109  0.46073897  0.50658925
   0.50529349  0.61262386  0.35630616
   0.43156380  0.51642439  0.42125237
Direct configuration=     2
   0.59314933  0.49118899  0.68459197
   0.64454160  0.57289258  0.57131670
   0.51266197  0.40764625  0.61068173
   0.57619662  0.36874837  0.47986522
   0.45592140  0.50255252  0.70267836
   0.64477839  0.43012818  0.57654441
   0.51745240  0.60103168  0.62443554
   0.67670433  0.48918866  0.45650225
   0.57427213  0.69610269  0.54777131
   0.37328974  0.41863776  0.62759973
   0.43911971  0.39148828  0.50391819
   0.61221970  0.61145496  0.44432041
   0.49407780  0.38135687  0.37373288
   0.41069276  0.53536426  0.56650815
   0.54075213  0.50389770  0.50973551
   0.36148711  0.40301184  0.39226954
   0.46527041  0.63056016  0.49393635
   0.52990497  0.72819202  0.42480587
   0.57327411  0.49341430  0.36992121
   0.31626293  0.46073019  0.50664968
   0.50520113  0.61257535  0.35621096
   0.43154738  0.51627975  0.42122918
Direct configuration=     3
   0.59321978  0.49196214  0.68465299
   0.64483937  0.57308277  0.57218059
   0.51269379  0.40771073  0.61138523
   0.57651663  0.36897966  0.47953606
   0.45584043  0.50270325  0.70250487
   0.64576769  0.42997888  0.57677542
   0.51762576  0.60064156  0.62482974
   0.67693713  0.48883709  0.45668377
   0.57488251  0.69627771  0.54839207
   0.37285549  0.41846615  0.62747095
   0.43857543  0.39153514  0.50337143
   0.61218197  0.61165439  0.44390739
   0.49414820  0.38165282  0.37334854
   0.41058121  0.53485514  0.56726513
   0.54068524  0.50381598  0.50966237
   0.36082635  0.40258467  0.39167116
   0.46543875  0.63087575  0.49347703
   0.52991905  0.72868486  0.42444977
   0.57285263  0.49316520  0.36974467
   0.31596846  0.46070385  0.50683098
   0.50492405  0.61242982  0.35592537
   0.43149813  0.51584582  0.42115962
Direct configuration=     4
   0.59336068  0.49350843  0.68477504
   0.64543491  0.57346315  0.57390836
   0.51275742  0.40783968  0.61279222
   0.57715664  0.36944224  0.47887774
   0.45567849  0.50300470  0.70215788
   0.64774627  0.42968027  0.57723745
   0.51797248  0.59986131  0.62561814
   0.67740275  0.48813395  0.45704680
   0.57610326  0.69662776  0.54963357
   0.37198700  0.41812294  0.62721339
   0.43748687  0.39162886  0.50227792
   0.61210651  0.61205324  0.44308134
   0.49428902  0.38224474  0.37257987
   0.41035810  0.53383690  0.56877910
   0.54055147  0.50365253  0.50951609
   0.35950484  0.40173032  0.39047441
   0.46577544  0.63150692  0.49255837
   0.52994721  0.72967055  0.42373758
   0.57200966  0.49266698  0.36939160
   0.31537953  0.46065118  0.50719358
   0.50436990  0.61213874  0.35535419
   0.43139963  0.51497797  0.42102049
Direct configuration=     5
   0.59364247  0.49660103  0.68501913
   0.64662598  0.57422391  0.57736391
   0.51288469  0.40809759  0.61560620
   0.57843668  0.37036740  0.47756111
   0.45535461  0.50360760  0.70146391
   0.65170344  0.42908306  0.57816151
   0.51866591  0.59830082  0.62719493
   0.67833397  0.48672767  0.45777288
   0.57854478  0.69732785  0.55211658
   0.37025001  0.41743653  0.62669828
   0.43530975  0.39181629  0.50009089
   0.61195559  0.61285095  0.44142924
   0.49457065  0.38342856  0.37104253
   0.40991189  0.53180042  0.57180703
   0.54028391  0.50332565  0.50922353
   0.35686180  0.40002163  0.38808092
   0.46644880  0.63276927  0.49072106
   0.53000352  0.73164191  0.42231320
   0.57032372  0.49167056  0.36868547
   0.31420166  0.46054582  0.50791878
   0.50326159  0.61155660  0.35421184
   0.43120262  0.51324227  0.42074224
Direct configuration=     6
   0.59355947  0.49569021  0.68494724
   0.64627519  0.57399986  0.57634620
   0.51284721  0.40802163  0.61477744
   0.57805969  0.37009492  0.47794888
   0.45545000  0.50343003  0.70166830
   0.65053799  0.42925895  0.57788936
   0.51846168  0.59876041  0.62673054
   0.67805971  0.48714184  0.45755904
   0.57782571  0.69712166  0.55138529
   0.37076158  0.41763869  0.62684999
   0.43595095  0.39176108  0.50073501
   0.61200004  0.61261601  0.44191581
   0.49448771  0.38307991  0.37149530
   0.41004330  0.53240019  0.57091526
   0.54036271  0.50342192  0.50930969
   0.35764022  0.40052487  0.38878584
   0.46625049  0.63239749  0.49126218
   0.52998694  0.73106131  0.42273270
   0.57082025  0.49196402  0.36889344
   0.31454856  0.46057685  0.50770520
   0.50358801  0.61172805  0.35454828
   0.43126064  0.51375346  0.42082419
Direct configuration=     7
   0.59405036  0.49659952  0.68486241
   0.64653202  0.57416183  0.57676212
   0.51273446  0.40814075  0.61452693
   0.57846082  0.37091580  0.47775274
   0.45500592  0.50340430  0.70184500
   0.65117077  0.42913935  0.57839833
   0.51862696  0.59880382  0.62653428
   0.67774713  0.48705666  0.45767572
   0.57830628  0.69689373  0.55158758
   0.37016242  0.41691659  0.62689860
   0.43606083  0.39189320  0.50079193
   0.61194154  0.61247788  0.44197572
   0.49397562  0.38315887  0.37106386
   0.41057965  0.53273309  0.57101073
   0.54063426  0.50340273  0.50953119
   0.35676598  0.40007921  0.38812975
   0.46653031  0.63193465  0.49135464
   0.53021948  0.73131982  0.42270067
   0.57093068  0.49207999  0.36902080
   0.31416915  0.46049695  0.50753855
   0.50316585  0.61169823  0.35433155
   0.43100755  0.51313641  0.42093205
Direct configuration=     8
   0.59552303  0.49932746  0.68460793
   0.64730252  0.57464774  0.57800990
   0.51239621  0.40849809  0.61377540
   0.57966420  0.37337844  0.47716433
   0.45367368  0.50332711  0.70237511
   0.65306911  0.42878056  0.57992525
   0.51912279  0.59893404  0.62594549
   0.67680940  0.48680110  0.45802575
   0.57974799  0.69620993  0.55219445
   0.36836495  0.41475028  0.62704442
   0.43639047  0.39228954  0.50096269
   0.61176604  0.61206349  0.44215547
   0.49243935  0.38339577  0.36976954
   0.41218870  0.53373177  0.57129716
   0.54144892  0.50334515  0.51019567
   0.35414324  0.39874226  0.38616147
   0.46736977  0.63054613  0.49163202
   0.53091711  0.73209535  0.42260457
   0.57126197  0.49242791  0.36940290
   0.31303093  0.46025726  0.50703862
   0.50189936  0.61160875  0.35368138
   0.43024830  0.51128524  0.42125564
Direct configuration=     9
   0.59591992  0.50006265  0.68453935
   0.64751017  0.57477870  0.57834618
   0.51230505  0.40859440  0.61357286
   0.57998852  0.37404213  0.47700575
   0.45331464  0.50330631  0.70251798
   0.65358071  0.42868387  0.58033676
   0.51925642  0.59896913  0.62578681
   0.67655668  0.48673223  0.45812009
   0.58013653  0.69602564  0.55235801
   0.36788052  0.41416645  0.62708372
   0.43647931  0.39239636  0.50100871
   0.61171875  0.61195181  0.44220391
   0.49202532  0.38345961  0.36942072
   0.41262234  0.53400092  0.57137435
   0.54166847  0.50332963  0.51037475
   0.35343641  0.39838194  0.38563101
   0.46759600  0.63017192  0.49170677
   0.53110513  0.73230436  0.42257866
   0.57135126  0.49252167  0.36950587
   0.31272417  0.46019266  0.50690389
   0.50155804  0.61158464  0.35350616
   0.43004367  0.51078635  0.42134285
Direct configuration=    10
   0.59630806  0.50083229  0.68441209
   0.64829040  0.57489992  0.57820486
   0.51234355  0.40944036  0.61317838
   0.58047337  0.37555712  0.47632497
   0.45292428  0.50304488  0.70239428
   0.65391814  0.42867135  0.58123000
   0.51932461  0.59933764  0.62571656
   0.67601924  0.48674051  0.45857477
   0.58068400  0.69575966  0.55183303
   0.36745451  0.41387394  0.62651630
   0.43641762  0.39263950  0.50081188
   0.61135297  0.61169541  0.44251469
   0.49097455  0.38378136  0.36927794
   0.41232853  0.53296808  0.57124278
   0.54221117  0.50361149  0.51094476
   0.35249354  0.39799335  0.38540137
   0.46860889  0.62960433  0.49141965
   0.53154765  0.73168731  0.42321211
   0.57136261  0.49265624  0.36991696
   0.31319869  0.46012352  0.50668122
   0.50091803  0.61158290  0.35386816
   0.42962365  0.50994221  0.42154840
Direct configuration=    11
   0.59717786  0.50255701  0.68412691
   0.65003884  0.57517157  0.57788818
   0.51242982  0.41133610  0.61229440
   0.58155987  0.37895213  0.47479938
   0.45204950  0.50245903  0.70211708
   0.65467429  0.42864329  0.58323170
   0.51947741  0.60016345  0.62555915
   0.67481488  0.48675908  0.45959369
   0.58191085  0.69516362  0.55065660
   0.36649985  0.41321843  0.62524473
   0.43627937  0.39318437  0.50037079
   0.61053330  0.61112084  0.44321113
   0.48861983  0.38450236  0.36895797
   0.41167011  0.53065355  0.57094793
   0.54342732  0.50424313  0.51222210
   0.35038065  0.39712254  0.38488676
   0.47087869  0.62833237  0.49077623
   0.53253933  0.73030456  0.42463160
   0.57138804  0.49295781  0.37083819
   0.31426206  0.45996858  0.50618225
   0.49948379  0.61157902  0.35467937
   0.42868240  0.50805055  0.42200903
Direct configuration=    12
   0.59698365  0.50311152  0.68422614
   0.65119524  0.57532344  0.57753632
   0.51252581  0.41265906  0.61223033
   0.58190776  0.38010005  0.47339669
   0.45217015  0.50229044  0.70149467
   0.65461516  0.42861399  0.58406171
   0.51878783  0.60023488  0.62548177
   0.67526853  0.48687743  0.46050437
   0.58288231  0.69535786  0.55036401
   0.36640919  0.41289561  0.62478003
   0.43652172  0.39266590  0.50007117
   0.61049538  0.61075408  0.44302697
   0.48756363  0.38527589  0.36910036
   0.41228191  0.52990241  0.57057111
   0.54330092  0.50537984  0.51328551
   0.34929694  0.39679824  0.38507530
   0.47139170  0.62664813  0.49127231
   0.53324798  0.72971419  0.42517516
   0.57047564  0.49270058  0.37126448
   0.31424551  0.45991550  0.50509414
   0.49870354  0.61113921  0.35519247
   0.42850754  0.50808511  0.42202012
Direct configuration=    13
   0.59686934  0.50343792  0.68428456
   0.65187591  0.57541284  0.57732921
   0.51258231  0.41343777  0.61219262
   0.58211254  0.38077573  0.47257105
   0.45224117  0.50219120  0.70112832
   0.65458036  0.42859675  0.58455026
   0.51838194  0.60027692  0.62543623
   0.67553556  0.48694709  0.46104041
   0.58345413  0.69547219  0.55019179
   0.36635583  0.41270560  0.62450651
   0.43666436  0.39236072  0.49989481
   0.61047306  0.61053821  0.44291856
   0.48694195  0.38573120  0.36918418
   0.41264202  0.52946028  0.57034931
   0.54322651  0.50604892  0.51391145
   0.34865906  0.39660736  0.38518628
   0.47169367  0.62565677  0.49156431
   0.53366510  0.72936669  0.42549511
   0.56993859  0.49254917  0.37151539
   0.31423576  0.45988425  0.50445367
   0.49824427  0.61088034  0.35549448
   0.42840462  0.50810545  0.42202664
Direct configuration=    14
   0.59651713  0.50359994  0.68441938
   0.65199407  0.57554197  0.57752236
   0.51254974  0.41346204  0.61227586
   0.58207636  0.38093111  0.47211831
   0.45241516  0.50242267  0.70113871
   0.65401060  0.42848168  0.58421333
   0.51829549  0.60064051  0.62540687
   0.67616583  0.48716243  0.46120545
   0.58396888  0.69539980  0.55085885
   0.36658757  0.41262602  0.62437572
   0.43696090  0.39161030  0.50007525
   0.61107900  0.61039099  0.44224019
   0.48653586  0.38580629  0.36904051
   0.41264651  0.52902483  0.57018865
   0.54357013  0.50610501  0.51413464
   0.34837226  0.39652774  0.38545780
   0.47139110  0.62604705  0.49193487
   0.53370629  0.72909878  0.42535625
   0.56962881  0.49232574  0.37212127
   0.31394465  0.46004251  0.50381221
   0.49808773  0.61070310  0.35554955
   0.42827398  0.50849286  0.42177912
Direct configuration=    15
   0.59606577  0.50380758  0.68459214
   0.65214549  0.57570746  0.57776988
   0.51250799  0.41349314  0.61238253
   0.58203000  0.38113022  0.47153812
   0.45263813  0.50271929  0.70115202
   0.65328047  0.42833424  0.58378156
   0.51818471  0.60110643  0.62536924
   0.67697350  0.48743838  0.46141696
   0.58462851  0.69530704  0.55171368
   0.36688454  0.41252405  0.62420813
   0.43734091  0.39064865  0.50030648
   0.61185550  0.61020232  0.44137088
   0.48601548  0.38590251  0.36885640
   0.41265227  0.52846681  0.56998277
   0.54401047  0.50617690  0.51442064
   0.34800472  0.39642571  0.38580574
   0.47100337  0.62654719  0.49240974
   0.53375908  0.72875546  0.42517830
   0.56923184  0.49203941  0.37289769
   0.31357159  0.46024531  0.50299019
   0.49788713  0.61047596  0.35562013
   0.42810656  0.50898932  0.42146193
Direct configuration=    16
   0.59578310  0.50386119  0.68444365
   0.65210880  0.57570774  0.57816367
   0.51237036  0.41316994  0.61261605
   0.58202858  0.38102668  0.47106321
   0.45262817  0.50316386  0.70129039
   0.65236248  0.42828404  0.58340303
   0.51792090  0.60132035  0.62539032
   0.67752592  0.48765379  0.46126538
   0.58508283  0.69509894  0.55154288
   0.36695813  0.41236535  0.62394454
   0.43716402  0.39047878  0.50007070
   0.61223389  0.61057292  0.44113315
   0.48539151  0.38576010  0.36857366
   0.41291064  0.52822647  0.56952310
   0.54435550  0.50660450  0.51449437
   0.34798751  0.39617290  0.38605113
   0.47096686  0.62720860  0.49270447
   0.53397179  0.72817188  0.42536242
   0.56928886  0.49184157  0.37372513
   0.31384087  0.46045028  0.50287287
   0.49798159  0.61052628  0.35580289
   0.42791576  0.50877721  0.42178816
Direct configuration=    17
   0.59560307  0.50389534  0.68434907
   0.65208543  0.57570792  0.57841449
   0.51228271  0.41296409  0.61276478
   0.58202767  0.38096073  0.47076073
   0.45262183  0.50344701  0.70137852
   0.65177779  0.42825207  0.58316193
   0.51775287  0.60145661  0.62540376
   0.67787776  0.48779098  0.46116884
   0.58537219  0.69496640  0.55143409
   0.36700500  0.41226426  0.62377666
   0.43705135  0.39037059  0.49992052
   0.61247490  0.61080896  0.44098173
   0.48499409  0.38566939  0.36839357
   0.41307519  0.52807339  0.56923032
   0.54457526  0.50687685  0.51454134
   0.34797654  0.39601188  0.38620742
   0.47094360  0.62762988  0.49289219
   0.53410726  0.72780018  0.42547968
   0.56932517  0.49171556  0.37425214
   0.31401238  0.46058083  0.50279814
   0.49804174  0.61055833  0.35591929
   0.42779423  0.50864211  0.42199594
Direct configuration=    18
   0.59540918  0.50384696  0.68416853
   0.65218944  0.57564061  0.57877816
   0.51174938  0.41275611  0.61263169
   0.58187556  0.38099116  0.47022238
   0.45228394  0.50377824  0.70125624
   0.65098174  0.42823295  0.58277935
   0.51748128  0.60168663  0.62544582
   0.67806151  0.48794290  0.46108670
   0.58572030  0.69481884  0.55107838
   0.36704334  0.41218715  0.62359473
   0.43706384  0.39049555  0.49983403
   0.61285021  0.61086753  0.44120660
   0.48491647  0.38568282  0.36802964
   0.41377356  0.52812733  0.56908215
   0.54476500  0.50721225  0.51471455
   0.34775231  0.39551375  0.38612646
   0.47083730  0.62756934  0.49312247
   0.53448206  0.72802385  0.42544062
   0.56927038  0.49145888  0.37476585
   0.31405150  0.46077776  0.50311628
   0.49816476  0.61020881  0.35628664
   0.42805498  0.50862397  0.42245788
Direct configuration=    19
   0.59534173  0.50383013  0.68410573
   0.65222562  0.57561719  0.57890468
   0.51156385  0.41268376  0.61258539
   0.58182265  0.38100174  0.47003510
   0.45216640  0.50389346  0.70121370
   0.65070482  0.42822629  0.58264627
   0.51738681  0.60176665  0.62546046
   0.67812543  0.48799575  0.46105812
   0.58584140  0.69476750  0.55095463
   0.36705668  0.41216033  0.62353145
   0.43706819  0.39053902  0.49980394
   0.61298077  0.61088791  0.44128483
   0.48488947  0.38568748  0.36790304
   0.41401650  0.52814610  0.56903061
   0.54483101  0.50732893  0.51477481
   0.34767430  0.39534047  0.38609830
   0.47080032  0.62754828  0.49320257
   0.53461244  0.72810166  0.42542703
   0.56925132  0.49136958  0.37494456
   0.31406511  0.46084626  0.50322695
   0.49820756  0.61008722  0.35641443
   0.42814569  0.50861765  0.42261857
Direct configuration=    20
   0.59516136  0.50370882  0.68414066
   0.65240835  0.57569149  0.57891321
   0.51148650  0.41292197  0.61256555
   0.58174499  0.38115221  0.46995398
   0.45199800  0.50374830  0.70111511
   0.65082435  0.42810344  0.58266224
   0.51780544  0.60211350  0.62565486
   0.67797049  0.48787308  0.46120422
   0.58571648  0.69481466  0.55110320
   0.36699918  0.41233868  0.62368442
   0.43703855  0.39049068  0.49950223
   0.61293067  0.61067499  0.44135216
   0.48488482  0.38575263  0.36782995
   0.41354010  0.52776111  0.56945637
   0.54503961  0.50698350  0.51495347
   0.34773863  0.39538325  0.38627058
   0.47110502  0.62787473  0.49268224
   0.53456791  0.72821351  0.42531084
   0.56929653  0.49146650  0.37457067
   0.31400245  0.46083097  0.50317991
   0.49837130  0.61009699  0.35664381
   0.42814733  0.50844836  0.42247547
Direct configuration=    21
   0.59522614  0.50375239  0.68412811
   0.65234272  0.57566480  0.57891015
   0.51151428  0.41283642  0.61257268
   0.58177288  0.38109817  0.46998311
   0.45205848  0.50380044  0.70115052
   0.65078142  0.42814757  0.58265650
   0.51765508  0.60198892  0.62558504
   0.67802614  0.48791714  0.46115175
   0.58576135  0.69479772  0.55104984
   0.36701983  0.41227462  0.62362948
   0.43704919  0.39050804  0.49961059
   0.61294866  0.61075146  0.44132798
   0.48488649  0.38572923  0.36785620
   0.41371120  0.52789939  0.56930345
   0.54496469  0.50710756  0.51488930
   0.34771552  0.39536788  0.38620870
   0.47099559  0.62775748  0.49286912
   0.53458390  0.72817334  0.42535257
   0.56928029  0.49143169  0.37470495
   0.31402496  0.46083646  0.50319680
   0.49831249  0.61009348  0.35656143
   0.42814674  0.50850916  0.42252687
Direct configuration=    22
   0.59504629  0.50360798  0.68409614
   0.65251252  0.57570961  0.57898891
   0.51130038  0.41296634  0.61248885
   0.58168146  0.38117964  0.46979407
   0.45189279  0.50377865  0.70111299
   0.65081168  0.42800866  0.58269672
   0.51780994  0.60216497  0.62566251
   0.67791970  0.48781030  0.46123524
   0.58572932  0.69488988  0.55105978
   0.36686301  0.41225368  0.62380802
   0.43703678  0.39046933  0.49945706
   0.61295156  0.61059641  0.44148833
   0.48492159  0.38579353  0.36764794
   0.41381291  0.52808738  0.56941497
   0.54499711  0.50702722  0.51510366
   0.34770185  0.39530419  0.38631427
   0.47113991  0.62757212  0.49280791
   0.53468826  0.72843116  0.42520321
   0.56933397  0.49146407  0.37440882
   0.31391381  0.46083019  0.50320035
   0.49846801  0.61004924  0.35670637
   0.42824519  0.50844884  0.42252904
Direct configuration=    23
   0.59506666  0.50362433  0.68409976
   0.65249329  0.57570454  0.57897999
   0.51132460  0.41295162  0.61249834
   0.58169182  0.38117041  0.46981548
   0.45191156  0.50378112  0.70111724
   0.65080826  0.42802440  0.58269216
   0.51779240  0.60214503  0.62565373
   0.67793175  0.48782240  0.46122579
   0.58573295  0.69487944  0.55105866
   0.36688077  0.41225605  0.62378779
   0.43703818  0.39047371  0.49947445
   0.61295123  0.61061397  0.44147017
   0.48491762  0.38578624  0.36767153
   0.41380139  0.52806608  0.56940234
   0.54499343  0.50703632  0.51507938
   0.34770340  0.39531140  0.38630231
   0.47112356  0.62759312  0.49281484
   0.53467644  0.72840196  0.42522012
   0.56932789  0.49146041  0.37444236
   0.31392640  0.46083090  0.50319995
   0.49845040  0.61005425  0.35668995
   0.42823404  0.50845567  0.42252879
Direct configuration=    24
   0.59495856  0.50351712  0.68401652
   0.65254070  0.57570315  0.57908103
   0.51111561  0.41291125  0.61244539
   0.58163886  0.38119771  0.46966840
   0.45183286  0.50386270  0.70114644
   0.65074390  0.42792460  0.58272682
   0.51779046  0.60216223  0.62570397
   0.67788599  0.48775461  0.46123169
   0.58576456  0.69495915  0.55094242
   0.36678070  0.41228106  0.62376694
   0.43698382  0.39046094  0.49949588
   0.61295567  0.61061687  0.44161319
   0.48491377  0.38583364  0.36746205
   0.41388316  0.52819517  0.56933700
   0.54502382  0.50710143  0.51515062
   0.34767932  0.39521956  0.38633765
   0.47124864  0.62746973  0.49289320
   0.53479306  0.72843564  0.42521384
   0.56940447  0.49144718  0.37437667
   0.31398437  0.46087185  0.50331759
   0.49853575  0.61007690  0.35670685
   0.42831997  0.50844088  0.42259099
Direct configuration=    25
   0.59495581  0.50351440  0.68401441
   0.65254191  0.57570312  0.57908360
   0.51111030  0.41291023  0.61244404
   0.58163751  0.38119841  0.46966466
   0.45183086  0.50386477  0.70114718
   0.65074227  0.42792206  0.58272770
   0.51779041  0.60216267  0.62570525
   0.67788483  0.48775288  0.46123184
   0.58576537  0.69496118  0.55093946
   0.36677816  0.41228170  0.62376641
   0.43698244  0.39046061  0.49949643
   0.61295579  0.61061694  0.44161683
   0.48491368  0.38583484  0.36745672
   0.41388524  0.52819846  0.56933533
   0.54502459  0.50710309  0.51515243
   0.34767871  0.39521723  0.38633855
   0.47125182  0.62746660  0.49289519
   0.53479603  0.72843650  0.42521368
   0.56940642  0.49144684  0.37437500
   0.31398584  0.46087289  0.50332058
   0.49853792  0.61007747  0.35670728
   0.42832216  0.50844050  0.42259258
