43
Energy = -136.00819154 eV
Al 13.454575100492328 13.469579427599212 15.532425446873416
Al 16.130748319379407 13.464967591357548 10.728945421313433
Al 15.787112610757976 11.129876854905643 11.867711116005983
Al 14.953329533698204 13.482946689169765 13.200755613550852
Al 14.540287189838402 11.143534858226538 14.294501741138165
Al 15.539508955268632 8.739229637987846 13.109644994183965
Al 14.03188016796199 8.815768519338286 15.543957730080171
Al 11.49233140623347 13.131928074920548 17.516528023472116
Al 12.643798297328617 10.97509068713935 16.403216678561378
Al 12.58211105106035 14.843827602385167 13.458841105992448
Al 13.895553083481806 14.850883308354463 11.137595220734292
Al 14.763448556411152 11.602687964852542 9.127709156154067
Al 14.768430260528724 14.401504081286976 8.616649963184006
Al 10.63131789335895 14.026542108049412 15.149616997033611
Al 14.385933185499212 9.287671706544222 10.454183832303134
Al 13.190016383225148 12.050498705203491 11.300602573182065
Al 11.952916720393647 11.882744206813424 13.721293130572514
Al 12.926811373120188 9.410765272875155 12.906998763794427
Al 12.693018817889326 6.907039525007123 14.328137804264406
Al 11.22266219395391 9.094545391595474 15.123243861348069
Al 13.769522714842253 7.010264346851798 11.830550489339648
Al 10.692304171706429 7.779968507361203 12.847732498010114
Al 10.803658886889714 10.469451171577205 11.578779026769947
Al 9.988250106380868 11.460389273665001 15.624945677430404
Al 12.093561899756512 16.820425511581703 11.765383889066094
Al 12.401940940447563 13.175983190517675 8.517419822988884
Al 12.471147388095934 16.018488823464985 9.13957857136286
Al 11.31559092198004 14.015517140542215 11.017454991892963
Al 9.852275711408925 15.319827521079942 12.966372636551034
Al 11.839819184218634 8.150461861854511 10.382001043499534
Al 12.30578801173384 10.462033679745444 9.070795975449359
Al 9.426223665375613 12.557123477900785 13.09379964161402
Al 10.130220570362985 12.048706694836108 9.48297252384153
Al 10.16304036454236 12.78450462464099 6.841506681432249
Al 8.087504684797091 11.146654769808356 11.044265498442723
Al 9.00417371727554 9.958927300129055 13.602289321881901
Al 9.762586591286734 16.535914188330853 10.558036958187449
Al 10.120984186649375 14.837228404710503 8.516545298896617
Al 8.562059784037688 13.984808431079006 10.966793848809434
Al 8.611873233868318 8.430941903699829 11.374439653839772
Al 9.726832863332689 9.227919786680879 9.13276269517827
Al 8.469427867032575 10.89250040721152 7.616878631781317
Al 7.855199516977203 13.240104851999236 8.545913532873373
