30
Energy = -62.67698135 eV
Ag 10.110435723222459 7.23618027803441 8.180576515121164
Ag 12.355648120054354 8.812578361943492 7.5434685487619575
Ag 8.502849687390986 9.789493402799526 7.956102769304457
Ag 11.543065104214628 11.467697236310817 7.492207888138513
Ag 10.642470001181922 6.917192517087347 10.938936091349545
Ag 13.114216664990535 8.065015988420923 10.067034509516192
Ag 8.178419485813977 7.969993461591083 10.067714786588274
Ag 12.251762625300662 13.574654884538086 9.279327144649546
Ag 8.198931236660826 10.65610522357174 10.836858555414118
Ag 10.607993338550356 9.575594092375974 9.620192485208308
Ag 9.324323310308273 12.383775653155004 8.926117657103314
Ag 11.262784415249527 6.952771593504392 13.6291596986223
Ag 10.693420978378054 14.098723092505212 7.108186405789848
Ag 9.049568234005413 8.598867881096231 12.633253232351906
Ag 11.771527041946237 9.371355172884355 12.20008814612817
Ag 9.792710596049403 15.104878891465253 9.561204870939253
Ag 8.436380276737932 13.394803035647467 11.51744631332622
Ag 13.84588326922916 7.527771473416243 12.6278707481249
Ag 10.730613441090194 9.46115738706995 14.754675855938086
Ag 9.148585809572175 11.334539904170153 13.407508934876674
Ag 13.091924343405026 10.875743397902397 9.810526052888918
Ag 10.87960665504865 11.967541550370267 11.275931099849002
Ag 10.213612289648587 13.926500969145982 13.606746281267675
Ag 12.12427618927992 11.770521947164271 13.837000964954765
Ag 14.361592898766068 10.336254343258346 12.329247159322621
Ag 13.597377965619813 13.041981452904464 11.629315036335887
Ag 11.74393282086498 15.16410447844976 11.54259406038045
Ag 9.125476614463716 16.02069350080673 12.108096478627123
Ag 12.922034545179292 14.524877745168494 13.963761840611589
Ag 14.861041135885777 12.520674048323151 14.01306625892691
