  27  27   0   0
  0.3785613E+03  0.2170201E-08  0.2170201E-08  0.2170201E-08  0.1000000E-15
  1.000000000000000E-004
  CAR 
 unknown system                          
      1.53915266    -10.04674626  301     -3.53933303      1.00000000
    -10.047  0.0000E+00  0.0000E+00  0.0000E+00  0.0000E+00
    -10.008  0.0000E+00  0.0000E+00  0.0000E+00  0.0000E+00
     -9.970  0.0000E+00  0.0000E+00  0.0000E+00  0.0000E+00
     -9.931  0.0000E+00  0.0000E+00  0.0000E+00  0.0000E+00
     -9.892  0.0000E+00  0.0000E+00  0.0000E+00  0.0000E+00
     -9.854  0.0000E+00  0.0000E+00  0.0000E+00  0.0000E+00
     -9.815  0.0000E+00  0.0000E+00  0.0000E+00  0.0000E+00
     -9.776  0.0000E+00  0.0000E+00  0.0000E+00  0.0000E+00
     -9.738  0.0000E+00  0.0000E+00  0.0000E+00  0.0000E+00
     -9.699  0.0000E+00  0.0000E+00  0.0000E+00  0.0000E+00
     -9.661  0.0000E+00  0.0000E+00  0.0000E+00  0.0000E+00
     -9.622  0.0000E+00  0.0000E+00  0.0000E+00  0.0000E+00
     -9.583  0.0000E+00  0.0000E+00  0.0000E+00  0.0000E+00
     -9.545  0.0000E+00  0.0000E+00  0.0000E+00  0.0000E+00
     -9.506  0.0000E+00  0.0000E+00  0.1000E-02  0.0000E+00
     -9.467  0.0000E+00  0.0000E+00  0.1000E-02  0.1000E-02
     -9.429  0.0000E+00  0.0000E+00  0.1000E-02  0.1000E-02
     -9.390  0.0000E+00  0.0000E+00  0.1000E-02  0.1000E-02
     -9.352  0.0000E+00  0.0000E+00  0.1000E-02  0.1000E-02
     -9.313  0.0000E+00  0.0000E+00  0.1000E-02  0.1000E-02
     -9.274  0.0000E+00  0.0000E+00  0.1000E-02  0.1000E-02
     -9.236  0.0000E+00  0.0000E+00  0.1000E-02  0.1000E-02
     -9.197  0.0000E+00  0.0000E+00  0.1000E-02  0.1000E-02
     -9.158  0.0000E+00  0.0000E+00  0.1000E-02  0.1000E-02
     -9.120  0.0000E+00  0.0000E+00  0.2000E-02  0.1000E-02
     -9.081  0.0000E+00  0.0000E+00  0.2000E-02  0.2000E-02
     -9.043  0.2589E-01  0.0000E+00  0.5000E-02  0.4000E-02
     -9.004  0.0000E+00  0.0000E+00  0.6000E-02  0.6000E-02
     -8.965  0.0000E+00  0.0000E+00  0.7000E-02  0.6000E-02
     -8.927  0.0000E+00  0.0000E+00  0.8000E-02  0.7000E-02
     -8.888  0.0000E+00  0.0000E+00  0.1000E-01  0.9000E-02
     -8.850  0.0000E+00  0.0000E+00  0.1000E-01  0.1000E-01
     -8.811  0.0000E+00  0.0000E+00  0.1200E-01  0.1200E-01
     -8.772  0.0000E+00  0.0000E+00  0.1300E-01  0.1300E-01
     -8.734  0.0000E+00  0.0000E+00  0.1600E-01  0.1400E-01
     -8.695  0.0000E+00  0.0000E+00  0.1800E-01  0.1700E-01
     -8.656  0.0000E+00  0.0000E+00  0.1900E-01  0.1800E-01
     -8.618  0.0000E+00  0.0000E+00  0.1900E-01  0.1900E-01
     -8.579  0.0000E+00  0.0000E+00  0.2000E-01  0.2000E-01
     -8.541  0.0000E+00  0.0000E+00  0.2200E-01  0.2200E-01
     -8.502  0.0000E+00  0.0000E+00  0.2300E-01  0.2200E-01
     -8.463  0.0000E+00  0.0000E+00  0.2500E-01  0.2400E-01
     -8.425  0.0000E+00  0.0000E+00  0.2600E-01  0.2500E-01
     -8.386  0.0000E+00  0.0000E+00  0.2700E-01  0.2700E-01
     -8.347  0.0000E+00  0.0000E+00  0.2900E-01  0.2900E-01
     -8.309  0.0000E+00  0.0000E+00  0.3000E-01  0.3000E-01
     -8.270  0.0000E+00  0.0000E+00  0.3100E-01  0.3000E-01
     -8.232  0.0000E+00  0.6024E-08  0.3300E-01  0.3200E-01
     -8.193  0.0000E+00  0.0000E+00  0.3500E-01  0.3500E-01
     -8.154  0.0000E+00  0.0000E+00  0.3700E-01  0.3600E-01
     -8.116  0.0000E+00  0.0000E+00  0.3700E-01  0.3700E-01
     -8.077  0.0000E+00  0.0000E+00  0.3900E-01  0.3900E-01
     -8.039  0.0000E+00  0.0000E+00  0.4200E-01  0.4100E-01
     -8.000  0.0000E+00  0.0000E+00  0.4300E-01  0.4200E-01
     -7.961  0.0000E+00  0.0000E+00  0.4400E-01  0.4400E-01
     -7.923  0.0000E+00  0.0000E+00  0.4500E-01  0.4500E-01
     -7.884  0.0000E+00  0.0000E+00  0.4900E-01  0.4700E-01
     -7.845  0.2589E-01  0.0000E+00  0.5000E-01  0.4900E-01
     -7.807  0.0000E+00  0.0000E+00  0.5200E-01  0.5100E-01
     -7.768  0.0000E+00  0.0000E+00  0.5200E-01  0.5200E-01
     -7.730  0.0000E+00  0.0000E+00  0.5400E-01  0.5400E-01
     -7.691  0.0000E+00  0.0000E+00  0.5600E-01  0.5500E-01
     -7.652  0.0000E+00  0.0000E+00  0.5700E-01  0.5700E-01
     -7.614  0.0000E+00  0.0000E+00  0.5900E-01  0.5900E-01
     -7.575  0.0000E+00  0.0000E+00  0.6000E-01  0.6000E-01
     -7.536  0.0000E+00  0.0000E+00  0.6100E-01  0.6100E-01
     -7.498  0.0000E+00  0.0000E+00  0.6300E-01  0.6300E-01
     -7.459  0.0000E+00  0.0000E+00  0.6400E-01  0.6400E-01
     -7.421  0.0000E+00  0.0000E+00  0.6500E-01  0.6500E-01
     -7.382  0.0000E+00  0.0000E+00  0.6800E-01  0.6700E-01
     -7.343  0.0000E+00  0.5802E-07  0.6900E-01  0.6800E-01
     -7.305  0.0000E+00  0.0000E+00  0.7100E-01  0.7000E-01
     -7.266  0.0000E+00  0.0000E+00  0.7300E-01  0.7200E-01
     -7.228  0.0000E+00  0.0000E+00  0.7500E-01  0.7400E-01
     -7.189  0.0000E+00  0.2588E-01  0.7700E-01  0.7700E-01
     -7.150  0.0000E+00  0.0000E+00  0.8000E-01  0.7900E-01
     -7.112  0.0000E+00  0.0000E+00  0.8200E-01  0.8200E-01
     -7.073  0.0000E+00  0.0000E+00  0.8700E-01  0.8700E-01
     -7.034  0.0000E+00  0.0000E+00  0.9000E-01  0.8900E-01
     -6.996  0.0000E+00  0.0000E+00  0.9100E-01  0.9100E-01
     -6.957  0.0000E+00  0.0000E+00  0.9500E-01  0.9400E-01
     -6.919  0.0000E+00  0.0000E+00  0.9700E-01  0.9700E-01
     -6.880  0.0000E+00  0.0000E+00  0.1010E+00  0.9900E-01
     -6.841  0.0000E+00  0.0000E+00  0.1030E+00  0.1020E+00
     -6.803  0.0000E+00  0.0000E+00  0.1060E+00  0.1060E+00
     -6.764  0.0000E+00  0.0000E+00  0.1080E+00  0.1070E+00
     -6.725  0.0000E+00  0.0000E+00  0.1100E+00  0.1100E+00
     -6.687  0.0000E+00  0.0000E+00  0.1130E+00  0.1130E+00
     -6.648  0.0000E+00  0.0000E+00  0.1150E+00  0.1150E+00
     -6.610  0.0000E+00  0.0000E+00  0.1180E+00  0.1170E+00
     -6.571  0.1362E-03  0.0000E+00  0.1190E+00  0.1180E+00
     -6.532  0.0000E+00  0.0000E+00  0.1210E+00  0.1210E+00
     -6.494  0.0000E+00  0.0000E+00  0.1240E+00  0.1240E+00
     -6.455  0.0000E+00  0.2589E-01  0.1270E+00  0.1270E+00
     -6.416  0.0000E+00  0.0000E+00  0.1290E+00  0.1280E+00
     -6.378  0.0000E+00  0.0000E+00  0.1310E+00  0.1310E+00
     -6.339  0.0000E+00  0.0000E+00  0.1320E+00  0.1320E+00
     -6.301  0.0000E+00  0.0000E+00  0.1350E+00  0.1350E+00
     -6.262  0.2589E-01  0.0000E+00  0.1370E+00  0.1360E+00
     -6.223  0.0000E+00  0.0000E+00  0.1380E+00  0.1380E+00
     -6.185  0.0000E+00  0.0000E+00  0.1390E+00  0.1390E+00
     -6.146  0.0000E+00  0.0000E+00  0.1390E+00  0.1390E+00
     -6.108  0.0000E+00  0.0000E+00  0.1390E+00  0.1390E+00
     -6.069  0.0000E+00  0.0000E+00  0.1390E+00  0.1390E+00
     -6.030  0.0000E+00  0.0000E+00  0.1390E+00  0.1390E+00
     -5.992  0.0000E+00  0.0000E+00  0.1390E+00  0.1390E+00
     -5.953  0.0000E+00  0.0000E+00  0.1390E+00  0.1390E+00
     -5.914  0.0000E+00  0.0000E+00  0.1390E+00  0.1390E+00
     -5.876  0.0000E+00  0.0000E+00  0.1390E+00  0.1390E+00
     -5.837  0.0000E+00  0.0000E+00  0.1390E+00  0.1390E+00
     -5.799  0.0000E+00  0.0000E+00  0.1400E+00  0.1390E+00
     -5.760  0.0000E+00  0.0000E+00  0.1400E+00  0.1400E+00
     -5.721  0.0000E+00  0.0000E+00  0.1400E+00  0.1400E+00
     -5.683  0.0000E+00  0.0000E+00  0.1400E+00  0.1400E+00
     -5.644  0.0000E+00  0.0000E+00  0.1400E+00  0.1400E+00
     -5.605  0.0000E+00  0.0000E+00  0.1410E+00  0.1400E+00
     -5.567  0.0000E+00  0.0000E+00  0.1410E+00  0.1410E+00
     -5.528  0.0000E+00  0.0000E+00  0.1410E+00  0.1410E+00
     -5.490  0.0000E+00  0.0000E+00  0.1410E+00  0.1410E+00
     -5.451  0.0000E+00  0.0000E+00  0.1410E+00  0.1410E+00
     -5.412  0.0000E+00  0.0000E+00  0.1410E+00  0.1410E+00
     -5.374  0.0000E+00  0.0000E+00  0.1410E+00  0.1410E+00
     -5.335  0.0000E+00  0.0000E+00  0.1410E+00  0.1410E+00
     -5.297  0.0000E+00  0.0000E+00  0.1410E+00  0.1410E+00
     -5.258  0.0000E+00  0.0000E+00  0.1410E+00  0.1410E+00
     -5.219  0.0000E+00  0.0000E+00  0.1410E+00  0.1410E+00
     -5.181  0.0000E+00  0.0000E+00  0.1410E+00  0.1410E+00
     -5.142  0.0000E+00  0.0000E+00  0.1410E+00  0.1410E+00
     -5.103  0.0000E+00  0.0000E+00  0.1420E+00  0.1410E+00
     -5.065  0.0000E+00  0.0000E+00  0.1430E+00  0.1410E+00
     -5.026  0.0000E+00  0.0000E+00  0.1430E+00  0.1430E+00
     -4.988  0.0000E+00  0.0000E+00  0.1430E+00  0.1430E+00
     -4.949  0.0000E+00  0.0000E+00  0.1430E+00  0.1430E+00
     -4.910  0.0000E+00  0.0000E+00  0.1430E+00  0.1430E+00
     -4.872  0.0000E+00  0.0000E+00  0.1430E+00  0.1430E+00
     -4.833  0.0000E+00  0.0000E+00  0.1430E+00  0.1430E+00
     -4.794  0.0000E+00  0.0000E+00  0.1430E+00  0.1430E+00
     -4.756  0.0000E+00  0.0000E+00  0.1430E+00  0.1430E+00
     -4.717  0.0000E+00  0.0000E+00  0.1440E+00  0.1440E+00
     -4.679  0.0000E+00  0.0000E+00  0.1440E+00  0.1440E+00
     -4.640  0.0000E+00  0.0000E+00  0.1440E+00  0.1440E+00
     -4.601  0.0000E+00  0.0000E+00  0.1440E+00  0.1440E+00
     -4.563  0.0000E+00  0.0000E+00  0.1440E+00  0.1440E+00
     -4.524  0.0000E+00  0.0000E+00  0.1440E+00  0.1440E+00
     -4.486  0.0000E+00  0.0000E+00  0.1440E+00  0.1440E+00
     -4.447  0.0000E+00  0.0000E+00  0.1440E+00  0.1440E+00
     -4.408  0.0000E+00  0.0000E+00  0.1440E+00  0.1440E+00
     -4.370  0.0000E+00  0.0000E+00  0.1440E+00  0.1440E+00
     -4.331  0.0000E+00  0.0000E+00  0.1450E+00  0.1450E+00
     -4.292  0.0000E+00  0.0000E+00  0.1450E+00  0.1450E+00
     -4.254  0.0000E+00  0.0000E+00  0.1450E+00  0.1450E+00
     -4.215  0.0000E+00  0.0000E+00  0.1460E+00  0.1450E+00
     -4.177  0.0000E+00  0.0000E+00  0.1460E+00  0.1460E+00
     -4.138  0.0000E+00  0.0000E+00  0.1460E+00  0.1460E+00
     -4.099  0.0000E+00  0.0000E+00  0.1460E+00  0.1460E+00
     -4.061  0.0000E+00  0.0000E+00  0.1460E+00  0.1460E+00
     -4.022  0.0000E+00  0.0000E+00  0.1460E+00  0.1460E+00
     -3.983  0.0000E+00  0.0000E+00  0.1460E+00  0.1460E+00
     -3.945  0.0000E+00  0.0000E+00  0.1460E+00  0.1460E+00
     -3.906  0.0000E+00  0.0000E+00  0.1460E+00  0.1460E+00
     -3.868  0.0000E+00  0.0000E+00  0.1470E+00  0.1460E+00
     -3.829  0.0000E+00  0.0000E+00  0.1480E+00  0.1470E+00
     -3.790  0.0000E+00  0.0000E+00  0.1480E+00  0.1480E+00
     -3.752  0.0000E+00  0.0000E+00  0.1480E+00  0.1480E+00
     -3.713  0.0000E+00  0.0000E+00  0.1480E+00  0.1480E+00
     -3.675  0.0000E+00  0.0000E+00  0.1480E+00  0.1480E+00
     -3.636  0.0000E+00  0.0000E+00  0.1480E+00  0.1480E+00
     -3.597  0.0000E+00  0.0000E+00  0.1480E+00  0.1480E+00
     -3.559  0.0000E+00  0.0000E+00  0.1480E+00  0.1480E+00
     -3.520  0.0000E+00  0.0000E+00  0.1490E+00  0.1480E+00
     -3.481  0.0000E+00  0.0000E+00  0.1490E+00  0.1480E+00
     -3.443  0.0000E+00  0.0000E+00  0.1490E+00  0.1480E+00
     -3.404  0.0000E+00  0.0000E+00  0.1490E+00  0.1490E+00
     -3.366  0.0000E+00  0.0000E+00  0.1490E+00  0.1490E+00
     -3.327  0.0000E+00  0.0000E+00  0.1490E+00  0.1490E+00
     -3.288  0.0000E+00  0.0000E+00  0.1490E+00  0.1490E+00
     -3.250  0.0000E+00  0.0000E+00  0.1490E+00  0.1490E+00
     -3.211  0.0000E+00  0.0000E+00  0.1490E+00  0.1490E+00
     -3.172  0.0000E+00  0.0000E+00  0.1490E+00  0.1490E+00
     -3.134  0.0000E+00  0.0000E+00  0.1490E+00  0.1490E+00
     -3.095  0.0000E+00  0.0000E+00  0.1490E+00  0.1490E+00
     -3.057  0.0000E+00  0.0000E+00  0.1490E+00  0.1490E+00
     -3.018  0.0000E+00  0.0000E+00  0.1500E+00  0.1490E+00
     -2.979  0.0000E+00  0.0000E+00  0.1500E+00  0.1500E+00
     -2.941  0.0000E+00  0.0000E+00  0.1510E+00  0.1500E+00
     -2.902  0.0000E+00  0.0000E+00  0.1510E+00  0.1510E+00
     -2.863  0.0000E+00  0.0000E+00  0.1510E+00  0.1510E+00
     -2.825  0.0000E+00  0.0000E+00  0.1510E+00  0.1510E+00
     -2.786  0.0000E+00  0.0000E+00  0.1510E+00  0.1510E+00
     -2.748  0.0000E+00  0.0000E+00  0.1510E+00  0.1510E+00
     -2.709  0.0000E+00  0.0000E+00  0.1520E+00  0.1520E+00
     -2.670  0.0000E+00  0.0000E+00  0.1520E+00  0.1520E+00
     -2.632  0.0000E+00  0.0000E+00  0.1520E+00  0.1520E+00
     -2.593  0.0000E+00  0.0000E+00  0.1520E+00  0.1520E+00
     -2.555  0.0000E+00  0.0000E+00  0.1520E+00  0.1520E+00
     -2.516  0.0000E+00  0.2589E-01  0.1530E+00  0.1530E+00
     -2.477  0.0000E+00  0.0000E+00  0.1540E+00  0.1530E+00
     -2.439  0.0000E+00  0.0000E+00  0.1540E+00  0.1540E+00
     -2.400  0.0000E+00  0.0000E+00  0.1540E+00  0.1540E+00
     -2.361  0.0000E+00  0.0000E+00  0.1540E+00  0.1540E+00
     -2.323  0.0000E+00  0.0000E+00  0.1550E+00  0.1550E+00
     -2.284  0.0000E+00  0.0000E+00  0.1550E+00  0.1550E+00
     -2.246  0.0000E+00  0.0000E+00  0.1550E+00  0.1550E+00
     -2.207  0.0000E+00  0.0000E+00  0.1550E+00  0.1550E+00
     -2.168  0.0000E+00  0.0000E+00  0.1550E+00  0.1550E+00
     -2.130  0.0000E+00  0.0000E+00  0.1550E+00  0.1550E+00
     -2.091  0.0000E+00  0.0000E+00  0.1560E+00  0.1550E+00
     -2.052  0.1572E-02  0.0000E+00  0.1561E+00  0.1560E+00
     -2.014  0.0000E+00  0.0000E+00  0.1570E+00  0.1570E+00
     -1.975  0.0000E+00  0.0000E+00  0.1570E+00  0.1570E+00
     -1.937  0.0000E+00  0.0000E+00  0.1580E+00  0.1580E+00
     -1.898  0.0000E+00  0.0000E+00  0.1580E+00  0.1580E+00
     -1.859  0.0000E+00  0.0000E+00  0.1580E+00  0.1580E+00
     -1.821  0.0000E+00  0.0000E+00  0.1580E+00  0.1580E+00
     -1.782  0.0000E+00  0.0000E+00  0.1590E+00  0.1580E+00
     -1.744  0.0000E+00  0.0000E+00  0.1590E+00  0.1580E+00
     -1.705  0.0000E+00  0.0000E+00  0.1590E+00  0.1590E+00
     -1.666  0.0000E+00  0.0000E+00  0.1600E+00  0.1590E+00
     -1.628  0.0000E+00  0.0000E+00  0.1600E+00  0.1590E+00
     -1.589  0.0000E+00  0.0000E+00  0.1600E+00  0.1600E+00
     -1.550  0.0000E+00  0.0000E+00  0.1600E+00  0.1600E+00
     -1.512  0.0000E+00  0.0000E+00  0.1600E+00  0.1600E+00
     -1.473  0.0000E+00  0.0000E+00  0.1600E+00  0.1600E+00
     -1.435  0.0000E+00  0.0000E+00  0.1600E+00  0.1600E+00
     -1.396  0.0000E+00  0.0000E+00  0.1600E+00  0.1600E+00
     -1.357  0.0000E+00  0.0000E+00  0.1600E+00  0.1600E+00
     -1.319  0.0000E+00  0.0000E+00  0.1610E+00  0.1600E+00
     -1.280  0.0000E+00  0.0000E+00  0.1610E+00  0.1610E+00
     -1.241  0.0000E+00  0.0000E+00  0.1630E+00  0.1620E+00
     -1.203  0.0000E+00  0.0000E+00  0.1630E+00  0.1620E+00
     -1.164  0.0000E+00  0.0000E+00  0.1630E+00  0.1630E+00
     -1.126  0.0000E+00  0.0000E+00  0.1630E+00  0.1630E+00
     -1.087  0.0000E+00  0.0000E+00  0.1630E+00  0.1630E+00
     -1.048  0.0000E+00  0.0000E+00  0.1640E+00  0.1640E+00
     -1.010  0.0000E+00  0.0000E+00  0.1640E+00  0.1640E+00
     -0.971  0.0000E+00  0.0000E+00  0.1640E+00  0.1640E+00
     -0.933  0.0000E+00  0.0000E+00  0.1650E+00  0.1650E+00
     -0.894  0.0000E+00  0.0000E+00  0.1650E+00  0.1650E+00
     -0.855  0.0000E+00  0.0000E+00  0.1650E+00  0.1650E+00
     -0.817  0.0000E+00  0.0000E+00  0.1650E+00  0.1650E+00
     -0.778  0.0000E+00  0.0000E+00  0.1660E+00  0.1650E+00
     -0.739  0.0000E+00  0.0000E+00  0.1670E+00  0.1660E+00
     -0.701  0.0000E+00  0.0000E+00  0.1670E+00  0.1670E+00
     -0.662  0.0000E+00  0.0000E+00  0.1670E+00  0.1670E+00
     -0.624  0.0000E+00  0.0000E+00  0.1680E+00  0.1670E+00
     -0.585  0.0000E+00  0.0000E+00  0.1680E+00  0.1680E+00
     -0.546  0.0000E+00  0.0000E+00  0.1680E+00  0.1680E+00
     -0.508  0.0000E+00  0.0000E+00  0.1690E+00  0.1680E+00
     -0.469  0.0000E+00  0.0000E+00  0.1700E+00  0.1690E+00
     -0.430  0.0000E+00  0.0000E+00  0.1710E+00  0.1700E+00
     -0.392  0.0000E+00  0.0000E+00  0.1710E+00  0.1710E+00
     -0.353  0.0000E+00  0.0000E+00  0.1710E+00  0.1710E+00
     -0.315  0.0000E+00  0.0000E+00  0.1710E+00  0.1710E+00
     -0.276  0.0000E+00  0.0000E+00  0.1720E+00  0.1710E+00
     -0.237  0.0000E+00  0.0000E+00  0.1720E+00  0.1710E+00
     -0.199  0.0000E+00  0.0000E+00  0.1730E+00  0.1720E+00
     -0.160  0.0000E+00  0.0000E+00  0.1730E+00  0.1730E+00
     -0.121  0.0000E+00  0.0000E+00  0.1730E+00  0.1730E+00
     -0.083  0.0000E+00  0.0000E+00  0.1740E+00  0.1730E+00
     -0.044  0.0000E+00  0.0000E+00  0.1740E+00  0.1740E+00
     -0.006  0.0000E+00  0.0000E+00  0.1750E+00  0.1740E+00
      0.033  0.0000E+00  0.0000E+00  0.1750E+00  0.1750E+00
      0.072  0.0000E+00  0.0000E+00  0.1750E+00  0.1750E+00
      0.110  0.0000E+00  0.0000E+00  0.1750E+00  0.1750E+00
      0.149  0.0000E+00  0.0000E+00  0.1750E+00  0.1750E+00
      0.187  0.0000E+00  0.0000E+00  0.1750E+00  0.1750E+00
      0.226  0.0000E+00  0.0000E+00  0.1750E+00  0.1750E+00
      0.265  0.0000E+00  0.0000E+00  0.1750E+00  0.1750E+00
      0.303  0.0000E+00  0.0000E+00  0.1760E+00  0.1750E+00
      0.342  0.0000E+00  0.0000E+00  0.1760E+00  0.1760E+00
      0.381  0.0000E+00  0.0000E+00  0.1760E+00  0.1760E+00
      0.419  0.0000E+00  0.0000E+00  0.1770E+00  0.1760E+00
      0.458  0.0000E+00  0.0000E+00  0.1770E+00  0.1770E+00
      0.496  0.7785E-06  0.0000E+00  0.1770E+00  0.1770E+00
      0.535  0.3162E-15  0.2589E-01  0.1780E+00  0.1780E+00
      0.574  0.0000E+00  0.0000E+00  0.1790E+00  0.1790E+00
      0.612  0.0000E+00  0.0000E+00  0.1790E+00  0.1790E+00
      0.651  0.0000E+00  0.0000E+00  0.1810E+00  0.1800E+00
      0.690  0.0000E+00  0.0000E+00  0.1820E+00  0.1810E+00
      0.728  0.0000E+00  0.0000E+00  0.1830E+00  0.1830E+00
      0.767  0.0000E+00  0.0000E+00  0.1840E+00  0.1830E+00
      0.805  0.0000E+00  0.0000E+00  0.1850E+00  0.1850E+00
      0.844  0.0000E+00  0.0000E+00  0.1850E+00  0.1850E+00
      0.883  0.0000E+00  0.0000E+00  0.1870E+00  0.1860E+00
      0.921  0.2589E-01  0.0000E+00  0.1880E+00  0.1870E+00
      0.960  0.0000E+00  0.0000E+00  0.1890E+00  0.1890E+00
      0.998  0.3417E-05  0.0000E+00  0.1910E+00  0.1900E+00
      1.037  0.0000E+00  0.0000E+00  0.1920E+00  0.1920E+00
      1.076  0.0000E+00  0.0000E+00  0.1920E+00  0.1920E+00
      1.114  0.0000E+00  0.0000E+00  0.1920E+00  0.1920E+00
      1.153  0.0000E+00  0.0000E+00  0.1920E+00  0.1920E+00
      1.192  0.0000E+00  0.0000E+00  0.1920E+00  0.1920E+00
      1.230  0.0000E+00  0.0000E+00  0.1920E+00  0.1920E+00
      1.269  0.0000E+00  0.0000E+00  0.1920E+00  0.1920E+00
      1.307  0.0000E+00  0.0000E+00  0.1920E+00  0.1920E+00
      1.346  0.0000E+00  0.0000E+00  0.1920E+00  0.1920E+00
      1.385  0.0000E+00  0.0000E+00  0.1920E+00  0.1920E+00
      1.423  0.0000E+00  0.0000E+00  0.1920E+00  0.1920E+00
      1.462  0.0000E+00  0.0000E+00  0.1920E+00  0.1920E+00
      1.501  0.0000E+00  0.0000E+00  0.1920E+00  0.1920E+00
      1.539  0.0000E+00  0.0000E+00  0.1920E+00  0.1920E+00
