 vasp.5.3.5 31Mar14 (build Feb 01 2018 12:10:03) gamma-only                     
  
 executed on             LinuxIFC date 2019.03.22  22:33:48
 running on   64 total cores
 distrk:  each k-point on   64 cores,    1 groups
 distr:  one band on NCORES_PER_BAND=  16 cores,    4 groups


--------------------------------------------------------------------------------------------------------


 INCAR:
 POTCAR:    PAW_PBE Ag 02Apr2005                  
 POTCAR:    PAW_PBE Ag 02Apr2005                  
   VRHFIN =Ag : s1 d10                                                          
   LEXCH  = PE                                                                  
   EATOM  =  1037.2675 eV,   76.2370 Ry                                         
                                                                                
   TITEL  = PAW_PBE Ag 02Apr2005                                                
   LULTRA =        F    use ultrasoft PP ?                                      
   IUNSCR =        1    unscreen: 0-lin 1-nonlin 2-no                           
   RPACOR =    2.000    partial core radius                                     
   POMASS =  107.868; ZVAL   =   11.000    mass and valenz                      
   RCORE  =    2.500    outmost cutoff radius                                   
   RWIGS  =    2.840; RWIGS  =    1.503    wigner-seitz radius (au A)           
   ENMAX  =  249.844; ENMIN  =  187.383 eV                                      
   ICORE  =        3    local potential                                         
   LCOR   =        T    correct aug charges                                     
   LPAW   =        T    paw PP                                                  
   EAUG   =  412.496                                                            
   DEXC   =    0.000                                                            
   RMAX   =    2.560    core radius for proj-oper                               
   RAUG   =    1.300    factor for augmentation sphere                          
   RDEP   =    2.576    radius for radial grids                                 
   RDEPT  =    2.072    core radius for aug-charge                              
                                                                                
   Atomic configuration                                                         
   12 entries                                                                   
     n  l   j            E        occ.                                          
     1  0  0.50    -25324.9161   2.0000                                         
     2  0  0.50     -3728.5341   2.0000                                         
     2  1  1.50     -3344.0404   6.0000                                         
     3  0  0.50      -683.5581   2.0000                                         
     3  1  1.50      -557.3225   6.0000                                         
     3  2  2.50      -358.3853  10.0000                                         
     4  0  0.50       -95.0341   2.0000                                         
     4  1  1.50       -58.5511   6.0000                                         
     4  2  2.50        -7.4440  10.0000                                         
     5  0  0.50        -4.4045   1.0000                                         
     5  1  0.50        -1.3606   0.0000                                         
     4  3  2.50        -1.3606   0.0000                                         
   Description                                                                  
     l       E           TYP  RCUT    TYP  RCUT                                 
     2     -7.4439781     23  2.400                                             
     2     -8.8045607     23  2.400                                             
     0     -4.4044681     23  2.400                                             
     0      1.9520038     23  2.400                                             
     1     -1.3605826     23  2.500                                             
     1     27.2116520     23  2.500                                             
     3     -4.0817478     23  2.400                                             
  local pseudopotential read in
  partial core-charges read in
  partial kinetic energy density read in
  atomic valenz-charges read in
  non local Contribution for L=           2  read in
    real space projection operators read in
  non local Contribution for L=           2  read in
    real space projection operators read in
  non local Contribution for L=           0  read in
    real space projection operators read in
  non local Contribution for L=           0  read in
    real space projection operators read in
  non local Contribution for L=           1  read in
    real space projection operators read in
  non local Contribution for L=           1  read in
    real space projection operators read in
    PAW grid and wavefunctions read in
 
   number of l-projection  operators is LMAX  =           6
   number of lm-projection operators is LMMAX =          18
 

 ----------------------------------------------------------------------------- 
|                                                                             |
|  ADVICE TO THIS USER RUNNING 'VASP/VAMP'   (HEAR YOUR MASTER'S VOICE ...):  |
|                                                                             |
|      You have a (more or less) 'large supercell' and for larger cells       |
|      it might be more efficient to use real space projection opertators     |
|      So try LREAL= Auto  in the INCAR   file.                               |
|      Mind: At the moment your POTCAR file does not contain real space       |
|       projectors, and has to be modified,  BUT if you                       |
|      want to do an extremely  accurate calculation you might also keep the  |
|      reciprocal projection scheme          (i.e. LREAL=.FALSE.)             |
|                                                                             |
 ----------------------------------------------------------------------------- 

  PAW_PBE Ag 02Apr2005                  :
 energy of atom  1       EATOM=-1037.2675
 kinetic energy error for atom=    0.0689 (will be added to EATOM!!)
 
 
 POSCAR: Al33, -102.85990802 <s> Ag </s>         
  positions in direct lattice
  No initial velocities read in
 exchange correlation table for  LEXCH =        8
   RHO(1)=    0.500       N(1)  =     2000
   RHO(2)=  100.500       N(2)  =     4000
 


--------------------------------------------------------------------------------------------------------


 ion  position               nearest neighbor table
   1  0.670  0.543  0.429-   5 2.72   2 2.80   3 2.83   9 2.83   4 2.85  12 3.09
   2  0.583  0.543  0.335-   4 2.79   1 2.80  12 2.82   6 2.84  11 2.88   7 2.90
   3  0.671  0.628  0.526-  13 2.81   1 2.83  16 2.84   9 2.87   8 2.91   4 3.03  10 3.15
   4  0.578  0.636  0.423-   8 2.67   2 2.79   1 2.85  15 2.87  11 2.87  12 2.88  16 3.02   3 3.03

   5  0.626  0.428  0.446-   1 2.72  24 2.75   9 2.76  12 2.77  14 2.85  21 3.15   6 3.34
   6  0.513  0.434  0.343-  24 2.66   7 2.78  23 2.80   2 2.84  22 2.90  12 2.94   5 3.34
   7  0.475  0.523  0.260-   6 2.78  11 2.85   2 2.90  22 2.97
   8  0.577  0.722  0.511-   4 2.67  10 2.73  16 2.86  17 2.86   3 2.91  15 2.98
   9  0.626  0.506  0.545-  21 2.69  16 2.72   5 2.76  13 2.79   1 2.83   3 2.87  12 2.89  19 2.89
                            18 3.08
  10  0.603  0.700  0.631-   8 2.73  13 2.73  26 2.88  17 2.92  16 2.99   3 3.15
  11  0.466  0.592  0.370-  15 2.74  20 2.81  12 2.85   7 2.85   4 2.87   2 2.88  22 2.89
  12  0.534  0.514  0.450-  18 2.69   5 2.77   2 2.82  20 2.83  11 2.85   4 2.88   9 2.89  23 2.93
                             6 2.94  16 2.98   1 3.09  15 3.59
  13  0.646  0.584  0.645-  10 2.73  19 2.73   9 2.79   3 2.81  16 2.96  26 3.04
  14  0.629  0.308  0.497-  21 2.71  24 2.72   5 2.85  27 2.95
  15  0.460  0.659  0.477-  11 2.74  17 2.74  16 2.82  28 2.83  20 2.85   4 2.87   8 2.98  12 3.59

  16  0.547  0.602  0.554-   9 2.72  26 2.74  15 2.82   3 2.84   8 2.86  28 2.87  17 2.89  13 2.96
                            12 2.98  10 2.99   4 3.02  18 3.10  19 3.49
  17  0.475  0.707  0.592-  28 2.69  15 2.74  26 2.86   8 2.86  16 2.89  10 2.92
  18  0.489  0.472  0.557-  12 2.69  25 2.79  23 2.82  29 2.87  19 2.90  20 2.93  21 2.97  30 3.01
                             9 3.08  16 3.10  27 3.10  28 3.19  33 3.28
  19  0.568  0.487  0.663-  13 2.73  21 2.78  25 2.84   9 2.89  29 2.90  18 2.90  26 3.02  16 3.49

  20  0.408  0.539  0.473-  30 2.73  28 2.73  22 2.79  11 2.81  12 2.83  15 2.85  31 2.87  23 2.92
                            18 2.93
  21  0.597  0.392  0.582-   9 2.69  27 2.71  14 2.71  19 2.78  25 2.82  18 2.97   5 3.15
  22  0.390  0.484  0.359-  31 2.78  20 2.79  23 2.80  11 2.89   6 2.90   7 2.97
  23  0.445  0.413  0.451-  27 2.75  33 2.76  24 2.78  31 2.80   6 2.80  22 2.80  18 2.82  20 2.92
                            12 2.93
  24  0.542  0.339  0.413-   6 2.66  14 2.72  27 2.73   5 2.75  23 2.78
  25  0.488  0.385  0.651-  32 2.77  18 2.79  21 2.82  19 2.84  27 2.87  29 2.92  33 3.22
  26  0.513  0.613  0.675-  16 2.74  29 2.83  17 2.86  10 2.88  28 2.89  19 3.02  13 3.04
  27  0.501  0.333  0.531-  21 2.71  33 2.72  24 2.73  23 2.75  25 2.87  14 2.95  18 3.10
  28  0.419  0.598  0.583-  17 2.69  20 2.73  30 2.75  29 2.80  15 2.83  16 2.87  26 2.89  18 3.19

  29  0.438  0.508  0.673-  32 2.80  28 2.80  26 2.83  30 2.85  18 2.87  19 2.90  25 2.92
  30  0.353  0.490  0.574-  20 2.73  28 2.75  33 2.81  32 2.83  31 2.84  29 2.85  18 3.01
  31  0.321  0.442  0.457-  22 2.78  23 2.80  30 2.84  20 2.87  33 2.93
  32  0.363  0.404  0.670-  33 2.76  25 2.77  29 2.80  30 2.83
  33  0.382  0.367  0.550-  27 2.72  23 2.76  32 2.76  30 2.81  31 2.93  25 3.22  18 3.28
 
  LATTYP: Found a simple cubic cell.
 ALAT       =    21.8113316530
  
  Lattice vectors:
  
 A1 = (  21.8113316530,   0.0000000000,   0.0000000000)
 A2 = (   0.0000000000,  21.8113316530,   0.0000000000)
 A3 = (   0.0000000000,   0.0000000000,  21.8113316530)


Analysis of symmetry for initial positions (statically):
=====================================================================
 Subroutine PRICEL returns:
 Original cell was already a primitive cell.
 

 Routine SETGRP: Setting up the symmetry group for a 
 simple cubic supercell.


 Subroutine GETGRP returns: Found  1 space group operations
 (whereof  1 operations were pure point group operations)
 out of a pool of 48 trial point group operations.


The static configuration has the point symmetry C_1 .


Analysis of symmetry for dynamics (positions and initial velocities):
=====================================================================
 Subroutine PRICEL returns:
 Original cell was already a primitive cell.
 

 Routine SETGRP: Setting up the symmetry group for a 
 simple cubic supercell.


 Subroutine GETGRP returns: Found  1 space group operations
 (whereof  1 operations were pure point group operations)
 out of a pool of 48 trial point group operations.


The dynamic configuration has the point symmetry C_1 .


Analysis of magnetic symmetry:
=====================================================================
 Subroutine PRICEL returns:
 Original cell was already a primitive cell.
 

 Subroutine MAGSYM returns: Found  1 space group operations
 (whereof  1 operations were pure point group operations)
 out of a pool of  1 trial space group operations
 (whereof  1 operations were pure point group operations)
 and found also     1 'primitive' translations


The magnetic configuration has the point symmetry C_1 .
 
 
 KPOINTS: Gamma-point only                        
  k-points in reciprocal lattice
Space group operators:
 irot       det(A)        alpha          n_x          n_y          n_z        tau_x        tau_y        tau_z
    1     1.000000     0.000001     1.000000     0.000000     0.000000     0.000000     0.000000     0.000000


--------------------------------------------------------------------------------------------------------




 Dimension of arrays:
   k-points           NKPTS =      1   k-points in BZ     NKDIM =      1   number of bands    NBANDS=    236
   number of dos      NEDOS =    301   number of ions     NIONS =     33
   non local maximal  LDIM  =      6   non local SUM 2l+1 LMDIM =     18
   total plane-waves  NPLWV = 592704
   max r-space proj   IRMAX =      1   max aug-charges    IRDMAX=   3008
   dimension x,y,z NGX =    84 NGY =   84 NGZ =   84
   dimension x,y,z NGXF=   168 NGYF=  168 NGZF=  168
   support grid    NGXF=   168 NGYF=  168 NGZF=  168
   ions per type =              33
 NGX,Y,Z   is equivalent  to a cutoff of   6.40,  6.40,  6.40 a.u.
 NGXF,Y,Z  is equivalent  to a cutoff of  12.80, 12.80, 12.80 a.u.


 I would recommend the setting:
   dimension x,y,z NGX =    84 NGY =   84 NGZ =   84
 SYSTEM =  unknown system                          
 POSCAR =  Al33, -102.85990802 <s> Ag </s>         

 Startparameter for this run:
   NWRITE =      2    write-flag & timer
   PREC   = normal    normal or accurate (medium, high low for compatibility)
   ISTART =      0    job   : 0-new  1-cont  2-samecut
   ICHARG =      2    charge: 1-file 2-atom 10-const
   ISPIN  =      2    spin polarized calculation?
   LNONCOLLINEAR =      F non collinear calculations
   LSORBIT =      F    spin-orbit coupling
   INIWAV =      1    electr: 0-lowe 1-rand  2-diag
   LASPH  =      F    aspherical Exc in radial PAW
   METAGGA=      F    non-selfconsistent MetaGGA calc.

 Electronic Relaxation 1
   ENCUT  =  249.8 eV  18.36 Ry    4.29 a.u.  28.11 28.11 28.11*2*pi/ulx,y,z
   ENINI  =  249.8     initial cutoff
   ENAUG  =  412.5 eV  augmentation charge cutoff
   NELM   =     60;   NELMIN=  2; NELMDL= -5     # of ELM steps 
   EDIFF  = 0.1E-03   stopping-criterion for ELM
   LREAL  =      F    real-space projection
   NLSPLINE    = F    spline interpolate recip. space projectors
   LCOMPAT=      F    compatible to vasp.4.4
   GGA_COMPAT  = T    GGA compatible to vasp.4.4-vasp.4.6
   LMAXPAW     = -100 max onsite density
   LMAXMIX     =    2 max onsite mixed and CHGCAR
   VOSKOWN=      0    Vosko Wilk Nusair interpolation
   ROPT   =    0.00000
 Ionic relaxation
   EDIFFG = 0.1E-02   stopping-criterion for IOM
   NSW    =   1000    number of steps for IOM
   NBLOCK =      1;   KBLOCK =   1000    inner block; outer block 
   IBRION =      2    ionic relax: 0-MD 1-quasi-New 2-CG
   NFREE  =      1    steps in history (QN), initial steepest desc. (CG)
   ISIF   =      2    stress and relaxation
   IWAVPR =     11    prediction:  0-non 1-charg 2-wave 3-comb
   ISYM   =      2    0-nonsym 1-usesym 2-fastsym
   LCORR  =      T    Harris-Foulkes like correction to forces

   POTIM  = 0.1000    time-step for ionic-motion
   TEIN   =    0.0    initial temperature
   TEBEG  =    0.0;   TEEND  =   0.0 temperature during run
   SMASS  =  -3.00    Nose mass-parameter (am)
   estimated Nose-frequenzy (Omega)   =  0.10E-29 period in steps =****** mass=  -0.109E-25a.u.
   SCALEE = 1.0000    scale energy and forces
   NPACO  =    256;   APACO  = 16.0  distance and # of slots for P.C.
   PSTRESS=    0.0 pullay stress

  Mass of Ions in am
   POMASS = 107.87
  Ionic Valenz
   ZVAL   =  11.00
  Atomic Wigner-Seitz radii
   RWIGS  =  -1.00
  virtual crystal weights 
   VCA    =   1.00
   NELECT =     363.0000    total number of electrons
   NUPDOWN=      -1.0000    fix difference up-down

 DOS related values:
   EMIN   =  10.00;   EMAX   =-10.00  energy-range for DOS
   EFERMI =   0.00
   ISMEAR =     0;   SIGMA  =   0.00  broadening in eV -4-tet -1-fermi 0-gaus

 Electronic relaxation 2 (details)
   IALGO  =     38    algorithm
   LDIAG  =      T    sub-space diagonalisation (order eigenvalues)
   LSUBROT=      F    optimize rotation matrix (better conditioning)
   TURBO    =      0    0=normal 1=particle mesh
   IRESTART =      0    0=no restart 2=restart with 2 vectors
   NREBOOT  =      0    no. of reboots
   NMIN     =      0    reboot dimension
   EREF     =   0.00    reference energy to select bands
   IMIX   =      4    mixing-type and parameters
     AMIX     =   0.40;   BMIX     =  1.00
     AMIX_MAG =   1.60;   BMIX_MAG =  1.00
     AMIN     =   0.10
     WC   =   100.;   INIMIX=   1;  MIXPRE=   1;  MAXMIX= -45

 Intra band minimization:
   WEIMIN = 0.0010     energy-eigenvalue tresh-hold
   EBREAK =  0.11E-06  absolut break condition
   DEPER  =   0.30     relativ break condition  

   TIME   =   0.40     timestep for ELM

  volume/ion in A,a.u.               =     314.44      2121.92
  Fermi-wavevector in a.u.,A,eV,Ry     =   0.535420  1.011798  3.900449  0.286675
  Thomas-Fermi vector in A             =   1.560276
 
 Write flags
   LWAVE  =      F    write WAVECAR
   LCHARG =      F    write CHGCAR
   LVTOT  =      F    write LOCPOT, total local potential
   LVHAR  =      F    write LOCPOT, Hartree potential only
   LELF   =      F    write electronic localiz. function (ELF)
   LORBIT =      0    0 simple, 1 ext, 2 COOP (PROOUT)


 Dipole corrections
   LMONO  =      F    monopole corrections only (constant potential shift)
   LDIPOL =      F    correct potential (dipole corrections)
   IDIPOL =      0    1-x, 2-y, 3-z, 4-all directions 
   EPSILON=  1.0000000 bulk dielectric constant

 Exchange correlation treatment:
   GGA     =    PE    GGA type
   LEXCH   =     8    internal setting for exchange type
   VOSKOWN=      0    Vosko Wilk Nusair interpolation
   LHFCALC =     F    Hartree Fock is set to
   LHFONE  =     F    Hartree Fock one center treatment
   AEXX    =    0.0000 exact exchange contribution

 Linear response parameters
   LEPSILON=     F    determine dielectric tensor
   LRPA    =     F    only Hartree local field effects (RPA)
   LNABLA  =     F    use nabla operator in PAW spheres
   LVEL    =     F    velocity operator in full k-point grid
   LINTERFAST=   F  fast interpolation
   KINTER  =     0    interpolate to denser k-point grid
   CSHIFT  =0.1000    complex shift for real part using Kramers Kronig
   OMEGAMAX=  -1.0    maximum frequency
   DEG_THRESHOLD= 0.2000000E-02 threshold for treating states as degnerate
   RTIME   =    0.100 relaxation time in fs

 Orbital magnetization related:
   ORBITALMAG=     F  switch on orbital magnetization
   LCHIMAG   =     F  perturbation theory with respect to B field
   DQ        =  0.001000  dq finite difference perturbation B field



--------------------------------------------------------------------------------------------------------


 conjugate gradient relaxation of ions
 charge density and potential will be updated during run
 spin polarized calculation
 Variant of blocked Davidson
 Davidson routine will perform the subspace rotation
 perform sub-space diagonalisation
    after iterative eigenvector-optimisation
 modified Broyden-mixing scheme, WC =      100.0
 initial mixing is a Kerker type mixing with AMIX =  0.4000 and BMIX =      1.0000
 Hartree-type preconditioning will be used
 using additional bands           54
 reciprocal scheme for non local part
 use partial core corrections
 calculate Harris-corrections to forces 
   (improved forces if not selfconsistent)
 use gradient corrections 
 use of overlap-Matrix (Vanderbilt PP)
 Gauss-broadening in eV      SIGMA  =   0.00


--------------------------------------------------------------------------------------------------------


  energy-cutoff  :      249.84
  volume of cell :    10376.40
      direct lattice vectors                 reciprocal lattice vectors
    21.811331653  0.000000000  0.000000000     0.045847728  0.000000000  0.000000000
     0.000000000 21.811331653  0.000000000     0.000000000  0.045847728  0.000000000
     0.000000000  0.000000000 21.811331653     0.000000000  0.000000000  0.045847728

  length of vectors
    21.811331653 21.811331653 21.811331653     0.045847728  0.045847728  0.045847728


 
 k-points in units of 2pi/SCALE and weight: Gamma-point only                        
   0.00000000  0.00000000  0.00000000       1.000
 
 k-points in reciprocal lattice and weights: Gamma-point only                        
   0.00000000  0.00000000  0.00000000       1.000
 
 position of ions in fractional coordinates (direct lattice) 
   0.67046989  0.54297640  0.42854250
   0.58330702  0.54334450  0.33460405
   0.67105934  0.62847993  0.52631068
   0.57823493  0.63551065  0.42338336
   0.62630521  0.42752796  0.44555145
   0.51250327  0.43430558  0.34339293
   0.47525573  0.52323671  0.26003341
   0.57702491  0.72178420  0.51051197
   0.62567239  0.50624266  0.54488946
   0.60267993  0.70021456  0.63108457
   0.46590684  0.59232825  0.37048787
   0.53357269  0.51410419  0.45011256
   0.64617716  0.58352751  0.64458510
   0.62880320  0.30766591  0.49727440
   0.46041592  0.65908156  0.47663411
   0.54662699  0.60200201  0.55389428
   0.47516031  0.70725884  0.59165755
   0.48915394  0.47220582  0.55708395
   0.56845637  0.48697257  0.66304329
   0.40843913  0.53928884  0.47300269
   0.59668541  0.39224894  0.58232421
   0.39040603  0.48427539  0.35917060
   0.44540727  0.41277745  0.45075412
   0.54248830  0.33907765  0.41310409
   0.48751482  0.38542828  0.65122231
   0.51326421  0.61349503  0.67468350
   0.50050272  0.33300364  0.53102512
   0.41858419  0.59779825  0.58310114
   0.43761017  0.50789006  0.67268625
   0.35346718  0.49030731  0.57409138
   0.32073177  0.44223309  0.45736992
   0.36302134  0.40354240  0.66999707
   0.38184305  0.36685378  0.55013702
 
 position of ions in cartesian coordinates  (Angst):
  14.62384118 11.84303843  9.34708256
  12.72270289 11.85106702  7.29815989
  14.63669785 13.70798410 11.47953689
  12.61207380 13.86133350  9.23455479
  13.66055074  9.32495417  9.71807041
  11.17837870  9.47278305  7.48985707
  10.36596036 11.41248947  5.67167505
  12.58568158 15.74307461 11.13494598
  13.64674797 11.04182652 11.88476464
  13.14525184 15.27261209 13.76479478
  10.16204851 12.91946800  8.08083390
  11.63793092 11.21329704  9.81755438
  14.09398424 12.72751200 14.05925936
  13.71503513  6.71060328 10.84621689
  10.04228427 14.37544639 10.39602463
  11.92266251 13.13046555 12.08117191
  10.36387904 15.42625708 12.90483915
  10.66909890 10.29943777 12.15074277
  12.39879049 10.62152013 14.46185717
   8.90860141 11.76260780 10.31681864
  13.01450335  8.55547174 12.70126649
   8.51527537 10.56269123  7.83398899
   9.71492574  9.00322584  9.83154771
  11.83239217  7.39573506  9.01035029
  10.63334748  8.40670399 14.20402569
  11.19497590 13.38114365 14.71574558
  10.91663076  7.26325283 11.58236505
   9.12987869 13.03877598 12.71821245
   9.54486047 11.07775844 14.67218298
   7.70958997 10.69425543 12.52169758
   6.99558697  9.64569256  9.97584705
   7.91797887  8.80179704 14.61352820
   8.32850546  8.00156948 11.99922091
 


--------------------------------------------------------------------------------------------------------


 use parallel FFT for wavefunctions z direction half grid
 k-point  1 :   0.0000 0.0000 0.0000  plane waves:   46583

 maximum and minimum number of plane-waves per node :      2917     2907

 maximum number of plane-waves:     46583
 maximum index in each direction: 
   IXMAX=   28   IYMAX=   28   IZMAX=   28
   IXMIN=  -28   IYMIN=  -28   IZMIN=    0

 WARNING: aliasing errors must be expected set NGX to 114 to avoid them
 WARNING: aliasing errors must be expected set NGY to 114 to avoid them
 WARNING: aliasing errors must be expected set NGZ to 114 to avoid them
 aliasing errors are usually negligible using standard VASP settings
 and one can safely disregard these warnings

 parallel 3D FFT for wavefunctions:
    minimum data exchange during FFTs selected (reduces bandwidth)
 parallel 3D FFT for charge:
    minimum data exchange during FFTs selected (reduces bandwidth)


 total amount of memory used by VASP on root node    50866. kBytes
========================================================================

   base      :      30000. kBytes
   nonl-proj :       1962. kBytes
   fftplans  :       3738. kBytes
   grid      :       9555. kBytes
   one-center:         46. kBytes
   wavefun   :       5565. kBytes
 
     INWAV:  cpu time    0.00: real time    0.00
 Broyden mixing: mesh for mixing (old mesh)
   NGX = 57   NGY = 57   NGZ = 57
  (NGX  =168   NGY  =168   NGZ  =168)
  gives a total of 185193 points

 initial charge density was supplied:
 charge density of overlapping atoms calculated
 number of electron     363.0000000 magnetization      33.0000000
 keeping initial charge density in first step


--------------------------------------------------------------------------------------------------------


 Maximum index for augmentation-charges          237 (set IRDMAX)


--------------------------------------------------------------------------------------------------------


 First call to EWALD:  gamma=   0.081
 Maximum number of real-space cells 3x 3x 3
 Maximum number of reciprocal cells 3x 3x 3

 FEWALD executed in parallel
    FEWALD:  cpu time    0.00: real time    0.00


----------------------------------------- Iteration    1(   1)  ---------------------------------------


    POTLOK:  cpu time    0.20: real time    0.19
    SETDIJ:  cpu time    0.00: real time    0.01
     EDDAV:  cpu time    2.64: real time    2.65
       DOS:  cpu time    0.00: real time    0.00
    --------------------------------------------
      LOOP:  cpu time    2.84: real time    2.87

 eigenvalue-minimisations  :   944
 total energy-change (2. order) : 0.3118226E+04  (-0.7062043E+04)
 number of electron     363.0000000 magnetization      33.0000000
 augmentation part      363.0000000 magnetization      33.0000000

 Free energy of the ion-electron system (eV)
  ---------------------------------------------------
  alpha Z        PSCENC =        89.26794067
  Ewald energy   TEWEN  =     77383.18913857
  -Hartree energ DENC   =   -110241.83331054
  -exchange      EXHF   =         0.00000000
  -V(xc)+E(xc)   XCENC  =      -360.74596529
  PAW double counting   =     33111.28187630   -31589.73209300
  entropy T*S    EENTRO =         0.00000000
  eigenvalues    EBANDS =       499.24325779
  atomic energy  EATOM  =     34227.55479285
  ---------------------------------------------------
  free energy    TOTEN  =      3118.22563735 eV

  energy without entropy =     3118.22563735  energy(sigma->0) =     3118.22563735


--------------------------------------------------------------------------------------------------------




----------------------------------------- Iteration    1(   2)  ---------------------------------------


     EDDAV:  cpu time    4.02: real time    4.03
       DOS:  cpu time    0.00: real time    0.00
    --------------------------------------------
      LOOP:  cpu time    4.02: real time    4.04

 eigenvalue-minimisations  :  1608
 total energy-change (2. order) :-0.2521944E+04  (-0.2268239E+04)
 number of electron     363.0000000 magnetization      33.0000000
 augmentation part      363.0000000 magnetization      33.0000000

 Free energy of the ion-electron system (eV)
  ---------------------------------------------------
  alpha Z        PSCENC =        89.26794067
  Ewald energy   TEWEN  =     77383.18913857
  -Hartree energ DENC   =   -110241.83331054
  -exchange      EXHF   =         0.00000000
  -V(xc)+E(xc)   XCENC  =      -360.74596529
  PAW double counting   =     33111.28187630   -31589.73209300
  entropy T*S    EENTRO =         0.00000000
  eigenvalues    EBANDS =     -2022.70100311
  atomic energy  EATOM  =     34227.55479285
  ---------------------------------------------------
  free energy    TOTEN  =       596.28137645 eV

  energy without entropy =      596.28137645  energy(sigma->0) =      596.28137645


--------------------------------------------------------------------------------------------------------




----------------------------------------- Iteration    1(   3)  ---------------------------------------


     EDDAV:  cpu time    3.13: real time    3.14
       DOS:  cpu time    0.00: real time    0.00
    --------------------------------------------
      LOOP:  cpu time    3.14: real time    3.15

 eigenvalue-minimisations  :  1192
 total energy-change (2. order) :-0.6363703E+03  (-0.5803756E+03)
 number of electron     363.0000000 magnetization      33.0000000
 augmentation part      363.0000000 magnetization      33.0000000

 Free energy of the ion-electron system (eV)
  ---------------------------------------------------
  alpha Z        PSCENC =        89.26794067
  Ewald energy   TEWEN  =     77383.18913857
  -Hartree energ DENC   =   -110241.83331054
  -exchange      EXHF   =         0.00000000
  -V(xc)+E(xc)   XCENC  =      -360.74596529
  PAW double counting   =     33111.28187630   -31589.73209300
  entropy T*S    EENTRO =         0.00000000
  eigenvalues    EBANDS =     -2659.07133085
  atomic energy  EATOM  =     34227.55479285
  ---------------------------------------------------
  free energy    TOTEN  =       -40.08895129 eV

  energy without entropy =      -40.08895129  energy(sigma->0) =      -40.08895129


--------------------------------------------------------------------------------------------------------




----------------------------------------- Iteration    1(   4)  ---------------------------------------


     EDDAV:  cpu time    2.81: real time    2.81
       DOS:  cpu time    0.00: real time    0.00
    --------------------------------------------
      LOOP:  cpu time    2.81: real time    2.82

 eigenvalue-minimisations  :  1032
 total energy-change (2. order) :-0.2943756E+02  (-0.2916061E+02)
 number of electron     363.0000000 magnetization      33.0000000
 augmentation part      363.0000000 magnetization      33.0000000

 Free energy of the ion-electron system (eV)
  ---------------------------------------------------
  alpha Z        PSCENC =        89.26794067
  Ewald energy   TEWEN  =     77383.18913857
  -Hartree energ DENC   =   -110241.83331054
  -exchange      EXHF   =         0.00000000
  -V(xc)+E(xc)   XCENC  =      -360.74596529
  PAW double counting   =     33111.28187630   -31589.73209300
  entropy T*S    EENTRO =         0.00000000
  eigenvalues    EBANDS =     -2688.50889203
  atomic energy  EATOM  =     34227.55479285
  ---------------------------------------------------
  free energy    TOTEN  =       -69.52651247 eV

  energy without entropy =      -69.52651247  energy(sigma->0) =      -69.52651247


--------------------------------------------------------------------------------------------------------




----------------------------------------- Iteration    1(   5)  ---------------------------------------


     EDDAV:  cpu time    2.87: real time    2.87
       DOS:  cpu time    0.00: real time    0.00
    CHARGE:  cpu time    0.09: real time    0.09
    MIXING:  cpu time    0.00: real time    0.00
    --------------------------------------------
      LOOP:  cpu time    2.97: real time    2.97

 eigenvalue-minimisations  :  1064
 total energy-change (2. order) :-0.4196335E+00  (-0.4191900E+00)
 number of electron     363.0000187 magnetization      29.0767750
 augmentation part      170.4092726 magnetization      28.8111756

 Broyden mixing:
  rms(total) = 0.33344E+01    rms(broyden)= 0.33339E+01
  rms(prec ) = 0.33903E+01
  weight for this iteration     100.00

 Free energy of the ion-electron system (eV)
  ---------------------------------------------------
  alpha Z        PSCENC =        89.26794067
  Ewald energy   TEWEN  =     77383.18913857
  -Hartree energ DENC   =   -110241.83331054
  -exchange      EXHF   =         0.00000000
  -V(xc)+E(xc)   XCENC  =      -360.74596529
  PAW double counting   =     33111.28187630   -31589.73209300
  entropy T*S    EENTRO =         0.00000000
  eigenvalues    EBANDS =     -2688.92852556
  atomic energy  EATOM  =     34227.55479285
  ---------------------------------------------------
  free energy    TOTEN  =       -69.94614600 eV

  energy without entropy =      -69.94614600  energy(sigma->0) =      -69.94614600


--------------------------------------------------------------------------------------------------------




----------------------------------------- Iteration    1(   6)  ---------------------------------------


    POTLOK:  cpu time    0.19: real time    0.19
    SETDIJ:  cpu time    0.01: real time    0.01
     EDDAV:  cpu time    2.64: real time    2.64
       DOS:  cpu time    0.00: real time    0.00
    CHARGE:  cpu time    0.08: real time    0.09
    MIXING:  cpu time    0.00: real time    0.00
    --------------------------------------------
      LOOP:  cpu time    2.92: real time    2.93

 eigenvalue-minimisations  :   952
 total energy-change (2. order) : 0.4193321E+02  (-0.1283336E+02)
 number of electron     363.0000192 magnetization      26.5372720
 augmentation part      174.4232841 magnetization      17.1426116

 Broyden mixing:
  rms(total) = 0.17631E+01    rms(broyden)= 0.17630E+01
  rms(prec ) = 0.17889E+01
  weight for this iteration     100.00

 eigenvalues of (default mixing * dielectric matrix)
  average eigenvalue GAMMA=   0.8540
  0.8540

 Free energy of the ion-electron system (eV)
  ---------------------------------------------------
  alpha Z        PSCENC =        89.26794067
  Ewald energy   TEWEN  =     77383.18913857
  -Hartree energ DENC   =   -110105.07903259
  -exchange      EXHF   =         0.00000000
  -V(xc)+E(xc)   XCENC  =      -341.93095396
  PAW double counting   =     34238.79432501   -32741.88644758
  entropy T*S    EENTRO =         0.00000000
  eigenvalues    EBANDS =     -2777.92269805
  atomic energy  EATOM  =     34227.55479285
  ---------------------------------------------------
  free energy    TOTEN  =       -28.01293507 eV

  energy without entropy =      -28.01293507  energy(sigma->0) =      -28.01293507


--------------------------------------------------------------------------------------------------------




----------------------------------------- Iteration    1(   7)  ---------------------------------------


    POTLOK:  cpu time    0.19: real time    0.19
    SETDIJ:  cpu time    0.01: real time    0.01
     EDDAV:  cpu time    2.73: real time    2.73
       DOS:  cpu time    0.00: real time    0.00
    CHARGE:  cpu time    0.08: real time    0.09
    MIXING:  cpu time    0.00: real time    0.00
    --------------------------------------------
      LOOP:  cpu time    3.01: real time    3.02

 eigenvalue-minimisations  :   992
 total energy-change (2. order) : 0.5347333E+01  (-0.7240117E+00)
 number of electron     363.0000193 magnetization      22.0844896
 augmentation part      174.3689331 magnetization      14.9679256

 Broyden mixing:
  rms(total) = 0.11050E+01    rms(broyden)= 0.11050E+01
  rms(prec ) = 0.11186E+01
  weight for this iteration     100.00

 eigenvalues of (default mixing * dielectric matrix)
  average eigenvalue GAMMA=   1.0447
  0.7661  1.3233

 Free energy of the ion-electron system (eV)
  ---------------------------------------------------
  alpha Z        PSCENC =        89.26794067
  Ewald energy   TEWEN  =     77383.18913857
  -Hartree energ DENC   =   -110183.74664698
  -exchange      EXHF   =         0.00000000
  -V(xc)+E(xc)   XCENC  =      -337.63749222
  PAW double counting   =     34910.15004411   -33428.99365349
  entropy T*S    EENTRO =         0.00000000
  eigenvalues    EBANDS =     -2682.44972568
  atomic energy  EATOM  =     34227.55479285
  ---------------------------------------------------
  free energy    TOTEN  =       -22.66560217 eV

  energy without entropy =      -22.66560217  energy(sigma->0) =      -22.66560217


--------------------------------------------------------------------------------------------------------




----------------------------------------- Iteration    1(   8)  ---------------------------------------


    POTLOK:  cpu time    0.18: real time    0.19
    SETDIJ:  cpu time    0.01: real time    0.01
     EDDAV:  cpu time    2.74: real time    2.74
       DOS:  cpu time    0.00: real time    0.00
    CHARGE:  cpu time    0.09: real time    0.09
    MIXING:  cpu time    0.00: real time    0.00
    --------------------------------------------
      LOOP:  cpu time    3.03: real time    3.03

 eigenvalue-minimisations  :   992
 total energy-change (2. order) : 0.4576234E+01  (-0.2289497E+00)
 number of electron     363.0000195 magnetization      19.1260605
 augmentation part      174.2157877 magnetization      12.2301873

 Broyden mixing:
  rms(total) = 0.59054E+00    rms(broyden)= 0.59053E+00
  rms(prec ) = 0.59503E+00
  weight for this iteration     100.00

 eigenvalues of (default mixing * dielectric matrix)
  average eigenvalue GAMMA=   1.2685
  2.2805  0.9000  0.6251

 Free energy of the ion-electron system (eV)
  ---------------------------------------------------
  alpha Z        PSCENC =        89.26794067
  Ewald energy   TEWEN  =     77383.18913857
  -Hartree energ DENC   =   -110283.33755879
  -exchange      EXHF   =         0.00000000
  -V(xc)+E(xc)   XCENC  =      -333.15045490
  PAW double counting   =     35753.22610704   -34289.79073085
  entropy T*S    EENTRO =         0.00000000
  eigenvalues    EBANDS =     -2565.04860275
  atomic energy  EATOM  =     34227.55479285
  ---------------------------------------------------
  free energy    TOTEN  =       -18.08936816 eV

  energy without entropy =      -18.08936816  energy(sigma->0) =      -18.08936816


--------------------------------------------------------------------------------------------------------




----------------------------------------- Iteration    1(   9)  ---------------------------------------


    POTLOK:  cpu time    0.19: real time    0.19
    SETDIJ:  cpu time    0.01: real time    0.01
     EDDAV:  cpu time    2.79: real time    2.80
       DOS:  cpu time    0.00: real time    0.00
    CHARGE:  cpu time    0.09: real time    0.08
    MIXING:  cpu time    0.00: real time    0.00
    --------------------------------------------
      LOOP:  cpu time    3.08: real time    3.09

 eigenvalue-minimisations  :  1024
 total energy-change (2. order) :-0.6002841E+01  (-0.1359417E+00)
 number of electron     363.0000195 magnetization      16.2396391
 augmentation part      174.0918730 magnetization       9.5860207

 Broyden mixing:
  rms(total) = 0.38257E+00    rms(broyden)= 0.38256E+00
  rms(prec ) = 0.38654E+00
  weight for this iteration     100.00

 eigenvalues of (default mixing * dielectric matrix)
  average eigenvalue GAMMA=   1.2511
  2.2029  0.6238  0.8122  1.3655

 Free energy of the ion-electron system (eV)
  ---------------------------------------------------
  alpha Z        PSCENC =        89.26794067
  Ewald energy   TEWEN  =     77383.18913857
  -Hartree energ DENC   =   -110322.69488805
  -exchange      EXHF   =         0.00000000
  -V(xc)+E(xc)   XCENC  =      -337.29576808
  PAW double counting   =     36045.05756602   -34587.53535587
  entropy T*S    EENTRO =         0.00000000
  eigenvalues    EBANDS =     -2521.63563557
  atomic energy  EATOM  =     34227.55479285
  ---------------------------------------------------
  free energy    TOTEN  =       -24.09220946 eV

  energy without entropy =      -24.09220946  energy(sigma->0) =      -24.09220946


--------------------------------------------------------------------------------------------------------




----------------------------------------- Iteration    1(  10)  ---------------------------------------


    POTLOK:  cpu time    0.19: real time    0.19
    SETDIJ:  cpu time    0.01: real time    0.01
     EDDAV:  cpu time    2.66: real time    2.67
       DOS:  cpu time    0.00: real time    0.00
    CHARGE:  cpu time    0.08: real time    0.08
    MIXING:  cpu time    0.01: real time    0.00
    --------------------------------------------
      LOOP:  cpu time    2.95: real time    2.96

 eigenvalue-minimisations  :   960
 total energy-change (2. order) :-0.1265526E+02  (-0.3976836E+00)
 number of electron     363.0000194 magnetization      12.2170850
 augmentation part      174.0752046 magnetization       6.0390775

 Broyden mixing:
  rms(total) = 0.27560E+00    rms(broyden)= 0.27559E+00
  rms(prec ) = 0.27804E+00
  weight for this iteration     100.00

 eigenvalues of (default mixing * dielectric matrix)
  average eigenvalue GAMMA=   1.4333
  2.4134  2.4134  0.8499  0.8499  0.6399

 Free energy of the ion-electron system (eV)
  ---------------------------------------------------
  alpha Z        PSCENC =        89.26794067
  Ewald energy   TEWEN  =     77383.18913857
  -Hartree energ DENC   =   -110322.89627369
  -exchange      EXHF   =         0.00000000
  -V(xc)+E(xc)   XCENC  =      -346.92960037
  PAW double counting   =     36022.15812562   -34564.16972008
  entropy T*S    EENTRO =         0.00000000
  eigenvalues    EBANDS =     -2524.92187434
  atomic energy  EATOM  =     34227.55479285
  ---------------------------------------------------
  free energy    TOTEN  =       -36.74747075 eV

  energy without entropy =      -36.74747075  energy(sigma->0) =      -36.74747075


--------------------------------------------------------------------------------------------------------




----------------------------------------- Iteration    1(  11)  ---------------------------------------


    POTLOK:  cpu time    0.19: real time    0.19
    SETDIJ:  cpu time    0.00: real time    0.01
     EDDAV:  cpu time    2.72: real time    2.72
       DOS:  cpu time    0.00: real time    0.00
    CHARGE:  cpu time    0.08: real time    0.09
    MIXING:  cpu time    0.00: real time    0.00
    --------------------------------------------
      LOOP:  cpu time    3.00: real time    3.00

 eigenvalue-minimisations  :   984
 total energy-change (2. order) :-0.1384363E+02  (-0.6575739E+00)
 number of electron     363.0000195 magnetization      11.5893244
 augmentation part      174.0902405 magnetization       9.7532696

 Broyden mixing:
  rms(total) = 0.32800E+00    rms(broyden)= 0.32786E+00
  rms(prec ) = 0.33961E+00
  weight for this iteration     100.00

 eigenvalues of (default mixing * dielectric matrix)
  average eigenvalue GAMMA=   1.2535
  2.8136  2.1770  0.6390  0.8531  0.8531  0.1849

 Free energy of the ion-electron system (eV)
  ---------------------------------------------------
  alpha Z        PSCENC =        89.26794067
  Ewald energy   TEWEN  =     77383.18913857
  -Hartree energ DENC   =   -110320.24568628
  -exchange      EXHF   =         0.00000000
  -V(xc)+E(xc)   XCENC  =      -357.26728329
  PAW double counting   =     35995.88106286   -34537.90657039
  entropy T*S    EENTRO =        -0.00000000
  eigenvalues    EBANDS =     -2531.06449163
  atomic energy  EATOM  =     34227.55479285
  ---------------------------------------------------
  free energy    TOTEN  =       -50.59109664 eV

  energy without entropy =      -50.59109664  energy(sigma->0) =      -50.59109664


--------------------------------------------------------------------------------------------------------




----------------------------------------- Iteration    1(  12)  ---------------------------------------


    POTLOK:  cpu time    0.18: real time    0.19
    SETDIJ:  cpu time    0.01: real time    0.01
     EDDAV:  cpu time    3.05: real time    3.05
       DOS:  cpu time    0.00: real time    0.00
    CHARGE:  cpu time    0.08: real time    0.09
    MIXING:  cpu time    0.00: real time    0.00
    --------------------------------------------
      LOOP:  cpu time    3.34: real time    3.36

 eigenvalue-minimisations  :  1152
 total energy-change (2. order) :-0.8691068E+00  (-0.1906779E-01)
 number of electron     363.0000195 magnetization      10.1627105
 augmentation part      174.0597834 magnetization       8.4310924

 Broyden mixing:
  rms(total) = 0.29010E+00    rms(broyden)= 0.29009E+00
  rms(prec ) = 0.30079E+00
  weight for this iteration     100.00

 eigenvalues of (default mixing * dielectric matrix)
  average eigenvalue GAMMA=   1.1604
  2.8926  2.2232  0.8482  0.8482  0.6389  0.3358  0.3358

 Free energy of the ion-electron system (eV)
  ---------------------------------------------------
  alpha Z        PSCENC =        89.26794067
  Ewald energy   TEWEN  =     77383.18913857
  -Hartree energ DENC   =   -110321.41139616
  -exchange      EXHF   =         0.00000000
  -V(xc)+E(xc)   XCENC  =      -357.82631803
  PAW double counting   =     35998.65080575   -34540.83130242
  entropy T*S    EENTRO =         0.00000000
  eigenvalues    EBANDS =     -2530.05386462
  atomic energy  EATOM  =     34227.55479285
  ---------------------------------------------------
  free energy    TOTEN  =       -51.46020339 eV

  energy without entropy =      -51.46020339  energy(sigma->0) =      -51.46020339


--------------------------------------------------------------------------------------------------------




----------------------------------------- Iteration    1(  13)  ---------------------------------------


    POTLOK:  cpu time    0.18: real time    0.19
    SETDIJ:  cpu time    0.01: real time    0.01
     EDDAV:  cpu time    2.71: real time    2.72
       DOS:  cpu time    0.00: real time    0.00
    CHARGE:  cpu time    0.08: real time    0.09
    MIXING:  cpu time    0.00: real time    0.01
    --------------------------------------------
      LOOP:  cpu time    3.00: real time    3.13

 eigenvalue-minimisations  :   976
 total energy-change (2. order) :-0.2826945E+01  (-0.6314240E-01)
 number of electron     363.0000195 magnetization       5.6967439
 augmentation part      174.0661776 magnetization       4.1212409

 Broyden mixing:
  rms(total) = 0.23879E+00    rms(broyden)= 0.23879E+00
  rms(prec ) = 0.24620E+00
  weight for this iteration     100.00

 eigenvalues of (default mixing * dielectric matrix)
  average eigenvalue GAMMA=   1.4211
  4.5354  2.1845  1.0412  1.0412  0.7052  0.7052  0.6695  0.4868

 Free energy of the ion-electron system (eV)
  ---------------------------------------------------
  alpha Z        PSCENC =        89.26794067
  Ewald energy   TEWEN  =     77383.18913857
  -Hartree energ DENC   =   -110317.85491934
  -exchange      EXHF   =         0.00000000
  -V(xc)+E(xc)   XCENC  =      -359.86913959
  PAW double counting   =     35956.73688362   -34498.79464590
  entropy T*S    EENTRO =        -0.00000000
  eigenvalues    EBANDS =     -2534.51719914
  atomic energy  EATOM  =     34227.55479285
  ---------------------------------------------------
  free energy    TOTEN  =       -54.28714825 eV

  energy without entropy =      -54.28714825  energy(sigma->0) =      -54.28714825


--------------------------------------------------------------------------------------------------------




----------------------------------------- Iteration    1(  14)  ---------------------------------------


    POTLOK:  cpu time    0.18: real time    0.19
    SETDIJ:  cpu time    0.01: real time    0.01
     EDDAV:  cpu time    2.66: real time    2.67
       DOS:  cpu time    0.00: real time    0.00
    CHARGE:  cpu time    0.08: real time    0.09
    MIXING:  cpu time    0.01: real time    0.01
    --------------------------------------------
      LOOP:  cpu time    2.96: real time    2.97

 eigenvalue-minimisations  :   952
 total energy-change (2. order) :-0.7235559E+01  (-0.3697180E+00)
 number of electron     363.0000195 magnetization       3.9259476
 augmentation part      174.0748852 magnetization       2.7346743

 Broyden mixing:
  rms(total) = 0.11381E+00    rms(broyden)= 0.11379E+00
  rms(prec ) = 0.11800E+00
  weight for this iteration     100.00

 eigenvalues of (default mixing * dielectric matrix)
  average eigenvalue GAMMA=   1.5274
  5.6444  1.8286  1.7332  1.1614  0.8278  0.6875  0.6875  0.6668  0.5094

 Free energy of the ion-electron system (eV)
  ---------------------------------------------------
  alpha Z        PSCENC =        89.26794067
  Ewald energy   TEWEN  =     77383.18913857
  -Hartree energ DENC   =   -110305.14509447
  -exchange      EXHF   =         0.00000000
  -V(xc)+E(xc)   XCENC  =      -365.60147366
  PAW double counting   =     35858.34671226   -34400.38225529
  entropy T*S    EENTRO =         0.00000000
  eigenvalues    EBANDS =     -2548.75246853
  atomic energy  EATOM  =     34227.55479285
  ---------------------------------------------------
  free energy    TOTEN  =       -61.52270760 eV

  energy without entropy =      -61.52270760  energy(sigma->0) =      -61.52270760


--------------------------------------------------------------------------------------------------------




----------------------------------------- Iteration    1(  15)  ---------------------------------------


    POTLOK:  cpu time    0.18: real time    0.19
    SETDIJ:  cpu time    0.01: real time    0.01
     EDDAV:  cpu time    2.67: real time    2.67
       DOS:  cpu time    0.00: real time    0.00
    CHARGE:  cpu time    0.08: real time    0.09
    MIXING:  cpu time    0.01: real time    0.01
    --------------------------------------------
      LOOP:  cpu time    2.96: real time    3.00

 eigenvalue-minimisations  :   964
 total energy-change (2. order) :-0.3012826E+01  (-0.8259161E-01)
 number of electron     363.0000195 magnetization       2.5396786
 augmentation part      174.0325768 magnetization       1.4655056

 Broyden mixing:
  rms(total) = 0.81770E-01    rms(broyden)= 0.81751E-01
  rms(prec ) = 0.88868E-01
  weight for this iteration     100.00

 eigenvalues of (default mixing * dielectric matrix)
  average eigenvalue GAMMA=   1.6305
  6.8047  2.3511  1.6742  1.3085  0.7976  0.7976  0.8214  0.6159  0.5668  0.5668

 Free energy of the ion-electron system (eV)
  ---------------------------------------------------
  alpha Z        PSCENC =        89.26794067
  Ewald energy   TEWEN  =     77383.18913857
  -Hartree energ DENC   =   -110293.47916737
  -exchange      EXHF   =         0.00000000
  -V(xc)+E(xc)   XCENC  =      -368.23174719
  PAW double counting   =     35837.20676355   -34379.04576859
  entropy T*S    EENTRO =         0.00000000
  eigenvalues    EBANDS =     -2560.99748622
  atomic energy  EATOM  =     34227.55479285
  ---------------------------------------------------
  free energy    TOTEN  =       -64.53553372 eV

  energy without entropy =      -64.53553372  energy(sigma->0) =      -64.53553372


--------------------------------------------------------------------------------------------------------




----------------------------------------- Iteration    1(  16)  ---------------------------------------


    POTLOK:  cpu time    0.18: real time    0.19
    SETDIJ:  cpu time    0.01: real time    0.01
     EDDAV:  cpu time    2.68: real time    2.69
       DOS:  cpu time    0.00: real time    0.00
    CHARGE:  cpu time    0.09: real time    0.09
    MIXING:  cpu time    0.01: real time    0.01
    --------------------------------------------
      LOOP:  cpu time    2.97: real time    3.00

 eigenvalue-minimisations  :   960
 total energy-change (2. order) :-0.1646437E+01  (-0.2518963E-01)
 number of electron     363.0000195 magnetization       1.8382047
 augmentation part      174.0711313 magnetization       0.8313754

 Broyden mixing:
  rms(total) = 0.63302E-01    rms(broyden)= 0.63281E-01
  rms(prec ) = 0.70010E-01
  weight for this iteration     100.00

 eigenvalues of (default mixing * dielectric matrix)
  average eigenvalue GAMMA=   1.7586
  7.2965  2.8503  2.4638  1.5016  1.0622  0.7239  0.7239  0.7920  0.7920  0.6268
  0.5113

 Free energy of the ion-electron system (eV)
  ---------------------------------------------------
  alpha Z        PSCENC =        89.26794067
  Ewald energy   TEWEN  =     77383.18913857
  -Hartree energ DENC   =   -110272.19724687
  -exchange      EXHF   =         0.00000000
  -V(xc)+E(xc)   XCENC  =      -369.94562404
  PAW double counting   =     35797.76422268   -34338.84454762
  entropy T*S    EENTRO =         0.00000000
  eigenvalues    EBANDS =     -2582.97064676
  atomic energy  EATOM  =     34227.55479285
  ---------------------------------------------------
  free energy    TOTEN  =       -66.18197052 eV

  energy without entropy =      -66.18197052  energy(sigma->0) =      -66.18197052


--------------------------------------------------------------------------------------------------------




----------------------------------------- Iteration    1(  17)  ---------------------------------------


    POTLOK:  cpu time    0.18: real time    0.19
    SETDIJ:  cpu time    0.01: real time    0.01
     EDDAV:  cpu time    2.73: real time    2.73
       DOS:  cpu time    0.00: real time    0.00
    CHARGE:  cpu time    0.08: real time    0.09
    MIXING:  cpu time    0.01: real time    0.01
    --------------------------------------------
      LOOP:  cpu time    3.01: real time    3.03

 eigenvalue-minimisations  :   984
 total energy-change (2. order) :-0.2020125E+01  (-0.2278094E-01)
 number of electron     363.0000195 magnetization       1.4382622
 augmentation part      174.0541733 magnetization       0.4115975

 Broyden mixing:
  rms(total) = 0.31108E-01    rms(broyden)= 0.31057E-01
  rms(prec ) = 0.36428E-01
  weight for this iteration     100.00

 eigenvalues of (default mixing * dielectric matrix)
  average eigenvalue GAMMA=   1.7762
  8.0084  3.5019  1.9286  1.7808  1.0715  1.0715  0.7317  0.7317  0.5154  0.6831
  0.6831  0.6072

 Free energy of the ion-electron system (eV)
  ---------------------------------------------------
  alpha Z        PSCENC =        89.26794067
  Ewald energy   TEWEN  =     77383.18913857
  -Hartree energ DENC   =   -110245.31020832
  -exchange      EXHF   =         0.00000000
  -V(xc)+E(xc)   XCENC  =      -372.08089595
  PAW double counting   =     35822.39492861   -34363.16921376
  entropy T*S    EENTRO =         0.00000000
  eigenvalues    EBANDS =     -2610.04857839
  atomic energy  EATOM  =     34227.55479285
  ---------------------------------------------------
  free energy    TOTEN  =       -68.20209572 eV

  energy without entropy =      -68.20209572  energy(sigma->0) =      -68.20209572


--------------------------------------------------------------------------------------------------------




----------------------------------------- Iteration    1(  18)  ---------------------------------------


    POTLOK:  cpu time    0.19: real time    0.19
    SETDIJ:  cpu time    0.01: real time    0.01
     EDDAV:  cpu time    2.73: real time    2.73
       DOS:  cpu time    0.00: real time    0.00
    CHARGE:  cpu time    0.08: real time    0.09
    MIXING:  cpu time    0.01: real time    0.01
    --------------------------------------------
      LOOP:  cpu time    3.02: real time    3.04

 eigenvalue-minimisations  :   984
 total energy-change (2. order) :-0.5076434E+00  (-0.2193925E-02)
 number of electron     363.0000195 magnetization       1.2746812
 augmentation part      174.0854765 magnetization       0.2631114

 Broyden mixing:
  rms(total) = 0.18486E-01    rms(broyden)= 0.18466E-01
  rms(prec ) = 0.21958E-01
  weight for this iteration     100.00

 eigenvalues of (default mixing * dielectric matrix)
  average eigenvalue GAMMA=   1.7804
  8.3191  3.8178  2.0576  1.6215  1.6215  0.9933  0.7717  0.7717  0.6907  0.6687
  0.6687  0.6370  0.5055

 Free energy of the ion-electron system (eV)
  ---------------------------------------------------
  alpha Z        PSCENC =        89.26794067
  Ewald energy   TEWEN  =     77383.18913857
  -Hartree energ DENC   =   -110229.95049919
  -exchange      EXHF   =         0.00000000
  -V(xc)+E(xc)   XCENC  =      -372.71539191
  PAW double counting   =     35812.46255321   -34352.98188576
  entropy T*S    EENTRO =         0.00000000
  eigenvalues    EBANDS =     -2625.53638754
  atomic energy  EATOM  =     34227.55479285
  ---------------------------------------------------
  free energy    TOTEN  =       -68.70973909 eV

  energy without entropy =      -68.70973909  energy(sigma->0) =      -68.70973909


--------------------------------------------------------------------------------------------------------




----------------------------------------- Iteration    1(  19)  ---------------------------------------


    POTLOK:  cpu time    0.19: real time    0.19
    SETDIJ:  cpu time    0.00: real time    0.01
     EDDAV:  cpu time    2.78: real time    2.78
       DOS:  cpu time    0.00: real time    0.00
    CHARGE:  cpu time    0.09: real time    0.09
    MIXING:  cpu time    0.00: real time    0.01
    --------------------------------------------
      LOOP:  cpu time    3.06: real time    3.09

 eigenvalue-minimisations  :  1008
 total energy-change (2. order) :-0.2528826E+00  (-0.7059174E-03)
 number of electron     363.0000195 magnetization       1.1987722
 augmentation part      174.0946356 magnetization       0.1891441

 Broyden mixing:
  rms(total) = 0.10992E-01    rms(broyden)= 0.10986E-01
  rms(prec ) = 0.13751E-01
  weight for this iteration     100.00

 eigenvalues of (default mixing * dielectric matrix)
  average eigenvalue GAMMA=   1.8308
  8.2743  4.5915  2.3767  1.8584  1.8584  0.9933  0.9933  0.7382  0.7382  0.7696
  0.5114  0.6409  0.6409  0.6455

 Free energy of the ion-electron system (eV)
  ---------------------------------------------------
  alpha Z        PSCENC =        89.26794067
  Ewald energy   TEWEN  =     77383.18913857
  -Hartree energ DENC   =   -110219.55917406
  -exchange      EXHF   =         0.00000000
  -V(xc)+E(xc)   XCENC  =      -373.03722823
  PAW double counting   =     35817.71881223   -34358.30165430
  entropy T*S    EENTRO =         0.00000000
  eigenvalues    EBANDS =     -2635.79524940
  atomic energy  EATOM  =     34227.55479285
  ---------------------------------------------------
  free energy    TOTEN  =       -68.96262166 eV

  energy without entropy =      -68.96262166  energy(sigma->0) =      -68.96262166


--------------------------------------------------------------------------------------------------------




----------------------------------------- Iteration    1(  20)  ---------------------------------------


    POTLOK:  cpu time    0.18: real time    0.19
    SETDIJ:  cpu time    0.01: real time    0.01
     EDDAV:  cpu time    2.78: real time    2.78
       DOS:  cpu time    0.00: real time    0.00
    CHARGE:  cpu time    0.08: real time    0.09
    MIXING:  cpu time    0.01: real time    0.01
    --------------------------------------------
      LOOP:  cpu time    3.07: real time    3.87

 eigenvalue-minimisations  :  1004
 total energy-change (2. order) :-0.1470616E+00  (-0.4359927E-03)
 number of electron     363.0000195 magnetization       1.1052791
 augmentation part      174.0946302 magnetization       0.0892238

 Broyden mixing:
  rms(total) = 0.57230E-02    rms(broyden)= 0.57183E-02
  rms(prec ) = 0.77721E-02
  weight for this iteration     100.00

 eigenvalues of (default mixing * dielectric matrix)
  average eigenvalue GAMMA=   1.8343
  8.4771  4.9256  2.3806  2.0196  2.0196  1.0883  0.9814  0.9142  0.7423  0.7423
  0.7459  0.7459  0.5115  0.6168  0.6033

 Free energy of the ion-electron system (eV)
  ---------------------------------------------------
  alpha Z        PSCENC =        89.26794067
  Ewald energy   TEWEN  =     77383.18913857
  -Hartree energ DENC   =   -110210.96919873
  -exchange      EXHF   =         0.00000000
  -V(xc)+E(xc)   XCENC  =      -373.23199352
  PAW double counting   =     35825.60741519   -34366.28089565
  entropy T*S    EENTRO =         0.00000000
  eigenvalues    EBANDS =     -2644.24688268
  atomic energy  EATOM  =     34227.55479285
  ---------------------------------------------------
  free energy    TOTEN  =       -69.10968329 eV

  energy without entropy =      -69.10968329  energy(sigma->0) =      -69.10968329


--------------------------------------------------------------------------------------------------------




----------------------------------------- Iteration    1(  21)  ---------------------------------------


    POTLOK:  cpu time    0.18: real time    0.19
    SETDIJ:  cpu time    0.01: real time    0.01
     EDDAV:  cpu time    2.33: real time    2.34
       DOS:  cpu time    0.00: real time    0.00
    CHARGE:  cpu time    0.08: real time    0.09
    MIXING:  cpu time    0.00: real time    0.01
    --------------------------------------------
      LOOP:  cpu time    2.62: real time    2.66

 eigenvalue-minimisations  :   760
 total energy-change (2. order) :-0.2250457E-01  (-0.1242057E-03)
 number of electron     363.0000195 magnetization       1.0786852
 augmentation part      174.0972757 magnetization       0.0653111

 Broyden mixing:
  rms(total) = 0.35425E-02    rms(broyden)= 0.35407E-02
  rms(prec ) = 0.52487E-02
  weight for this iteration     100.00

 eigenvalues of (default mixing * dielectric matrix)
  average eigenvalue GAMMA=   1.8238
  8.5313  5.0054  2.8676  1.7999  1.7999  1.7892  0.9795  0.9795  0.7456  0.7456
  0.8169  0.5116  0.6877  0.6877  0.6163  0.6163

 Free energy of the ion-electron system (eV)
  ---------------------------------------------------
  alpha Z        PSCENC =        89.26794067
  Ewald energy   TEWEN  =     77383.18913857
  -Hartree energ DENC   =   -110206.74818203
  -exchange      EXHF   =         0.00000000
  -V(xc)+E(xc)   XCENC  =      -373.27561736
  PAW double counting   =     35825.96602757   -34366.65467006
  entropy T*S    EENTRO =         0.00000000
  eigenvalues    EBANDS =     -2648.43161808
  atomic energy  EATOM  =     34227.55479285
  ---------------------------------------------------
  free energy    TOTEN  =       -69.13218786 eV

  energy without entropy =      -69.13218786  energy(sigma->0) =      -69.13218786


--------------------------------------------------------------------------------------------------------




----------------------------------------- Iteration    1(  22)  ---------------------------------------


    POTLOK:  cpu time    0.18: real time    0.19
    SETDIJ:  cpu time    0.01: real time    0.01
     EDDAV:  cpu time    2.08: real time    2.09
       DOS:  cpu time    0.00: real time    0.00
    CHARGE:  cpu time    0.09: real time    0.09
    MIXING:  cpu time    0.01: real time    0.01
    --------------------------------------------
      LOOP:  cpu time    2.38: real time    3.09

 eigenvalue-minimisations  :   644
 total energy-change (2. order) :-0.1113534E-01  (-0.6860109E-04)
 number of electron     363.0000195 magnetization       1.0563285
 augmentation part      174.0945161 magnetization       0.0422321

 Broyden mixing:
  rms(total) = 0.25693E-02    rms(broyden)= 0.25689E-02
  rms(prec ) = 0.36681E-02
  weight for this iteration     100.00

 eigenvalues of (default mixing * dielectric matrix)
  average eigenvalue GAMMA=   1.8516
  8.4757  5.3927  3.1954  2.2693  1.8697  1.8697  1.0578  1.0578  0.9360  0.7427
  0.7427  0.7711  0.5116  0.6771  0.6771  0.6155  0.6155

 Free energy of the ion-electron system (eV)
  ---------------------------------------------------
  alpha Z        PSCENC =        89.26794067
  Ewald energy   TEWEN  =     77383.18913857
  -Hartree energ DENC   =   -110204.03039863
  -exchange      EXHF   =         0.00000000
  -V(xc)+E(xc)   XCENC  =      -373.29111638
  PAW double counting   =     35829.27866259   -34370.00380374
  entropy T*S    EENTRO =         0.00000000
  eigenvalues    EBANDS =     -2651.10853915
  atomic energy  EATOM  =     34227.55479285
  ---------------------------------------------------
  free energy    TOTEN  =       -69.14332320 eV

  energy without entropy =      -69.14332320  energy(sigma->0) =      -69.14332320


--------------------------------------------------------------------------------------------------------




----------------------------------------- Iteration    1(  23)  ---------------------------------------


    POTLOK:  cpu time    0.18: real time    0.19
    SETDIJ:  cpu time    0.01: real time    0.01
     EDDAV:  cpu time    2.07: real time    2.08
       DOS:  cpu time    0.00: real time    0.00
    CHARGE:  cpu time    0.09: real time    0.09
    MIXING:  cpu time    0.01: real time    0.01
    --------------------------------------------
      LOOP:  cpu time    2.36: real time    2.41

 eigenvalue-minimisations  :   652
 total energy-change (2. order) :-0.4358613E-02  (-0.4277890E-04)
 number of electron     363.0000195 magnetization       1.0183995
 augmentation part      174.0942223 magnetization       0.0040764

 Broyden mixing:
  rms(total) = 0.23354E-02    rms(broyden)= 0.23351E-02
  rms(prec ) = 0.29274E-02
  weight for this iteration     100.00

 eigenvalues of (default mixing * dielectric matrix)
  average eigenvalue GAMMA=   1.8458
  8.5619  5.3650  3.5827  2.4619  1.9083  1.9083  1.1782  1.1782  0.7504  0.7504
  0.8972  0.8324  0.7383  0.7383  0.5113  0.6109  0.6109  0.6392

 Free energy of the ion-electron system (eV)
  ---------------------------------------------------
  alpha Z        PSCENC =        89.26794067
  Ewald energy   TEWEN  =     77383.18913857
  -Hartree energ DENC   =   -110201.18783973
  -exchange      EXHF   =         0.00000000
  -V(xc)+E(xc)   XCENC  =      -373.30554142
  PAW double counting   =     35829.76146799   -34370.46951298
  entropy T*S    EENTRO =         0.00000000
  eigenvalues    EBANDS =     -2653.95812777
  atomic energy  EATOM  =     34227.55479285
  ---------------------------------------------------
  free energy    TOTEN  =       -69.14768182 eV

  energy without entropy =      -69.14768182  energy(sigma->0) =      -69.14768182


--------------------------------------------------------------------------------------------------------




----------------------------------------- Iteration    1(  24)  ---------------------------------------


    POTLOK:  cpu time    0.19: real time    0.19
    SETDIJ:  cpu time    0.00: real time    0.01
     EDDAV:  cpu time    2.15: real time    2.15
       DOS:  cpu time    0.00: real time    0.00
    CHARGE:  cpu time    0.09: real time    0.09
    MIXING:  cpu time    0.01: real time    0.01
    --------------------------------------------
      LOOP:  cpu time    2.44: real time    2.46

 eigenvalue-minimisations  :   680
 total energy-change (2. order) :-0.3438140E-02  (-0.1457145E-04)
 number of electron     363.0000195 magnetization       1.0054050
 augmentation part      174.0963931 magnetization      -0.0067281

 Broyden mixing:
  rms(total) = 0.10865E-02    rms(broyden)= 0.10862E-02
  rms(prec ) = 0.14758E-02
  weight for this iteration     100.00

 eigenvalues of (default mixing * dielectric matrix)
  average eigenvalue GAMMA=   1.8661
  8.5672  5.5415  4.2613  2.2863  2.2863  1.7158  1.7158  1.1020  0.9251  0.9251
  0.7418  0.7418  0.8690  0.5114  0.6817  0.6817  0.6142  0.6444  0.6444

 Free energy of the ion-electron system (eV)
  ---------------------------------------------------
  alpha Z        PSCENC =        89.26794067
  Ewald energy   TEWEN  =     77383.18913857
  -Hartree energ DENC   =   -110199.35799007
  -exchange      EXHF   =         0.00000000
  -V(xc)+E(xc)   XCENC  =      -373.31815144
  PAW double counting   =     35828.85271193   -34369.55305068
  entropy T*S    EENTRO =         0.00000000
  eigenvalues    EBANDS =     -2655.78651180
  atomic energy  EATOM  =     34227.55479285
  ---------------------------------------------------
  free energy    TOTEN  =       -69.15111996 eV

  energy without entropy =      -69.15111996  energy(sigma->0) =      -69.15111996


--------------------------------------------------------------------------------------------------------




----------------------------------------- Iteration    1(  25)  ---------------------------------------


    POTLOK:  cpu time    0.19: real time    0.19
    SETDIJ:  cpu time    0.01: real time    0.01
     EDDAV:  cpu time    2.00: real time    2.00
       DOS:  cpu time    0.00: real time    0.00
    CHARGE:  cpu time    0.09: real time    0.09
    MIXING:  cpu time    0.01: real time    0.01
    --------------------------------------------
      LOOP:  cpu time    2.29: real time    2.30

 eigenvalue-minimisations  :   632
 total energy-change (2. order) :-0.3432264E-02  (-0.6618688E-05)
 number of electron     363.0000195 magnetization       0.9985205
 augmentation part      174.0959522 magnetization      -0.0130677

 Broyden mixing:
  rms(total) = 0.54444E-03    rms(broyden)= 0.54410E-03
  rms(prec ) = 0.81091E-03
  weight for this iteration     100.00

 eigenvalues of (default mixing * dielectric matrix)
  average eigenvalue GAMMA=   1.9046
  8.6273  5.8637  4.9104  2.6612  2.4079  1.7778  1.7778  1.1149  1.0585  1.0585
  0.7478  0.7478  0.7996  0.7437  0.7437  0.5114  0.6447  0.6447  0.6134  0.6374

 Free energy of the ion-electron system (eV)
  ---------------------------------------------------
  alpha Z        PSCENC =        89.26794067
  Ewald energy   TEWEN  =     77383.18913857
  -Hartree energ DENC   =   -110198.35245578
  -exchange      EXHF   =         0.00000000
  -V(xc)+E(xc)   XCENC  =      -373.32429279
  PAW double counting   =     35829.21627967   -34369.92599520
  entropy T*S    EENTRO =         0.00000000
  eigenvalues    EBANDS =     -2656.77996021
  atomic energy  EATOM  =     34227.55479285
  ---------------------------------------------------
  free energy    TOTEN  =       -69.15455222 eV

  energy without entropy =      -69.15455222  energy(sigma->0) =      -69.15455222


--------------------------------------------------------------------------------------------------------




----------------------------------------- Iteration    1(  26)  ---------------------------------------


    POTLOK:  cpu time    0.23: real time    0.24
    SETDIJ:  cpu time    0.01: real time    0.01
     EDDAV:  cpu time    1.99: real time    2.00
       DOS:  cpu time    0.00: real time    0.00
    CHARGE:  cpu time    0.09: real time    0.09
    MIXING:  cpu time    0.01: real time    0.01
    --------------------------------------------
      LOOP:  cpu time    2.33: real time    2.35

 eigenvalue-minimisations  :   632
 total energy-change (2. order) :-0.1181442E-02  (-0.2046235E-05)
 number of electron     363.0000195 magnetization       1.0004207
 augmentation part      174.0961810 magnetization      -0.0108026

 Broyden mixing:
  rms(total) = 0.51047E-03    rms(broyden)= 0.51036E-03
  rms(prec ) = 0.66488E-03
  weight for this iteration     100.00

 eigenvalues of (default mixing * dielectric matrix)
  average eigenvalue GAMMA=   1.9372
  8.5902  6.6737  5.0251  2.8801  2.4993  1.7812  1.7812  1.5812  1.0506  1.0506
  0.7433  0.7433  0.8477  0.8477  0.8536  0.5114  0.6848  0.6848  0.6150  0.6150
  0.6223

 Free energy of the ion-electron system (eV)
  ---------------------------------------------------
  alpha Z        PSCENC =        89.26794067
  Ewald energy   TEWEN  =     77383.18913857
  -Hartree energ DENC   =   -110197.84370772
  -exchange      EXHF   =         0.00000000
  -V(xc)+E(xc)   XCENC  =      -373.32720425
  PAW double counting   =     35829.11936022   -34369.82654785
  entropy T*S    EENTRO =         0.00000000
  eigenvalues    EBANDS =     -2657.28950616
  atomic energy  EATOM  =     34227.55479285
  ---------------------------------------------------
  free energy    TOTEN  =       -69.15573366 eV

  energy without entropy =      -69.15573366  energy(sigma->0) =      -69.15573366


--------------------------------------------------------------------------------------------------------




----------------------------------------- Iteration    1(  27)  ---------------------------------------


    POTLOK:  cpu time    0.19: real time    0.19
    SETDIJ:  cpu time    0.01: real time    0.01
     EDDAV:  cpu time    2.10: real time    2.11
       DOS:  cpu time    0.00: real time    0.00
    CHARGE:  cpu time    0.08: real time    0.09
    MIXING:  cpu time    0.01: real time    0.01
    --------------------------------------------
      LOOP:  cpu time    2.40: real time    2.45

 eigenvalue-minimisations  :   648
 total energy-change (2. order) :-0.1876159E-03  (-0.9398227E-06)
 number of electron     363.0000195 magnetization       0.9998962
 augmentation part      174.0958583 magnetization      -0.0115320

 Broyden mixing:
  rms(total) = 0.30472E-03    rms(broyden)= 0.30461E-03
  rms(prec ) = 0.39633E-03
  weight for this iteration     100.00

 eigenvalues of (default mixing * dielectric matrix)
  average eigenvalue GAMMA=   1.9502
  8.5967  7.1129  5.1712  3.2209  2.2844  2.2360  1.7382  1.7382  1.1406  1.0277
  1.0277  0.7449  0.7449  0.8312  0.8312  0.5114  0.7142  0.7142  0.6369  0.6369
  0.6109  0.6335

 Free energy of the ion-electron system (eV)
  ---------------------------------------------------
  alpha Z        PSCENC =        89.26794067
  Ewald energy   TEWEN  =     77383.18913857
  -Hartree energ DENC   =   -110197.60172972
  -exchange      EXHF   =         0.00000000
  -V(xc)+E(xc)   XCENC  =      -373.32753541
  PAW double counting   =     35829.53698120   -34370.24665707
  entropy T*S    EENTRO =         0.00000000
  eigenvalues    EBANDS =     -2657.52885237
  atomic energy  EATOM  =     34227.55479285
  ---------------------------------------------------
  free energy    TOTEN  =       -69.15592128 eV

  energy without entropy =      -69.15592128  energy(sigma->0) =      -69.15592128


--------------------------------------------------------------------------------------------------------




----------------------------------------- Iteration    1(  28)  ---------------------------------------


    POTLOK:  cpu time    0.19: real time    0.19
    SETDIJ:  cpu time    0.00: real time    0.01
     EDDAV:  cpu time    1.97: real time    1.98
       DOS:  cpu time    0.00: real time    0.00
    --------------------------------------------
      LOOP:  cpu time    2.17: real time    2.20

 eigenvalue-minimisations  :   624
 total energy-change (2. order) :-0.2138106E-04  (-0.2983254E-06)
 number of electron     363.0000195 magnetization       0.9998962
 augmentation part      174.0958583 magnetization      -0.0115320

 Free energy of the ion-electron system (eV)
  ---------------------------------------------------
  alpha Z        PSCENC =        89.26794067
  Ewald energy   TEWEN  =     77383.18913857
  -Hartree energ DENC   =   -110197.45304207
  -exchange      EXHF   =         0.00000000
  -V(xc)+E(xc)   XCENC  =      -373.32822408
  PAW double counting   =     35829.56154015   -34370.27031621
  entropy T*S    EENTRO =         0.00000000
  eigenvalues    EBANDS =     -2657.67777256
  atomic energy  EATOM  =     34227.55479285
  ---------------------------------------------------
  free energy    TOTEN  =       -69.15594266 eV

  energy without entropy =      -69.15594266  energy(sigma->0) =      -69.15594266


--------------------------------------------------------------------------------------------------------




 average (electrostatic) potential at core
  the test charge radii are     1.1249
  (the norm of the test charge is              1.0000)
       1 -82.1872       2 -82.1679       3 -82.1461       4 -82.2871       5 -82.2830
       6 -82.1808       7 -81.9491       8 -82.1790       9 -82.4839      10 -82.0846
      11 -82.3012      12 -82.5299      13 -82.1986      14 -82.2065      15 -82.2857
      16 -82.5363      17 -82.2991      18 -82.4288      19 -82.2522      20 -82.4371
      21 -82.3576      22 -82.0559      23 -82.4221      24 -82.2163      25 -82.2545
      26 -82.2271      27 -82.2244      28 -82.3894      29 -82.2732      30 -82.2338
      31 -82.0181      32 -82.0104      33 -82.0587
 
 
 
 E-fermi :  -3.6385     XC(G=0):  -1.1413     alpha+bet : -0.7300


 spin component 1

 k-point     1 :       0.0000    0.0000    0.0000
  band No.  band energies     occupation 
      1      -9.7545      1.00000
      2      -9.3557      1.00000
      3      -9.1945      1.00000
      4      -9.1491      1.00000
      5      -9.1437      1.00000
      6      -9.1311      1.00000
      7      -9.0822      1.00000
      8      -9.0628      1.00000
      9      -9.0503      1.00000
     10      -9.0123      1.00000
     11      -8.9991      1.00000
     12      -8.9347      1.00000
     13      -8.8889      1.00000
     14      -8.8705      1.00000
     15      -8.8460      1.00000
     16      -8.8167      1.00000
     17      -8.7948      1.00000
     18      -8.7744      1.00000
     19      -8.7531      1.00000
     20      -8.7269      1.00000
     21      -8.7024      1.00000
     22      -8.6840      1.00000
     23      -8.6427      1.00000
     24      -8.6262      1.00000
     25      -8.6150      1.00000
     26      -8.5934      1.00000
     27      -8.5724      1.00000
     28      -8.5363      1.00000
     29      -8.5044      1.00000
     30      -8.4950      1.00000
     31      -8.4838      1.00000
     32      -8.4551      1.00000
     33      -8.4389      1.00000
     34      -8.4262      1.00000
     35      -8.4165      1.00000
     36      -8.3783      1.00000
     37      -8.3664      1.00000
     38      -8.3229      1.00000
     39      -8.2891      1.00000
     40      -8.2661      1.00000
     41      -8.2414      1.00000
     42      -8.2269      1.00000
     43      -8.2113      1.00000
     44      -8.1896      1.00000
     45      -8.1719      1.00000
     46      -8.1529      1.00000
     47      -8.1423      1.00000
     48      -8.1220      1.00000
     49      -8.1052      1.00000
     50      -8.0888      1.00000
     51      -8.0761      1.00000
     52      -8.0722      1.00000
     53      -8.0602      1.00000
     54      -8.0385      1.00000
     55      -8.0122      1.00000
     56      -7.9994      1.00000
     57      -7.9600      1.00000
     58      -7.9375      1.00000
     59      -7.9290      1.00000
     60      -7.8926      1.00000
     61      -7.8786      1.00000
     62      -7.8707      1.00000
     63      -7.8394      1.00000
     64      -7.8187      1.00000
     65      -7.8108      1.00000
     66      -7.7803      1.00000
     67      -7.7634      1.00000
     68      -7.7529      1.00000
     69      -7.7364      1.00000
     70      -7.7261      1.00000
     71      -7.7143      1.00000
     72      -7.6715      1.00000
     73      -7.6534      1.00000
     74      -7.6338      1.00000
     75      -7.6227      1.00000
     76      -7.6037      1.00000
     77      -7.5758      1.00000
     78      -7.5376      1.00000
     79      -7.5321      1.00000
     80      -7.5236      1.00000
     81      -7.5151      1.00000
     82      -7.4982      1.00000
     83      -7.4750      1.00000
     84      -7.4329      1.00000
     85      -7.4204      1.00000
     86      -7.4004      1.00000
     87      -7.3738      1.00000
     88      -7.3255      1.00000
     89      -7.2978      1.00000
     90      -7.2907      1.00000
     91      -7.2790      1.00000
     92      -7.2443      1.00000
     93      -7.2231      1.00000
     94      -7.2053      1.00000
     95      -7.1925      1.00000
     96      -7.1902      1.00000
     97      -7.1606      1.00000
     98      -7.1453      1.00000
     99      -7.1296      1.00000
    100      -7.1006      1.00000
    101      -7.0717      1.00000
    102      -7.0702      1.00000
    103      -7.0608      1.00000
    104      -7.0365      1.00000
    105      -7.0218      1.00000
    106      -7.0074      1.00000
    107      -6.9987      1.00000
    108      -6.9846      1.00000
    109      -6.9752      1.00000
    110      -6.9704      1.00000
    111      -6.9499      1.00000
    112      -6.9373      1.00000
    113      -6.9288      1.00000
    114      -6.9143      1.00000
    115      -6.9021      1.00000
    116      -6.8914      1.00000
    117      -6.8849      1.00000
    118      -6.8777      1.00000
    119      -6.8665      1.00000
    120      -6.8571      1.00000
[...]


--------------------------------------------------------------------------------------------------------


 soft charge-density along one line, spin component           1
         0         1         2         3         4         5         6         7         8         9
 total charge-density along one line
 
 soft charge-density along one line, spin component           2
         0         1         2         3         4         5         6         7         8         9
 total charge-density along one line
 
 pseudopotential strength for first ion, spin component:           1
-10.273  -0.001  -0.005   0.002  -0.000 -10.249  -0.001  -0.005
 -0.001 -10.271   0.002   0.000  -0.001  -0.001 -10.247   0.002
 -0.005   0.002 -10.280  -0.003   0.004  -0.005   0.002 -10.256
  0.002   0.000  -0.003 -10.277   0.003   0.002   0.000  -0.003
 -0.000  -0.001   0.004   0.003 -10.277  -0.000  -0.001   0.004
-10.249  -0.001  -0.005   0.002  -0.000 -10.201  -0.000  -0.005
 -0.001 -10.247   0.002   0.000  -0.001  -0.000 -10.199   0.002
 -0.005   0.002 -10.256  -0.003   0.004  -0.005   0.002 -10.207
  0.002   0.000  -0.003 -10.253   0.003   0.002   0.000  -0.003
 -0.000  -0.001   0.004   0.003 -10.253  -0.000  -0.001   0.004
 -0.000  -0.001   0.002   0.002   0.000  -0.000  -0.001   0.002
 -0.001  -0.001   0.003   0.003   0.001  -0.001  -0.001   0.003
  0.023  -0.011   0.004   0.000   0.008   0.022  -0.011   0.004
  0.000  -0.009  -0.013   0.023   0.000   0.000  -0.008  -0.012
 -0.008   0.000  -0.013  -0.011   0.022  -0.007   0.000  -0.012
  0.028  -0.014   0.005   0.000   0.010   0.026  -0.013   0.005
  0.000  -0.010  -0.016   0.027   0.000   0.000  -0.010  -0.015
 -0.009   0.000  -0.016  -0.013   0.027  -0.009   0.000  -0.015
 pseudopotential strength for first ion, spin component:           2
-10.272  -0.000  -0.005   0.003  -0.000 -10.248  -0.000  -0.004
 -0.000 -10.270   0.003   0.002  -0.001  -0.000 -10.246   0.003
 -0.005   0.003 -10.278  -0.001   0.004  -0.004   0.003 -10.254
  0.003   0.002  -0.001 -10.273   0.003   0.003   0.002  -0.001
 -0.000  -0.001   0.004   0.003 -10.276  -0.000  -0.001   0.004
-10.248  -0.000  -0.004   0.003  -0.000 -10.200  -0.000  -0.004
 -0.000 -10.246   0.003   0.002  -0.001  -0.000 -10.198   0.003
 -0.004   0.003 -10.254  -0.001   0.004  -0.004   0.003 -10.206
  0.003   0.002  -0.001 -10.249   0.003   0.003   0.002  -0.001
 -0.000  -0.001   0.004   0.003 -10.252  -0.000  -0.001   0.004
 -0.001  -0.001   0.001   0.001   0.000  -0.001  -0.001   0.001
 -0.001  -0.002   0.002   0.002   0.000  -0.001  -0.002   0.002
  0.023  -0.011   0.004   0.000   0.008   0.022  -0.011   0.004
  0.000  -0.008  -0.012   0.023   0.000   0.000  -0.008  -0.012
 -0.008   0.000  -0.013  -0.011   0.022  -0.007   0.000  -0.012
  0.028  -0.014   0.005   0.000   0.009   0.027  -0.013   0.005
  0.000  -0.010  -0.015   0.028  -0.000   0.000  -0.010  -0.014
 -0.009   0.000  -0.016  -0.014   0.027  -0.009   0.000  -0.015
 total augmentation occupancy for first ion, spin component:           1
  2.821  -0.126   0.051  -0.105   0.008  -0.776   0.090  -0.073   0.112  -0.015   0.055  -0.024   0.157  -0.039  -0.014   0.004
 -0.126   2.696   0.068  -0.030  -0.074   0.090  -0.688  -0.042   0.010   0.078   0.076  -0.012  -0.103  -0.043  -0.046  -0.001
  0.051   0.068   2.693  -0.086  -0.085  -0.073  -0.042  -0.749   0.041   0.094  -0.121  -0.005   0.005  -0.095  -0.067   0.003
 -0.105  -0.030  -0.086   2.854   0.078   0.112   0.010   0.041  -0.815  -0.057  -0.114  -0.012  -0.034   0.171   0.012   0.002
  0.008  -0.074  -0.085   0.078   2.702  -0.015   0.078   0.094  -0.057  -0.701  -0.055   0.048   0.037   0.059   0.103   0.004
 -0.776   0.090  -0.073   0.112  -0.015   0.708  -0.061   0.093  -0.118   0.024  -0.049   0.017  -0.173   0.042   0.024   0.010
  0.090  -0.688  -0.042   0.010   0.078  -0.061   0.649   0.020   0.006  -0.081  -0.061   0.008   0.111   0.043   0.047  -0.006
 -0.073  -0.042  -0.749   0.041   0.094   0.093   0.020   0.761  -0.005  -0.104   0.130  -0.008  -0.017   0.100   0.080   0.001
  0.112   0.010   0.041  -0.815  -0.057  -0.118   0.006  -0.005   0.753   0.039   0.109   0.003   0.038  -0.185   0.000  -0.002
 -0.015   0.078   0.094  -0.057  -0.701   0.024  -0.081  -0.104   0.039   0.667   0.040  -0.033  -0.047  -0.057  -0.128   0.002
  0.055   0.076  -0.121  -0.114  -0.055  -0.049  -0.061   0.130   0.109   0.040   1.852  -0.259   0.058   0.084  -0.200  -0.005
 -0.024  -0.012  -0.005  -0.012   0.048   0.017   0.008  -0.008   0.003  -0.033  -0.259   0.055  -0.009  -0.017   0.047   0.001
  0.157  -0.103   0.005  -0.034   0.037  -0.173   0.111  -0.017   0.038  -0.047   0.058  -0.009   0.084  -0.001   0.004  -0.005
 -0.039  -0.043  -0.095   0.171   0.059   0.042   0.043   0.100  -0.185  -0.057   0.084  -0.017  -0.001   0.106   0.017   0.000
 -0.014  -0.046  -0.067   0.012   0.103   0.024   0.047   0.080   0.000  -0.128  -0.200   0.047   0.004   0.017   0.072   0.000
  0.004  -0.001   0.003   0.002   0.004   0.010  -0.006   0.001  -0.002   0.002  -0.005   0.001  -0.005   0.000   0.000   0.000
  0.002  -0.003  -0.002   0.004  -0.003  -0.002  -0.002  -0.006   0.010   0.003  -0.008   0.002   0.000  -0.006  -0.000   0.000
 -0.003   0.002  -0.003  -0.006   0.006  -0.002  -0.003  -0.005   0.000   0.008   0.019  -0.004   0.000  -0.000  -0.005  -0.000
 total augmentation occupancy for first ion, spin component:           2
 -0.015   0.014   0.008   0.017  -0.003   0.008  -0.011  -0.006  -0.013   0.003  -0.012  -0.001   0.000   0.003  -0.003   0.000
  0.014   0.005   0.019   0.037  -0.007  -0.011  -0.007  -0.014  -0.028   0.005  -0.023  -0.003  -0.001   0.007  -0.007   0.000
  0.008   0.019   0.003   0.041  -0.003  -0.006  -0.014  -0.006  -0.031   0.003  -0.026  -0.003  -0.001   0.007  -0.007   0.000
  0.017   0.037   0.041   0.047  -0.008  -0.013  -0.028  -0.031  -0.039   0.007  -0.042  -0.006  -0.001   0.014  -0.014   0.000
 -0.003  -0.007  -0.003  -0.008  -0.014   0.003   0.005   0.003   0.007   0.007   0.006   0.002   0.000  -0.002   0.004  -0.000
  0.008  -0.011  -0.006  -0.013   0.003  -0.001   0.007   0.005   0.009  -0.002   0.009   0.001   0.001  -0.002   0.002   0.000
 -0.011  -0.007  -0.014  -0.028   0.005   0.007   0.010   0.010   0.021  -0.003   0.018   0.002   0.000  -0.005   0.005  -0.000
 -0.006  -0.014  -0.006  -0.031   0.003   0.005   0.010   0.010   0.023  -0.002   0.020   0.002   0.001  -0.006   0.005  -0.000
 -0.013  -0.028  -0.031  -0.039   0.007   0.009   0.021   0.023   0.035  -0.007   0.032   0.003   0.001  -0.010   0.010  -0.000
  0.003   0.005   0.003   0.007   0.007  -0.002  -0.003  -0.002  -0.007  -0.001  -0.005  -0.001  -0.000   0.002  -0.002   0.000
 -0.012  -0.023  -0.026  -0.042   0.006   0.009   0.018   0.020   0.032  -0.005   0.036   0.001   0.001  -0.010   0.010  -0.000
 -0.001  -0.003  -0.003  -0.006   0.002   0.001   0.002   0.002   0.003  -0.001   0.001   0.001   0.000  -0.001   0.001   0.000
  0.000  -0.001  -0.001  -0.001   0.000   0.001   0.000   0.001   0.001  -0.000   0.001   0.000   0.000  -0.000   0.000   0.000
  0.003   0.007   0.007   0.014  -0.002  -0.002  -0.005  -0.006  -0.010   0.002  -0.010  -0.001  -0.000   0.003  -0.002   0.000
 -0.003  -0.007  -0.007  -0.014   0.004   0.002   0.005   0.005   0.010  -0.002   0.010   0.001   0.000  -0.002   0.002  -0.000
  0.000   0.000   0.000   0.000  -0.000   0.000  -0.000  -0.000  -0.000   0.000  -0.000   0.000   0.000   0.000  -0.000   0.000
 -0.000  -0.000  -0.000  -0.000   0.000   0.000   0.000   0.000   0.000  -0.000   0.000   0.000  -0.000  -0.000   0.000  -0.000
  0.000   0.000   0.000   0.000   0.000  -0.000  -0.000  -0.000  -0.000   0.000  -0.000  -0.000  -0.000  -0.000  -0.000   0.000


------------------------ aborting loop because EDIFF is reached ----------------------------------------


    CHARGE:  cpu time    0.08: real time    0.09
    FORLOC:  cpu time    0.01: real time    0.01
    FORNL :  cpu time    1.76: real time    1.76
    STRESS:  cpu time    2.03: real time    2.03
    FORCOR:  cpu time    0.20: real time    0.20
    FORHAR:  cpu time    0.04: real time    0.04
    MIXING:  cpu time    0.00: real time    0.01
    OFIELD:  cpu time    0.00: real time    0.00

  FORCE on cell =-STRESS in cart. coord.  units (eV):
  Direction    XX          YY          ZZ          XY          YZ          ZX
  --------------------------------------------------------------------------------------
  Alpha Z    89.26794    89.26794    89.26794
  Ewald   16483.33597 30532.99498 29275.38409  5892.48977  1572.21311  -491.56045
  Hartree 27989.57114 41236.84214 39898.42409  5438.84789  1434.83020  -432.18405
  E(xc)   -1914.68286 -1913.64468 -1913.07958     0.75100     0.29471    -0.14944
  Local  -49868.79739-77158.73571-74561.86812-11331.64639 -3006.19134   921.73466
  n-local  -346.13734  -344.93580  -344.49621     2.39676     0.53334    -0.11566
  augment  3033.87661  3031.15326  3030.59445    -0.81608    -0.54468     0.68442
  Kinetic  4523.72467  4516.47071  4515.26833    -1.68649    -1.30637     1.54423
  Fock        0.00000     0.00000     0.00000     0.00000     0.00000     0.00000
  -------------------------------------------------------------------------------------
  Total      -9.84125   -10.58716   -10.50501     0.33645    -0.17103    -0.04628
  in kB      -1.51955    -1.63472    -1.62204     0.05195    -0.02641    -0.00715
  external pressure =       -1.59 kB  Pullay stress =        0.00 kB


 VOLUME and BASIS-vectors are now :
 -----------------------------------------------------------------------------
  energy-cutoff  :      249.84
  volume of cell :    10376.40
      direct lattice vectors                 reciprocal lattice vectors
    21.811331653  0.000000000  0.000000000     0.045847728  0.000000000  0.000000000
     0.000000000 21.811331653  0.000000000     0.000000000  0.045847728  0.000000000
     0.000000000  0.000000000 21.811331653     0.000000000  0.000000000  0.045847728

  length of vectors
    21.811331653 21.811331653 21.811331653     0.045847728  0.045847728  0.045847728


 FORCES acting on ions
    electron-ion (+dipol)            ewald-force                    non-local-force                 convergence-correction
 -----------------------------------------------------------------------------------------------
   -.142E+04 -.287E+02 0.669E+03   0.141E+04 0.301E+02 -.667E+03   0.379E+01 -.144E+01 -.174E+01   0.236E-02 0.467E-02 -.124E-02
   -.730E+03 -.272E+03 0.129E+04   0.727E+03 0.272E+03 -.129E+04   0.258E+01 0.206E+00 -.287E+01   -.278E-01 -.239E-01 -.166E-01
   -.138E+04 -.710E+03 0.533E+02   0.138E+04 0.708E+03 -.534E+02   0.362E+01 0.202E+01 0.177E+00   -.167E-01 -.181E-01 0.122E-02
   -.551E+03 -.106E+04 0.902E+03   0.550E+03 0.106E+04 -.900E+03   0.107E+01 0.176E+01 -.163E+01   0.226E-01 0.253E-01 0.151E-01
   -.987E+03 0.656E+03 0.483E+03   0.987E+03 -.655E+03 -.482E+03   0.750E+00 -.945E+00 -.503E+00   0.139E-01 0.463E-02 -.127E-01
   -.225E+03 0.660E+03 0.120E+04   0.225E+03 -.661E+03 -.119E+04   0.517E+00 0.196E+00 -.181E+01   0.819E-02 0.727E-01 -.528E-01
   0.233E+03 -.211E+02 0.140E+04   -.232E+03 0.207E+02 -.139E+04   -.153E+01 0.343E+00 -.601E+01   0.354E-02 0.331E-01 0.404E-01
   -.323E+03 -.147E+04 0.257E+03   0.322E+03 0.147E+04 -.256E+03   0.573E+00 0.424E+01 -.811E+00   0.943E-02 0.134E-01 -.264E-01
   -.130E+04 0.257E+03 -.286E+03   0.130E+04 -.257E+03 0.286E+03   0.154E+01 -.396E+00 0.339E+00   -.627E-04 0.650E-01 0.254E-01
   -.632E+03 -.114E+04 -.815E+03   0.630E+03 0.114E+04 0.813E+03   0.145E+01 0.330E+01 0.214E+01   0.618E-02 -.220E-01 0.149E-01
   0.575E+03 -.836E+03 0.107E+04   -.574E+03 0.834E+03 -.107E+04   -.114E+01 0.224E+01 -.335E+01   0.615E-02 -.393E-01 -.199E-01
   -.198E+03 -.121E+03 0.495E+03   0.197E+03 0.120E+03 -.494E+03   0.314E+00 0.116E+01 -.324E+00   0.121E-02 -.384E-01 -.260E-02
   -.116E+04 -.231E+03 -.102E+04   0.116E+04 0.231E+03 0.102E+04   0.360E+01 0.647E-01 0.255E+01   -.176E-01 -.218E-01 -.361E-01
   -.908E+03 0.117E+04 0.493E+02   0.904E+03 -.116E+04 -.490E+02   0.457E+01 -.472E+01 -.303E+00   0.225E-01 -.120E-01 -.833E-02
   0.753E+03 -.120E+04 0.454E+03   -.751E+03 0.120E+04 -.454E+03   -.168E+01 0.218E+01 -.610E+00   -.424E-02 0.264E-01 -.669E-02
   -.233E+03 -.582E+03 -.273E+03   0.233E+03 0.581E+03 0.273E+03   0.160E+00 0.682E+00 0.335E+00   0.330E-01 0.654E-02 0.242E-01
   0.622E+03 -.132E+04 -.555E+03   -.620E+03 0.132E+04 0.553E+03   -.205E+01 0.448E+01 0.182E+01   -.447E-02 -.491E-02 0.169E-01
   0.110E+03 0.222E+03 -.369E+03   -.110E+03 -.222E+03 0.368E+03   0.352E+00 -.305E+00 0.986E+00   0.229E-01 0.750E-03 -.899E-03
   -.604E+03 0.346E+03 -.134E+04   0.604E+03 -.345E+03 0.134E+04   0.525E+00 -.527E+00 0.301E+01   -.178E-03 -.175E-01 -.230E-02
   0.116E+04 -.483E+03 0.353E+03   -.116E+04 0.482E+03 -.352E+03   -.123E+01 0.569E+00 -.807E-02   -.272E-01 -.200E-01 -.262E-01
   -.918E+03 0.902E+03 -.710E+03   0.917E+03 -.900E+03 0.709E+03   0.194E+01 -.158E+01 0.150E+01   -.514E-01 -.139E-01 0.509E-02
   0.103E+04 0.221E+03 0.106E+04   -.103E+04 -.220E+03 -.106E+04   -.204E+01 -.120E+01 -.264E+01   0.926E-02 -.205E-01 -.905E-02
   0.510E+03 0.787E+03 0.484E+03   -.510E+03 -.787E+03 -.485E+03   -.480E-01 0.873E-01 0.449E+00   -.490E-01 0.221E-01 0.512E-01
   -.117E+03 0.124E+04 0.858E+03   0.117E+03 -.124E+04 -.856E+03   -.385E+00 -.473E+01 -.290E+01   -.574E-02 -.388E-01 0.678E-03
   0.712E+02 0.990E+03 -.107E+04   -.712E+02 -.989E+03 0.107E+04   -.717E-02 -.133E+01 0.238E+01   0.373E-01 -.223E-01 -.500E-01
   0.115E+03 -.594E+03 -.139E+04   -.115E+03 0.593E+03 0.139E+04   0.986E-01 0.103E+01 0.317E+01   0.115E-01 -.748E-02 -.119E-01
   0.106E+03 0.142E+04 -.179E+03   -.106E+03 -.142E+04 0.180E+03   0.601E+00 -.248E+01 -.550E+00   -.365E-01 0.597E-02 0.191E-01
   0.109E+04 -.745E+03 -.558E+03   -.109E+04 0.744E+03 0.557E+03   -.184E+01 0.126E+01 0.112E+01   0.137E-02 0.579E-01 0.313E-01
   0.587E+03 -.822E+02 -.137E+04   -.586E+03 0.814E+02 0.137E+04   -.148E+01 0.799E+00 0.281E+01   -.488E-02 0.883E-02 0.492E-01
   0.135E+04 -.556E+02 -.423E+03   -.135E+04 0.559E+02 0.422E+03   -.190E+01 -.260E+00 0.133E+01   0.548E-02 -.200E-01 -.231E-01
   0.144E+04 0.415E+03 0.431E+03   -.143E+04 -.414E+03 -.429E+03   -.517E+01 -.112E+01 -.155E+01   0.308E-01 0.668E-02 0.891E-02
   0.963E+03 0.548E+03 -.984E+03   -.959E+03 -.546E+03 0.979E+03   -.427E+01 -.187E+01 0.406E+01   -.232E-01 -.143E-01 0.113E-01
   0.969E+03 0.113E+04 -.152E+03   -.967E+03 -.113E+04 0.151E+03   -.208E+01 -.250E+01 0.158E+00   0.101E-01 0.231E-01 -.559E-02
 -----------------------------------------------------------------------------------------------
   -.117E+01 -.144E+01 -.731E+00   -.250E-11 -.159E-11 -.313E-12   0.117E+01 0.122E+01 0.729E+00   -.113E-01 0.218E-01 0.247E-02
 
 
 POSITION                                       TOTAL-FORCE (eV/Angst)
 -----------------------------------------------------------------------------------
     14.42075     11.86613      9.34944         0.001335      0.000005      0.004684
     12.71973     12.02200      7.06053        -0.001033     -0.001800      0.004677
     14.57031     13.88185     11.38770        -0.002110      0.012266      0.002097
     12.70920     14.07877      9.06128        -0.007306     -0.002979     -0.011379
     12.98670      9.20467      9.99878        -0.011494      0.004713      0.016773
     11.39951      9.61453      7.63354        -0.002640     -0.009446     -0.005820
     10.40745     11.18581      5.62447         0.004233     -0.005773     -0.000399
     12.47902     15.92891     11.10206         0.001384     -0.011922      0.001984
     13.81749     11.08123     11.95850         0.004628     -0.007594      0.002956
     13.20896     15.34672     13.74255        -0.002655      0.005702     -0.003332
     10.13180     12.84036      7.87659        -0.000736      0.017809     -0.002447
     11.66867     11.61124      9.80408        -0.001982      0.004736     -0.001628
     14.09788     12.78764     14.10778         0.003283      0.010233      0.003052
     13.54892      6.61071     10.85749        -0.003138      0.001720      0.008678
     10.14363     14.32353     10.32244         0.002549     -0.009656      0.003772
     12.01738     13.30131     12.13870         0.003175     -0.011515      0.002478
     10.43395     15.45594     13.00447        -0.001124     -0.003667     -0.009571
     10.84971     10.59779     12.23175        -0.005624     -0.008259     -0.007695
     12.41222     10.62310     14.55143         0.002652      0.013306     -0.005016
      8.82482     11.80559     10.20925         0.002135     -0.007821      0.001867
     12.93854      8.54774     12.76624         0.010850      0.003251      0.011540
      8.63135     10.43163      7.73218        -0.001208      0.008531      0.000663
      9.89208      9.07813      9.94384        -0.000970     -0.007897     -0.011089
     11.61414      7.09153      8.83927         0.003973      0.005058     -0.001937
     10.38642      8.38724     13.97497         0.002055      0.001962      0.010210
     11.31128     13.29091     14.81110        -0.008010      0.004496      0.000924
     10.90805      6.99436     11.59281         0.005624      0.002145      0.007122
      9.24242     12.96303     12.75900         0.000358     -0.008763     -0.007768
      9.58562     10.97779     14.82206         0.004645      0.000353     -0.011795
      7.92955     10.49365     12.52404        -0.008904     -0.000255      0.001033
      7.18118      9.52569     10.00613        -0.000313     -0.001024     -0.004847
      7.76451      8.77819     14.69644         0.003442      0.003293      0.001052
      8.30742      7.81813     12.02782         0.002926     -0.001208     -0.000841
 -----------------------------------------------------------------------------------
    total drift:                               -0.008664     -0.203741      0.000659


--------------------------------------------------------------------------------------------------------



  FREE ENERGIE OF THE ION-ELECTRON SYSTEM (eV)
  ---------------------------------------------------
  free  energy   TOTEN  =       -69.88596760 eV

  energy  without entropy=      -69.88596760  energy(sigma->0) =      -69.88596760
 
 d Force = 0.5865148E-03[-0.393E-03, 0.157E-02]  d Energy = 0.5872905E-03-0.776E-06
 d Force = 0.1365028E+01[ 0.134E+01, 0.139E+01]  d Ewald  = 0.1365026E+01 0.238E-05


--------------------------------------------------------------------------------------------------------


    POTLOK:  cpu time    0.23: real time    0.23


--------------------------------------------------------------------------------------------------------




--------------------------------------------------------------------------------------------------------


  
 reached required accuracy - stopping structural energy minimisation
     LOOP+:  cpu time   12.65: real time   12.71
    4ORBIT:  cpu time    0.00: real time    0.00

 total amount of memory used by VASP on root node    50866. kBytes
========================================================================

   base      :      30000. kBytes
   nonl-proj :       1962. kBytes
   fftplans  :       3738. kBytes
   grid      :       9555. kBytes
   one-center:         46. kBytes
   wavefun   :       5565. kBytes
 
  
  
 General timing and accounting informations for this job:
 ========================================================
  
                  Total CPU time used (sec):      846.521
                            User time (sec):      839.140
                          System time (sec):        7.380
                         Elapsed time (sec):      871.100
  
                   Maximum memory used (kb):       61364.
                   Average memory used (kb):           0.
  
                          Minor page faults:       523931
                          Major page faults:            0
                 Voluntary context switches:        33394
