 running on   64 total cores
 distrk:  each k-point on   64 cores,    1 groups
 distr:  one band on   16 cores,    4 groups
 using from now: INCAR     
 vasp.5.3.5 31Mar14 (build Feb 01 2018 12:10:03) gamma-only                     
  
 POSCAR found type information on POSCAR  Ag
 POSCAR found :  1 types and      53 ions
 scaLAPACK will be used

 ----------------------------------------------------------------------------- 
|                                                                             |
|  ADVICE TO THIS USER RUNNING 'VASP/VAMP'   (HEAR YOUR MASTER'S VOICE ...):  |
|                                                                             |
|      You have a (more or less) 'large supercell' and for larger cells       |
|      it might be more efficient to use real space projection opertators     |
|      So try LREAL= Auto  in the INCAR   file.                               |
|      Mind: At the moment your POTCAR file does not contain real space       |
|       projectors, and has to be modified,  BUT if you                       |
|      want to do an extremely  accurate calculation you might also keep the  |
|      reciprocal projection scheme          (i.e. LREAL=.FALSE.)             |
|                                                                             |
 ----------------------------------------------------------------------------- 

 LDA part: xc-table for Pade appr. of Perdew
 POSCAR, INCAR and KPOINTS ok, starting setup
 WARNING: small aliasing (wrap around) errors must be expected
 FFT: planning ...
 WAVECAR not read
 entering main loop
       N       E                     dE             d eps       ncg     rms          rms(c)
DAV:   1     0.482772046791E+04    0.48277E+04   -0.12627E+05  1536   0.633E+02
DAV:   2     0.673641340301E+03   -0.41541E+04   -0.37611E+04  2368   0.178E+02
DAV:   3    -0.876055762870E+02   -0.76125E+03   -0.70327E+03  1864   0.806E+01
DAV:   4    -0.114319770231E+03   -0.26714E+02   -0.26492E+02  1648   0.161E+01
DAV:   5    -0.114726588345E+03   -0.40682E+00   -0.40631E+00  1696   0.226E+00    0.485E+01
DAV:   6    -0.526401945555E+02    0.62086E+02   -0.18561E+02  1520   0.166E+01    0.274E+01
DAV:   7    -0.404388008558E+02    0.12201E+02   -0.12897E+01  1592   0.501E+00    0.160E+01
DAV:   8    -0.345748626331E+02    0.58639E+01   -0.33569E+00  1608   0.283E+00    0.821E+00
DAV:   9    -0.387493877237E+02   -0.41745E+01   -0.72695E-01  1640   0.111E+00    0.595E+00
DAV:  10    -0.461449394950E+02   -0.73956E+01   -0.16507E+00  1576   0.236E+00    0.488E+00
DAV:  11    -0.629637903194E+02   -0.16819E+02   -0.54246E+00  1560   0.263E+00    0.470E+00
DAV:  12    -0.733810649587E+02   -0.10417E+02   -0.39852E+00  1600   0.243E+00    0.308E+00
DAV:  13    -0.866726224100E+02   -0.13292E+02   -0.58756E+00  1536   0.238E+00    0.258E+00
DAV:  14    -0.923034206684E+02   -0.56308E+01   -0.14600E+00  1584   0.152E+00    0.197E+00
DAV:  15    -0.991886069868E+02   -0.68852E+01   -0.17735E+00  1560   0.120E+00    0.142E+00
DAV:  16    -0.105107190499E+03   -0.59186E+01   -0.13324E+00  1520   0.987E-01    0.155E+00
DAV:  17    -0.105903410960E+03   -0.79622E+00   -0.66182E-02  1728   0.430E-01    0.120E+00
DAV:  18    -0.107925968785E+03   -0.20226E+01   -0.25399E-01  1568   0.652E-01    0.704E-01
DAV:  19    -0.110102923783E+03   -0.21770E+01   -0.21130E-01  1552   0.515E-01    0.388E-01
DAV:  20    -0.110941729457E+03   -0.83881E+00   -0.31167E-02  1592   0.181E-01    0.304E-01
DAV:  21    -0.111583436940E+03   -0.64171E+00   -0.18978E-02  1592   0.167E-01    0.163E-01
DAV:  22    -0.111830016807E+03   -0.24658E+00   -0.65788E-03  1584   0.103E-01    0.880E-02
DAV:  23    -0.111897746214E+03   -0.67729E-01   -0.81628E-04  1128   0.434E-02    0.525E-02
DAV:  24    -0.111945938796E+03   -0.48193E-01   -0.12682E-03  1208   0.450E-02    0.333E-02
DAV:  25    -0.111957348150E+03   -0.11409E-01   -0.39364E-04  1080   0.195E-02    0.259E-02
DAV:  26    -0.111967061864E+03   -0.97137E-02   -0.19380E-04  1048   0.169E-02    0.157E-02
DAV:  27    -0.111973899239E+03   -0.68374E-02   -0.14419E-04  1040   0.146E-02    0.952E-03
DAV:  28    -0.111977085997E+03   -0.31868E-02   -0.31539E-05  1024   0.634E-03    0.654E-03
DAV:  29    -0.111979013853E+03   -0.19279E-02   -0.12493E-05   992   0.426E-03    0.386E-03
DAV:  30    -0.111979708631E+03   -0.69478E-03   -0.67565E-06   992   0.342E-03    0.255E-03
DAV:  31    -0.111979851826E+03   -0.14319E-03   -0.17266E-06   944   0.202E-03    0.197E-03
DAV:  32    -0.111979967716E+03   -0.11589E-03   -0.16204E-06  1016   0.173E-03    0.109E-03
DAV:  33    -0.111980041147E+03   -0.73431E-04   -0.10690E-06   960   0.126E-03
   1 F= -.11198004E+03 E0= -.11198004E+03  d E =-.111980E+03  mag=     1.0020
 curvature:   0.00 expect dE= 0.000E+00 dE for cont linesearch  0.000E+00
 trial: gam= 0.00000 g(F)=  0.925E+00 g(S)=  0.000E+00 ort = 0.000E+00 (trialstep = 0.100E+01)
 search vector abs. value=  0.925E+00
 bond charge predicted
       N       E                     dE             d eps       ncg     rms          rms(c)
DAV:   1    -0.112790383411E+03   -0.81042E+00   -0.62816E+01  1504   0.111E+01    0.112E+00
DAV:   2    -0.112819157230E+03   -0.28774E-01   -0.29411E-01  1584   0.106E+00    0.802E-01
DAV:   3    -0.112817838300E+03    0.13189E-02   -0.10415E-02  1560   0.197E-01    0.284E-01
DAV:   4    -0.112817707044E+03    0.13126E-03   -0.97149E-04  1624   0.109E-01    0.444E-02
DAV:   5    -0.112817616024E+03    0.91020E-04   -0.23026E-04  1104   0.291E-02
   2 F= -.11281762E+03 E0= -.11281762E+03  d E =-.837575E+00  mag=     1.0009
 ZBRENT: can't locate minimum, use default step
 trial-energy change:   -0.837575  1 .order   -0.839768   -0.925122   -0.754414
 step:   4.0000(harm=  5.4193)  dis= 0.07568  next Energy=  -114.486815 (dE=-0.251E+01)
 bond charge predicted
       N       E                     dE             d eps       ncg     rms          rms(c)
DAV:   1    -0.114187230988E+03   -0.13695E+01   -0.57075E+02  1504   0.338E+01    0.259E+00
DAV:   2    -0.114445630767E+03   -0.25840E+00   -0.26334E+00  1544   0.320E+00    0.204E+00
DAV:   3    -0.114436829279E+03    0.88015E-02   -0.60856E-02  1536   0.496E-01    0.109E+00
DAV:   4    -0.114434647199E+03    0.21821E-02   -0.19001E-02  1600   0.297E-01    0.134E-01
DAV:   5    -0.114434003790E+03    0.64341E-03   -0.18471E-03  1568   0.100E-01    0.798E-02
DAV:   6    -0.114433931065E+03    0.72724E-04   -0.10615E-03  1584   0.440E-02    0.278E-02
DAV:   7    -0.114434007104E+03   -0.76039E-04   -0.23976E-05  1016   0.108E-02
   3 F= -.11443401E+03 E0= -.11443401E+03  d E =-.245397E+01  mag=     1.0003
 curvature:  -2.43 expect dE=-0.480E+00 dE for cont linesearch -0.316E+00
 ZBRENT: increasing intervall
 opt :  10.0000  next Energy=  -114.068968 (dE=-0.209E+01)
 bond charge predicted
       N       E                     dE             d eps       ncg     rms          rms(c)
DAV:   1    -0.113683827835E+03    0.75010E+00   -0.23564E+03  1504   0.700E+01    0.359E+00
DAV:   2    -0.114815840791E+03   -0.11320E+01   -0.11511E+01  1528   0.690E+00    0.333E+00
DAV:   3    -0.114808800567E+03    0.70402E-02   -0.19826E-01  1584   0.884E-01    0.241E+00
DAV:   4    -0.114781543965E+03    0.27257E-01   -0.73925E-02  1560   0.489E-01    0.102E+00
DAV:   5    -0.114781907379E+03   -0.36341E-03   -0.11761E-02  1576   0.240E-01    0.233E-01
DAV:   6    -0.114781354828E+03    0.55255E-03   -0.17552E-03  1568   0.623E-02    0.127E-01
DAV:   7    -0.114781555116E+03   -0.20029E-03   -0.54144E-04  1592   0.395E-02    0.506E-02
DAV:   8    -0.114781767592E+03   -0.21248E-03   -0.22234E-05  1040   0.868E-03    0.228E-02
DAV:   9    -0.114781987228E+03   -0.21964E-03   -0.10006E-05   984   0.461E-03    0.722E-03
DAV:  10    -0.114782177993E+03   -0.19076E-03   -0.43748E-06  1016   0.253E-03    0.350E-03
DAV:  11    -0.114782408883E+03   -0.23089E-03   -0.55082E-06   992   0.204E-03    0.259E-03
DAV:  12    -0.114782609512E+03   -0.20063E-03   -0.54891E-06  1000   0.191E-03    0.273E-03
DAV:  13    -0.114782701737E+03   -0.92225E-04   -0.12787E-06  1016   0.110E-03
   4 F= -.11478270E+03 E0= -.11478270E+03  d E =-.280266E+01  mag=     1.0000
 curvature:   2.81 expect dE= 0.859E+00 dE for cont linesearch  0.108E+00
 ZBRENT: bracketing found
 ZBRENT: interpolating
 opt :   7.8839  next Energy=  -114.982619 (dE=-0.300E+01)
 bond charge predicted
       N       E                     dE             d eps       ncg     rms          rms(c)
DAV:   1    -0.114885690474E+03   -0.10308E+00   -0.28226E+02  1504   0.236E+01    0.140E+00
DAV:   2    -0.115019616347E+03   -0.13393E+00   -0.13770E+00  1536   0.229E+00    0.920E-01
DAV:   3    -0.115016516436E+03    0.30999E-02   -0.29019E-02  1592   0.324E-01    0.534E-01
DAV:   4    -0.115015144876E+03    0.13716E-02   -0.86600E-03  1576   0.178E-01    0.112E-01
DAV:   5    -0.115015072800E+03    0.72076E-04   -0.50900E-04  1600   0.551E-02
   5 F= -.11501507E+03 E0= -.11501507E+03  d E =-.303503E+01  mag=     1.0000
 curvature:  -5.18 expect dE=-0.941E+00 dE for cont linesearch -0.420E-02
 trial: gam= 0.22598 g(F)=  0.182E+00 g(S)=  0.000E+00 ort =-0.274E-01 (trialstep = 0.238E+01)
 search vector abs. value=  0.217E+00
 bond charge predicted
       N       E                     dE             d eps       ncg     rms          rms(c)
DAV:   1    -0.115349991001E+03   -0.33485E+00   -0.82148E+01  1504   0.128E+01    0.797E-01
DAV:   2    -0.115386148889E+03   -0.36158E-01   -0.35618E-01  1568   0.118E+00    0.560E-01
DAV:   3    -0.115384590488E+03    0.15584E-02   -0.74516E-03  1584   0.195E-01    0.339E-01
DAV:   4    -0.115384236593E+03    0.35389E-03   -0.42896E-03  1568   0.119E-01    0.689E-02
DAV:   5    -0.115384112350E+03    0.12424E-03   -0.32739E-04  1120   0.331E-02    0.281E-02
DAV:   6    -0.115384131214E+03   -0.18864E-04   -0.13043E-04   992   0.176E-02
   6 F= -.11538413E+03 E0= -.11538413E+03  d E =-.369058E+00  mag=     1.0000
 ZBRENT: can't locate minimum, use default step
 trial-energy change:   -0.369058  1 .order   -0.369388   -0.417052   -0.321724
 step:   9.5071(harm= 10.3982)  dis= 0.10289  next Energy=  -115.927356 (dE=-0.912E+00)
 bond charge predicted
       N       E                     dE             d eps       ncg     rms          rms(c)
DAV:   1    -0.115674440175E+03   -0.29033E+00   -0.74672E+02  1504   0.389E+01    0.196E+00
DAV:   2    -0.116004375133E+03   -0.32993E+00   -0.32675E+00  1568   0.363E+00    0.152E+00
DAV:   3    -0.115995606623E+03    0.87685E-02   -0.56467E-02  1560   0.547E-01    0.109E+00
DAV:   4    -0.115987953302E+03    0.76533E-02   -0.44703E-02  1568   0.328E-01    0.179E-01
DAV:   5    -0.115987430511E+03    0.52279E-03   -0.15468E-03  1568   0.802E-02    0.914E-02
DAV:   6    -0.115987305342E+03    0.12517E-03   -0.75865E-04  1584   0.390E-02    0.345E-02
DAV:   7    -0.115987387583E+03   -0.82241E-04   -0.36669E-05  1000   0.104E-02
   7 F= -.11598739E+03 E0= -.11598739E+03  d E =-.972315E+00  mag=     1.0000
 curvature:  -6.34 expect dE=-0.222E+00 dE for cont linesearch -0.427E-01
 ZBRENT: extrapolating
 opt :  12.3095  next Energy=  -116.040901 (dE=-0.103E+01)
 bond charge predicted
       N       E                     dE             d eps       ncg     rms          rms(c)
DAV:   1    -0.116002894530E+03   -0.15589E-01   -0.11419E+02  1504   0.151E+01    0.671E-01
DAV:   2    -0.116053439032E+03   -0.50545E-01   -0.50067E-01  1536   0.141E+00    0.508E-01
DAV:   3    -0.116052052460E+03    0.13866E-02   -0.87346E-03  1576   0.206E-01    0.361E-01
DAV:   4    -0.116050859304E+03    0.11932E-02   -0.63774E-03  1560   0.124E-01    0.653E-02
DAV:   5    -0.116050840738E+03    0.18566E-04   -0.16195E-04  1000   0.284E-02
   8 F= -.11605084E+03 E0= -.11605084E+03  d E =-.103577E+01  mag=     1.0000
 curvature:  -7.94 expect dE=-0.294E+00 dE for cont linesearch -0.238E-02
 ZBRENT: extrapolating
 opt :  13.1061  next Energy=  -116.053846 (dE=-0.104E+01)
 bond charge predicted
       N       E                     dE             d eps       ncg     rms          rms(c)
DAV:   1    -0.116049416830E+03    0.14425E-02   -0.91865E+00  1504   0.427E+00    0.188E-01
DAV:   2    -0.116053554937E+03   -0.41381E-02   -0.40986E-02  1584   0.400E-01    0.133E-01
DAV:   3    -0.116053473621E+03    0.81316E-04   -0.71875E-04  1600   0.590E-02
   9 F= -.11605347E+03 E0= -.11605347E+03  d E =-.103840E+01  mag=     1.0000
 curvature: -10.03 expect dE=-0.399E+00 dE for cont linesearch -0.106E-03
 trial: gam= 0.20658 g(F)=  0.398E-01 g(S)=  0.000E+00 ort =-0.151E-02 (trialstep = 0.452E+01)
 search vector abs. value=  0.484E-01
 bond charge predicted
       N       E                     dE             d eps       ncg     rms          rms(c)
DAV:   1    -0.116175390243E+03   -0.12184E+00   -0.66591E+01  1504   0.115E+01    0.515E-01
DAV:   2    -0.116205480324E+03   -0.30090E-01   -0.29898E-01  1560   0.108E+00    0.405E-01
DAV:   3    -0.116204781263E+03    0.69906E-03   -0.50513E-03  1576   0.147E-01    0.270E-01
DAV:   4    -0.116204120228E+03    0.66103E-03   -0.29667E-03  1600   0.861E-02    0.568E-02
DAV:   5    -0.116204142468E+03   -0.22240E-04   -0.75942E-05   992   0.225E-02
  10 F= -.11620414E+03 E0= -.11620414E+03  d E =-.150669E+00  mag=     1.0000
 trial-energy change:   -0.150669  1 .order   -0.151562   -0.178611   -0.124514
 step:  14.9325(harm= 14.9325)  dis= 0.06865  next Energy=  -116.348334 (dE=-0.295E+00)
 bond charge predicted
       N       E                     dE             d eps       ncg     rms          rms(c)
DAV:   1    -0.116198119347E+03    0.60009E-02   -0.35414E+02  1504   0.266E+01    0.105E+00
DAV:   2    -0.116358629342E+03   -0.16051E+00   -0.15924E+00  1544   0.251E+00    0.875E-01
DAV:   3    -0.116355986625E+03    0.26427E-02   -0.26087E-02  1576   0.329E-01    0.622E-01
DAV:   4    -0.116351670902E+03    0.43157E-02   -0.13687E-02  1600   0.183E-01    0.187E-01
DAV:   5    -0.116351794750E+03   -0.12385E-03   -0.98024E-04  1608   0.626E-02    0.698E-02
DAV:   6    -0.116351746232E+03    0.48518E-04   -0.20701E-04  1048   0.215E-02
  11 F= -.11635175E+03 E0= -.11635175E+03  d E =-.298273E+00  mag=     1.0000
 curvature:  -9.15 expect dE=-0.107E+00 dE for cont linesearch -0.457E-03
 trial: gam= 0.25263 g(F)=  0.117E-01 g(S)=  0.000E+00 ort = 0.156E-02 (trialstep = 0.660E+01)
 search vector abs. value=  0.155E-01
 bond charge predicted
       N       E                     dE             d eps       ncg     rms          rms(c)
DAV:   1    -0.116398963181E+03   -0.47168E-01   -0.45371E+01  1504   0.949E+00    0.306E-01
DAV:   2    -0.116419766964E+03   -0.20804E-01   -0.20357E-01  1568   0.892E-01    0.260E-01
DAV:   3    -0.116419484833E+03    0.28213E-03   -0.32983E-03  1624   0.112E-01    0.185E-01
DAV:   4    -0.116418923196E+03    0.56164E-03   -0.15191E-03  1560   0.590E-02    0.719E-02
DAV:   5    -0.116418976164E+03   -0.52969E-04   -0.27437E-04  1040   0.294E-02
  12 F= -.11641898E+03 E0= -.11641898E+03  d E =-.672299E-01  mag=     1.0000
 trial-energy change:   -0.067230  1 .order   -0.067574   -0.079569   -0.055578
 step:  21.9049(harm= 21.9049)  dis= 0.05017  next Energy=  -116.483696 (dE=-0.132E+00)
 bond charge predicted
       N       E                     dE             d eps       ncg     rms          rms(c)
DAV:   1    -0.116369826693E+03    0.49097E-01   -0.24418E+02  1504   0.221E+01    0.709E-01
DAV:   2    -0.116482264066E+03   -0.11244E+00   -0.11021E+00  1544   0.208E+00    0.594E-01
DAV:   3    -0.116480763034E+03    0.15010E-02   -0.17772E-02  1608   0.261E-01    0.421E-01
DAV:   4    -0.116477578526E+03    0.31845E-02   -0.72827E-03  1560   0.130E-01    0.175E-01
DAV:   5    -0.116477594588E+03   -0.16062E-04   -0.18047E-03  1608   0.706E-02    0.638E-02
DAV:   6    -0.116477553679E+03    0.40908E-04   -0.15706E-04  1032   0.196E-02
  13 F= -.11647755E+03 E0= -.11647755E+03  d E =-.125807E+00  mag=     1.0000
 curvature: -14.12 expect dE=-0.155E+00 dE for cont linesearch -0.264E-03
 trial: gam= 1.03280 g(F)=  0.110E-01 g(S)=  0.000E+00 ort =-0.539E-03 (trialstep = 0.568E+01)
 search vector abs. value=  0.264E-01
 bond charge predicted
       N       E                     dE             d eps       ncg     rms          rms(c)
DAV:   1    -0.116505721301E+03   -0.28127E-01   -0.56833E+01  1504   0.106E+01    0.261E-01
DAV:   2    -0.116531566519E+03   -0.25845E-01   -0.25156E-01  1560   0.996E-01    0.250E-01
DAV:   3    -0.116531266947E+03    0.29957E-03   -0.38542E-03  1632   0.122E-01    0.190E-01
DAV:   4    -0.116530448495E+03    0.81845E-03   -0.10985E-03  1552   0.503E-02    0.106E-01
DAV:   5    -0.116530349050E+03    0.99446E-04   -0.12683E-03  1576   0.527E-02    0.376E-02
DAV:   6    -0.116530376718E+03   -0.27668E-04   -0.26049E-05   952   0.827E-03
  14 F= -.11653038E+03 E0= -.11653038E+03  d E =-.528230E-01  mag=     1.0000
 ZBRENT: can't locate minimum, use default step
 trial-energy change:   -0.052823  1 .order   -0.052918   -0.059218   -0.046618
 step:  22.7066(harm= 26.6798)  dis= 0.07433  next Energy=  -116.616713 (dE=-0.139E+00)
 bond charge predicted
       N       E                     dE             d eps       ncg     rms          rms(c)
DAV:   1    -0.116378664638E+03    0.15168E+00   -0.51536E+02  1504   0.321E+01    0.922E-01
DAV:   2    -0.116617090578E+03   -0.23843E+00   -0.23272E+00  1600   0.304E+00    0.760E-01
DAV:   3    -0.116613325383E+03    0.37652E-02   -0.36330E-02  1640   0.381E-01    0.543E-01
DAV:   4    -0.116606122977E+03    0.72024E-02   -0.10981E-02  1576   0.159E-01    0.278E-01
DAV:   5    -0.116605197545E+03    0.92543E-03   -0.70335E-03  1600   0.127E-01    0.886E-02
DAV:   6    -0.116605224178E+03   -0.26633E-04   -0.20765E-04  1032   0.231E-02
  15 F= -.11660522E+03 E0= -.11660522E+03  d E =-.127670E+00  mag=     1.0000
 curvature: -32.60 expect dE=-0.233E+00 dE for cont linesearch -0.686E-03
 trial: gam= 0.32217 g(F)=  0.714E-02 g(S)=  0.000E+00 ort = 0.746E-03 (trialstep = 0.908E+01)
 search vector abs. value=  0.104E-01
 bond charge predicted
       N       E                     dE             d eps       ncg     rms          rms(c)
DAV:   1    -0.116630474859E+03   -0.25277E-01   -0.57319E+01  1504   0.107E+01    0.360E-01
DAV:   2    -0.116656527778E+03   -0.26053E-01   -0.25652E-01  1584   0.998E-01    0.295E-01
DAV:   3    -0.116656104815E+03    0.42296E-03   -0.39240E-03  1600   0.120E-01    0.205E-01
DAV:   4    -0.116655474019E+03    0.63080E-03   -0.20594E-03  1560   0.691E-02    0.731E-02
DAV:   5    -0.116655578438E+03   -0.10442E-03   -0.23900E-04  1064   0.293E-02    0.273E-02
DAV:   6    -0.116655615339E+03   -0.36901E-04   -0.42623E-05   968   0.112E-02
  16 F= -.11665562E+03 E0= -.11665562E+03  d E =-.503912E-01  mag=     1.0000
 trial-energy change:   -0.050391  1 .order   -0.050890   -0.067066   -0.034714
 step:  21.5705(harm= 18.8282)  dis= 0.04213  next Energy=  -116.678184 (dE=-0.730E-01)
 bond charge predicted
       N       E                     dE             d eps       ncg     rms          rms(c)
DAV:   1    -0.116623511283E+03    0.32067E-01   -0.10845E+02  1504   0.147E+01    0.507E-01
DAV:   2    -0.116672861526E+03   -0.49350E-01   -0.48667E-01  1568   0.138E+00    0.407E-01
DAV:   3    -0.116671975220E+03    0.88631E-03   -0.75340E-03  1592   0.168E-01    0.280E-01
DAV:   4    -0.116670655081E+03    0.13201E-02   -0.39309E-03  1552   0.955E-02    0.960E-02
DAV:   5    -0.116670739786E+03   -0.84705E-04   -0.44246E-04  1600   0.384E-02
  17 F= -.11667074E+03 E0= -.11667074E+03  d E =-.655156E-01  mag=     1.0000
 curvature: -12.17 expect dE=-0.715E-01 dE for cont linesearch -0.197E-02
 ZBRENT: interpolating
 opt :  18.4073  next Energy=  -116.672790 (dE=-0.676E-01)
 bond charge predicted
       N       E                     dE             d eps       ncg     rms          rms(c)
DAV:   1    -0.116670004591E+03    0.65049E-03   -0.69647E+00  1504   0.372E+00    0.120E-01
DAV:   2    -0.116673148289E+03   -0.31437E-02   -0.30403E-02  1608   0.346E-01    0.106E-01
DAV:   3    -0.116673106948E+03    0.41341E-04   -0.48459E-04  1640   0.420E-02
  18 F= -.11667311E+03 E0= -.11667311E+03  d E =-.678828E-01  mag=     1.0000
 curvature: -12.65 expect dE=-0.510E-01 dE for cont linesearch -0.233E-05
 trial: gam= 0.58250 g(F)=  0.403E-02 g(S)=  0.000E+00 ort =-0.437E-04 (trialstep = 0.109E+02)
 search vector abs. value=  0.750E-02
 bond charge predicted
       N       E                     dE             d eps       ncg     rms          rms(c)
DAV:   1    -0.116679172252E+03   -0.60240E-02   -0.60099E+01  1504   0.109E+01    0.320E-01
DAV:   2    -0.116706918133E+03   -0.27746E-01   -0.26937E-01  1576   0.103E+00    0.279E-01
DAV:   3    -0.116706535459E+03    0.38267E-03   -0.42157E-03  1624   0.126E-01    0.204E-01
DAV:   4    -0.116705665100E+03    0.87036E-03   -0.18339E-03  1560   0.641E-02    0.875E-02
DAV:   5    -0.116705667966E+03   -0.28655E-05   -0.60916E-04  1608   0.395E-02
  19 F= -.11670567E+03 E0= -.11670567E+03  d E =-.325610E-01  mag=     1.0000
 trial-energy change:   -0.032561  1 .order   -0.032834   -0.043868   -0.021800
 step:  21.7623(harm= 21.7623)  dis= 0.03963  next Energy=  -116.716709 (dE=-0.436E-01)
 bond charge predicted
       N       E                     dE             d eps       ncg     rms          rms(c)
DAV:   1    -0.116689144711E+03    0.16520E-01   -0.58647E+01  1504   0.108E+01    0.323E-01
DAV:   2    -0.116716111216E+03   -0.26967E-01   -0.26330E-01  1568   0.101E+00    0.275E-01
DAV:   3    -0.116715745989E+03    0.36523E-03   -0.41286E-03  1600   0.125E-01    0.198E-01
DAV:   4    -0.116714959412E+03    0.78658E-03   -0.17675E-03  1568   0.634E-02    0.830E-02
DAV:   5    -0.116714979079E+03   -0.19666E-04   -0.53797E-04  1592   0.376E-02
  20 F= -.11671498E+03 E0= -.11671498E+03  d E =-.418721E-01  mag=     1.0000
 curvature: -20.37 expect dE=-0.745E-01 dE for cont linesearch -0.483E-04
 trial: gam= 0.88412 g(F)=  0.366E-02 g(S)=  0.000E+00 ort =-0.133E-03 (trialstep = 0.106E+02)
 search vector abs. value=  0.928E-02
 bond charge predicted
       N       E                     dE             d eps       ncg     rms          rms(c)
DAV:   1    -0.116714022361E+03    0.93705E-03   -0.69471E+01  1504   0.117E+01    0.314E-01
DAV:   2    -0.116746041729E+03   -0.32019E-01   -0.30817E-01  1552   0.110E+00    0.274E-01
DAV:   3    -0.116745597276E+03    0.44445E-03   -0.46751E-03  1624   0.132E-01    0.205E-01
DAV:   4    -0.116744563254E+03    0.10340E-02   -0.18975E-03  1560   0.653E-02    0.921E-02
DAV:   5    -0.116744533829E+03    0.29425E-04   -0.94392E-04  1600   0.473E-02
  21 F= -.11674453E+03 E0= -.11674453E+03  d E =-.295548E-01  mag=     1.0000
 trial-energy change:   -0.029555  1 .order   -0.030377   -0.037488   -0.023265
 step:  27.9147(harm= 27.9147)  dis= 0.06935  next Energy=  -116.764384 (dE=-0.494E-01)
 bond charge predicted
       N       E                     dE             d eps       ncg     rms          rms(c)
DAV:   1    -0.116677491600E+03    0.67072E-01   -0.18623E+02  1504   0.192E+01    0.555E-01
DAV:   2    -0.116763114753E+03   -0.85623E-01   -0.82975E-01  1560   0.180E+00    0.452E-01
DAV:   3    -0.116761613598E+03    0.15012E-02   -0.12677E-02  1632   0.219E-01    0.329E-01
DAV:   4    -0.116758861626E+03    0.27520E-02   -0.56377E-03  1568   0.112E-01    0.134E-01
DAV:   5    -0.116758823098E+03    0.38528E-04   -0.17912E-03  1616   0.664E-02    0.523E-02
DAV:   6    -0.116758809176E+03    0.13922E-04   -0.10831E-04   952   0.166E-02
  22 F= -.11675881E+03 E0= -.11675881E+03  d E =-.438301E-01  mag=     1.0000
 curvature: -36.61 expect dE=-0.116E+00 dE for cont linesearch -0.778E-03
 trial: gam= 0.81971 g(F)=  0.318E-02 g(S)=  0.000E+00 ort =-0.444E-03 (trialstep = 0.141E+02)
 search vector abs. value=  0.869E-02
 bond charge predicted
       N       E                     dE             d eps       ncg     rms          rms(c)
DAV:   1    -0.116737643155E+03    0.21180E-01   -0.11447E+02  1504   0.151E+01    0.373E-01
DAV:   2    -0.116789137085E+03   -0.51494E-01   -0.50232E-01  1552   0.141E+00    0.371E-01
DAV:   3    -0.116788356291E+03    0.78079E-03   -0.76250E-03  1656   0.169E-01    0.284E-01
DAV:   4    -0.116786309950E+03    0.20463E-02   -0.27029E-03  1584   0.777E-02    0.154E-01
DAV:   5    -0.116785990944E+03    0.31901E-03   -0.25783E-03  1592   0.763E-02    0.569E-02
DAV:   6    -0.116786018689E+03   -0.27745E-04   -0.46345E-05   960   0.114E-02
  23 F= -.11678602E+03 E0= -.11678602E+03  d E =-.272095E-01  mag=     1.0000
 trial-energy change:   -0.027210  1 .order   -0.027850   -0.039518   -0.016182
 step:  28.7504(harm= 23.8022)  dis= 0.07690  next Energy=  -116.793746 (dE=-0.349E-01)
 bond charge predicted
       N       E                     dE             d eps       ncg     rms          rms(c)
DAV:   1    -0.116735211485E+03    0.50779E-01   -0.12512E+02  1504   0.158E+01    0.397E-01
DAV:   2    -0.116791112608E+03   -0.55901E-01   -0.54882E-01  1544   0.147E+00    0.388E-01
DAV:   3    -0.116790222570E+03    0.89004E-03   -0.83384E-03  1656   0.177E-01    0.294E-01
DAV:   4    -0.116788024938E+03    0.21976E-02   -0.30460E-03  1568   0.823E-02    0.156E-01
DAV:   5    -0.116787737953E+03    0.28699E-03   -0.25830E-03  1608   0.766E-02    0.576E-02
DAV:   6    -0.116787769753E+03   -0.31801E-04   -0.51215E-05   952   0.119E-02
  24 F= -.11678777E+03 E0= -.11678777E+03  d E =-.289606E-01  mag=     1.0000
 curvature: -27.29 expect dE=-0.102E+00 dE for cont linesearch -0.186E-02
 ZBRENT: interpolating
 opt :  22.8672  next Energy=  -116.790031 (dE=-0.312E-01)
 bond charge predicted
       N       E                     dE             d eps       ncg     rms          rms(c)
DAV:   1    -0.116782214919E+03    0.55230E-02   -0.20046E+01  1504   0.631E+00    0.149E-01
DAV:   2    -0.116791124093E+03   -0.89092E-02   -0.86888E-02  1576   0.585E-01    0.156E-01
DAV:   3    -0.116791020895E+03    0.10320E-03   -0.13303E-03  1664   0.703E-02    0.124E-01
DAV:   4    -0.116790694102E+03    0.32679E-03   -0.44271E-04  1560   0.315E-02    0.707E-02
DAV:   5    -0.116790668941E+03    0.25162E-04   -0.58884E-04  1584   0.362E-02
  25 F= -.11679067E+03 E0= -.11679067E+03  d E =-.318598E-01  mag=     1.0000
 curvature: -33.24 expect dE=-0.848E-01 dE for cont linesearch -0.113E-03
 trial: gam= 0.56196 g(F)=  0.255E-02 g(S)=  0.000E+00 ort =-0.172E-03 (trialstep = 0.158E+02)
 search vector abs. value=  0.510E-02
 bond charge predicted
       N       E                     dE             d eps       ncg     rms          rms(c)
DAV:   1    -0.116782104087E+03    0.85900E-02   -0.85189E+01  1504   0.130E+01    0.342E-01
DAV:   2    -0.116819935633E+03   -0.37832E-01   -0.37067E-01  1568   0.121E+00    0.348E-01
DAV:   3    -0.116819367268E+03    0.56837E-03   -0.56751E-03  1624   0.145E-01    0.270E-01
DAV:   4    -0.116817695727E+03    0.16715E-02   -0.24425E-03  1560   0.742E-02    0.143E-01
DAV:   5    -0.116817494201E+03    0.20153E-03   -0.18359E-03  1584   0.653E-02    0.553E-02
DAV:   6    -0.116817488127E+03    0.60736E-05   -0.45179E-05   920   0.108E-02
  26 F= -.11681749E+03 E0= -.11681749E+03  d E =-.268192E-01  mag=     1.0000
 trial-energy change:   -0.026819  1 .order   -0.026776   -0.038813   -0.014739
 step:  25.5025(harm= 25.5025)  dis= 0.03480  next Energy=  -116.821957 (dE=-0.313E-01)
 bond charge predicted
       N       E                     dE             d eps       ncg     rms          rms(c)
DAV:   1    -0.116807989254E+03    0.95049E-02   -0.31878E+01  1504   0.795E+00    0.211E-01
DAV:   2    -0.116822229830E+03   -0.14241E-01   -0.13956E-01  1568   0.741E-01    0.209E-01
DAV:   3    -0.116822037164E+03    0.19267E-03   -0.21337E-03  1592   0.891E-02    0.159E-01
DAV:   4    -0.116821469618E+03    0.56755E-03   -0.87402E-04  1576   0.447E-02    0.839E-02
DAV:   5    -0.116821423847E+03    0.45771E-04   -0.63474E-04  1584   0.386E-02
  27 F= -.11682142E+03 E0= -.11682142E+03  d E =-.307549E-01  mag=     1.0000
 curvature: -26.50 expect dE=-0.672E-01 dE for cont linesearch -0.142E-06
 trial: gam= 1.01969 g(F)=  0.254E-02 g(S)=  0.000E+00 ort = 0.522E-05 (trialstep = 0.115E+02)
 search vector abs. value=  0.785E-02
 bond charge predicted
       N       E                     dE             d eps       ncg     rms          rms(c)
DAV:   1    -0.116813195152E+03    0.82745E-02   -0.69629E+01  1504   0.118E+01    0.295E-01
DAV:   2    -0.116844660017E+03   -0.31465E-01   -0.30275E-01  1568   0.109E+00    0.303E-01
DAV:   3    -0.116844330368E+03    0.32965E-03   -0.46258E-03  1592   0.131E-01    0.234E-01
DAV:   4    -0.116843100622E+03    0.12297E-02   -0.16806E-03  1560   0.621E-02    0.132E-01
DAV:   5    -0.116842937758E+03    0.16286E-03   -0.16720E-03  1584   0.619E-02    0.503E-02
DAV:   6    -0.116842949095E+03   -0.11337E-04   -0.31034E-05   920   0.928E-03
  28 F= -.11684295E+03 E0= -.11684295E+03  d E =-.215252E-01  mag=     1.0000
 trial-energy change:   -0.021525  1 .order   -0.022286   -0.029310   -0.015261
 step:  24.0692(harm= 24.0692)  dis= 0.05357  next Energy=  -116.851998 (dE=-0.306E-01)
 bond charge predicted
       N       E                     dE             d eps       ncg     rms          rms(c)
DAV:   1    -0.116815129935E+03    0.27808E-01   -0.82182E+01  1504   0.128E+01    0.318E-01
DAV:   2    -0.116852077871E+03   -0.36948E-01   -0.35630E-01  1568   0.119E+00    0.330E-01
DAV:   3    -0.116851625040E+03    0.45283E-03   -0.54161E-03  1592   0.142E-01    0.257E-01
DAV:   4    -0.116850117016E+03    0.15080E-02   -0.20015E-03  1560   0.675E-02    0.146E-01
DAV:   5    -0.116849888384E+03    0.22863E-03   -0.20576E-03  1568   0.684E-02    0.556E-02
DAV:   6    -0.116849897481E+03   -0.90973E-05   -0.34204E-05   896   0.987E-03
  29 F= -.11684990E+03 E0= -.11684990E+03  d E =-.284736E-01  mag=     1.0000
 curvature: -37.18 expect dE=-0.760E-01 dE for cont linesearch -0.656E-04
 trial: gam= 0.84984 g(F)=  0.204E-02 g(S)=  0.000E+00 ort =-0.118E-03 (trialstep = 0.140E+02)
 search vector abs. value=  0.751E-02
 bond charge predicted
       N       E                     dE             d eps       ncg     rms          rms(c)
DAV:   1    -0.116827990531E+03    0.21898E-01   -0.98764E+01  1504   0.140E+01    0.313E-01
DAV:   2    -0.116872267251E+03   -0.44277E-01   -0.42625E-01  1568   0.130E+00    0.336E-01
DAV:   3    -0.116871734182E+03    0.53307E-03   -0.63487E-03  1632   0.152E-01    0.267E-01
DAV:   4    -0.116869992079E+03    0.17421E-02   -0.18398E-03  1568   0.647E-02    0.162E-01
DAV:   5    -0.116869502255E+03    0.48982E-03   -0.30676E-03  1592   0.819E-02    0.589E-02
DAV:   6    -0.116869530919E+03   -0.28663E-04   -0.32593E-05   952   0.102E-02
  30 F= -.11686953E+03 E0= -.11686953E+03  d E =-.196334E-01  mag=     1.0000
 trial-energy change:   -0.019633  1 .order   -0.020526   -0.027310   -0.013741
 step:  28.2655(harm= 28.2655)  dis= 0.04831  next Energy=  -116.877381 (dE=-0.275E-01)
 bond charge predicted
       N       E                     dE             d eps       ncg     rms          rms(c)
DAV:   1    -0.116831976483E+03    0.37526E-01   -0.10129E+02  1504   0.142E+01    0.319E-01
DAV:   2    -0.116876921819E+03   -0.44945E-01   -0.43670E-01  1560   0.131E+00    0.339E-01
DAV:   3    -0.116876346077E+03    0.57574E-03   -0.65095E-03  1616   0.154E-01    0.268E-01
DAV:   4    -0.116874576213E+03    0.17699E-02   -0.19059E-03  1568   0.658E-02    0.162E-01
DAV:   5    -0.116874102807E+03    0.47341E-03   -0.30349E-03  1576   0.815E-02    0.587E-02
DAV:   6    -0.116874132545E+03   -0.29738E-04   -0.33022E-05   952   0.102E-02
  31 F= -.11687413E+03 E0= -.11687413E+03  d E =-.242351E-01  mag=     1.0000
 curvature: -54.60 expect dE=-0.104E+00 dE for cont linesearch -0.133E-03
 trial: gam= 0.69902 g(F)=  0.191E-02 g(S)=  0.000E+00 ort =-0.135E-03 (trialstep = 0.169E+02)
 search vector abs. value=  0.539E-02
 bond charge predicted
       N       E                     dE             d eps       ncg     rms          rms(c)
DAV:   1    -0.116853729152E+03    0.20374E-01   -0.10260E+02  1504   0.143E+01    0.326E-01
DAV:   2    -0.116899985803E+03   -0.46257E-01   -0.44618E-01  1568   0.133E+00    0.333E-01
DAV:   3    -0.116899401288E+03    0.58452E-03   -0.66847E-03  1632   0.157E-01    0.260E-01
DAV:   4    -0.116897706568E+03    0.16947E-02   -0.18843E-03  1576   0.656E-02    0.152E-01
DAV:   5    -0.116897279029E+03    0.42754E-03   -0.28094E-03  1600   0.781E-02    0.532E-02
DAV:   6    -0.116897305527E+03   -0.26497E-04   -0.35499E-05   960   0.102E-02
  32 F= -.11689731E+03 E0= -.11689731E+03  d E =-.231730E-01  mag=     1.0000
 trial-energy change:   -0.023173  1 .order   -0.024253   -0.030650   -0.017855
 step:  40.4536(harm= 40.4536)  dis= 0.07190  next Energy=  -116.910843 (dE=-0.367E-01)
 bond charge predicted
       N       E                     dE             d eps       ncg     rms          rms(c)
DAV:   1    -0.116821861261E+03    0.75418E-01   -0.20021E+02  1504   0.200E+01    0.477E-01
DAV:   2    -0.116911503782E+03   -0.89643E-01   -0.87209E-01  1576   0.185E+00    0.466E-01
DAV:   3    -0.116910190155E+03    0.13136E-02   -0.13107E-02  1640   0.220E-01    0.359E-01
DAV:   4    -0.116906876772E+03    0.33134E-02   -0.39922E-03  1576   0.952E-02    0.201E-01
DAV:   5    -0.116906164356E+03    0.71242E-03   -0.45624E-03  1584   0.100E-01    0.683E-02
DAV:   6    -0.116906207915E+03   -0.43560E-04   -0.63890E-05   968   0.137E-02
  33 F= -.11690621E+03 E0= -.11690621E+03  d E =-.320754E-01  mag=     1.0000
 curvature: -60.09 expect dE=-0.172E+00 dE for cont linesearch -0.195E-03
 trial: gam= 1.37964 g(F)=  0.286E-02 g(S)=  0.000E+00 ort =-0.132E-03 (trialstep = 0.913E+01)
 search vector abs. value=  0.128E-01
 bond charge predicted
       N       E                     dE             d eps       ncg     rms          rms(c)
DAV:   1    -0.116893795289E+03    0.12369E-01   -0.70911E+01  1504   0.119E+01    0.286E-01
DAV:   2    -0.116925510977E+03   -0.31716E-01   -0.30911E-01  1560   0.110E+00    0.276E-01
DAV:   3    -0.116925047039E+03    0.46394E-03   -0.46637E-03  1616   0.132E-01    0.212E-01
DAV:   4    -0.116923916411E+03    0.11306E-02   -0.14699E-03  1544   0.574E-02    0.115E-01
DAV:   5    -0.116923756079E+03    0.16033E-03   -0.16146E-03  1552   0.594E-02    0.408E-02
DAV:   6    -0.116923786092E+03   -0.30013E-04   -0.28089E-05   976   0.872E-03
  34 F= -.11692379E+03 E0= -.11692379E+03  d E =-.175782E-01  mag=     1.0000
 trial-energy change:   -0.017578  1 .order   -0.018321   -0.024425   -0.012218
 step:  18.2702(harm= 18.2702)  dis= 0.05246  next Energy=  -116.930643 (dE=-0.244E-01)
 bond charge predicted
       N       E                     dE             d eps       ncg     rms          rms(c)
DAV:   1    -0.116899184918E+03    0.24571E-01   -0.71053E+01  1504   0.119E+01    0.290E-01
DAV:   2    -0.116930976324E+03   -0.31791E-01   -0.30967E-01  1560   0.110E+00    0.278E-01
DAV:   3    -0.116930511113E+03    0.46521E-03   -0.46829E-03  1624   0.133E-01    0.213E-01
DAV:   4    -0.116929360501E+03    0.11506E-02   -0.15479E-03  1544   0.588E-02    0.112E-01
DAV:   5    -0.116929201875E+03    0.15863E-03   -0.15353E-03  1576   0.582E-02    0.404E-02
DAV:   6    -0.116929220227E+03   -0.18353E-04   -0.30110E-05   928   0.894E-03
  35 F= -.11692922E+03 E0= -.11692922E+03  d E =-.230123E-01  mag=     1.0000
 curvature: -43.56 expect dE=-0.824E-01 dE for cont linesearch -0.332E-05
 trial: gam= 0.40169 g(F)=  0.189E-02 g(S)=  0.000E+00 ort =-0.312E-04 (trialstep = 0.110E+02)
 search vector abs. value=  0.393E-02
 bond charge predicted
       N       E                     dE             d eps       ncg     rms          rms(c)
DAV:   1    -0.116931469222E+03   -0.22673E-02   -0.31468E+01  1504   0.789E+00    0.203E-01
DAV:   2    -0.116945864219E+03   -0.14395E-01   -0.13952E-01  1576   0.741E-01    0.196E-01
DAV:   3    -0.116945706228E+03    0.15799E-03   -0.20927E-03  1624   0.898E-02    0.148E-01
DAV:   4    -0.116945244316E+03    0.46191E-03   -0.72049E-04  1568   0.406E-02    0.792E-02
DAV:   5    -0.116945220637E+03    0.23678E-04   -0.64438E-04  1560   0.379E-02
  36 F= -.11694522E+03 E0= -.11694522E+03  d E =-.160004E-01  mag=     1.0000
 trial-energy change:   -0.016000  1 .order   -0.016427   -0.020604   -0.012250
 step:  27.0267(harm= 27.0267)  dis= 0.05105  next Energy=  -116.954627 (dE=-0.254E-01)
 bond charge predicted
       N       E                     dE             d eps       ncg     rms          rms(c)
DAV:   1    -0.116922950288E+03    0.22294E-01   -0.67688E+01  1504   0.116E+01    0.306E-01
DAV:   2    -0.116954118904E+03   -0.31169E-01   -0.30172E-01  1560   0.109E+00    0.288E-01
DAV:   3    -0.116953769839E+03    0.34906E-03   -0.45603E-03  1592   0.133E-01    0.214E-01
DAV:   4    -0.116952778294E+03    0.99155E-03   -0.15568E-03  1552   0.597E-02    0.112E-01
DAV:   5    -0.116952695133E+03    0.83161E-04   -0.12407E-03  1576   0.529E-02    0.407E-02
DAV:   6    -0.116952687080E+03    0.80531E-05   -0.42230E-05   920   0.999E-03
  37 F= -.11695269E+03 E0= -.11695269E+03  d E =-.234669E-01  mag=     1.0000
 curvature: -28.21 expect dE=-0.390E-01 dE for cont linesearch -0.858E-04
 trial: gam= 0.77927 g(F)=  0.138E-02 g(S)=  0.000E+00 ort =-0.109E-03 (trialstep = 0.142E+02)
 search vector abs. value=  0.360E-02
 bond charge predicted
       N       E                     dE             d eps       ncg     rms          rms(c)
DAV:   1    -0.116943809390E+03    0.88857E-02   -0.48208E+01  1504   0.977E+00    0.250E-01
DAV:   2    -0.116965821358E+03   -0.22012E-01   -0.21427E-01  1560   0.922E-01    0.245E-01
DAV:   3    -0.116965539002E+03    0.28236E-03   -0.32474E-03  1600   0.114E-01    0.185E-01
DAV:   4    -0.116964773647E+03    0.76535E-03   -0.10653E-03  1584   0.493E-02    0.102E-01
DAV:   5    -0.116964666959E+03    0.10669E-03   -0.10822E-03  1568   0.489E-02    0.373E-02
DAV:   6    -0.116964665249E+03    0.17100E-05   -0.28639E-05   920   0.827E-03
  38 F= -.11696467E+03 E0= -.11696467E+03  d E =-.119782E-01  mag=     1.0000
 trial-energy change:   -0.011978  1 .order   -0.012179   -0.018394   -0.005964
 step:  20.9720(harm= 20.9720)  dis= 0.02582  next Energy=  -116.966297 (dE=-0.136E-01)
 bond charge predicted
       N       E                     dE             d eps       ncg     rms          rms(c)
DAV:   1    -0.116961092722E+03    0.35742E-02   -0.11086E+01  1504   0.468E+00    0.120E-01
DAV:   2    -0.116966147973E+03   -0.50553E-02   -0.49322E-02  1560   0.442E-01    0.117E-01
DAV:   3    -0.116966091554E+03    0.56419E-04   -0.74482E-04  1592   0.544E-02
  39 F= -.11696609E+03 E0= -.11696609E+03  d E =-.134045E-01  mag=     1.0000
 curvature: -29.06 expect dE=-0.250E-01 dE for cont linesearch -0.234E-05
 trial: gam= 0.49731 g(F)=  0.860E-03 g(S)=  0.000E+00 ort =-0.170E-04 (trialstep = 0.155E+02)
 search vector abs. value=  0.173E-02
 bond charge predicted
       N       E                     dE             d eps       ncg     rms          rms(c)
DAV:   1    -0.116962643180E+03    0.35048E-02   -0.27957E+01  1504   0.745E+00    0.219E-01
DAV:   2    -0.116975104742E+03   -0.12462E-01   -0.12275E-01  1560   0.697E-01    0.206E-01
DAV:   3    -0.116974859743E+03    0.24500E-03   -0.18666E-03  1592   0.844E-02    0.154E-01
DAV:   4    -0.116974320202E+03    0.53954E-03   -0.11152E-03  1576   0.495E-02    0.656E-02
DAV:   5    -0.116974315620E+03    0.45819E-05   -0.33247E-04  1152   0.295E-02
  40 F= -.11697432E+03 E0= -.11697432E+03  d E =-.822407E-02  mag=     1.0000
 trial-energy change:   -0.008224  1 .order   -0.009025   -0.013232   -0.004818
 step:  24.4264(harm= 24.4264)  dis= 0.01990  next Energy=  -116.976496 (dE=-0.104E-01)
 bond charge predicted
       N       E                     dE             d eps       ncg     rms          rms(c)
DAV:   1    -0.116971068805E+03    0.32514E-02   -0.91441E+00  1504   0.426E+00    0.123E-01
DAV:   2    -0.116975268086E+03   -0.41993E-02   -0.41010E-02  1560   0.401E-01    0.108E-01
DAV:   3    -0.116975219575E+03    0.48511E-04   -0.62445E-04  1592   0.497E-02
  41 F= -.11697522E+03 E0= -.11697522E+03  d E =-.912802E-02  mag=     1.0000
 curvature: -24.84 expect dE=-0.194E-01 dE for cont linesearch -0.928E-04
 trial: gam= 0.99751 g(F)=  0.781E-03 g(S)=  0.000E+00 ort =-0.804E-04 (trialstep = 0.128E+02)
 search vector abs. value=  0.234E-02
 bond charge predicted
       N       E                     dE             d eps       ncg     rms          rms(c)
DAV:   1    -0.116971058576E+03    0.42095E-02   -0.25608E+01  1504   0.713E+00    0.174E-01
DAV:   2    -0.116982556572E+03   -0.11498E-01   -0.11124E-01  1576   0.663E-01    0.181E-01
DAV:   3    -0.116982405272E+03    0.15130E-03   -0.16205E-03  1592   0.772E-02    0.144E-01
DAV:   4    -0.116981904588E+03    0.50068E-03   -0.68209E-04  1584   0.390E-02    0.783E-02
DAV:   5    -0.116981838803E+03    0.65785E-04   -0.68549E-04  1584   0.390E-02
  42 F= -.11698184E+03 E0= -.11698184E+03  d E =-.661923E-02  mag=     1.0000
 trial-energy change:   -0.006619  1 .order   -0.007154   -0.008967   -0.005342
 step:  31.6434(harm= 31.6434)  dis= 0.03706  next Energy=  -116.986309 (dE=-0.111E-01)
 bond charge predicted
       N       E                     dE             d eps       ncg     rms          rms(c)
DAV:   1    -0.116959707668E+03    0.22197E-01   -0.55548E+01  1504   0.105E+01    0.250E-01
DAV:   2    -0.116984949751E+03   -0.25242E-01   -0.24473E-01  1544   0.982E-01    0.249E-01
DAV:   3    -0.116984680548E+03    0.26920E-03   -0.37363E-03  1600   0.118E-01    0.192E-01
DAV:   4    -0.116983814001E+03    0.86655E-03   -0.10601E-03  1568   0.492E-02    0.111E-01
DAV:   5    -0.116983646022E+03    0.16798E-03   -0.13637E-03  1576   0.547E-02    0.398E-02
DAV:   6    -0.116983661978E+03   -0.15956E-04   -0.22829E-05   928   0.789E-03
  43 F= -.11698366E+03 E0= -.11698366E+03  d E =-.844240E-02  mag=     1.0000
 curvature: -52.93 expect dE=-0.577E-01 dE for cont linesearch -0.419E-03
 trial: gam= 1.34282 g(F)=  0.109E-02 g(S)=  0.000E+00 ort =-0.136E-03 (trialstep = 0.784E+01)
 search vector abs. value=  0.495E-02
 bond charge predicted
       N       E                     dE             d eps       ncg     rms          rms(c)
DAV:   1    -0.116980412102E+03    0.32339E-02   -0.20280E+01  1504   0.634E+00    0.143E-01
DAV:   2    -0.116989626896E+03   -0.92148E-02   -0.88838E-02  1584   0.591E-01    0.145E-01
DAV:   3    -0.116989517182E+03    0.10971E-03   -0.12767E-03  1584   0.692E-02    0.114E-01
DAV:   4    -0.116989197903E+03    0.31928E-03   -0.35146E-04  1312   0.286E-02    0.671E-02
DAV:   5    -0.116989133044E+03    0.64859E-04   -0.62042E-04  1544   0.376E-02
  44 F= -.11698913E+03 E0= -.11698913E+03  d E =-.547107E-02  mag=     1.0000
 trial-energy change:   -0.005471  1 .order   -0.005932   -0.007116   -0.004747
 step:  23.5581(harm= 23.5581)  dis= 0.04308  next Energy=  -116.994351 (dE=-0.107E-01)
 bond charge predicted
       N       E                     dE             d eps       ncg     rms          rms(c)
DAV:   1    -0.116956790254E+03    0.32408E-01   -0.81562E+01  1504   0.127E+01    0.293E-01
DAV:   2    -0.116993699041E+03   -0.36909E-01   -0.35825E-01  1560   0.119E+00    0.291E-01
DAV:   3    -0.116993203310E+03    0.49573E-03   -0.51826E-03  1592   0.140E-01    0.226E-01
DAV:   4    -0.116991916557E+03    0.12868E-02   -0.14638E-03  1592   0.573E-02    0.130E-01
DAV:   5    -0.116991597870E+03    0.31869E-03   -0.20830E-03  1552   0.673E-02    0.445E-02
DAV:   6    -0.116991622096E+03   -0.24226E-04   -0.28024E-05   952   0.916E-03
  45 F= -.11699162E+03 E0= -.11699162E+03  d E =-.796012E-02  mag=     1.0000
 curvature: -64.29 expect dE=-0.527E-01 dE for cont linesearch -0.186E-03
 trial: gam= 0.54428 g(F)=  0.820E-03 g(S)=  0.000E+00 ort =-0.120E-03 (trialstep = 0.110E+02)
 search vector abs. value=  0.216E-02
 bond charge predicted
       N       E                     dE             d eps       ncg     rms          rms(c)
DAV:   1    -0.116990665247E+03    0.93262E-03   -0.17333E+01  1504   0.586E+00    0.135E-01
DAV:   2    -0.116998596734E+03   -0.79315E-02   -0.76744E-02  1576   0.549E-01    0.136E-01
DAV:   3    -0.116998516411E+03    0.80322E-04   -0.11271E-03  1608   0.654E-02    0.105E-01
DAV:   4    -0.116998261035E+03    0.25538E-03   -0.28022E-04  1000   0.262E-02    0.640E-02
DAV:   5    -0.116998221420E+03    0.39615E-04   -0.56741E-04  1584   0.368E-02
  46 F= -.11699822E+03 E0= -.11699822E+03  d E =-.659932E-02  mag=     1.0000
 trial-energy change:   -0.006599  1 .order   -0.007020   -0.008288   -0.005751
 step:  35.8932(harm= 35.8932)  dis= 0.03758  next Energy=  -117.005162 (dE=-0.135E-01)
 bond charge predicted
       N       E                     dE             d eps       ncg     rms          rms(c)
DAV:   1    -0.116963676699E+03    0.34584E-01   -0.89260E+01  1504   0.133E+01    0.318E-01
DAV:   2    -0.117004738413E+03   -0.41062E-01   -0.39732E-01  1568   0.125E+00    0.310E-01
DAV:   3    -0.117004277157E+03    0.46126E-03   -0.58736E-03  1576   0.150E-01    0.236E-01
DAV:   4    -0.117002923881E+03    0.13533E-02   -0.16332E-03  1584   0.609E-02    0.136E-01
DAV:   5    -0.117002631417E+03    0.29246E-03   -0.21351E-03  1560   0.681E-02    0.468E-02
DAV:   6    -0.117002650499E+03   -0.19081E-04   -0.36062E-05   944   0.995E-03
  47 F= -.11700265E+03 E0= -.11700265E+03  d E =-.110284E-01  mag=     1.0000
 curvature: -51.30 expect dE=-0.651E-01 dE for cont linesearch -0.123E-03
 trial: gam= 1.57872 g(F)=  0.127E-02 g(S)=  0.000E+00 ort =-0.718E-04 (trialstep = 0.537E+01)
 search vector abs. value=  0.642E-02
 bond charge predicted
       N       E                     dE             d eps       ncg     rms          rms(c)
DAV:   1    -0.117002533555E+03    0.97863E-04   -0.12298E+01  1504   0.493E+00    0.109E-01
DAV:   2    -0.117008264520E+03   -0.57310E-02   -0.54712E-02  1584   0.464E-01    0.114E-01
DAV:   3    -0.117008226510E+03    0.38010E-04   -0.80601E-04  1576   0.554E-02
  48 F= -.11700823E+03 E0= -.11700823E+03  d E =-.557601E-02  mag=     1.0000
 ZBRENT: can't locate minimum, use default step
 trial-energy change:   -0.005576  1 .order   -0.005607   -0.006202   -0.005012
 step:  21.4620(harm= 27.9684)  dis= 0.04373  next Energy=  -117.018816 (dE=-0.162E-01)
 bond charge predicted
       N       E                     dE             d eps       ncg     rms          rms(c)
DAV:   1    -0.116968630888E+03    0.39634E-01   -0.11102E+02  1504   0.148E+01    0.352E-01
DAV:   2    -0.117019405510E+03   -0.50775E-01   -0.48860E-01  1560   0.139E+00    0.369E-01
DAV:   3    -0.117018724821E+03    0.68069E-03   -0.72134E-03  1624   0.165E-01    0.290E-01
DAV:   4    -0.117016633606E+03    0.20912E-02   -0.24984E-03  1560   0.747E-02    0.168E-01
DAV:   5    -0.117016186364E+03    0.44724E-03   -0.32517E-03  1560   0.843E-02    0.615E-02
DAV:   6    -0.117016222152E+03   -0.35788E-04   -0.51759E-05   952   0.120E-02
  49 F= -.11701622E+03 E0= -.11701622E+03  d E =-.135717E-01  mag=     1.0000
 curvature: -71.20 expect dE=-0.781E-01 dE for cont linesearch -0.454E-03
 trial: gam= 0.48398 g(F)=  0.110E-02 g(S)=  0.000E+00 ort = 0.202E-03 (trialstep = 0.858E+01)
 search vector abs. value=  0.280E-02
 bond charge predicted
       N       E                     dE             d eps       ncg     rms          rms(c)
DAV:   1    -0.117018956558E+03   -0.27702E-02   -0.13725E+01  1504   0.521E+00    0.126E-01
DAV:   2    -0.117025396500E+03   -0.64399E-02   -0.60794E-02  1560   0.485E-01    0.116E-01
DAV:   3    -0.117025351693E+03    0.44806E-04   -0.89687E-04  1608   0.564E-02
  50 F= -.11702535E+03 E0= -.11702535E+03  d E =-.912954E-02  mag=     1.0000
 ZBRENT: can't locate minimum, use default step
 trial-energy change:   -0.009130  1 .order   -0.009155   -0.010256   -0.008054
 step:  34.3392(harm= 39.9907)  dis= 0.06819  next Energy=  -117.040109 (dE=-0.239E-01)
 bond charge predicted
       N       E                     dE             d eps       ncg     rms          rms(c)
DAV:   1    -0.116984001474E+03    0.41395E-01   -0.12404E+02  1504   0.157E+01    0.410E-01
DAV:   2    -0.117040659730E+03   -0.56658E-01   -0.54425E-01  1544   0.145E+00    0.373E-01
DAV:   3    -0.117039809336E+03    0.85039E-03   -0.80567E-03  1616   0.169E-01    0.287E-01
DAV:   4    -0.117037708078E+03    0.21013E-02   -0.38847E-03  1560   0.924E-02    0.123E-01
DAV:   5    -0.117037639371E+03    0.68707E-04   -0.16015E-03  1608   0.621E-02    0.490E-02
DAV:   6    -0.117037655581E+03   -0.16209E-04   -0.57255E-05   944   0.126E-02
  51 F= -.11703766E+03 E0= -.11703766E+03  d E =-.214334E-01  mag=     1.0000
 curvature: -45.28 expect dE=-0.615E-01 dE for cont linesearch -0.941E-04
 trial: gam= 1.18806 g(F)=  0.136E-02 g(S)=  0.000E+00 ort = 0.762E-04 (trialstep = 0.700E+01)
 search vector abs. value=  0.548E-02
 bond charge predicted
       N       E                     dE             d eps       ncg     rms          rms(c)
DAV:   1    -0.117038801775E+03   -0.11624E-02   -0.17901E+01  1504   0.594E+00    0.128E-01
DAV:   2    -0.117047065856E+03   -0.82641E-02   -0.78786E-02  1584   0.552E-01    0.127E-01
DAV:   3    -0.117046999799E+03    0.66056E-04   -0.11423E-03  1616   0.631E-02    0.102E-01
DAV:   4    -0.117046754035E+03    0.24576E-03   -0.28614E-04  1072   0.265E-02    0.588E-02
DAV:   5    -0.117046726935E+03    0.27100E-04   -0.50878E-04  1576   0.351E-02
  52 F= -.11704673E+03 E0= -.11704673E+03  d E =-.907135E-02  mag=     1.0000
 ZBRENT: can't locate minimum, use default step
 trial-energy change:   -0.009071  1 .order   -0.009396   -0.010138   -0.008654
 step:  28.0063(harm= 47.8446)  dis= 0.06800  next Energy=  -117.072294 (dE=-0.346E-01)
 bond charge predicted
       N       E                     dE             d eps       ncg     rms          rms(c)
DAV:   1    -0.116989737295E+03    0.57017E-01   -0.16175E+02  1504   0.179E+01    0.409E-01
DAV:   2    -0.117063589319E+03   -0.73852E-01   -0.71328E-01  1560   0.166E+00    0.384E-01
DAV:   3    -0.117062746667E+03    0.84265E-03   -0.10409E-02  1608   0.192E-01    0.300E-01
DAV:   4    -0.117060458298E+03    0.22884E-02   -0.27646E-03  1576   0.798E-02    0.165E-01
DAV:   5    -0.117059948003E+03    0.51029E-03   -0.31687E-03  1552   0.839E-02    0.535E-02
DAV:   6    -0.117059988534E+03   -0.40532E-04   -0.36493E-05   952   0.112E-02
  53 F= -.11705999E+03 E0= -.11705999E+03  d E =-.223330E-01  mag=     1.0000
 curvature: -69.24 expect dE=-0.847E-01 dE for cont linesearch -0.338E-03
 trial: gam= 0.53281 g(F)=  0.122E-02 g(S)=  0.000E+00 ort = 0.164E-03 (trialstep = 0.112E+02)
 search vector abs. value=  0.296E-02
 bond charge predicted
       N       E                     dE             d eps       ncg     rms          rms(c)
DAV:   1    -0.117060374657E+03   -0.42665E-03   -0.24721E+01  1504   0.699E+00    0.179E-01
DAV:   2    -0.117071607000E+03   -0.11232E-01   -0.10895E-01  1584   0.649E-01    0.163E-01
DAV:   3    -0.117071461380E+03    0.14562E-03   -0.15489E-03  1640   0.743E-02    0.124E-01
DAV:   4    -0.117071117178E+03    0.34420E-03   -0.64655E-04  1584   0.384E-02    0.572E-02
DAV:   5    -0.117071121504E+03   -0.43262E-05   -0.30902E-04  1128   0.280E-02
  54 F= -.11707112E+03 E0= -.11707112E+03  d E =-.111330E-01  mag=     1.0000
 trial-energy change:   -0.011133  1 .order   -0.011760   -0.014685   -0.008835
 step:  28.1214(harm= 28.1214)  dis= 0.03552  next Energy=  -117.078420 (dE=-0.184E-01)
 bond charge predicted
       N       E                     dE             d eps       ncg     rms          rms(c)
DAV:   1    -0.117051608277E+03    0.19509E-01   -0.56443E+01  1504   0.106E+01    0.271E-01
DAV:   2    -0.117077007387E+03   -0.25399E-01   -0.24837E-01  1552   0.979E-01    0.244E-01
DAV:   3    -0.117076675809E+03    0.33158E-03   -0.36824E-03  1616   0.114E-01    0.185E-01
DAV:   4    -0.117075871442E+03    0.80437E-03   -0.13839E-03  1576   0.564E-02    0.869E-02
DAV:   5    -0.117075829919E+03    0.41524E-04   -0.76559E-04  1592   0.425E-02
  55 F= -.11707583E+03 E0= -.11707583E+03  d E =-.158414E-01  mag=     1.0000
 curvature: -31.70 expect dE=-0.310E-01 dE for cont linesearch -0.116E-03
 trial: gam= 0.75454 g(F)=  0.978E-03 g(S)=  0.000E+00 ort =-0.104E-03 (trialstep = 0.146E+02)
 search vector abs. value=  0.250E-02
 bond charge predicted
       N       E                     dE             d eps       ncg     rms          rms(c)
DAV:   1    -0.117069120024E+03    0.67514E-02   -0.35491E+01  1504   0.838E+00    0.197E-01
DAV:   2    -0.117085092881E+03   -0.15973E-01   -0.15526E-01  1560   0.774E-01    0.177E-01
DAV:   3    -0.117084881501E+03    0.21138E-03   -0.22266E-03  1632   0.890E-02    0.137E-01
DAV:   4    -0.117084388592E+03    0.49291E-03   -0.73588E-04  1584   0.405E-02    0.671E-02
DAV:   5    -0.117084338502E+03    0.50091E-04   -0.58313E-04  1600   0.363E-02
  56 F= -.11708434E+03 E0= -.11708434E+03  d E =-.850858E-02  mag=     1.0000
 trial-energy change:   -0.008509  1 .order   -0.009210   -0.013129   -0.005291
 step:  24.4329(harm= 24.4329)  dis= 0.02240  next Energy=  -117.086826 (dE=-0.110E-01)
 bond charge predicted
       N       E                     dE             d eps       ncg     rms          rms(c)
DAV:   1    -0.117078536228E+03    0.58524E-02   -0.16164E+01  1504   0.566E+00    0.135E-01
DAV:   2    -0.117085790971E+03   -0.72547E-02   -0.70807E-02  1576   0.522E-01    0.119E-01
DAV:   3    -0.117085699815E+03    0.91156E-04   -0.10163E-03  1632   0.602E-02    0.911E-02
DAV:   4    -0.117085486655E+03    0.21316E-03   -0.31644E-04  1168   0.274E-02    0.454E-02
DAV:   5    -0.117085475458E+03    0.11197E-04   -0.29507E-04  1032   0.281E-02
  57 F= -.11708548E+03 E0= -.11708548E+03  d E =-.964554E-02  mag=     1.0000
 curvature: -33.99 expect dE=-0.247E-01 dE for cont linesearch -0.280E-08
 trial: gam= 0.47130 g(F)=  0.728E-03 g(S)=  0.000E+00 ort = 0.455E-06 (trialstep = 0.166E+02)
 search vector abs. value=  0.128E-02
 bond charge predicted
       N       E                     dE             d eps       ncg     rms          rms(c)
DAV:   1    -0.117083364943E+03    0.21217E-02   -0.23482E+01  1504   0.682E+00    0.174E-01
DAV:   2    -0.117094098954E+03   -0.10734E-01   -0.10440E-01  1568   0.637E-01    0.163E-01
DAV:   3    -0.117093980950E+03    0.11800E-03   -0.15337E-03  1624   0.752E-02    0.123E-01
DAV:   4    -0.117093643035E+03    0.33791E-03   -0.54629E-04  1568   0.356E-02    0.641E-02
DAV:   5    -0.117093623236E+03    0.19800E-04   -0.41013E-04  1536   0.308E-02
  58 F= -.11709362E+03 E0= -.11709362E+03  d E =-.814778E-02  mag=     1.0000
 trial-energy change:   -0.008148  1 .order   -0.008740   -0.012053   -0.005427
 step:  30.1161(harm= 30.1161)  dis= 0.02539  next Energy=  -117.096438 (dE=-0.110E-01)
 bond charge predicted
       N       E                     dE             d eps       ncg     rms          rms(c)
DAV:   1    -0.117088513116E+03    0.51299E-02   -0.15747E+01  1504   0.558E+00    0.145E-01
DAV:   2    -0.117095771949E+03   -0.72588E-02   -0.70362E-02  1568   0.523E-01    0.133E-01
DAV:   3    -0.117095698665E+03    0.73284E-04   -0.10350E-03  1592   0.618E-02    0.989E-02
DAV:   4    -0.117095485654E+03    0.21301E-03   -0.34594E-04  1280   0.290E-02    0.519E-02
DAV:   5    -0.117095480860E+03    0.47932E-05   -0.28597E-04  1000   0.277E-02
  59 F= -.11709548E+03 E0= -.11709548E+03  d E =-.100054E-01  mag=     1.0000
 curvature: -26.57 expect dE=-0.153E-01 dE for cont linesearch -0.177E-04
 trial: gam= 0.73652 g(F)=  0.575E-03 g(S)=  0.000E+00 ort = 0.293E-04 (trialstep = 0.188E+02)
 search vector abs. value=  0.131E-02
 bond charge predicted
       N       E                     dE             d eps       ncg     rms          rms(c)
DAV:   1    -0.117089095103E+03    0.63906E-02   -0.31084E+01  1504   0.783E+00    0.192E-01
DAV:   2    -0.117103870298E+03   -0.14775E-01   -0.13960E-01  1576   0.740E-01    0.186E-01
DAV:   3    -0.117103772290E+03    0.98008E-04   -0.20812E-03  1640   0.883E-02    0.141E-01
DAV:   4    -0.117103324805E+03    0.44749E-03   -0.62478E-04  1600   0.384E-02    0.795E-02
DAV:   5    -0.117103261239E+03    0.63566E-04   -0.68229E-04  1584   0.391E-02
  60 F= -.11710326E+03 E0= -.11710326E+03  d E =-.778038E-02  mag=     1.0000
 trial-energy change:   -0.007780  1 .order   -0.008565   -0.011225   -0.005905
 step:  39.7258(harm= 39.7258)  dis= 0.03661  next Energy=  -117.107324 (dE=-0.118E-01)
 bond charge predicted
       N       E                     dE             d eps       ncg     rms          rms(c)
DAV:   1    -0.117088026462E+03    0.15298E-01   -0.38303E+01  1504   0.870E+00    0.218E-01
DAV:   2    -0.117105999482E+03   -0.17973E-01   -0.17192E-01  1584   0.820E-01    0.206E-01
DAV:   3    -0.117105823210E+03    0.17627E-03   -0.25495E-03  1576   0.981E-02    0.154E-01
DAV:   4    -0.117105275975E+03    0.54723E-03   -0.79057E-04  1600   0.431E-02    0.854E-02
DAV:   5    -0.117105207682E+03    0.68294E-04   -0.76458E-04  1552   0.416E-02
  61 F= -.11710521E+03 E0= -.11710521E+03  d E =-.972682E-02  mag=     1.0000
 curvature: -43.79 expect dE=-0.467E-01 dE for cont linesearch -0.752E-04
 trial: gam= 1.95876 g(F)=  0.107E-02 g(S)=  0.000E+00 ort =-0.475E-04 (trialstep = 0.511E+01)
 search vector abs. value=  0.592E-02
 bond charge predicted
       N       E                     dE             d eps       ncg     rms          rms(c)
DAV:   1    -0.117104540195E+03    0.73578E-03   -0.10294E+01  1504   0.449E+00    0.103E-01
DAV:   2    -0.117109417496E+03   -0.48773E-02   -0.46632E-02  1552   0.425E-01    0.103E-01
DAV:   3    -0.117109387733E+03    0.29762E-04   -0.68001E-04  1560   0.498E-02
  62 F= -.11710939E+03 E0= -.11710939E+03  d E =-.418005E-02  mag=     1.0000
 trial-energy change:   -0.004180  1 .order   -0.004340   -0.004967   -0.003713
 step:  20.2206(harm= 20.2206)  dis= 0.05512  next Energy=  -117.115044 (dE=-0.984E-02)
 bond charge predicted
       N       E                     dE             d eps       ncg     rms          rms(c)
DAV:   1    -0.117074620057E+03    0.34797E-01   -0.90556E+01  1504   0.133E+01    0.311E-01
DAV:   2    -0.117116544020E+03   -0.41924E-01   -0.40369E-01  1568   0.126E+00    0.334E-01
DAV:   3    -0.117116117465E+03    0.42656E-03   -0.58737E-03  1648   0.146E-01    0.265E-01
DAV:   4    -0.117114475152E+03    0.16423E-02   -0.19059E-03  1584   0.664E-02    0.162E-01
DAV:   5    -0.117114083193E+03    0.39196E-03   -0.27678E-03  1568   0.775E-02    0.605E-02
DAV:   6    -0.117114120200E+03   -0.37007E-04   -0.35290E-05   960   0.101E-02
  63 F= -.11711412E+03 E0= -.11711412E+03  d E =-.891252E-02  mag=     1.0000
 curvature: -61.56 expect dE=-0.632E-01 dE for cont linesearch -0.201E-04
 trial: gam= 0.34007 g(F)=  0.103E-02 g(S)=  0.000E+00 ort = 0.440E-04 (trialstep = 0.813E+01)
 search vector abs. value=  0.174E-02
 bond charge predicted
       N       E                     dE             d eps       ncg     rms          rms(c)
DAV:   1    -0.117117721420E+03   -0.36382E-02   -0.76897E+00  1504   0.387E+00    0.103E-01
DAV:   2    -0.117121329295E+03   -0.36079E-02   -0.34848E-02  1600   0.365E-01    0.927E-02
DAV:   3    -0.117121300296E+03    0.28999E-04   -0.50895E-04  1576   0.427E-02
  64 F= -.11712130E+03 E0= -.11712130E+03  d E =-.718010E-02  mag=     1.0000
 trial-energy change:   -0.007180  1 .order   -0.007161   -0.008467   -0.005855
 step:  26.3554(harm= 26.3554)  dis= 0.04068  next Energy=  -117.127845 (dE=-0.137E-01)
 bond charge predicted
       N       E                     dE             d eps       ncg     rms          rms(c)
DAV:   1    -0.117111050415E+03    0.10279E-01   -0.38770E+01  1504   0.870E+00    0.243E-01
DAV:   2    -0.117128743601E+03   -0.17693E-01   -0.17332E-01  1568   0.816E-01    0.225E-01
DAV:   3    -0.117128471111E+03    0.27249E-03   -0.25258E-03  1632   0.944E-02    0.170E-01
DAV:   4    -0.117127841027E+03    0.63008E-03   -0.12722E-03  1552   0.533E-02    0.740E-02
DAV:   5    -0.117127845590E+03   -0.45635E-05   -0.47282E-04  1560   0.342E-02
  65 F= -.11712785E+03 E0= -.11712785E+03  d E =-.137254E-01  mag=     1.0000
 curvature: -22.03 expect dE=-0.173E-01 dE for cont linesearch -0.347E-04
 trial: gam= 0.68911 g(F)=  0.787E-03 g(S)=  0.000E+00 ort = 0.523E-04 (trialstep = 0.118E+02)
 search vector abs. value=  0.169E-02
 bond charge predicted
       N       E                     dE             d eps       ncg     rms          rms(c)
DAV:   1    -0.117128247858E+03   -0.40683E-03   -0.15612E+01  1504   0.553E+00    0.139E-01
DAV:   2    -0.117135476099E+03   -0.72282E-02   -0.70301E-02  1576   0.519E-01    0.124E-01
DAV:   3    -0.117135403155E+03    0.72944E-04   -0.10189E-03  1632   0.608E-02    0.941E-02
DAV:   4    -0.117135222046E+03    0.18111E-03   -0.31638E-04  1224   0.275E-02    0.474E-02
DAV:   5    -0.117135235057E+03   -0.13011E-04   -0.27335E-04  1040   0.268E-02
  66 F= -.11713524E+03 E0= -.11713524E+03  d E =-.738947E-02  mag=     1.0000
 trial-energy change:   -0.007389  1 .order   -0.007815   -0.009694   -0.005937
 step:  30.3828(harm= 30.3828)  dis= 0.04578  next Energy=  -117.140353 (dE=-0.125E-01)
 bond charge predicted
       N       E                     dE             d eps       ncg     rms          rms(c)
DAV:   1    -0.117120750079E+03    0.14472E-01   -0.39028E+01  1504   0.875E+00    0.221E-01
DAV:   2    -0.117138788360E+03   -0.18038E-01   -0.17535E-01  1592   0.820E-01    0.198E-01
DAV:   3    -0.117138568211E+03    0.22015E-03   -0.25371E-03  1608   0.959E-02    0.151E-01
DAV:   4    -0.117138041184E+03    0.52703E-03   -0.86418E-04  1576   0.442E-02    0.736E-02
DAV:   5    -0.117138005760E+03    0.35424E-04   -0.60509E-04  1592   0.369E-02
  67 F= -.11713801E+03 E0= -.11713801E+03  d E =-.101602E-01  mag=     1.0000
 curvature: -31.12 expect dE=-0.243E-01 dE for cont linesearch -0.215E-03
 trial: gam= 1.14296 g(F)=  0.782E-03 g(S)=  0.000E+00 ort =-0.108E-03 (trialstep = 0.954E+01)
 search vector abs. value=  0.274E-02
 bond charge predicted
       N       E                     dE             d eps       ncg     rms          rms(c)
DAV:   1    -0.117134841608E+03    0.31996E-02   -0.16638E+01  1504   0.571E+00    0.130E-01
DAV:   2    -0.117142504945E+03   -0.76633E-02   -0.74510E-02  1584   0.534E-01    0.125E-01
DAV:   3    -0.117142427635E+03    0.77310E-04   -0.10555E-03  1632   0.613E-02    0.974E-02
DAV:   4    -0.117142203498E+03    0.22414E-03   -0.28172E-04  1112   0.263E-02    0.548E-02
DAV:   5    -0.117142175163E+03    0.28334E-04   -0.42766E-04  1584   0.320E-02
  68 F= -.11714218E+03 E0= -.11714218E+03  d E =-.416940E-02  mag=     1.0000
 trial-energy change:   -0.004169  1 .order   -0.004646   -0.006286   -0.003006
 step:  18.2882(harm= 18.2882)  dis= 0.03832  next Energy=  -117.144029 (dE=-0.602E-02)
 bond charge predicted
       N       E                     dE             d eps       ncg     rms          rms(c)
DAV:   1    -0.117136880208E+03    0.53233E-02   -0.13973E+01  1504   0.523E+00    0.120E-01
DAV:   2    -0.117143318418E+03   -0.64382E-02   -0.62554E-02  1600   0.489E-01    0.114E-01
DAV:   3    -0.117143253546E+03    0.64872E-04   -0.88279E-04  1592   0.560E-02
  69 F= -.11714325E+03 E0= -.11714325E+03  d E =-.524779E-02  mag=     1.0000
 curvature: -38.01 expect dE=-0.175E-01 dE for cont linesearch -0.752E-05
 trial: gam= 0.21692 g(F)=  0.461E-03 g(S)=  0.000E+00 ort =-0.233E-04 (trialstep = 0.113E+02)
 search vector abs. value=  0.580E-03
 bond charge predicted
       N       E                     dE             d eps       ncg     rms          rms(c)
DAV:   1    -0.117144834724E+03   -0.15163E-02   -0.49558E+00  1504   0.313E+00    0.109E-01
DAV:   2    -0.117146965652E+03   -0.21309E-02   -0.21581E-02  1576   0.289E-01    0.884E-02
DAV:   3    -0.117146895458E+03    0.70194E-04   -0.30733E-04  1056   0.340E-02
  70 F= -.11714690E+03 E0= -.11714690E+03  d E =-.364191E-02  mag=     1.0000
 trial-energy change:   -0.003642  1 .order   -0.003308   -0.005153   -0.001464
 step:  15.7716(harm= 15.7716)  dis= 0.01169  next Energy=  -117.146852 (dE=-0.360E-02)
 bond charge predicted
       N       E                     dE             d eps       ncg     rms          rms(c)
DAV:   1    -0.117147316473E+03   -0.35082E-03   -0.78884E-01  1544   0.125E+00    0.485E-02
DAV:   2    -0.117147666846E+03   -0.35037E-03   -0.34839E-03  1592   0.115E-01    0.345E-02
DAV:   3    -0.117147666443E+03    0.40245E-06   -0.46216E-05   912   0.133E-02
  71 F= -.11714767E+03 E0= -.11714767E+03  d E =-.441290E-02  mag=     1.0000
 curvature: -10.03 expect dE=-0.152E-02 dE for cont linesearch -0.149E-03
 trial: gam= 0.09063 g(F)=  0.152E-03 g(S)=  0.000E+00 ort = 0.927E-04 (trialstep = 0.122E+02)
 search vector abs. value=  0.173E-03
 bond charge predicted
       N       E                     dE             d eps       ncg     rms          rms(c)
DAV:   1    -0.117148592810E+03   -0.92596E-03   -0.17237E+00  1528   0.185E+00    0.558E-02
DAV:   2    -0.117149380071E+03   -0.78726E-03   -0.77582E-03  1592   0.174E-01    0.497E-02
DAV:   3    -0.117149373182E+03    0.68889E-05   -0.10713E-04   928   0.214E-02
  72 F= -.11714937E+03 E0= -.11714937E+03  d E =-.170674E-02  mag=     1.0000
 trial-energy change:   -0.001707  1 .order   -0.001365   -0.001950   -0.000780
 step:  20.3178(harm= 20.3178)  dis= 0.00511  next Energy=  -117.149292 (dE=-0.163E-02)
 bond charge predicted
       N       E                     dE             d eps       ncg     rms          rms(c)
DAV:   1    -0.117149695836E+03   -0.31577E-03   -0.77184E-01  1528   0.124E+00    0.457E-02
DAV:   2    -0.117150039866E+03   -0.34403E-03   -0.33959E-03  1624   0.115E-01    0.393E-02
DAV:   3    -0.117150034831E+03    0.50352E-05   -0.47078E-05   904   0.139E-02
  73 F= -.11715003E+03 E0= -.11715003E+03  d E =-.236839E-02  mag=     1.0000
 curvature: -11.00 expect dE=-0.110E-02 dE for cont linesearch -0.743E-04
 trial: gam= 0.52366 g(F)=  0.100E-03 g(S)=  0.000E+00 ort = 0.342E-04 (trialstep = 0.130E+02)
 search vector abs. value=  0.183E-03
 bond charge predicted
       N       E                     dE             d eps       ncg     rms          rms(c)
DAV:   1    -0.117150552195E+03   -0.51233E-03   -0.20861E+00  1528   0.203E+00    0.520E-02
DAV:   2    -0.117151496214E+03   -0.94402E-03   -0.91841E-03  1584   0.189E-01    0.483E-02
DAV:   3    -0.117151483558E+03    0.12656E-04   -0.11681E-04   904   0.217E-02
  74 F= -.11715148E+03 E0= -.11715148E+03  d E =-.144873E-02  mag=     1.0000
 trial-energy change:   -0.001449  1 .order   -0.001044   -0.001539   -0.000549
 step:  14.9406(harm= 20.2782)  dis= 0.00424  next Energy=  -117.151525 (dE=-0.149E-02)
 bond charge predicted
       N       E                     dE             d eps       ncg     rms          rms(c)
DAV:   1    -0.117151591917E+03   -0.95703E-04   -0.45762E-02  1552   0.303E-01    0.180E-02
DAV:   2    -0.117151607753E+03   -0.15836E-04   -0.15572E-04   920   0.265E-02
  75 F= -.11715161E+03 E0= -.11715161E+03  d E =-.157292E-02  mag=     1.0000
 curvature:  -7.19 expect dE=-0.297E-03 dE for cont linesearch -0.138E-03
 trial: gam= 0.11064 g(F)=  0.413E-04 g(S)=  0.000E+00 ort = 0.593E-04 (trialstep = 0.134E+02)
 search vector abs. value=  0.567E-04
 reached required accuracy - stopping structural energy minimisation
Application 91150215 resources: utime ~254422s, stime ~1217s, Rss ~73688, inblocks ~3296812, outblocks ~2068324
