   53   53 1000    2
  0.2557710E+03  0.2384381E-08  0.2384381E-08  0.2384381E-08  0.1000000E-15
  1.000000000000000E-004
  CAR 
 unknown system                          
    583      1    376
 
  0.0000000E+00  0.0000000E+00  0.0000000E+00  0.1000000E+01
    1       -9.772318     -9.758703
    2       -9.259736     -9.250404
    3       -9.162115     -9.152315
    4       -9.094669     -9.087359
    5       -9.081769     -9.074499
    6       -9.027524     -9.018111
    7       -9.025056     -9.016044
    8       -9.004482     -8.996166
    9       -8.992838     -8.983071
   10       -8.956419     -8.947955
   11       -8.939673     -8.931449
   12       -8.924855     -8.916979
   13       -8.901621     -8.894339
   14       -8.883197     -8.876131
   15       -8.873831     -8.865479
   16       -8.848227     -8.840532
   17       -8.837497     -8.830088
   18       -8.790699     -8.782677
   19       -8.765676     -8.759242
   20       -8.753841     -8.746431
   21       -8.714924     -8.708961
   22       -8.701972     -8.693027
   23       -8.690101     -8.682902
   24       -8.682254     -8.674719
   25       -8.676820     -8.668811
   26       -8.663741     -8.655644
   27       -8.625272     -8.617523
   28       -8.615574     -8.609019
   29       -8.603746     -8.596452
   30       -8.594547     -8.587531
   31       -8.576045     -8.569553
   32       -8.552888     -8.546157
   33       -8.543716     -8.536385
   34       -8.537867     -8.531414
   35       -8.537582     -8.530208
   36       -8.509152     -8.502668
   37       -8.497382     -8.490462
   38       -8.478253     -8.471098
   39       -8.469614     -8.463702
   40       -8.461121     -8.452440
   41       -8.454666     -8.447911
   42       -8.441518     -8.435651
   43       -8.420292     -8.412088
   44       -8.405340     -8.398461
   45       -8.400623     -8.393631
   46       -8.379617     -8.371982
   47       -8.371044     -8.364811
   48       -8.356885     -8.349448
   49       -8.340216     -8.333671
   50       -8.327915     -8.322435
   51       -8.301375     -8.293774
   52       -8.290115     -8.283304
   53       -8.285960     -8.279703
   54       -8.250492     -8.244417
   55       -8.239018     -8.231478
   56       -8.236186     -8.229279
   57       -8.218034     -8.212574
   58       -8.197770     -8.190291
   59       -8.190379     -8.186010
   60       -8.185783     -8.179205
   61       -8.164961     -8.157020
   62       -8.144150     -8.138670
   63       -8.136146     -8.128932
   64       -8.130036     -8.124521
   65       -8.128244     -8.121895
   66       -8.106237     -8.100336
   67       -8.096504     -8.090402
   68       -8.075288     -8.069530
   69       -8.071046     -8.064724
   70       -8.063137     -8.056985
   71       -8.053680     -8.047190
   72       -8.037466     -8.031262
   73       -8.023538     -8.017933
   74       -8.019599     -8.013089
   75       -8.007818     -8.001914
   76       -7.978388     -7.972056
   77       -7.971239     -7.965462
   78       -7.965697     -7.960111
   79       -7.956019     -7.949822
   80       -7.942412     -7.936108
   81       -7.930242     -7.924135
   82       -7.914661     -7.908900
   83       -7.910726     -7.904804
   84       -7.902905     -7.896943
   85       -7.891338     -7.884688
   86       -7.879925     -7.872680
   87       -7.849083     -7.843035
   88       -7.836385     -7.830152
   89       -7.826245     -7.820917
   90       -7.813425     -7.806509
   91       -7.803959     -7.797041
   92       -7.791809     -7.786426
   93       -7.776906     -7.771753
   94       -7.775461     -7.769779
   95       -7.763429     -7.758626
   96       -7.741715     -7.736459
   97       -7.731210     -7.725768
   98       -7.720935     -7.714780
   99       -7.715299     -7.709546
  100       -7.697439     -7.691368
  101       -7.669950     -7.663834
  102       -7.664851     -7.659111
  103       -7.658614     -7.652430
  104       -7.651390     -7.646156
  105       -7.637234     -7.631893
  106       -7.621526     -7.615509
  107       -7.612068     -7.605647
  108       -7.603044     -7.596181
  109       -7.586950     -7.580893
  110       -7.585430     -7.579375
  111       -7.563890     -7.557042
  112       -7.555132     -7.548269
  113       -7.541956     -7.534734
  114       -7.537232     -7.530402
  115       -7.526838     -7.520555
  116       -7.521718     -7.514827
  117       -7.515658     -7.509698
  118       -7.496523     -7.490779
  119       -7.487994     -7.481752
  120       -7.472712     -7.467031
  121       -7.459436     -7.453794
  122       -7.451605     -7.445713
  123       -7.445308     -7.440190
  124       -7.432848     -7.427591
  125       -7.417279     -7.410760
  126       -7.410093     -7.404304
  127       -7.392247     -7.385286
  128       -7.373293     -7.366403
  129       -7.371884     -7.366138
  130       -7.355214     -7.348892
  131       -7.335900     -7.330098
  132       -7.330362     -7.324704
  133       -7.307027     -7.301858
  134       -7.305070     -7.298904
  135       -7.295084     -7.288046
  136       -7.285503     -7.279684
  137       -7.270882     -7.264981
  138       -7.253046     -7.246723
  139       -7.246188     -7.240241
  140       -7.230133     -7.225521
  141       -7.218492     -7.213640
  142       -7.208637     -7.201888
  143       -7.205995     -7.199762
  144       -7.186798     -7.180874
  145       -7.175688     -7.169390
  146       -7.168533     -7.162882
  147       -7.149168     -7.143068
  148       -7.140697     -7.135019
  149       -7.128195     -7.122810
  150       -7.120412     -7.115243
  151       -7.108424     -7.103499
  152       -7.072274     -7.067037
  153       -7.070902     -7.065272
  154       -7.068491     -7.062339
  155       -7.056624     -7.049836
  156       -7.044183     -7.038700
  157       -7.042787     -7.037211
  158       -7.038882     -7.032553
  159       -7.028611     -7.023238
  160       -7.019146     -7.013825
  161       -7.005668     -7.000454
  162       -6.989703     -6.984196
  163       -6.976710     -6.971970
  164       -6.966320     -6.960400
  165       -6.956291     -6.951043
  166       -6.944802     -6.938831
  167       -6.936494     -6.931029
  168       -6.922577     -6.916910
  169       -6.914572     -6.908023
  170       -6.905114     -6.898358
  171       -6.895901     -6.891126
  172       -6.888047     -6.882383
  173       -6.878313     -6.870926
  174       -6.863744     -6.857550
  175       -6.851913     -6.846724
  176       -6.848828     -6.843616
  177       -6.834293     -6.829165
  178       -6.826449     -6.821186
  179       -6.817688     -6.812535
  180       -6.816487     -6.811011
  181       -6.807783     -6.800328
  182       -6.802406     -6.798515
  183       -6.789661     -6.784541
  184       -6.784618     -6.779554
  185       -6.776932     -6.771228
  186       -6.767084     -6.761373
  187       -6.749924     -6.744820
  188       -6.747807     -6.743399
  189       -6.729026     -6.723814
  190       -6.723217     -6.717655
  191       -6.721443     -6.714729
  192       -6.714465     -6.709499
  193       -6.705436     -6.700544
  194       -6.699501     -6.694678
  195       -6.694455     -6.689313
  196       -6.675417     -6.669430
  197       -6.667687     -6.662881
  198       -6.664738     -6.659454
  199       -6.654346     -6.648895
  200       -6.646246     -6.641498
  201       -6.636843     -6.632245
  202       -6.632784     -6.627557
  203       -6.622256     -6.617441
  204       -6.617305     -6.611176
  205       -6.609670     -6.603870
  206       -6.604952     -6.599359
  207       -6.599831     -6.594470
  208       -6.590632     -6.586028
  209       -6.587568     -6.582718
  210       -6.572322     -6.568181
  211       -6.571253     -6.566023
  212       -6.564604     -6.559602
  213       -6.550537     -6.544903
  214       -6.546712     -6.542005
  215       -6.536529     -6.530635
  216       -6.523190     -6.517403
  217       -6.520548     -6.514884
  218       -6.513536     -6.508747
  219       -6.504643     -6.499547
  220       -6.498312     -6.493247
  221       -6.494443     -6.488748
  222       -6.477252     -6.472609
  223       -6.466745     -6.461673
  224       -6.462944     -6.458069
  225       -6.455322     -6.450214
  226       -6.454478     -6.448930
  227       -6.441248     -6.435943
  228       -6.431319     -6.426275
  229       -6.418992     -6.413482
  230       -6.416895     -6.411931
  231       -6.410262     -6.403950
  232       -6.398616     -6.392235
  233       -6.396505     -6.390891
  234       -6.388129     -6.383253
  235       -6.381068     -6.375761
  236       -6.375946     -6.371013
  237       -6.359975     -6.353871
  238       -6.355013     -6.349094
  239       -6.350794     -6.346095
  240       -6.339400     -6.334927
  241       -6.335830     -6.330594
  242       -6.330454     -6.325318
  243       -6.315170     -6.309526
  244       -6.306286     -6.300866
  245       -6.300822     -6.295406
  246       -6.289943     -6.283819
  247       -6.281820     -6.275188
  248       -6.265076     -6.260811
  249       -6.250800     -6.245338
  250       -6.248704     -6.243301
  251       -6.235928     -6.229918
  252       -6.231971     -6.226932
  253       -6.227450     -6.221865
  254       -6.212958     -6.207754
  255       -6.209146     -6.203511
  256       -6.207354     -6.201424
  257       -6.193763     -6.187704
  258       -6.179370     -6.174687
  259       -6.174332     -6.168747
  260       -6.148638     -6.144083
  261       -6.136241     -6.130724
  262       -6.129921     -6.125240
  263       -6.116382     -6.112009
  264       -6.105389     -6.100226
  265       -6.090303     -6.084577
  266       -6.074935     -6.070731
  267       -6.065820     -6.061444
  268       -6.056459     -6.052729
  269       -6.045970     -6.039070
  270       -6.034705     -6.031189
  271       -6.005068     -6.001265
  272       -5.998800     -5.995572
  273       -5.949804     -5.938566
  274       -5.811528     -5.798872
  275       -5.621879     -5.613150
  276       -5.445756     -5.435979
  277       -5.331277     -5.318029
  278       -5.094013     -5.075656
  279       -5.002419     -4.987225
  280       -4.848890     -4.833951
  281       -4.762467     -4.742607
  282       -4.580186     -4.551171
  283       -4.304144     -4.291830
  284       -4.247080     -4.230458
  285       -4.167886     -4.155150
  286       -3.984298     -3.966977
  287       -3.788634     -3.776767
  288       -3.736670     -3.724952
  289       -3.585041     -3.566685
  290       -3.497552     -3.483185
  291       -3.422429     -3.405413
  292       -3.298712     -3.232304
  293       -2.998378     -2.977569
  294       -2.888723     -2.872192
  295       -2.834016     -2.820887
  296       -2.706111     -2.687304
  297       -2.622938     -2.605662
  298       -2.547547     -2.533509
  299       -2.485886     -2.467625
  300       -2.399973     -2.382343
  301       -2.326681     -2.308387
  302       -2.236692     -2.221497
  303       -2.089747     -2.073451
  304       -2.052204     -2.036366
  305       -1.992328     -1.975616
  306       -1.940873     -1.921206
  307       -1.798882     -1.766905
  308       -1.685773     -1.646568
  309       -1.536576     -1.507660
  310       -1.431920     -1.418054
  311       -1.394189     -1.365205
  312       -1.350567     -1.334649
  313       -1.213981     -1.197102
  314       -1.210530     -1.195366
  315       -1.156522     -1.137177
  316       -1.084711     -1.068882
  317       -1.002194     -0.985488
  318       -0.959536     -0.946162
  319       -0.916415     -0.899285
  320       -0.842568     -0.824583
  321       -0.778048     -0.761071
  322       -0.746265     -0.727598
  323       -0.659729     -0.643863
  324       -0.517613     -0.504070
  325       -0.369694     -0.356118
  326       -0.329329     -0.297187
  327       -0.253744     -0.228565
  328       -0.200262     -0.186927
  329       -0.122828     -0.105602
  330       -0.047180     -0.029466
  331       -0.019774      0.000611
  332        0.078559      0.108678
  333        0.154695      0.192957
  334        0.241435      0.255095
  335        0.364641      0.379895
  336        0.379727      0.404852
  337        0.450297      0.466268
  338        0.560335      0.578877
  339        0.582454      0.593677
  340        0.653372      0.670000
  341        0.698612      0.709429
  342        0.706516      0.725303
  343        0.724883      0.741443
  344        0.818206      0.831059
  345        0.823006      0.836546
  346        0.867860      0.885660
  347        0.917885      0.927453
  348        0.941380      0.953798
  349        0.967155      0.982688
  350        0.988231      0.997701
  351        1.003476      1.017264
  352        1.017285      1.040599
  353        1.037901      1.055583
  354        1.060620      1.079766
  355        1.110099      1.115061
  356        1.121048      1.136038
  357        1.135428      1.148763
  358        1.144312      1.154718
  359        1.172895      1.176831
  360        1.186523      1.199383
  361        1.217756      1.232851
  362        1.251446      1.267728
  363        1.262688      1.276193
  364        1.285358      1.300931
  365        1.317313      1.333251
  366        1.326641      1.337125
  367        1.352948      1.368182
  368        1.369125      1.379931
  369        1.376164      1.386548
  370        1.399546      1.413635
  371        1.438218      1.440332
  372        1.440345      1.452428
  373        1.466563      1.478047
  374        1.489023      1.501499
  375        1.505927      1.520977
  376        1.550707      1.565651
