<?xml version="1.0" encoding="ISO-8859-1"?>
<modeling>
 <generator>
  <i name="program" type="string">vasp </i>
  <i name="version" type="string">5.3.5  </i>
  <i name="subversion" type="string">31Mar14 (build Feb 01 2018 12:10:03) gamma-only                       parallel </i>
  <i name="platform" type="string">LinuxIFC </i>
  <i name="date" type="string">2019 03 25 </i>
  <i name="time" type="string">08:44:51 </i>
 </generator>
 <incar>
  <i type="string" name="PREC">normal</i>
  <i type="int" name="ISPIN">     2</i>
  <i type="int" name="IBRION">     2</i>
  <i type="int" name="NSW">  1000</i>
  <i type="int" name="ISIF">     2</i>
  <i name="POTIM">      0.10000000</i>
  <i type="logical" name="LPLANE"> T  </i>
  <i type="int" name="ISMEAR">     0</i>
  <i name="SIGMA">      0.00010000</i>
  <i type="logical" name="LWAVE"> F  </i>
  <i type="logical" name="LCHARG"> F  </i>
  <i type="logical" name="LVTOT"> F  </i>
  <i type="string" name="GGA"> PE</i>
 </incar>
 <kpoints>
  <varray name="kpointlist" >
   <v>       0.00000000       0.00000000       0.00000000 </v>
  </varray>
  <varray name="weights" >
   <v>       1.00000000 </v>
  </varray>
 </kpoints>
 <parameters>
  <separator name="general" >
   <i type="string" name="SYSTEM">unknown system</i>
   <i type="logical" name="LCOMPAT"> F  </i>
  </separator>
  <separator name="electronic" >
   <i type="string" name="PREC">normal</i>
   <i name="ENMAX">    249.84400000</i>
   <i name="ENAUG">    412.49600000</i>
   <i name="EDIFF">      0.00010000</i>
   <i type="int" name="IALGO">    38</i>
   <i type="int" name="IWAVPR">    11</i>
   <i type="int" name="NBANDS">   376</i>
   <i name="NELECT">    583.00000000</i>
   <i type="int" name="TURBO">     0</i>
   <i type="int" name="IRESTART">     0</i>
   <i type="int" name="NREBOOT">     0</i>
   <i type="int" name="NMIN">     0</i>
   <i name="EREF">      0.00000000</i>
   <separator name="electronic smearing" >
    <i type="int" name="ISMEAR">     0</i>
    <i name="SIGMA">      0.00010000</i>
    <i name="KSPACING">      0.50000000</i>
    <i type="logical" name="KGAMMA"> T  </i>
   </separator>
   <separator name="electronic projectors" >
    <i type="logical" name="LREAL"> F  </i>
    <v name="ROPT">      0.00000000</v>
    <i type="int" name="LMAXPAW">  -100</i>
    <i type="int" name="LMAXMIX">     2</i>
    <i type="logical" name="NLSPLINE"> F  </i>
   </separator>
   <separator name="electronic startup" >
    <i type="int" name="ISTART">     0</i>
    <i type="int" name="ICHARG">     2</i>
    <i type="int" name="INIWAV">     1</i>
   </separator>
   <separator name="electronic spin" >
    <i type="int" name="ISPIN">     2</i>
    <i type="logical" name="LNONCOLLINEAR"> F  </i>
    <v name="MAGMOM">      1.00000000      1.00000000      1.00000000      1.00000000      1.00000000      1.00000000      1.00000000      1.00000000      1.00000000      1.00000000      1.00000000      1.00000000      1.00000000      1.00000000      1.00000000      1.00000000      1.00000000      1.00000000      1.00000000      1.00000000
      1.00000000      1.00000000      1.00000000      1.00000000      1.00000000      1.00000000      1.00000000      1.00000000      1.00000000      1.00000000      1.00000000      1.00000000      1.00000000      1.00000000      1.00000000      1.00000000      1.00000000      1.00000000      1.00000000      1.00000000
      1.00000000      1.00000000      1.00000000      1.00000000      1.00000000      1.00000000      1.00000000      1.00000000      1.00000000      1.00000000      1.00000000      1.00000000      1.00000000</v>
    <i name="NUPDOWN">     -1.00000000</i>
    <i type="logical" name="LSORBIT"> F  </i>
    <v name="SAXIS">      0.00000000      0.00000000      1.00000000</v>
    <i type="logical" name="LSPIRAL"> F  </i>
    <v name="QSPIRAL">      0.00000000      0.00000000      0.00000000</v>
    <i type="logical" name="LZEROZ"> F  </i>
   </separator>
   <separator name="electronic exchange-correlation" >
    <i type="logical" name="LASPH"> F  </i>
    <i type="logical" name="LMETAGGA"> F  </i>
   </separator>
   <separator name="electronic convergence" >
    <i type="int" name="NELM">    60</i>
    <i type="int" name="NELMDL">    -5</i>
    <i type="int" name="NELMIN">     2</i>
    <i name="ENINI">    249.84400000</i>
    <separator name="electronic convergence detail" >
     <i type="logical" name="LDIAG"> T  </i>
     <i type="logical" name="LSUBROT"> F  </i>
     <i name="WEIMIN">      0.00100000</i>
     <i name="EBREAK">      0.00000007</i>
     <i name="DEPER">      0.30000000</i>
     <i type="int" name="NRMM">     4</i>
     <i name="TIME">      0.40000000</i>
    </separator>
   </separator>
   <separator name="electronic mixer" >
    <i name="AMIX">      0.40000000</i>
    <i name="BMIX">      1.00000000</i>
    <i name="AMIN">      0.10000000</i>
    <i name="AMIX_MAG">      1.60000000</i>
    <i name="BMIX_MAG">      1.00000000</i>
    <separator name="electronic mixer details" >
     <i type="int" name="IMIX">     4</i>
     <i type="int" name="MAXMIX">   -45</i>
     <i name="WC">    100.00000000</i>
     <i type="int" name="INIMIX">     1</i>
     <i type="int" name="MIXPRE">     1</i>
     <i type="int" name="MREMOVE">     5</i>
    </separator>
   </separator>
   <separator name="electronic dipolcorrection" >
    <i type="logical" name="LDIPOL"> F  </i>
    <i type="logical" name="LMONO"> F  </i>
    <i type="int" name="IDIPOL">     0</i>
    <i name="EPSILON">      1.00000000</i>
    <v name="DIPOL">   -100.00000000   -100.00000000   -100.00000000</v>
    <i name="EFIELD">      0.00000000</i>
   </separator>
  </separator>
  <separator name="grids" >
   <i type="int" name="NGX">    96</i>
   <i type="int" name="NGY">    96</i>
   <i type="int" name="NGZ">    96</i>
   <i type="int" name="NGXF">   192</i>
   <i type="int" name="NGYF">   192</i>
   <i type="int" name="NGZF">   192</i>
   <i type="logical" name="ADDGRID"> F  </i>
  </separator>
  <separator name="ionic" >
   <i type="int" name="NSW">  1000</i>
   <i type="int" name="IBRION">     2</i>
   <i type="int" name="ISIF">     2</i>
   <i name="PSTRESS">      0.00000000</i>
   <i name="EDIFFG">      0.00100000</i>
   <i type="int" name="NFREE">     1</i>
   <i name="POTIM">      0.10000000</i>
   <i name="SMASS">     -3.00000000</i>
   <i name="SCALEE">      1.00000000</i>
  </separator>
  <separator name="ionic md" >
   <i name="TEBEG">      0.00010000</i>
   <i name="TEEND">      0.00010000</i>
   <i type="int" name="NBLOCK">     1</i>
   <i type="int" name="KBLOCK">  1000</i>
   <i type="int" name="NPACO">   256</i>
   <i name="APACO">     16.00000000</i>
  </separator>
  <separator name="symmetry" >
   <i type="int" name="ISYM">     2</i>
   <i name="SYMPREC">      0.00001000</i>
  </separator>
  <separator name="dos" >
   <i type="logical" name="LORBIT"> F  </i>
   <v name="RWIGS">     -1.00000000</v>
   <i type="int" name="NEDOS">   301</i>
   <i name="EMIN">     10.00000000</i>
   <i name="EMAX">    -10.00000000</i>
   <i name="EFERMI">      0.00000000</i>
  </separator>
  <separator name="writing" >
   <i type="int" name="NWRITE">     2</i>
   <i type="logical" name="LWAVE"> F  </i>
   <i type="logical" name="LCHARG"> F  </i>
   <i type="logical" name="LPARD"> F  </i>
   <i type="logical" name="LVTOT"> F  </i>
   <i type="logical" name="LVHAR"> F  </i>
   <i type="logical" name="LELF"> F  </i>
   <i type="logical" name="LOPTICS"> F  </i>
   <v name="STM">      0.00000000      0.00000000      0.00000000      0.00000000      0.00000000      0.00000000      0.00000000</v>
  </separator>
  <separator name="performance" >
   <i type="int" name="NPAR">     4</i>
   <i type="int" name="NSIM">     4</i>
   <i type="int" name="NBLK">    -1</i>
   <i type="logical" name="LPLANE"> T  </i>
   <i type="logical" name="LSCALAPACK"> T  </i>
   <i type="logical" name="LSCAAWARE"> F  </i>
   <i type="logical" name="LSCALU"> F  </i>
   <i type="logical" name="LASYNC"> F  </i>
   <i type="logical" name="LORBITALREAL"> F  </i>
  </separator>
  <separator name="miscellaneous" >
   <i type="int" name="IDIOT">     3</i>
   <i type="logical" name="LMUSIC"> F  </i>
   <v name="POMASS">    107.86800000</v>
   <v name="DARWINR">      0.00000000</v>
   <v name="DARWINV">      1.00000000</v>
   <i type="logical" name="LCORR"> T  </i>
  </separator>
  <i type="logical" name="GGA_COMPAT"> T  </i>
  <i type="logical" name="LBERRY"> F  </i>
  <i type="int" name="ICORELEVEL">     0</i>
  <i type="logical" name="LDAU"> F  </i>
  <i type="int" name="I_CONSTRAINED_M">     0</i>
  <separator name="electronic exchange-correlation" >
   <i type="string" name="GGA">PE</i>
   <i type="int" name="VOSKOWN">     0</i>
   <i type="logical" name="LHFCALC"> F  </i>
   <i type="string" name="PRECFOCK"></i>
   <i type="logical" name="LSYMGRAD"> F  </i>
   <i type="logical" name="LHFONE"> F  </i>
   <i type="logical" name="LRHFCALC"> F  </i>
   <i type="logical" name="LTHOMAS"> F  </i>
   <i type="logical" name="LMODELHF"> F  </i>
   <i name="ENCUT4O">     -1.00000000</i>
   <i type="int" name="EXXOEP">     0</i>
   <i type="int" name="FOURORBIT">     0</i>
   <i name="AEXX">      0.00000000</i>
   <i name="HFALPHA">      0.00000000</i>
   <i name="MCALPHA">      0.00000000</i>
   <i name="ALDAX">      1.00000000</i>
   <i name="AGGAX">      1.00000000</i>
   <i name="ALDAC">      1.00000000</i>
   <i name="AGGAC">      1.00000000</i>
   <i type="int" name="NKREDX">     1</i>
   <i type="int" name="NKREDY">     1</i>
   <i type="int" name="NKREDZ">     1</i>
   <i type="logical" name="SHIFTRED"> F  </i>
   <i type="logical" name="ODDONLY"> F  </i>
   <i type="logical" name="EVENONLY"> F  </i>
   <i type="int" name="LMAXFOCK">     0</i>
   <i type="int" name="NMAXFOCKAE">     0</i>
   <i type="logical" name="LFOCKAEDFT"> F  </i>
   <i name="HFSCREEN">      0.00000000</i>
   <i name="HFSCREENC">      0.00000000</i>
   <i type="int" name="NBANDSGWLOW">     0</i>
  </separator>
  <separator name="vdW DFT" >
   <i type="logical" name="LUSE_VDW"> F  </i>
   <i name="Zab_VDW">     -0.84910000</i>
   <i name="PARAM1">      0.12340000</i>
   <i name="PARAM2">      1.00000000</i>
   <i name="PARAM3">      0.00000000</i>
  </separator>
  <separator name="model GW" >
   <i type="int" name="MODEL_GW">     0</i>
   <i name="MODEL_EPS0">    153.46261018</i>
   <i name="MODEL_ALPHA">      1.00000000</i>
  </separator>
  <separator name="linear response parameters" >
   <i type="logical" name="LEPSILON"> F  </i>
   <i type="logical" name="LRPA"> F  </i>
   <i type="logical" name="LNABLA"> F  </i>
   <i type="logical" name="LVEL"> F  </i>
   <i type="int" name="KINTER">     0</i>
   <i name="CSHIFT">      0.10000000</i>
   <i name="OMEGAMAX">     -1.00000000</i>
   <i name="DEG_THRESHOLD">      0.00200000</i>
  </separator>
  <separator name="orbital magnetization" >
   <i type="logical" name="NUCIND"> F  </i>
   <v name="MAGPOS">      0.00000000      0.00000000      0.00000000</v>
   <i type="logical" name="LNICSALL"> T  </i>
   <i type="logical" name="ORBITALMAG"> F  </i>
   <i type="logical" name="LMAGBLOCH"> F  </i>
   <i type="logical" name="LCHIMAG"> F  </i>
   <i type="logical" name="LGAUGE"> T  </i>
   <i type="int" name="MAGATOM">     0</i>
   <v name="MAGDIPOL">      0.00000000      0.00000000      0.00000000</v>
   <v name="AVECCONST">      0.00000000      0.00000000      0.00000000</v>
  </separator>
  <separator name="response functions" >
   <i type="logical" name="LADDER"> F  </i>
   <i type="logical" name="LFXC"> F  </i>
   <i type="logical" name="LHARTREE"> T  </i>
   <i type="int" name="IBSE">     0</i>
   <i type="logical" name="LTCTE"> F  </i>
   <i type="logical" name="LTETE"> F  </i>
   <i type="logical" name="LTRIPLET"> F  </i>
   <i type="logical" name="LFXCEPS"> F  </i>
   <i type="logical" name="LFXHEG"> F  </i>
   <i type="logical" name="L2ORDER"> F  </i>
   <i type="logical" name="LUSEW"> F  </i>
   <i name="ENCUTGW">     -2.00000000</i>
   <i name="ENCUTGWSOFT">     -2.00000000</i>
   <i name="ENCUTLF">     -1.00000000</i>
   <i type="int" name="LMAXMP2">    -1</i>
   <i name="SCISSOR">      0.00000000</i>
   <i type="int" name="NOMEGA">     0</i>
   <i type="int" name="NOMEGAR">     0</i>
   <i type="int" name="NBANDSGW">    -1</i>
   <i type="int" name="NBANDSO">    -1</i>
   <i type="int" name="NBANDSV">    -1</i>
   <i type="int" name="NELM">     1</i>
   <i type="int" name="DIM">     3</i>
   <i type="int" name="ANTIRES">     0</i>
   <i name="OMEGAMAX">    -30.00000000</i>
   <i name="OMEGAMIN">    -30.00000000</i>
   <i name="OMEGATL">   -200.00000000</i>
   <i type="int" name="OMEGAGRID">     0</i>
   <i name="CSHIFT">     -0.10000000</i>
   <i type="logical" name="SELFENERGY"> F  </i>
   <i type="logical" name="LSPECTRAL"> F  </i>
   <i type="logical" name="ODDONLYGW"> F  </i>
   <i type="logical" name="EVENONLYGW"> F  </i>
   <i type="int" name="NKREDLFX">     1</i>
   <i type="int" name="NKREDLFY">     1</i>
   <i type="int" name="NKREDLFZ">     1</i>
   <i type="int" name="MAXMEM">  1800</i>
   <i type="int" name="TELESCOPE">     0</i>
   <i type="int" name="TAUPAR">     1</i>
  </separator>
  <separator name="External order field" >
   <i name="OFIELD_KAPPA">      0.00000000</i>
   <v name="OFIELD_K">      0.00000000      0.00000000      0.00000000</v>
   <i name="OFIELD_Q6_NEAR">      0.00000000</i>
   <i name="OFIELD_Q6_FAR">      0.00000000</i>
   <i name="OFIELD_A">      0.00000000</i>
  </separator>
 </parameters>
 <atominfo>
  <atoms>      53 </atoms>
  <types>       1 </types>
  <array name="atoms" >
   <dimension dim="1">ion</dimension>
   <field type="string">element</field>
   <field type="int">atomtype</field>
   <set>
    <rc><c>Ag</c><c>   1</c></rc>
    <rc><c>Ag</c><c>   1</c></rc>
    <rc><c>Ag</c><c>   1</c></rc>
    <rc><c>Ag</c><c>   1</c></rc>
    <rc><c>Ag</c><c>   1</c></rc>
    <rc><c>Ag</c><c>   1</c></rc>
    <rc><c>Ag</c><c>   1</c></rc>
    <rc><c>Ag</c><c>   1</c></rc>
    <rc><c>Ag</c><c>   1</c></rc>
    <rc><c>Ag</c><c>   1</c></rc>
    <rc><c>Ag</c><c>   1</c></rc>
    <rc><c>Ag</c><c>   1</c></rc>
    <rc><c>Ag</c><c>   1</c></rc>
    <rc><c>Ag</c><c>   1</c></rc>
    <rc><c>Ag</c><c>   1</c></rc>
    <rc><c>Ag</c><c>   1</c></rc>
    <rc><c>Ag</c><c>   1</c></rc>
    <rc><c>Ag</c><c>   1</c></rc>
    <rc><c>Ag</c><c>   1</c></rc>
    <rc><c>Ag</c><c>   1</c></rc>
    <rc><c>Ag</c><c>   1</c></rc>
    <rc><c>Ag</c><c>   1</c></rc>
    <rc><c>Ag</c><c>   1</c></rc>
    <rc><c>Ag</c><c>   1</c></rc>
    <rc><c>Ag</c><c>   1</c></rc>
    <rc><c>Ag</c><c>   1</c></rc>
    <rc><c>Ag</c><c>   1</c></rc>
    <rc><c>Ag</c><c>   1</c></rc>
    <rc><c>Ag</c><c>   1</c></rc>
    <rc><c>Ag</c><c>   1</c></rc>
    <rc><c>Ag</c><c>   1</c></rc>
    <rc><c>Ag</c><c>   1</c></rc>
    <rc><c>Ag</c><c>   1</c></rc>
    <rc><c>Ag</c><c>   1</c></rc>
    <rc><c>Ag</c><c>   1</c></rc>
    <rc><c>Ag</c><c>   1</c></rc>
    <rc><c>Ag</c><c>   1</c></rc>
    <rc><c>Ag</c><c>   1</c></rc>
    <rc><c>Ag</c><c>   1</c></rc>
    <rc><c>Ag</c><c>   1</c></rc>
    <rc><c>Ag</c><c>   1</c></rc>
    <rc><c>Ag</c><c>   1</c></rc>
    <rc><c>Ag</c><c>   1</c></rc>
    <rc><c>Ag</c><c>   1</c></rc>
    <rc><c>Ag</c><c>   1</c></rc>
    <rc><c>Ag</c><c>   1</c></rc>
    <rc><c>Ag</c><c>   1</c></rc>
    <rc><c>Ag</c><c>   1</c></rc>
    <rc><c>Ag</c><c>   1</c></rc>
    <rc><c>Ag</c><c>   1</c></rc>
    <rc><c>Ag</c><c>   1</c></rc>
    <rc><c>Ag</c><c>   1</c></rc>
    <rc><c>Ag</c><c>   1</c></rc>
   </set>
  </array>
  <array name="atomtypes" >
   <dimension dim="1">type</dimension>
   <field type="int">atomspertype</field>
   <field type="string">element</field>
   <field>mass</field>
   <field>valence</field>
   <field type="string">pseudopotential</field>
   <set>
    <rc><c>  53</c><c>Ag</c><c>    107.86800000</c><c>     11.00000000</c><c>  PAW_PBE Ag 02Apr2005                  </c></rc>
   </set>
  </array>
 </atominfo>
 <structure name="initialpos" >
  <crystal>
   <varray name="basis" >
    <v>      23.84381444       0.00000000       0.00000000 </v>
    <v>       0.00000000      23.84381444       0.00000000 </v>
    <v>       0.00000000       0.00000000      23.84381444 </v>
   </varray>
   <i name="volume">  13555.86389963 </i>
   <varray name="rec_basis" >
    <v>       0.04193960       0.00000000       0.00000000 </v>
    <v>       0.00000000       0.04193960       0.00000000 </v>
    <v>       0.00000000       0.00000000       0.04193960 </v>
   </varray>
  </crystal>
  <varray name="positions" >
   <v>       0.67029239       0.32704361       0.55779151 </v>
   <v>       0.58308373       0.37341168       0.63784281 </v>
   <v>       0.56561836       0.27549141       0.56666095 </v>
   <v>       0.66470735       0.44019226       0.58140371 </v>
   <v>       0.60332993       0.48232241       0.68545065 </v>
   <v>       0.65083994       0.58586485       0.70848905 </v>
   <v>       0.61763869       0.30052023       0.45589829 </v>
   <v>       0.67185145       0.40595840       0.46488038 </v>
   <v>       0.67778668       0.55303645       0.60195301 </v>
   <v>       0.57168779       0.38622315       0.51827513 </v>
   <v>       0.63980653       0.67184862       0.62827022 </v>
   <v>       0.47587783       0.34851908       0.57779772 </v>
   <v>       0.48886035       0.43565882       0.67468649 </v>
   <v>       0.62370655       0.51736946       0.49751017 </v>
   <v>       0.49050520       0.54700083       0.71091453 </v>
   <v>       0.65511752       0.62889697       0.51737287 </v>
   <v>       0.55167542       0.63806808       0.73331672 </v>
   <v>       0.50072865       0.29156640       0.47273902 </v>
   <v>       0.55045717       0.47704015       0.58211067 </v>
   <v>       0.56355750       0.39125757       0.39463582 </v>
   <v>       0.64652911       0.47984119       0.38520018 </v>
   <v>       0.56376421       0.58373968       0.62636863 </v>
   <v>       0.66061300       0.59485437       0.40787819 </v>
   <v>       0.38833617       0.38526362       0.64685116 </v>
   <v>       0.39260747       0.51543532       0.66326285 </v>
   <v>       0.66425581       0.55062687       0.29615759 </v>
   <v>       0.43888607       0.46321342       0.56506193 </v>
   <v>       0.45259579       0.32990078       0.37747541 </v>
   <v>       0.53573089       0.71735586       0.65553919 </v>
   <v>       0.47189062       0.40642925       0.46715191 </v>
   <v>       0.54899527       0.67248440       0.55001489 </v>
   <v>       0.32113228       0.46294255       0.59216229 </v>
   <v>       0.55514369       0.62736135       0.44668904 </v>
   <v>       0.56902515       0.60528866       0.33467457 </v>
   <v>       0.45302587       0.62328944       0.61972485 </v>
   <v>       0.53363985       0.50429859       0.42624406 </v>
   <v>       0.49984619       0.55976027       0.52716968 </v>
   <v>       0.42045267       0.50547589       0.45183830 </v>
   <v>       0.37871358       0.56111045       0.55048923 </v>
   <v>       0.55892141       0.49004975       0.30617312 </v>
   <v>       0.30771596       0.48457150       0.47805977 </v>
   <v>       0.45578441       0.74228914       0.58176045 </v>
   <v>       0.46042169       0.43951493       0.34793809 </v>
   <v>       0.37057158       0.37037812       0.52658627 </v>
   <v>       0.47774949       0.71900748       0.46983041 </v>
   <v>       0.48346015       0.67735469       0.35923418 </v>
   <v>       0.46504663       0.55442315       0.34355278 </v>
   <v>       0.37691057       0.67565155       0.52918288 </v>
   <v>       0.32085339       0.59496407       0.45296465 </v>
   <v>       0.35679360       0.50308065       0.35699033 </v>
   <v>       0.36406999       0.40148072       0.41120001 </v>
   <v>       0.43425841       0.61811432       0.44740534 </v>
   <v>       0.37025474       0.61969473       0.34757975 </v>
  </varray>
 </structure>
 <calculation>
  <scstep>
   <time name="dav">    7.58    7.59</time>
   <time name="total">    7.83    8.43</time>
   <energy>
    <i name="alphaZ">    176.25389378 </i>
    <i name="ewald"> 166225.09482312 </i>
    <i name="hartreedc">-219114.41748563 </i>
    <i name="XCdc">   -576.48246437 </i>
    <i name="pawpsdc">  53178.72543769 </i>
    <i name="pawaedc"> -50735.02427058 </i>
    <i name="eentropy">     -0.00000000 </i>
    <i name="bandstr">    691.50541824 </i>
    <i name="atom">  54971.52739458 </i>
    <i name="e_fr_energy">   4817.18274683 </i>
    <i name="e_wo_entrp">   4817.18274683 </i>
    <i name="e_0_energy">   4817.18274683 </i>
   </energy>
  </scstep>
  <scstep>
   <time name="dav">   10.88   10.89</time>
   <time name="total">   10.89   10.90</time>
   <energy>
    <i name="e_fr_energy">    748.24083437 </i>
    <i name="e_wo_entrp">    748.24083437 </i>
    <i name="e_0_energy">    748.24083437 </i>
   </energy>
  </scstep>
  <scstep>
   <time name="dav">    8.82    8.83</time>
   <time name="total">    8.82    8.83</time>
   <energy>
    <i name="e_fr_energy">    -83.63791084 </i>
    <i name="e_wo_entrp">    -83.63791084 </i>
    <i name="e_0_energy">    -83.63791084 </i>
   </energy>
  </scstep>
  <scstep>
   <time name="dav">    7.91    7.92</time>
   <time name="total">    7.92    7.97</time>
   <energy>
    <i name="e_fr_energy">   -115.42262434 </i>
    <i name="e_wo_entrp">   -115.42262434 </i>
    <i name="e_0_energy">   -115.42262434 </i>
   </energy>
  </scstep>
  <scstep>
   <time name="dav">    8.03    8.04</time>
   <time name="total">    8.20    8.22</time>
   <energy>
    <i name="e_fr_energy">   -115.90591689 </i>
    <i name="e_wo_entrp">   -115.90591689 </i>
    <i name="e_0_energy">   -115.90591689 </i>
   </energy>
  </scstep>
  <scstep>
   <time name="dav">    7.62    7.62</time>
   <time name="total">    8.03    9.40</time>
   <energy>
    <i name="e_fr_energy">    -54.46686455 </i>
    <i name="e_wo_entrp">    -54.46686455 </i>
    <i name="e_0_energy">    -54.46686455 </i>
   </energy>
  </scstep>
  <scstep>
   <time name="dav">    7.82    7.83</time>
   <time name="total">    8.24    8.28</time>
   <energy>
    <i name="e_fr_energy">    -45.80550166 </i>
    <i name="e_wo_entrp">    -45.80550166 </i>
    <i name="e_0_energy">    -45.80550166 </i>
   </energy>
  </scstep>
  <scstep>
   <time name="dav">    7.94    7.94</time>
   <time name="total">    8.35    9.50</time>
   <energy>
    <i name="e_fr_energy">    -37.16744930 </i>
    <i name="e_wo_entrp">    -37.16744930 </i>
    <i name="e_0_energy">    -37.16744930 </i>
   </energy>
  </scstep>
  <scstep>
   <time name="dav">    7.88    7.89</time>
   <time name="total">    8.30    8.30</time>
   <energy>
    <i name="e_fr_energy">    -43.89503798 </i>
    <i name="e_wo_entrp">    -43.89503798 </i>
    <i name="e_0_energy">    -43.89503798 </i>
   </energy>
  </scstep>
  <scstep>
   <time name="dav">    7.76    7.76</time>
   <time name="total">    8.21    8.27</time>
   <energy>
    <i name="e_fr_energy">    -50.56376935 </i>
    <i name="e_wo_entrp">    -50.56376935 </i>
    <i name="e_0_energy">    -50.56376935 </i>
   </energy>
  </scstep>
  <scstep>
   <time name="dav">    7.72    7.72</time>
   <time name="total">    8.13    8.24</time>
   <energy>
    <i name="e_fr_energy">    -68.90594030 </i>
    <i name="e_wo_entrp">    -68.90594030 </i>
    <i name="e_0_energy">    -68.90594030 </i>
   </energy>
  </scstep>
  <scstep>
   <time name="dav">    7.85    7.86</time>
   <time name="total">    8.31    8.59</time>
   <energy>
    <i name="e_fr_energy">    -77.10281435 </i>
    <i name="e_wo_entrp">    -77.10281435 </i>
    <i name="e_0_energy">    -77.10281435 </i>
   </energy>
  </scstep>
  <scstep>
   <time name="dav">    7.57    7.58</time>
   <time name="total">    7.99    8.38</time>
   <energy>
    <i name="e_fr_energy">    -90.56849959 </i>
    <i name="e_wo_entrp">    -90.56849959 </i>
    <i name="e_0_energy">    -90.56849959 </i>
   </energy>
  </scstep>
  <scstep>
   <time name="dav">    7.96    7.97</time>
   <time name="total">    8.38    8.41</time>
   <energy>
    <i name="e_fr_energy">    -95.94792587 </i>
    <i name="e_wo_entrp">    -95.94792587 </i>
    <i name="e_0_energy">    -95.94792587 </i>
   </energy>
  </scstep>
  <scstep>
   <time name="dav">    7.89    7.89</time>
   <time name="total">    8.31    8.37</time>
   <energy>
    <i name="e_fr_energy">    -98.69627425 </i>
    <i name="e_wo_entrp">    -98.69627425 </i>
    <i name="e_0_energy">    -98.69627425 </i>
   </energy>
  </scstep>
  <scstep>
   <time name="dav">    7.57    7.58</time>
   <time name="total">    7.99    8.02</time>
   <energy>
    <i name="e_fr_energy">   -104.75177982 </i>
    <i name="e_wo_entrp">   -104.75177982 </i>
    <i name="e_0_energy">   -104.75177982 </i>
   </energy>
  </scstep>
  <scstep>
   <time name="dav">    7.76    7.76</time>
   <time name="total">    8.18    8.22</time>
   <energy>
    <i name="e_fr_energy">   -108.61000542 </i>
    <i name="e_wo_entrp">   -108.61000542 </i>
    <i name="e_0_energy">   -108.61000542 </i>
   </energy>
  </scstep>
  <scstep>
   <time name="dav">    7.78    7.79</time>
   <time name="total">    8.20    8.21</time>
   <energy>
    <i name="e_fr_energy">   -110.57564396 </i>
    <i name="e_wo_entrp">   -110.57564396 </i>
    <i name="e_0_energy">   -110.57564396 </i>
   </energy>
  </scstep>
  <scstep>
   <time name="dav">    8.09    8.09</time>
   <time name="total">    8.50    8.53</time>
   <energy>
    <i name="e_fr_energy">   -110.90017132 </i>
    <i name="e_wo_entrp">   -110.90017132 </i>
    <i name="e_0_energy">   -110.90017132 </i>
   </energy>
  </scstep>
  <scstep>
   <time name="dav">    7.78    7.78</time>
   <time name="total">    8.20   10.31</time>
   <energy>
    <i name="e_fr_energy">   -111.16499849 </i>
    <i name="e_wo_entrp">   -111.16499849 </i>
    <i name="e_0_energy">   -111.16499849 </i>
   </energy>
  </scstep>
  <scstep>
   <time name="dav">    7.74    7.75</time>
   <time name="total">    8.18    8.20</time>
   <energy>
    <i name="e_fr_energy">   -112.21766043 </i>
    <i name="e_wo_entrp">   -112.21766043 </i>
    <i name="e_0_energy">   -112.21766043 </i>
   </energy>
  </scstep>
  <scstep>
   <time name="dav">    8.42    8.42</time>
   <time name="total">    8.85    8.87</time>
   <energy>
    <i name="e_fr_energy">   -113.19799021 </i>
    <i name="e_wo_entrp">   -113.19799021 </i>
    <i name="e_0_energy">   -113.19799021 </i>
   </energy>
  </scstep>
  <scstep>
   <time name="dav">    7.97    7.98</time>
   <time name="total">    8.39    8.41</time>
   <energy>
    <i name="e_fr_energy">   -113.34065816 </i>
    <i name="e_wo_entrp">   -113.34065816 </i>
    <i name="e_0_energy">   -113.34065816 </i>
   </energy>
  </scstep>
  <scstep>
   <time name="dav">    7.68    7.68</time>
   <time name="total">    8.10    8.13</time>
   <energy>
    <i name="e_fr_energy">   -113.48759703 </i>
    <i name="e_wo_entrp">   -113.48759703 </i>
    <i name="e_0_energy">   -113.48759703 </i>
   </energy>
  </scstep>
  <scstep>
   <time name="dav">    7.87    7.88</time>
   <time name="total">    8.29    8.33</time>
   <energy>
    <i name="e_fr_energy">   -113.63742717 </i>
    <i name="e_wo_entrp">   -113.63742717 </i>
    <i name="e_0_energy">   -113.63742717 </i>
   </energy>
  </scstep>
  <scstep>
   <time name="dav">    7.02    7.02</time>
   <time name="total">    7.44    8.30</time>
   <energy>
    <i name="e_fr_energy">   -113.71519840 </i>
    <i name="e_wo_entrp">   -113.71519840 </i>
    <i name="e_0_energy">   -113.71519840 </i>
   </energy>
  </scstep>
  <scstep>
   <time name="dav">    5.88    5.89</time>
   <time name="total">    6.31    6.86</time>
   <energy>
    <i name="e_fr_energy">   -113.75521666 </i>
    <i name="e_wo_entrp">   -113.75521666 </i>
    <i name="e_0_energy">   -113.75521666 </i>
   </energy>
  </scstep>
  <scstep>
   <time name="dav">    8.59    8.60</time>
   <time name="total">    9.02   10.03</time>
   <energy>
    <i name="e_fr_energy">   -113.77534164 </i>
    <i name="e_wo_entrp">   -113.77534164 </i>
    <i name="e_0_energy">   -113.77534164 </i>
   </energy>
  </scstep>
  <scstep>
   <time name="dav">    6.47    6.48</time>
   <time name="total">    7.01    7.04</time>
   <energy>
    <i name="e_fr_energy">   -113.79358642 </i>
    <i name="e_wo_entrp">   -113.79358642 </i>
    <i name="e_0_energy">   -113.79358642 </i>
   </energy>
  </scstep>
  <scstep>
   <time name="dav">    6.25    6.25</time>
   <time name="total">    6.67    6.70</time>
   <energy>
    <i name="e_fr_energy">   -113.80235808 </i>
    <i name="e_wo_entrp">   -113.80235808 </i>
    <i name="e_0_energy">   -113.80235808 </i>
   </energy>
  </scstep>
  <scstep>
   <time name="dav">    5.89    5.89</time>
   <time name="total">    6.34    7.92</time>
   <energy>
    <i name="e_fr_energy">   -113.80713442 </i>
    <i name="e_wo_entrp">   -113.80713442 </i>
    <i name="e_0_energy">   -113.80713442 </i>
   </energy>
  </scstep>
  <scstep>
   <time name="dav">    5.47    5.47</time>
   <time name="total">    5.89    5.90</time>
   <energy>
    <i name="e_fr_energy">   -113.81112870 </i>
    <i name="e_wo_entrp">   -113.81112870 </i>
    <i name="e_0_energy">   -113.81112870 </i>
   </energy>
  </scstep>
  <scstep>
   <time name="dav">    5.68    5.68</time>
   <time name="total">    6.10    6.11</time>
   <energy>
    <i name="e_fr_energy">   -113.81259603 </i>
    <i name="e_wo_entrp">   -113.81259603 </i>
    <i name="e_0_energy">   -113.81259603 </i>
   </energy>
  </scstep>
  <scstep>
   <time name="dav">    5.37    5.38</time>
   <time name="total">    5.82    5.88</time>
   <energy>
    <i name="e_fr_energy">   -113.81313823 </i>
    <i name="e_wo_entrp">   -113.81313823 </i>
    <i name="e_0_energy">   -113.81313823 </i>
   </energy>
  </scstep>
  <scstep>
   <time name="dav">    5.60    5.61</time>
   <time name="total">    6.08    6.14</time>
   <energy>
    <i name="e_fr_energy">   -113.81332860 </i>
    <i name="e_wo_entrp">   -113.81332860 </i>
    <i name="e_0_energy">   -113.81332860 </i>
   </energy>
  </scstep>
  <scstep>
   <time name="dav">    5.53    5.53</time>
   <time name="total">    5.95    6.25</time>
   <energy>
    <i name="e_fr_energy">   -113.81348852 </i>
    <i name="e_wo_entrp">   -113.81348852 </i>
    <i name="e_0_energy">   -113.81348852 </i>
   </energy>
  </scstep>
  <scstep>
   <time name="dav">    5.68    5.69</time>
   <time name="total">    5.93    8.72</time>
   <energy>
    <i name="alphaZ">    176.25389378 </i>
    <i name="ewald"> 166225.09482312 </i>
    <i name="hartreedc">-219020.63338753 </i>
    <i name="XCdc">   -598.03707823 </i>
    <i name="pawpsdc">  57588.66497375 </i>
    <i name="pawaedc"> -55247.15776989 </i>
    <i name="eentropy">     -0.00000000 </i>
    <i name="bandstr">  -4209.52643021 </i>
    <i name="atom">  54971.52739458 </i>
    <i name="e_fr_energy">   -113.81358064 </i>
    <i name="e_wo_entrp">   -113.81358064 </i>
    <i name="e_0_energy">   -113.81358064 </i>
   </energy>
  </scstep>
  <structure>
   <crystal>
    <varray name="basis" >
     <v>      23.84381444       0.00000000       0.00000000 </v>
     <v>       0.00000000      23.84381444       0.00000000 </v>
     <v>       0.00000000       0.00000000      23.84381444 </v>
    </varray>
    <i name="volume">  13555.86389963 </i>
    <varray name="rec_basis" >
     <v>       0.04193960       0.00000000       0.00000000 </v>
     <v>       0.00000000       0.04193960       0.00000000 </v>
     <v>       0.00000000       0.00000000       0.04193960 </v>
    </varray>
   </crystal>
   <varray name="positions" >
    <v>       0.67029239       0.32704361       0.55779151 </v>
    <v>       0.58308373       0.37341168       0.63784281 </v>
    <v>       0.56561836       0.27549141       0.56666095 </v>
    <v>       0.66470735       0.44019226       0.58140371 </v>
    <v>       0.60332993       0.48232241       0.68545065 </v>
    <v>       0.65083994       0.58586485       0.70848905 </v>
    <v>       0.61763869       0.30052023       0.45589829 </v>
    <v>       0.67185145       0.40595840       0.46488038 </v>
    <v>       0.67778668       0.55303645       0.60195301 </v>
    <v>       0.57168779       0.38622315       0.51827513 </v>
    <v>       0.63980653       0.67184862       0.62827022 </v>
    <v>       0.47587783       0.34851908       0.57779772 </v>
    <v>       0.48886035       0.43565882       0.67468649 </v>
    <v>       0.62370655       0.51736946       0.49751017 </v>
    <v>       0.49050520       0.54700083       0.71091453 </v>
    <v>       0.65511752       0.62889697       0.51737287 </v>
    <v>       0.55167542       0.63806808       0.73331672 </v>
    <v>       0.50072865       0.29156640       0.47273902 </v>
    <v>       0.55045717       0.47704015       0.58211067 </v>
    <v>       0.56355750       0.39125757       0.39463582 </v>
    <v>       0.64652911       0.47984119       0.38520018 </v>
    <v>       0.56376421       0.58373968       0.62636863 </v>
    <v>       0.66061300       0.59485437       0.40787819 </v>
    <v>       0.38833617       0.38526362       0.64685116 </v>
    <v>       0.39260747       0.51543532       0.66326285 </v>
    <v>       0.66425581       0.55062687       0.29615759 </v>
    <v>       0.43888607       0.46321342       0.56506193 </v>
    <v>       0.45259579       0.32990078       0.37747541 </v>
    <v>       0.53573089       0.71735586       0.65553919 </v>
    <v>       0.47189062       0.40642925       0.46715191 </v>
    <v>       0.54899527       0.67248440       0.55001489 </v>
    <v>       0.32113228       0.46294255       0.59216229 </v>
    <v>       0.55514369       0.62736135       0.44668904 </v>
    <v>       0.56902515       0.60528866       0.33467457 </v>
    <v>       0.45302587       0.62328944       0.61972485 </v>
    <v>       0.53363985       0.50429859       0.42624406 </v>
    <v>       0.49984619       0.55976027       0.52716968 </v>
    <v>       0.42045267       0.50547589       0.45183830 </v>
    <v>       0.37871358       0.56111045       0.55048923 </v>
    <v>       0.55892141       0.49004975       0.30617312 </v>
    <v>       0.30771596       0.48457150       0.47805977 </v>
    <v>       0.45578441       0.74228914       0.58176045 </v>
    <v>       0.46042169       0.43951493       0.34793809 </v>
    <v>       0.37057158       0.37037812       0.52658627 </v>
    <v>       0.47774949       0.71900748       0.46983041 </v>
    <v>       0.48346015       0.67735469       0.35923418 </v>
    <v>       0.46504663       0.55442315       0.34355278 </v>
    <v>       0.37691057       0.67565155       0.52918288 </v>
    <v>       0.32085339       0.59496407       0.45296465 </v>
    <v>       0.35679360       0.50308065       0.35699033 </v>
    <v>       0.36406999       0.40148072       0.41120001 </v>
    <v>       0.43425841       0.61811432       0.44740534 </v>
    <v>       0.37025474       0.61969473       0.34757975 </v>
   </varray>
  </structure>
  <varray name="forces" >
   <v>      -0.03852853      -0.00823369       0.00558030 </v>
   <v>      -0.03613304      -0.21191740       0.02284248 </v>
   <v>       0.16807551      -0.06704697       0.17553790 </v>
   <v>       0.14222933       0.04838013       0.08483422 </v>
   <v>      -0.08575364      -0.08904374       0.01108576 </v>
   <v>       0.09322545       0.07001512       0.19116694 </v>
   <v>       0.11246659      -0.10840833      -0.10328610 </v>
   <v>       0.10356708      -0.14504038       0.15433926 </v>
   <v>      -0.08207524      -0.04323864       0.00869012 </v>
   <v>       0.23558437      -0.22048259      -0.02586506 </v>
   <v>       0.22859315      -0.11554646      -0.06866033 </v>
   <v>       0.04559252       0.05397106       0.19447292 </v>
   <v>       0.05037681      -0.03605849       0.10683647 </v>
   <v>       0.18859401      -0.01429820       0.05283281 </v>
   <v>       0.01786538      -0.25537671       0.03411764 </v>
   <v>      -0.12657427       0.28744190      -0.01055798 </v>
   <v>       0.17267267       0.00120635       0.12585784 </v>
   <v>       0.05216512       0.12906252       0.11612712 </v>
   <v>       0.44283809      -0.18325554       0.16274660 </v>
   <v>       0.25024930      -0.06061378      -0.07540526 </v>
   <v>      -0.02059423       0.05448753      -0.27192646 </v>
   <v>       0.15213489      -0.00146829       0.15392466 </v>
   <v>       0.11572219      -0.20122785      -0.03229548 </v>
   <v>      -0.07010822       0.18309283      -0.07684654 </v>
   <v>       0.20149468      -0.05857724      -0.00778639 </v>
   <v>      -0.09248869       0.01829997       0.02894395 </v>
   <v>      -0.42928041      -0.39640512       0.11844560 </v>
   <v>      -0.06333375      -0.11487593      -0.15683309 </v>
   <v>      -0.01800455       0.08908783       0.04137252 </v>
   <v>      -0.31084760      -0.47266022       0.13760824 </v>
   <v>      -0.12953652       0.25973911       0.07497691 </v>
   <v>      -0.11701503      -0.13407071      -0.23884067 </v>
   <v>       0.01449759       0.02587761      -0.15090081 </v>
   <v>       0.24190083      -0.14897091      -0.36193036 </v>
   <v>      -0.14171816       0.14022248       0.07735930 </v>
   <v>       0.16437927       0.08204663      -0.12141806 </v>
   <v>      -0.08292087       0.29047321      -0.19865021 </v>
   <v>      -0.39090272       0.05692968       0.08256502 </v>
   <v>      -0.34330370       0.13002789       0.05355453 </v>
   <v>       0.15789965      -0.01663506       0.16546556 </v>
   <v>       0.12472463      -0.44347685      -0.06274300 </v>
   <v>      -0.27049628       0.00992260      -0.12628176 </v>
   <v>      -0.09196180       0.01794502       0.01643395 </v>
   <v>      -0.05220191       0.31905617      -0.02425993 </v>
   <v>       0.10862183       0.30425119       0.03638685 </v>
   <v>      -0.29670355      -0.23522829      -0.01875518 </v>
   <v>      -0.04692377       0.46033823      -0.03212344 </v>
   <v>      -0.04505845       0.07785051       0.09887416 </v>
   <v>       0.10259962       0.18713477      -0.11823609 </v>
   <v>      -0.35875075       0.12478425      -0.02926586 </v>
   <v>      -0.01093457      -0.00125303       0.04820845 </v>
   <v>      -0.01341444      -0.00490693      -0.28330301 </v>
   <v>       0.07749416       0.36667274       0.01498294 </v>
  </varray>
  <varray name="stress" >
   <v>      -1.36309283      -0.36623165       0.23965811 </v>
   <v>      -0.36623166      -1.38731124      -0.33091667 </v>
   <v>       0.23965811      -0.33091667      -1.61645541 </v>
  </varray>
  <energy>
   <i name="e_fr_energy">   -113.81358064 </i>
   <i name="e_wo_entrp">   -113.81358064 </i>
   <i name="e_0_energy">     -0.00000000 </i>
  </energy>
  <time name="totalsc">  302.08  315.95</time>
 </calculation>
 <calculation>
  <scstep>
   <time name="dav">    7.64    7.65</time>
   <time name="total">    8.06    8.08</time>
   <energy>
    <i name="alphaZ">    176.25389378 </i>
    <i name="ewald"> 166150.41043471 </i>
    <i name="hartreedc">-218946.22229255 </i>
    <i name="XCdc">   -598.08011038 </i>
    <i name="pawpsdc">  57588.67156188 </i>
    <i name="pawaedc"> -55247.16447170 </i>
    <i name="eentropy">     -0.00000000 </i>
    <i name="bandstr">  -4209.25089824 </i>
    <i name="atom">  54971.52739458 </i>
    <i name="e_fr_energy">   -113.85448793 </i>
    <i name="e_wo_entrp">   -113.85448793 </i>
    <i name="e_0_energy">   -113.85448793 </i>
   </energy>
  </scstep>
  <scstep>
   <time name="dav">    7.72    7.73</time>
   <time name="total">    8.14    8.15</time>
   <energy>
    <i name="e_fr_energy">   -113.85578584 </i>
    <i name="e_wo_entrp">   -113.85578584 </i>
    <i name="e_0_energy">   -113.85578584 </i>
   </energy>
  </scstep>
  <scstep>
   <time name="dav">    5.75    5.76</time>
   <time name="total">    6.16    6.22</time>
   <energy>
    <i name="e_fr_energy">   -113.85574753 </i>
    <i name="e_wo_entrp">   -113.85574753 </i>
    <i name="e_0_energy">   -113.85574753 </i>
   </energy>
  </scstep>
  <scstep>
   <time name="dav">    5.35    5.36</time>
   <time name="total">    5.59    5.65</time>
   <energy>
    <i name="alphaZ">    176.25389378 </i>
    <i name="ewald"> 166150.41043471 </i>
    <i name="hartreedc">-218946.65765404 </i>
    <i name="XCdc">   -598.07539715 </i>
    <i name="pawpsdc">  57584.81911010 </i>
    <i name="pawaedc"> -55243.24684137 </i>
    <i name="eentropy">     -0.00000000 </i>
    <i name="bandstr">  -4208.88666433 </i>
    <i name="atom">  54971.52739458 </i>
    <i name="e_fr_energy">   -113.85572373 </i>
    <i name="e_wo_entrp">   -113.85572373 </i>
    <i name="e_0_energy">   -113.85572373 </i>
   </energy>
  </scstep>
  <structure>
   <crystal>
    <varray name="basis" >
     <v>      23.84381444       0.00000000       0.00000000 </v>
     <v>       0.00000000      23.84381444       0.00000000 </v>
     <v>       0.00000000       0.00000000      23.84381444 </v>
    </varray>
    <i name="volume">  13555.86389963 </i>
    <varray name="rec_basis" >
     <v>       0.04193960       0.00000000       0.00000000 </v>
     <v>       0.00000000       0.04193960       0.00000000 </v>
     <v>       0.00000000       0.00000000       0.04193960 </v>
    </varray>
   </crystal>
   <varray name="positions" >
    <v>       0.67027680       0.32704028       0.55779377 </v>
    <v>       0.58306911       0.37332593       0.63785205 </v>
    <v>       0.56568637       0.27546428       0.56673198 </v>
    <v>       0.66476490       0.44021184       0.58143803 </v>
    <v>       0.60329523       0.48228637       0.68545514 </v>
    <v>       0.65087767       0.58589319       0.70856641 </v>
    <v>       0.61768420       0.30047636       0.45585649 </v>
    <v>       0.67189336       0.40589971       0.46494283 </v>
    <v>       0.67775347       0.55301896       0.60195652 </v>
    <v>       0.57178312       0.38613393       0.51826467 </v>
    <v>       0.63989903       0.67180186       0.62824244 </v>
    <v>       0.47589628       0.34854092       0.57787641 </v>
    <v>       0.48888073       0.43564423       0.67472972 </v>
    <v>       0.62378286       0.51736368       0.49753155 </v>
    <v>       0.49051243       0.54689749       0.71092833 </v>
    <v>       0.65506631       0.62901328       0.51736860 </v>
    <v>       0.55174529       0.63806857       0.73336765 </v>
    <v>       0.50074976       0.29161863       0.47278601 </v>
    <v>       0.55063637       0.47696600       0.58217652 </v>
    <v>       0.56365876       0.39123305       0.39460531 </v>
    <v>       0.64652077       0.47986324       0.38509014 </v>
    <v>       0.56382578       0.58373909       0.62643092 </v>
    <v>       0.66065983       0.59477294       0.40786512 </v>
    <v>       0.38830780       0.38533771       0.64682006 </v>
    <v>       0.39268900       0.51541162       0.66325970 </v>
    <v>       0.66421838       0.55063427       0.29616930 </v>
    <v>       0.43871236       0.46305301       0.56510986 </v>
    <v>       0.45257016       0.32985429       0.37741195 </v>
    <v>       0.53572361       0.71739191       0.65555594 </v>
    <v>       0.47176484       0.40623799       0.46720759 </v>
    <v>       0.54894285       0.67258951       0.55004523 </v>
    <v>       0.32108493       0.46288830       0.59206564 </v>
    <v>       0.55514956       0.62737182       0.44662798 </v>
    <v>       0.56912304       0.60522838       0.33452811 </v>
    <v>       0.45296852       0.62334618       0.61975615 </v>
    <v>       0.53370637       0.50433180       0.42619492 </v>
    <v>       0.49981264       0.55987782       0.52708929 </v>
    <v>       0.42029449       0.50549892       0.45187171 </v>
    <v>       0.37857466       0.56116307       0.55051091 </v>
    <v>       0.55898531       0.49004302       0.30624008 </v>
    <v>       0.30776643       0.48439205       0.47803438 </v>
    <v>       0.45567495       0.74229316       0.58170934 </v>
    <v>       0.46038448       0.43952219       0.34794474 </v>
    <v>       0.37055045       0.37050723       0.52657645 </v>
    <v>       0.47779344       0.71913060       0.46984514 </v>
    <v>       0.48334009       0.67725951       0.35922659 </v>
    <v>       0.46502764       0.55460943       0.34353978 </v>
    <v>       0.37689234       0.67568306       0.52922289 </v>
    <v>       0.32089490       0.59503979       0.45291680 </v>
    <v>       0.35664843       0.50313114       0.35697849 </v>
    <v>       0.36406557       0.40148021       0.41121952 </v>
    <v>       0.43425298       0.61811233       0.44729070 </v>
    <v>       0.37028609       0.61984310       0.34758581 </v>
   </varray>
  </structure>
  <varray name="forces" >
   <v>      -0.03250297      -0.01027032       0.00828783 </v>
   <v>      -0.03279842      -0.20682215       0.02451451 </v>
   <v>       0.15920374      -0.06696238       0.16992831 </v>
   <v>       0.14408413       0.04022107       0.08360094 </v>
   <v>      -0.07841162      -0.08372336       0.02044664 </v>
   <v>       0.09411907       0.06286578       0.18290362 </v>
   <v>       0.11069682      -0.10939953      -0.10178281 </v>
   <v>       0.10340410      -0.12819391       0.13782050 </v>
   <v>      -0.08055649      -0.03596427       0.00900188 </v>
   <v>       0.21278284      -0.20971262      -0.02676319 </v>
   <v>       0.21881180      -0.11089184      -0.06567734 </v>
   <v>       0.04982789       0.04841317       0.18991634 </v>
   <v>       0.05142692      -0.04094685       0.10054883 </v>
   <v>       0.18203994      -0.01418828       0.04704388 </v>
   <v>       0.03206709      -0.23549846       0.03600532 </v>
   <v>      -0.12695418       0.27734845      -0.01339927 </v>
   <v>       0.16094831      -0.00315888       0.11943460 </v>
   <v>       0.05400367       0.12044504       0.11319940 </v>
   <v>       0.38814514      -0.15840711       0.13297319 </v>
   <v>       0.23439871      -0.05483889      -0.06718399 </v>
   <v>      -0.01229331       0.03427131      -0.24345659 </v>
   <v>       0.13464219       0.00197754       0.14330090 </v>
   <v>       0.11046657      -0.19295953      -0.02463654 </v>
   <v>      -0.06969659       0.17436909      -0.06949422 </v>
   <v>       0.18578186      -0.06069781      -0.01907905 </v>
   <v>      -0.07744899       0.01810760       0.01664841 </v>
   <v>      -0.38363994      -0.35907402       0.10882226 </v>
   <v>      -0.05941717      -0.11119265      -0.15022219 </v>
   <v>      -0.01911054       0.08402349       0.03804902 </v>
   <v>      -0.29035623      -0.43752481       0.12613182 </v>
   <v>      -0.12423508       0.24635793       0.06813532 </v>
   <v>      -0.11750916      -0.12292268      -0.22208324 </v>
   <v>       0.01585480       0.03234129      -0.14793212 </v>
   <v>       0.22364652      -0.13049353      -0.34366130 </v>
   <v>      -0.13324738       0.13276992       0.07483231 </v>
   <v>       0.14043397       0.07409208      -0.11189802 </v>
   <v>      -0.07487851       0.25129453      -0.16928107 </v>
   <v>      -0.35420723       0.04261713       0.07924229 </v>
   <v>      -0.32779589       0.12141014       0.05653292 </v>
   <v>       0.14022218      -0.02122603       0.15860189 </v>
   <v>       0.11488366      -0.42074921      -0.06663940 </v>
   <v>      -0.25869828       0.01302571      -0.11136092 </v>
   <v>      -0.08684420       0.03163837       0.02283159 </v>
   <v>      -0.05883156       0.30353756      -0.02520483 </v>
   <v>       0.10430454       0.28402139       0.02674307 </v>
   <v>      -0.27954666      -0.22697995      -0.02428249 </v>
   <v>      -0.04195071       0.42652036      -0.02976736 </v>
   <v>      -0.04343206       0.07002975       0.08808817 </v>
   <v>       0.09594210       0.16812987      -0.11221087 </v>
   <v>      -0.34424057       0.12497011      -0.02609330 </v>
   <v>      -0.01018028      -0.00306640       0.03837801 </v>
   <v>      -0.01098223       0.00936202      -0.25964206 </v>
   <v>       0.06762769       0.36170476       0.00978841 </v>
  </varray>
  <varray name="stress" >
   <v>      -1.39611989      -0.35739602       0.23181308 </v>
   <v>      -0.35739602      -1.42758577      -0.32104610 </v>
   <v>       0.23181308      -0.32104609      -1.63996038 </v>
  </varray>
  <energy>
   <i name="e_fr_energy">   -113.85572373 </i>
   <i name="e_wo_entrp">   -113.85572373 </i>
   <i name="e_0_energy">     -0.00000000 </i>
  </energy>
  <time name="totalsc">   42.70   42.87</time>
 </calculation>
 <calculation>
  <scstep>
   <time name="dav">    7.52    7.53</time>
   <time name="total">    7.93    9.37</time>
   <energy>
    <i name="alphaZ">    176.25389378 </i>
    <i name="ewald"> 165927.07982301 </i>
    <i name="hartreedc">-218724.10572897 </i>
    <i name="XCdc">   -598.19625321 </i>
    <i name="pawpsdc">  57582.09556681 </i>
    <i name="pawaedc"> -55240.48770457 </i>
    <i name="eentropy">      0.00000000 </i>
    <i name="bandstr">  -4208.12200868 </i>
    <i name="atom">  54971.52739458 </i>
    <i name="e_fr_energy">   -113.95501726 </i>
    <i name="e_wo_entrp">   -113.95501726 </i>
    <i name="e_0_energy">   -113.95501726 </i>
   </energy>
  </scstep>
  <scstep>
   <time name="dav">    7.83    7.83</time>
   <time name="total">    8.24    8.28</time>
   <energy>
    <i name="e_fr_energy">   -113.96651536 </i>
    <i name="e_wo_entrp">   -113.96651536 </i>
    <i name="e_0_energy">   -113.96651536 </i>
   </energy>
  </scstep>
  <scstep>
   <time name="dav">    7.75    7.76</time>
   <time name="total">    8.16    8.18</time>
   <energy>
    <i name="e_fr_energy">   -113.96620607 </i>
    <i name="e_wo_entrp">   -113.96620607 </i>
    <i name="e_0_energy">   -113.96620607 </i>
   </energy>
  </scstep>
  <scstep>
   <time name="dav">    7.73    7.74</time>
   <time name="total">    8.18    9.18</time>
   <energy>
    <i name="e_fr_energy">   -113.96598730 </i>
    <i name="e_wo_entrp">   -113.96598730 </i>
    <i name="e_0_energy">   -113.96598730 </i>
   </energy>
  </scstep>
  <scstep>
   <time name="dav">    5.64    5.64</time>
   <time name="total">    5.88    5.91</time>
   <energy>
    <i name="alphaZ">    176.25389378 </i>
    <i name="ewald"> 165927.07982301 </i>
    <i name="hartreedc">-218725.60883408 </i>
    <i name="XCdc">   -598.17704131 </i>
    <i name="pawpsdc">  57563.74417437 </i>
    <i name="pawaedc"> -55221.84865487 </i>
    <i name="eentropy">     -0.00000000 </i>
    <i name="bandstr">  -4206.93672741 </i>
    <i name="atom">  54971.52739458 </i>
    <i name="e_fr_energy">   -113.96597193 </i>
    <i name="e_wo_entrp">   -113.96597193 </i>
    <i name="e_0_energy">   -113.96597193 </i>
   </energy>
  </scstep>
  <structure>
   <crystal>
    <varray name="basis" >
     <v>      23.84381444       0.00000000       0.00000000 </v>
     <v>       0.00000000      23.84381444       0.00000000 </v>
     <v>       0.00000000       0.00000000      23.84381444 </v>
    </varray>
    <i name="volume">  13555.86389963 </i>
    <varray name="rec_basis" >
     <v>       0.04193960       0.00000000       0.00000000 </v>
     <v>       0.00000000       0.04193960       0.00000000 </v>
     <v>       0.00000000       0.00000000       0.04193960 </v>
    </varray>
   </crystal>
   <varray name="positions" >
    <v>       0.67023002       0.32703028       0.55780054 </v>
    <v>       0.58302525       0.37306867       0.63787978 </v>
    <v>       0.56589041       0.27538289       0.56694508 </v>
    <v>       0.66493757       0.44027057       0.58154102 </v>
    <v>       0.60319113       0.48217828       0.68546860 </v>
    <v>       0.65099084       0.58597818       0.70879848 </v>
    <v>       0.61782073       0.30034476       0.45573111 </v>
    <v>       0.67201909       0.40572363       0.46513020 </v>
    <v>       0.67765383       0.55296647       0.60196707 </v>
    <v>       0.57206911       0.38586627       0.51823327 </v>
    <v>       0.64017654       0.67166159       0.62815909 </v>
    <v>       0.47595163       0.34860644       0.57811250 </v>
    <v>       0.48894189       0.43560045       0.67485942 </v>
    <v>       0.62401181       0.51734632       0.49759569 </v>
    <v>       0.49053412       0.54658747       0.71096975 </v>
    <v>       0.65491265       0.62936223       0.51735578 </v>
    <v>       0.55195491       0.63807004       0.73352044 </v>
    <v>       0.50081308       0.29177531       0.47292699 </v>
    <v>       0.55117396       0.47674353       0.58237409 </v>
    <v>       0.56396256       0.39115946       0.39451377 </v>
    <v>       0.64649577       0.47992938       0.38476003 </v>
    <v>       0.56401046       0.58373730       0.62661778 </v>
    <v>       0.66080031       0.59452865       0.40782592 </v>
    <v>       0.38822269       0.38555997       0.64672677 </v>
    <v>       0.39293361       0.51534051       0.66325025 </v>
    <v>       0.66410611       0.55065649       0.29620443 </v>
    <v>       0.43819123       0.46257179       0.56525365 </v>
    <v>       0.45249327       0.32971484       0.37722156 </v>
    <v>       0.53570175       0.71750006       0.65560616 </v>
    <v>       0.47138748       0.40566420       0.46737464 </v>
    <v>       0.54878560       0.67290482       0.55013625 </v>
    <v>       0.32094288       0.46272554       0.59177570 </v>
    <v>       0.55516716       0.62740324       0.44644479 </v>
    <v>       0.56941670       0.60504753       0.33408874 </v>
    <v>       0.45279648       0.62351641       0.61985006 </v>
    <v>       0.53390592       0.50443140       0.42604753 </v>
    <v>       0.49971198       0.56023044       0.52684814 </v>
    <v>       0.41981995       0.50556803       0.45197194 </v>
    <v>       0.37815790       0.56132092       0.55057592 </v>
    <v>       0.55917699       0.49002282       0.30644095 </v>
    <v>       0.30791784       0.48385368       0.47795822 </v>
    <v>       0.45534658       0.74230521       0.58155604 </v>
    <v>       0.46027284       0.43954397       0.34796469 </v>
    <v>       0.37048708       0.37089455       0.52654700 </v>
    <v>       0.47792531       0.71949995       0.46988931 </v>
    <v>       0.48297990       0.67697395       0.35920382 </v>
    <v>       0.46497067       0.55516826       0.34350078 </v>
    <v>       0.37683764       0.67577757       0.52934292 </v>
    <v>       0.32101946       0.59526697       0.45277327 </v>
    <v>       0.35621292       0.50328263       0.35694296 </v>
    <v>       0.36405229       0.40147869       0.41127804 </v>
    <v>       0.43423670       0.61810637       0.44694678 </v>
    <v>       0.37038017       0.62028823       0.34760400 </v>
   </varray>
  </structure>
  <varray name="forces" >
   <v>      -0.01390545      -0.01265610       0.01633495 </v>
   <v>      -0.02567480      -0.19688390       0.03138707 </v>
   <v>       0.13432544      -0.06790077       0.15968766 </v>
   <v>       0.15125665       0.01960790       0.07947243 </v>
   <v>      -0.05984906      -0.07107362       0.04946251 </v>
   <v>       0.09898449       0.04524013       0.16530577 </v>
   <v>       0.10935511      -0.11323157      -0.10476358 </v>
   <v>       0.10531008      -0.08466795       0.09430655 </v>
   <v>      -0.07745664      -0.01718332       0.01077204 </v>
   <v>       0.15363785      -0.18175113      -0.02824297 </v>
   <v>       0.19762614      -0.10079907      -0.05963740 </v>
   <v>       0.06387686       0.03461007       0.18318799 </v>
   <v>       0.05118479      -0.05359709       0.08803228 </v>
   <v>       0.17205473      -0.01247209       0.03211477 </v>
   <v>       0.06529413      -0.19050387       0.04520714 </v>
   <v>      -0.12893451       0.25434146      -0.02586071 </v>
   <v>       0.13379796      -0.01523900       0.10475029 </v>
   <v>       0.06012365       0.09609855       0.10693356 </v>
   <v>       0.24514192      -0.09276601       0.05265330 </v>
   <v>       0.19815081      -0.04050999      -0.04748983 </v>
   <v>       0.01280288      -0.02333462      -0.16886222 </v>
   <v>       0.08951708       0.01193269       0.11682016 </v>
   <v>       0.09978877      -0.17177870      -0.00085568 </v>
   <v>      -0.06985182       0.15629219      -0.04637519 </v>
   <v>       0.15106291      -0.06968807      -0.04411152 </v>
   <v>      -0.03737537       0.01744114      -0.01996373 </v>
   <v>      -0.26717732      -0.26093075       0.08260486 </v>
   <v>      -0.04928412      -0.10286211      -0.13655540 </v>
   <v>      -0.02263646       0.07101547       0.02990420 </v>
   <v>      -0.24026357      -0.34485630       0.09462334 </v>
   <v>      -0.11143915       0.21422240       0.05507757 </v>
   <v>      -0.12186174      -0.09528379      -0.18075037 </v>
   <v>       0.02165024       0.04713379      -0.14447158 </v>
   <v>       0.17441749      -0.08226385      -0.30014839 </v>
   <v>      -0.11508927       0.11591980       0.06869210 </v>
   <v>       0.07657703       0.05469295      -0.09089645 </v>
   <v>      -0.05642216       0.14843806      -0.09029549 </v>
   <v>      -0.25810822       0.00443626       0.07278451 </v>
   <v>      -0.29036733       0.09942667       0.06537151 </v>
   <v>       0.09424531      -0.03398035       0.14119653 </v>
   <v>       0.08773186      -0.36987736      -0.07918825 </v>
   <v>      -0.22919515       0.02001025      -0.07257863 </v>
   <v>      -0.07370584       0.06721988       0.04009466 </v>
   <v>      -0.08165725       0.26807640      -0.02682037 </v>
   <v>       0.09199883       0.23714700      -0.00086014 </v>
   <v>      -0.23858204      -0.20608373      -0.04351837 </v>
   <v>      -0.02710299       0.34193064      -0.02535959 </v>
   <v>      -0.04004122       0.04519249       0.06222853 </v>
   <v>       0.07850768       0.11959942      -0.09818087 </v>
   <v>      -0.31205306       0.12836968      -0.01572593 </v>
   <v>      -0.00846836      -0.00589710       0.00899534 </v>
   <v>      -0.00272641       0.04649493      -0.19696417 </v>
   <v>       0.04080861       0.35318197      -0.00952476 </v>
  </varray>
  <varray name="stress" >
   <v>      -1.46820378      -0.33549216       0.21260665 </v>
   <v>      -0.33549216      -1.51678380      -0.29567901 </v>
   <v>       0.21260664      -0.29567900      -1.68820119 </v>
  </varray>
  <energy>
   <i name="e_fr_energy">   -113.96597193 </i>
   <i name="e_wo_entrp">   -113.96597193 </i>
   <i name="e_0_energy">     -0.00000000 </i>
  </energy>
  <time name="totalsc">   53.14   57.15</time>
 </calculation>
 <calculation>
  <scstep>
   <time name="dav">    7.53    7.54</time>
   <time name="total">    7.94    7.96</time>
   <energy>
    <i name="alphaZ">    176.25389378 </i>
    <i name="ewald"> 165483.63957698 </i>
    <i name="hartreedc">-218283.32152351 </i>
    <i name="XCdc">   -598.38754919 </i>
    <i name="pawpsdc">  57563.49919024 </i>
    <i name="pawaedc"> -55221.60196114 </i>
    <i name="eentropy">      0.00000000 </i>
    <i name="bandstr">  -4205.68216194 </i>
    <i name="atom">  54971.52739458 </i>
    <i name="e_fr_energy">   -114.07314019 </i>
    <i name="e_wo_entrp">   -114.07314019 </i>
    <i name="e_0_energy">   -114.07314019 </i>
   </energy>
  </scstep>
  <scstep>
   <time name="dav">    7.69    7.70</time>
   <time name="total">    8.11    8.12</time>
   <energy>
    <i name="e_fr_energy">   -114.11926275 </i>
    <i name="e_wo_entrp">   -114.11926275 </i>
    <i name="e_0_energy">   -114.11926275 </i>
   </energy>
  </scstep>
  <scstep>
   <time name="dav">    7.71    7.72</time>
   <time name="total">    8.14    9.85</time>
   <energy>
    <i name="e_fr_energy">   -114.11811110 </i>
    <i name="e_wo_entrp">   -114.11811110 </i>
    <i name="e_0_energy">   -114.11811110 </i>
   </energy>
  </scstep>
  <scstep>
   <time name="dav">    7.93    7.94</time>
   <time name="total">    8.36    8.37</time>
   <energy>
    <i name="e_fr_energy">   -114.11708432 </i>
    <i name="e_wo_entrp">   -114.11708432 </i>
    <i name="e_0_energy">   -114.11708432 </i>
   </energy>
  </scstep>
  <scstep>
   <time name="dav">    5.96    5.97</time>
   <time name="total">    6.21    6.26</time>
   <energy>
    <i name="alphaZ">    176.25389378 </i>
    <i name="ewald"> 165483.63957698 </i>
    <i name="hartreedc">-218286.11990397 </i>
    <i name="XCdc">   -598.35285176 </i>
    <i name="pawpsdc">  57535.11330673 </i>
    <i name="pawaedc"> -55192.73930201 </i>
    <i name="eentropy">      0.00000000 </i>
    <i name="bandstr">  -4203.43922625 </i>
    <i name="atom">  54971.52739458 </i>
    <i name="e_fr_energy">   -114.11711193 </i>
    <i name="e_wo_entrp">   -114.11711193 </i>
    <i name="e_0_energy">   -114.11711193 </i>
   </energy>
  </scstep>
  <structure>
   <crystal>
    <varray name="basis" >
     <v>      23.84381444       0.00000000       0.00000000 </v>
     <v>       0.00000000      23.84381444       0.00000000 </v>
     <v>       0.00000000       0.00000000      23.84381444 </v>
    </varray>
    <i name="volume">  13555.86389963 </i>
    <varray name="rec_basis" >
     <v>       0.04193960       0.00000000       0.00000000 </v>
     <v>       0.00000000       0.04193960       0.00000000 </v>
     <v>       0.00000000       0.00000000       0.04193960 </v>
    </varray>
   </crystal>
   <varray name="positions" >
    <v>       0.67013648       0.32701029       0.55781409 </v>
    <v>       0.58293752       0.37255414       0.63793524 </v>
    <v>       0.56629848       0.27522010       0.56737127 </v>
    <v>       0.66528289       0.44038803       0.58174699 </v>
    <v>       0.60298292       0.48196209       0.68549551 </v>
    <v>       0.65121718       0.58614817       0.70926262 </v>
    <v>       0.61809380       0.30008155       0.45548034 </v>
    <v>       0.67227054       0.40537148       0.46550492 </v>
    <v>       0.67745456       0.55286148       0.60198817 </v>
    <v>       0.57264109       0.38533096       0.51817047 </v>
    <v>       0.64073155       0.67138105       0.62799239 </v>
    <v>       0.47606232       0.34873747       0.57858467 </v>
    <v>       0.48906420       0.43551291       0.67511881 </v>
    <v>       0.62446971       0.51731161       0.49772396 </v>
    <v>       0.49057750       0.54596743       0.71105258 </v>
    <v>       0.65460533       0.63006012       0.51733015 </v>
    <v>       0.55237414       0.63807296       0.73382601 </v>
    <v>       0.50093974       0.29208866       0.47320894 </v>
    <v>       0.55224914       0.47629860       0.58276923 </v>
    <v>       0.56457015       0.39101230       0.39433069 </v>
    <v>       0.64644577       0.48006168       0.38409982 </v>
    <v>       0.56437984       0.58373374       0.62699150 </v>
    <v>       0.66108128       0.59404009       0.40774750 </v>
    <v>       0.38805248       0.38600451       0.64654020 </v>
    <v>       0.39342283       0.51519829       0.66323135 </v>
    <v>       0.66388155       0.55070092       0.29627471 </v>
    <v>       0.43714897       0.46160935       0.56554123 </v>
    <v>       0.45233950       0.32943593       0.37684078 </v>
    <v>       0.53565804       0.71771636       0.65570661 </v>
    <v>       0.47063276       0.40451661       0.46770874 </v>
    <v>       0.54847110       0.67353545       0.55031829 </v>
    <v>       0.32065877       0.46240003       0.59119581 </v>
    <v>       0.55520236       0.62746607       0.44607841 </v>
    <v>       0.57000402       0.60468584       0.33320999 </v>
    <v>       0.45245240       0.62385686       0.62003789 </v>
    <v>       0.53430502       0.50463060       0.42575273 </v>
    <v>       0.49951065       0.56093569       0.52636583 </v>
    <v>       0.41887086       0.50570626       0.45217240 </v>
    <v>       0.37732438       0.56163662       0.55070595 </v>
    <v>       0.55956036       0.48998243       0.30684269 </v>
    <v>       0.30822067       0.48277695       0.47780588 </v>
    <v>       0.45468983       0.74232930       0.58124944 </v>
    <v>       0.46004956       0.43958754       0.34800459 </v>
    <v>       0.37036034       0.37166920       0.52648810 </v>
    <v>       0.47818903       0.72023865       0.46997765 </v>
    <v>       0.48225952       0.67640283       0.35915829 </v>
    <v>       0.46485675       0.55628593       0.34342279 </v>
    <v>       0.37672824       0.67596658       0.52958298 </v>
    <v>       0.32126856       0.59572132       0.45248620 </v>
    <v>       0.35534190       0.50358560       0.35687191 </v>
    <v>       0.36402575       0.40147565       0.41139509 </v>
    <v>       0.43420413       0.61809446       0.44625894 </v>
    <v>       0.37056832       0.62117849       0.34764038 </v>
   </varray>
  </structure>
  <varray name="forces" >
   <v>       0.02497120      -0.02042443       0.03328029 </v>
   <v>      -0.01048455      -0.17694273       0.04522536 </v>
   <v>       0.08649238      -0.07268573       0.13656469 </v>
   <v>       0.16750001      -0.02544054       0.07181390 </v>
   <v>      -0.01883177      -0.04601687       0.11159330 </v>
   <v>       0.11044441       0.01066420       0.12859759 </v>
   <v>       0.10431229      -0.12212739      -0.10691566 </v>
   <v>       0.10909225      -0.00086695       0.00819299 </v>
   <v>      -0.06944618       0.02077461       0.01526421 </v>
   <v>       0.03231763      -0.12493999      -0.02911550 </v>
   <v>       0.15975927      -0.07862764      -0.04351372 </v>
   <v>       0.09148638       0.00404165       0.16347655 </v>
   <v>       0.05268665      -0.08384547       0.05980660 </v>
   <v>       0.14767068      -0.00792743       0.00123303 </v>
   <v>       0.13544329      -0.08975739       0.06458669 </v>
   <v>      -0.13289195       0.20180504      -0.05244917 </v>
   <v>       0.07827133      -0.03564012       0.07404591 </v>
   <v>       0.07454044       0.03990721       0.09453126 </v>
   <v>      -0.01610039       0.02761196      -0.10048670 </v>
   <v>       0.12560979      -0.01242673      -0.00663027 </v>
   <v>       0.06442036      -0.13715590      -0.01853645 </v>
   <v>       0.00052912       0.03206477       0.06444567 </v>
   <v>       0.07650684      -0.12597011       0.04618404 </v>
   <v>      -0.07278196       0.11065148       0.00558706 </v>
   <v>       0.07634004      -0.08242043      -0.09456120 </v>
   <v>       0.05272877       0.01422066      -0.09792593 </v>
   <v>      -0.04398690      -0.06487422       0.03004072 </v>
   <v>      -0.03038386      -0.08635616      -0.10550435 </v>
   <v>      -0.02989715       0.04548924       0.01546714 </v>
   <v>      -0.13933469      -0.16663803       0.03147504 </v>
   <v>      -0.08647624       0.14970327       0.02934115 </v>
   <v>      -0.14238369      -0.03791613      -0.09603201 </v>
   <v>       0.03277285       0.07722247      -0.13654032 </v>
   <v>       0.06592014       0.01803341      -0.20631865 </v>
   <v>      -0.07742292       0.08301451       0.05632473 </v>
   <v>      -0.03948992       0.01963216      -0.04792234 </v>
   <v>      -0.02412789      -0.03034231       0.05128412 </v>
   <v>      -0.06607019      -0.06146938       0.05629363 </v>
   <v>      -0.21589761       0.05592361       0.08008810 </v>
   <v>      -0.00655075      -0.06308149       0.09956023 </v>
   <v>       0.01939149      -0.26735290      -0.09687908 </v>
   <v>      -0.16743830       0.03737232       0.00446453 </v>
   <v>      -0.04670757       0.13292974       0.07489513 </v>
   <v>      -0.13555074       0.17669493      -0.03362638 </v>
   <v>       0.06894234       0.14776288      -0.05686946 </v>
   <v>      -0.14273479      -0.14317023      -0.08172406 </v>
   <v>       0.00821982       0.16758990      -0.02081401 </v>
   <v>      -0.03601671      -0.00371214       0.00816780 </v>
   <v>       0.04156359       0.03412633      -0.07025378 </v>
   <v>      -0.24326498       0.13232430       0.00559693 </v>
   <v>      -0.00279796      -0.01687184      -0.05373824 </v>
   <v>       0.01226700       0.11274776      -0.06314149 </v>
   <v>      -0.02313069       0.33269229      -0.04792958 </v>
  </varray>
  <varray name="stress" >
   <v>      -1.58746834      -0.29515966       0.17401789 </v>
   <v>      -0.29515965      -1.66544832      -0.24767783 </v>
   <v>       0.17401790      -0.24767783      -1.77366760 </v>
  </varray>
  <energy>
   <i name="e_fr_energy">   -114.11711193 </i>
   <i name="e_wo_entrp">   -114.11711193 </i>
   <i name="e_0_energy">      0.00000000 </i>
  </energy>
  <time name="totalsc">   53.42   56.51</time>
 </calculation>
 <calculation>
  <scstep>
   <time name="dav">    7.44    7.45</time>
   <time name="total">    7.88    7.90</time>
   <energy>
    <i name="alphaZ">    176.25389378 </i>
    <i name="ewald"> 164609.39905532 </i>
    <i name="hartreedc">-217413.24012003 </i>
    <i name="XCdc">   -598.64311271 </i>
    <i name="pawpsdc">  57534.85024068 </i>
    <i name="pawaedc"> -55192.47593347 </i>
    <i name="eentropy">      0.00000000 </i>
    <i name="bandstr">  -4201.64582536 </i>
    <i name="atom">  54971.52739458 </i>
    <i name="e_fr_energy">   -113.97440722 </i>
    <i name="e_wo_entrp">   -113.97440722 </i>
    <i name="e_0_energy">   -113.97440722 </i>
   </energy>
  </scstep>
  <scstep>
   <time name="dav">    8.41    8.41</time>
   <time name="total">    8.82    8.83</time>
   <energy>
    <i name="e_fr_energy">   -114.16320329 </i>
    <i name="e_wo_entrp">   -114.16320329 </i>
    <i name="e_0_energy">   -114.16320329 </i>
   </energy>
  </scstep>
  <scstep>
   <time name="dav">    7.68    7.69</time>
   <time name="total">    8.12    8.14</time>
   <energy>
    <i name="e_fr_energy">   -114.15895784 </i>
    <i name="e_wo_entrp">   -114.15895784 </i>
    <i name="e_0_energy">   -114.15895784 </i>
   </energy>
  </scstep>
  <scstep>
   <time name="dav">    7.86    7.87</time>
   <time name="total">    8.27    8.32</time>
   <energy>
    <i name="e_fr_energy">   -114.15474548 </i>
    <i name="e_wo_entrp">   -114.15474548 </i>
    <i name="e_0_energy">   -114.15474548 </i>
   </energy>
  </scstep>
  <scstep>
   <time name="dav">    7.82    7.83</time>
   <time name="total">    8.25    8.43</time>
   <energy>
    <i name="e_fr_energy">   -114.15483383 </i>
    <i name="e_wo_entrp">   -114.15483383 </i>
    <i name="e_0_energy">   -114.15483383 </i>
   </energy>
  </scstep>
  <scstep>
   <time name="dav">    5.86    5.86</time>
   <time name="total">    6.09    6.11</time>
   <energy>
    <i name="alphaZ">    176.25389378 </i>
    <i name="ewald"> 164609.39905532 </i>
    <i name="hartreedc">-217417.77969848 </i>
    <i name="XCdc">   -598.58796862 </i>
    <i name="pawpsdc">  57508.96736699 </i>
    <i name="pawaedc"> -55166.01513529 </i>
    <i name="eentropy">      0.00000000 </i>
    <i name="bandstr">  -4197.91972227 </i>
    <i name="atom">  54971.52739458 </i>
    <i name="e_fr_energy">   -114.15481398 </i>
    <i name="e_wo_entrp">   -114.15481398 </i>
    <i name="e_0_energy">   -114.15481398 </i>
   </energy>
  </scstep>
  <structure>
   <crystal>
    <varray name="basis" >
     <v>      23.84381444       0.00000000       0.00000000 </v>
     <v>       0.00000000      23.84381444       0.00000000 </v>
     <v>       0.00000000       0.00000000      23.84381444 </v>
    </varray>
    <i name="volume">  13555.86389963 </i>
    <varray name="rec_basis" >
     <v>       0.04193960       0.00000000       0.00000000 </v>
     <v>       0.00000000       0.04193960       0.00000000 </v>
     <v>       0.00000000       0.00000000       0.04193960 </v>
    </varray>
   </crystal>
   <varray name="positions" >
    <v>       0.66994939       0.32697031       0.55784119 </v>
    <v>       0.58276206       0.37152510       0.63804616 </v>
    <v>       0.56711463       0.27489453       0.56822366 </v>
    <v>       0.66597354       0.44062296       0.58215894 </v>
    <v>       0.60256652       0.48152970       0.68554934 </v>
    <v>       0.65166987       0.58648816       0.71019090 </v>
    <v>       0.61863992       0.29955513       0.45497879 </v>
    <v>       0.67277345       0.40466719       0.46625437 </v>
    <v>       0.67705601       0.55265152       0.60203037 </v>
    <v>       0.57378506       0.38426032       0.51804487 </v>
    <v>       0.64184157       0.67081998       0.62765898 </v>
    <v>       0.47628371       0.34899955       0.57952900 </v>
    <v>       0.48930882       0.43533781       0.67563759 </v>
    <v>       0.62538549       0.51724218       0.49798051 </v>
    <v>       0.49066425       0.54472736       0.71121825 </v>
    <v>       0.65399071       0.63145590       0.51727888 </v>
    <v>       0.55321262       0.63807882       0.73443716 </v>
    <v>       0.50119304       0.29271537       0.47377283 </v>
    <v>       0.55439950       0.47540873       0.58355950 </v>
    <v>       0.56578532       0.39071796       0.39396453 </v>
    <v>       0.64634577       0.48032626       0.38277938 </v>
    <v>       0.56511858       0.58372661       0.62773894 </v>
    <v>       0.66164321       0.59306295       0.40759068 </v>
    <v>       0.38771204       0.38689359       0.64616704 </v>
    <v>       0.39440126       0.51491385       0.66319354 </v>
    <v>       0.66343244       0.55078978       0.29641526 </v>
    <v>       0.43506444       0.45968446       0.56611639 </v>
    <v>       0.45203196       0.32887811       0.37607922 </v>
    <v>       0.53557061       0.71814896       0.65590751 </v>
    <v>       0.46912333       0.40222143       0.46837695 </v>
    <v>       0.54784208       0.67479671       0.55068237 </v>
    <v>       0.32009057       0.46174900       0.59003603 </v>
    <v>       0.55527276       0.62759172       0.44534566 </v>
    <v>       0.57117866       0.60396246       0.33145251 </v>
    <v>       0.45176423       0.62453776       0.62041353 </v>
    <v>       0.53510323       0.50502901       0.42516314 </v>
    <v>       0.49910800       0.56234619       0.52540121 </v>
    <v>       0.41697269       0.50598270       0.45257333 </v>
    <v>       0.37565734       0.56226802       0.55096600 </v>
    <v>       0.56032710       0.48990166       0.30764617 </v>
    <v>       0.30882631       0.48062349       0.47750121 </v>
    <v>       0.45337633       0.74237748       0.58063623 </v>
    <v>       0.45960301       0.43967468       0.34808440 </v>
    <v>       0.37010685       0.37321850       0.52637030 </v>
    <v>       0.47871649       0.72171605       0.47015434 </v>
    <v>       0.48081877       0.67526059       0.35906721 </v>
    <v>       0.46462889       0.55852127       0.34326680 </v>
    <v>       0.37650944       0.67634461       0.53006310 </v>
    <v>       0.32176677       0.59663002       0.45191206 </v>
    <v>       0.35359985       0.50419153       0.35672980 </v>
    <v>       0.36397265       0.40146956       0.41162918 </v>
    <v>       0.43413899       0.61807063       0.44488326 </v>
    <v>       0.37094462       0.62295900       0.34771313 </v>
   </varray>
  </structure>
  <varray name="forces" >
   <v>       0.11397867      -0.03871079       0.07148818 </v>
   <v>       0.01801504      -0.13315417       0.07790341 </v>
   <v>      -0.00486904      -0.09027914       0.09833968 </v>
   <v>       0.21243569      -0.12081726       0.05522963 </v>
   <v>       0.06768206       0.00280112       0.25190400 </v>
   <v>       0.12688735      -0.04972812       0.06061626 </v>
   <v>       0.09434255      -0.14084391      -0.11076353 </v>
   <v>       0.12554172       0.14734413      -0.14949102 </v>
   <v>      -0.04602892       0.09578893       0.02729521 </v>
   <v>      -0.20723829      -0.01141206      -0.02436208 </v>
   <v>       0.07350708      -0.03347841      -0.00396413 </v>
   <v>       0.14368958      -0.06018290       0.12118450 </v>
   <v>       0.05294725      -0.15079434       0.00013303 </v>
   <v>       0.09845448       0.00209633      -0.05937729 </v>
   <v>       0.27091937       0.10705976       0.10928680 </v>
   <v>      -0.13727868       0.09077919      -0.11156086 </v>
   <v>      -0.02586220      -0.06379713       0.01454043 </v>
   <v>       0.11347571      -0.10272204       0.07073878 </v>
   <v>      -0.43816290       0.20495923      -0.36878124 </v>
   <v>       0.00309517       0.03744530       0.06006913 </v>
   <v>       0.18077852      -0.35487517       0.28105990 </v>
   <v>      -0.16140324       0.06975972      -0.02162381 </v>
   <v>       0.03668658      -0.02807624       0.13847373 </v>
   <v>      -0.08959356      -0.00034147       0.13660551 </v>
   <v>      -0.07338845      -0.09440456      -0.18129123 </v>
   <v>       0.26766371       0.00057061      -0.27276125 </v>
   <v>       0.36189700       0.33721463      -0.07110204 </v>
   <v>       0.00224302      -0.05151390      -0.04572994 </v>
   <v>      -0.04361077      -0.00224884      -0.00309213 </v>
   <v>       0.05753222       0.17265764      -0.08888555 </v>
   <v>      -0.03480952       0.02410799      -0.01364103 </v>
   <v>      -0.21611853       0.08280762       0.07711633 </v>
   <v>       0.05730626       0.13212446      -0.12675844 </v>
   <v>      -0.17379666       0.22733856      -0.02231776 </v>
   <v>      -0.00973278       0.02130062       0.03407102 </v>
   <v>      -0.22601316      -0.02822988       0.02818088 </v>
   <v>       0.02337842      -0.29084717       0.27460998 </v>
   <v>       0.28308127      -0.14555513       0.02113117 </v>
   <v>      -0.07682579      -0.02735292       0.10449410 </v>
   <v>      -0.22625752      -0.12837378      -0.00660560 </v>
   <v>      -0.15115490      -0.07661366      -0.12390096 </v>
   <v>      -0.04593150       0.08412066       0.15641159 </v>
   <v>       0.00707095       0.24152706       0.13770503 </v>
   <v>      -0.27611435      -0.08036507      -0.05896288 </v>
   <v>       0.02446898      -0.01063832      -0.16454814 </v>
   <v>       0.08041462       0.05298151      -0.17185572 </v>
   <v>       0.08140890      -0.19096903      -0.03401146 </v>
   <v>      -0.04233664      -0.10328730      -0.09901047 </v>
   <v>      -0.03516037      -0.09588609      -0.01995664 </v>
   <v>      -0.11153833       0.13694949       0.05000869 </v>
   <v>       0.01473257      -0.05114237      -0.19560380 </v>
   <v>       0.03507440       0.20463859       0.22710464 </v>
   <v>      -0.17548306       0.28026809      -0.13574262 </v>
  </varray>
  <varray name="stress" >
   <v>      -1.68064972      -0.21461100       0.09886259 </v>
   <v>      -0.21461099      -1.82402697      -0.16399362 </v>
   <v>       0.09886259      -0.16399361      -1.84301104 </v>
  </varray>
  <energy>
   <i name="e_fr_energy">   -114.15481398 </i>
   <i name="e_wo_entrp">   -114.15481398 </i>
   <i name="e_0_energy">      0.00000000 </i>
  </energy>
  <time name="totalsc">   62.02   63.07</time>
 </calculation>
 <calculation>
  <scstep>
   <time name="dav">    7.52    7.53</time>
   <time name="total">    7.96    7.99</time>
   <energy>
    <i name="alphaZ">    176.25389378 </i>
    <i name="ewald"> 164938.92365358 </i>
    <i name="hartreedc">-217747.40485637 </i>
    <i name="XCdc">   -598.48588536 </i>
    <i name="pawpsdc">  57507.44055635 </i>
    <i name="pawaedc"> -55164.48387280 </i>
    <i name="eentropy">      0.00000000 </i>
    <i name="bandstr">  -4197.92657733 </i>
    <i name="atom">  54971.52739458 </i>
    <i name="e_fr_energy">   -114.15569359 </i>
    <i name="e_wo_entrp">   -114.15569359 </i>
    <i name="e_0_energy">   -114.15569359 </i>
   </energy>
  </scstep>
  <scstep>
   <time name="dav">    7.79    7.80</time>
   <time name="total">    8.20   10.10</time>
   <energy>
    <i name="e_fr_energy">   -114.18228473 </i>
[...]
       <r>     1.2180    23.9904   360.9973 </r>
       <r>     1.2595     0.0000   362.0000 </r>
       <r>     1.3011     0.0000   364.0000 </r>
       <r>     1.3427     0.0000   366.0000 </r>
       <r>     1.3842     0.0000   369.0000 </r>
       <r>     1.4258     0.0000   370.0000 </r>
       <r>     1.4674     0.0000   373.0000 </r>
       <r>     1.5090     0.0000   375.0000 </r>
       <r>     1.5505     0.1709   375.0071 </r>
       <r>     1.5921     0.0000   376.0000 </r>
       <r>     1.6337     0.0000   376.0000 </r>
       <r>     1.6753     0.0000   376.0000 </r>
       <r>     1.7168     0.0000   376.0000 </r>
       <r>     1.7584     0.0000   376.0000 </r>
       <r>     1.8000     0.0000   376.0000 </r>
       <r>     1.8415     0.0000   376.0000 </r>
       <r>     1.8831     0.0000   376.0000 </r>
       <r>     1.9247     0.0000   376.0000 </r>
       <r>     1.9663     0.0000   376.0000 </r>
       <r>     2.0078     0.0000   376.0000 </r>
       <r>     2.0494     0.0000   376.0000 </r>
       <r>     2.0910     0.0000   376.0000 </r>
       <r>     2.1325     0.0000   376.0000 </r>
      </set>
      <set comment="spin 2">
       <r>   -10.3392     0.0000     0.0000 </r>
       <r>   -10.2976     0.0000     0.0000 </r>
       <r>   -10.2561     0.0000     0.0000 </r>
       <r>   -10.2145     0.0000     0.0000 </r>
       <r>   -10.1729     0.0000     0.0000 </r>
       <r>   -10.1314     0.0000     0.0000 </r>
       <r>   -10.0898     0.0000     0.0000 </r>
       <r>   -10.0482     0.0000     0.0000 </r>
       <r>   -10.0066     0.0000     0.0000 </r>
       <r>    -9.9651     0.0000     0.0000 </r>
       <r>    -9.9235     0.0000     0.0000 </r>
       <r>    -9.8819     0.0000     0.0000 </r>
       <r>    -9.8403     0.0000     0.0000 </r>
       <r>    -9.7988     0.0000     0.0000 </r>
       <r>    -9.7572     0.0000     1.0000 </r>
       <r>    -9.7156     0.0000     1.0000 </r>
       <r>    -9.6741     0.0000     1.0000 </r>
       <r>    -9.6325     0.0000     1.0000 </r>
       <r>    -9.5909     0.0000     1.0000 </r>
       <r>    -9.5493     0.0000     1.0000 </r>
       <r>    -9.5078     0.0000     1.0000 </r>
       <r>    -9.4662     0.0000     1.0000 </r>
       <r>    -9.4246     0.0000     1.0000 </r>
       <r>    -9.3830     0.0000     1.0000 </r>
       <r>    -9.3415     0.0000     1.0000 </r>
       <r>    -9.2999     0.0000     1.0000 </r>
       <r>    -9.2583     0.0000     1.0000 </r>
       <r>    -9.2168     0.0000     2.0000 </r>
       <r>    -9.1752     0.0000     2.0000 </r>
       <r>    -9.1336     0.0000     3.0000 </r>
       <r>    -9.0920     0.0000     3.0000 </r>
       <r>    -9.0505     0.0000     5.0000 </r>
       <r>    -9.0089     0.0000     7.0000 </r>
       <r>    -8.9673     0.0000     9.0000 </r>
       <r>    -8.9257     0.0000    11.0000 </r>
       <r>    -8.8842     0.0000    13.0000 </r>
       <r>    -8.8426     0.0000    15.0000 </r>
       <r>    -8.8010     0.0000    17.0000 </r>
       <r>    -8.7595     0.0256    18.0011 </r>
       <r>    -8.7179     0.0000    20.0000 </r>
       <r>    -8.6763     0.0000    23.0000 </r>
       <r>    -8.6347     0.0000    26.0000 </r>
       <r>    -8.5932     0.0000    29.0000 </r>
       <r>    -8.5516     0.0000    31.0000 </r>
       <r>    -8.5100     0.0000    35.0000 </r>
       <r>    -8.4685     0.0000    38.0000 </r>
       <r>    -8.4269     0.0000    42.0000 </r>
       <r>    -8.3853     0.0000    45.0000 </r>
       <r>    -8.3437     0.0000    48.0000 </r>
       <r>    -8.3022     0.0000    50.0000 </r>
       <r>    -8.2606     0.0000    53.0000 </r>
       <r>    -8.2190     0.0000    56.0000 </r>
       <r>    -8.1774     0.0000    60.0000 </r>
       <r>    -8.1359     0.0000    62.0000 </r>
       <r>    -8.0943     0.0000    66.0000 </r>
       <r>    -8.0527     0.0000    70.0000 </r>
       <r>    -8.0112     0.0000    74.0000 </r>
       <r>    -7.9696     0.0000    76.0000 </r>
       <r>    -7.9280     0.0000    80.0000 </r>
       <r>    -7.8864     0.0000    84.0000 </r>
       <r>    -7.8449     0.0000    86.0000 </r>
       <r>    -7.8033     0.0000    90.0000 </r>
       <r>    -7.7617     0.0000    94.0000 </r>
       <r>    -7.7201     0.0000    97.0000 </r>
       <r>    -7.6786     0.0000   100.0000 </r>
       <r>    -7.6370     0.0000   104.0000 </r>
       <r>    -7.5954    24.0543   108.0000 </r>
       <r>    -7.5539     0.0000   111.0000 </r>
       <r>    -7.5123     0.0000   116.0000 </r>
       <r>    -7.4707     0.0000   119.0000 </r>
       <r>    -7.4291     0.0000   123.0000 </r>
       <r>    -7.3876     0.0000   126.0000 </r>
       <r>    -7.3460     0.0000   130.0000 </r>
       <r>    -7.3044     0.0000   132.0000 </r>
       <r>    -7.2628     0.0000   137.0000 </r>
       <r>    -7.2213     0.0000   140.0000 </r>
       <r>    -7.1797     0.0000   144.0000 </r>
       <r>    -7.1381     0.0000   147.0000 </r>
       <r>    -7.0966     0.0000   151.0000 </r>
       <r>    -7.0550     0.0000   154.0000 </r>
       <r>    -7.0134    24.0543   160.0000 </r>
       <r>    -6.9718    23.2581   162.9669 </r>
       <r>    -6.9303    24.0543   167.0000 </r>
       <r>    -6.8887     0.0000   171.0000 </r>
       <r>    -6.8471     0.0000   174.0000 </r>
       <r>    -6.8055     0.0000   180.0000 </r>
       <r>    -6.7640     0.0000   185.0000 </r>
       <r>    -6.7224     0.0000   189.0000 </r>
       <r>    -6.6808     0.0000   195.0000 </r>
       <r>    -6.6393     0.0000   200.0000 </r>
       <r>    -6.5977     0.0000   206.0000 </r>
       <r>    -6.5561     0.0000   212.0000 </r>
       <r>    -6.5145    24.0543   217.0000 </r>
       <r>    -6.4730     0.0000   221.0000 </r>
       <r>    -6.4314     0.0000   227.0000 </r>
       <r>    -6.3898     0.0000   233.0000 </r>
       <r>    -6.3483     0.0000   238.0000 </r>
       <r>    -6.3067     0.0000   243.0000 </r>
       <r>    -6.2651     0.0000   247.0000 </r>
       <r>    -6.2235     0.0000   252.0000 </r>
       <r>    -6.1820     0.0000   257.0000 </r>
       <r>    -6.1404     0.0000   260.0000 </r>
       <r>    -6.0988     0.0000   264.0000 </r>
       <r>    -6.0572     0.0000   267.0000 </r>
       <r>    -6.0157     0.0000   270.0000 </r>
       <r>    -5.9741     0.0000   272.0000 </r>
       <r>    -5.9325     0.0000   273.0000 </r>
       <r>    -5.8910     0.0000   273.0000 </r>
       <r>    -5.8494     0.0000   273.0000 </r>
       <r>    -5.8078     0.0000   273.0000 </r>
       <r>    -5.7662     0.0000   274.0000 </r>
       <r>    -5.7247     0.0000   274.0000 </r>
       <r>    -5.6831     0.0000   274.0000 </r>
       <r>    -5.6415     0.0000   274.0000 </r>
       <r>    -5.5999     0.0000   275.0000 </r>
       <r>    -5.5584     0.0000   275.0000 </r>
       <r>    -5.5168     0.0000   275.0000 </r>
       <r>    -5.4752     0.0000   275.0000 </r>
       <r>    -5.4337     0.0000   276.0000 </r>
       <r>    -5.3921     0.0000   276.0000 </r>
       <r>    -5.3505     0.0000   276.0000 </r>
       <r>    -5.3089     0.0000   277.0000 </r>
       <r>    -5.2674     0.0000   277.0000 </r>
       <r>    -5.2258     0.0000   277.0000 </r>
       <r>    -5.1842     0.0000   277.0000 </r>
       <r>    -5.1426     0.0000   277.0000 </r>
       <r>    -5.1011     0.0000   277.0000 </r>
       <r>    -5.0595     0.0000   278.0000 </r>
       <r>    -5.0179     0.0000   278.0000 </r>
       <r>    -4.9764     0.0000   279.0000 </r>
       <r>    -4.9348     0.0000   279.0000 </r>
       <r>    -4.8932     0.0000   279.0000 </r>
       <r>    -4.8516     0.0000   279.0000 </r>
       <r>    -4.8101     0.0000   280.0000 </r>
       <r>    -4.7685     0.0000   280.0000 </r>
       <r>    -4.7269     0.0000   281.0000 </r>
       <r>    -4.6853     0.0000   281.0000 </r>
       <r>    -4.6438     0.0000   281.0000 </r>
       <r>    -4.6022     0.0000   281.0000 </r>
       <r>    -4.5606     0.0000   281.0000 </r>
       <r>    -4.5191     0.0000   282.0000 </r>
       <r>    -4.4775     0.0000   282.0000 </r>
       <r>    -4.4359     0.0000   282.0000 </r>
       <r>    -4.3943     0.0000   282.0000 </r>
       <r>    -4.3528     0.0000   282.0000 </r>
       <r>    -4.3112     0.0000   282.0000 </r>
       <r>    -4.2696     0.0000   283.0000 </r>
       <r>    -4.2281     0.0000   284.0000 </r>
       <r>    -4.1865     0.0000   284.0000 </r>
       <r>    -4.1449     0.0000   285.0000 </r>
       <r>    -4.1033     0.0000   285.0000 </r>
       <r>    -4.0618     0.0000   285.0000 </r>
       <r>    -4.0202     0.0000   285.0000 </r>
       <r>    -3.9786     0.0000   285.0000 </r>
       <r>    -3.9370     0.0000   286.0000 </r>
       <r>    -3.8955     0.0000   286.0000 </r>
       <r>    -3.8539     0.0000   286.0000 </r>
       <r>    -3.8123     0.0000   286.0000 </r>
       <r>    -3.7708     0.0000   287.0000 </r>
       <r>    -3.7292     0.0000   287.0000 </r>
       <r>    -3.6876     0.0000   288.0000 </r>
       <r>    -3.6460     0.0000   288.0000 </r>
       <r>    -3.6045     0.0000   288.0000 </r>
       <r>    -3.5629     0.0000   289.0000 </r>
       <r>    -3.5213     0.0000   289.0000 </r>
       <r>    -3.4797     0.0000   290.0000 </r>
       <r>    -3.4382     0.0000   290.0000 </r>
       <r>    -3.3966     0.0000   291.0000 </r>
       <r>    -3.3550     0.0000   291.0000 </r>
       <r>    -3.3135     0.0000   291.0000 </r>
       <r>    -3.2719     0.0000   291.0000 </r>
       <r>    -3.2303     0.0000   292.0000 </r>
       <r>    -3.1887     0.0000   292.0000 </r>
       <r>    -3.1472     0.0000   292.0000 </r>
       <r>    -3.1056     0.0000   292.0000 </r>
       <r>    -3.0640     0.0000   292.0000 </r>
       <r>    -3.0224     0.0000   292.0000 </r>
       <r>    -2.9809     0.0000   292.0000 </r>
       <r>    -2.9393     0.0000   293.0000 </r>
       <r>    -2.8977     0.0000   293.0000 </r>
       <r>    -2.8562     0.0000   294.0000 </r>
       <r>    -2.8146     0.0000   295.0000 </r>
       <r>    -2.7730     0.0000   295.0000 </r>
       <r>    -2.7314     0.0000   295.0000 </r>
       <r>    -2.6899     0.0000   295.0000 </r>
       <r>    -2.6483     0.0000   296.0000 </r>
       <r>    -2.6067     0.0000   296.0000 </r>
       <r>    -2.5651     0.0000   297.0000 </r>
       <r>    -2.5236     0.0000   298.0000 </r>
       <r>    -2.4820     0.0000   298.0000 </r>
       <r>    -2.4404     0.0000   299.0000 </r>
       <r>    -2.3989     0.0000   299.0000 </r>
       <r>    -2.3573     0.0000   300.0000 </r>
       <r>    -2.3157     0.0000   300.0000 </r>
       <r>    -2.2741     0.0000   301.0000 </r>
       <r>    -2.2326     0.0000   301.0000 </r>
       <r>    -2.1910     0.0000   302.0000 </r>
       <r>    -2.1494     0.0000   302.0000 </r>
       <r>    -2.1079     0.0000   302.0000 </r>
       <r>    -2.0663     0.0000   303.0000 </r>
       <r>    -2.0247     0.0000   304.0000 </r>
       <r>    -1.9831     0.0000   304.0000 </r>
       <r>    -1.9416     0.0000   305.0000 </r>
       <r>    -1.9000     0.0000   306.0000 </r>
       <r>    -1.8584     0.0000   306.0000 </r>
       <r>    -1.8168     0.0000   306.0000 </r>
       <r>    -1.7753     0.0000   306.0000 </r>
       <r>    -1.7337     0.0000   307.0000 </r>
       <r>    -1.6921     0.0000   307.0000 </r>
       <r>    -1.6506     0.0000   307.0000 </r>
       <r>    -1.6090     0.0000   308.0000 </r>
       <r>    -1.5674     0.0000   308.0000 </r>
       <r>    -1.5258     0.0000   308.0000 </r>
       <r>    -1.4843     0.0000   309.0000 </r>
       <r>    -1.4427     0.0000   309.0000 </r>
       <r>    -1.4011     0.0000   310.0000 </r>
       <r>    -1.3595     0.0000   311.0000 </r>
       <r>    -1.3180     0.0000   312.0000 </r>
       <r>    -1.2764     0.0000   312.0000 </r>
       <r>    -1.2348     0.0000   312.0000 </r>
       <r>    -1.1933     0.0000   314.0000 </r>
       <r>    -1.1517     0.0000   314.0000 </r>
       <r>    -1.1101     0.0000   315.0000 </r>
       <r>    -1.0685    24.0543   316.0000 </r>
       <r>    -1.0270     0.0000   316.0000 </r>
       <r>    -0.9854    21.9366   316.9120 </r>
       <r>    -0.9438     0.0000   318.0000 </r>
       <r>    -0.9022     0.0000   318.0000 </r>
       <r>    -0.8607     0.0000   319.0000 </r>
       <r>    -0.8191     0.0000   320.0000 </r>
       <r>    -0.7775     0.0000   320.0000 </r>
       <r>    -0.7360     0.0000   321.0000 </r>
       <r>    -0.6944     0.0000   322.0000 </r>
       <r>    -0.6528     0.0000   322.0000 </r>
       <r>    -0.6112     0.0000   323.0000 </r>
       <r>    -0.5697     0.0000   323.0000 </r>
       <r>    -0.5281     0.0000   323.0000 </r>
       <r>    -0.4865     0.0000   324.0000 </r>
       <r>    -0.4449     0.0000   324.0000 </r>
       <r>    -0.4034     0.0000   324.0000 </r>
       <r>    -0.3618     0.0000   324.0000 </r>
       <r>    -0.3202     0.0000   325.0000 </r>
       <r>    -0.2787     0.0000   326.0000 </r>
       <r>    -0.2371     0.0000   326.0000 </r>
       <r>    -0.1955     0.0000   327.0000 </r>
       <r>    -0.1539     0.0000   328.0000 </r>
       <r>    -0.1124     0.0000   328.0000 </r>
       <r>    -0.0708     0.0000   329.0000 </r>
       <r>    -0.0292    24.0470   329.9997 </r>
       <r>     0.0123     0.0000   331.0000 </r>
       <r>     0.0539     0.0000   331.0000 </r>
       <r>     0.0955     0.0000   331.0000 </r>
       <r>     0.1371     0.0000   332.0000 </r>
       <r>     0.1786     0.0000   332.0000 </r>
       <r>     0.2202     0.0000   333.0000 </r>
       <r>     0.2618     0.0000   334.0000 </r>
       <r>     0.3034     0.0000   334.0000 </r>
       <r>     0.3449     0.0000   334.0000 </r>
       <r>     0.3865     0.0000   335.0000 </r>
       <r>     0.4281     0.0000   336.0000 </r>
       <r>     0.4696     0.0000   337.0000 </r>
       <r>     0.5112     0.0000   337.0000 </r>
       <r>     0.5528     0.0000   337.0000 </r>
       <r>     0.5944    24.0543   339.0000 </r>
       <r>     0.6359     0.0000   339.0000 </r>
       <r>     0.6775     0.0000   340.0000 </r>
       <r>     0.7191     0.0000   341.0000 </r>
       <r>     0.7607     0.0000   343.0000 </r>
       <r>     0.8022     0.0000   343.0000 </r>
       <r>     0.8438     0.0000   345.0000 </r>
       <r>     0.8854     0.0006   345.0000 </r>
       <r>     0.9269     0.0000   346.0000 </r>
       <r>     0.9685     0.0000   348.0000 </r>
       <r>     1.0101     0.0000   350.0000 </r>
       <r>     1.0517     0.0000   352.0000 </r>
       <r>     1.0932     0.0000   354.0000 </r>
       <r>     1.1348     0.0000   355.0000 </r>
       <r>     1.1764     0.0000   358.0000 </r>
       <r>     1.2180     0.0000   360.0000 </r>
       <r>     1.2595     0.0000   361.0000 </r>
       <r>     1.3011    23.8355   363.9909 </r>
       <r>     1.3427     0.0000   366.0000 </r>
       <r>     1.3842     0.0000   368.0000 </r>
       <r>     1.4258     0.0000   370.0000 </r>
       <r>     1.4674     0.0000   372.0000 </r>
       <r>     1.5090     0.0000   374.0000 </r>
       <r>     1.5505     0.0000   375.0000 </r>
       <r>     1.5921     0.0000   376.0000 </r>
       <r>     1.6337     0.0000   376.0000 </r>
       <r>     1.6753     0.0000   376.0000 </r>
       <r>     1.7168     0.0000   376.0000 </r>
       <r>     1.7584     0.0000   376.0000 </r>
       <r>     1.8000     0.0000   376.0000 </r>
       <r>     1.8415     0.0000   376.0000 </r>
       <r>     1.8831     0.0000   376.0000 </r>
       <r>     1.9247     0.0000   376.0000 </r>
       <r>     1.9663     0.0000   376.0000 </r>
       <r>     2.0078     0.0000   376.0000 </r>
       <r>     2.0494     0.0000   376.0000 </r>
       <r>     2.0910     0.0000   376.0000 </r>
       <r>     2.1325     0.0000   376.0000 </r>
      </set>
     </set>
    </array>
   </total>
  </dos>
 </calculation>
 <structure name="finalpos" >
  <crystal>
   <varray name="basis" >
    <v>      23.84381444       0.00000000       0.00000000 </v>
    <v>       0.00000000      23.84381444       0.00000000 </v>
    <v>       0.00000000       0.00000000      23.84381444 </v>
   </varray>
   <i name="volume">  13555.86389963 </i>
   <varray name="rec_basis" >
    <v>       0.04193960       0.00000000       0.00000000 </v>
    <v>       0.00000000       0.04193960       0.00000000 </v>
    <v>       0.00000000       0.00000000       0.04193960 </v>
   </varray>
  </crystal>
  <varray name="positions" >
   <v>       0.66266129       0.30642407       0.54488840 </v>
   <v>       0.59370536       0.34399396       0.63293215 </v>
   <v>       0.55064608       0.26844381       0.54877242 </v>
   <v>       0.68102502       0.41809935       0.58462916 </v>
   <v>       0.62454855       0.45091103       0.68532284 </v>
   <v>       0.62618997       0.56937205       0.69791420 </v>
   <v>       0.59372450       0.30253295       0.44537049 </v>
   <v>       0.68438309       0.38501577       0.45962791 </v>
   <v>       0.68221835       0.53663595       0.60284641 </v>
   <v>       0.58214984       0.39314065       0.52529679 </v>
   <v>       0.63715271       0.65791911       0.61878625 </v>
   <v>       0.47426377       0.34400399       0.58598404 </v>
   <v>       0.51110140       0.41762719       0.66692970 </v>
   <v>       0.65604042       0.49169243       0.49378037 </v>
   <v>       0.52131380       0.52053312       0.71272099 </v>
   <v>       0.60183478       0.59194277       0.52559685 </v>
   <v>       0.47608371       0.62854721       0.72228549 </v>
   <v>       0.44890017       0.28789619       0.48400865 </v>
   <v>       0.57479877       0.49438537       0.58943133 </v>
   <v>       0.58486793       0.40767653       0.39777432 </v>
   <v>       0.68020790       0.47468370       0.37892141 </v>
   <v>       0.53679153       0.60182986       0.62869531 </v>
   <v>       0.63080627       0.57683363       0.41391194 </v>
   <v>       0.39564314       0.41937763       0.64017430 </v>
   <v>       0.42757544       0.54747836       0.63921661 </v>
   <v>       0.66537613       0.56724572       0.30448882 </v>
   <v>       0.46769309       0.46423432       0.56268124 </v>
   <v>       0.49799873       0.32543356       0.37939061 </v>
   <v>       0.53584627       0.71714643       0.65916549 </v>
   <v>       0.48322724       0.39690526       0.46973004 </v>
   <v>       0.54445563       0.69193316       0.54434613 </v>
   <v>       0.34808876       0.49137288       0.55876045 </v>
   <v>       0.53160782       0.63710092       0.43999612 </v>
   <v>       0.56191468       0.62382147       0.32597099 </v>
   <v>       0.43457729       0.66917032       0.62036148 </v>
   <v>       0.53851687       0.50542265       0.46141138 </v>
   <v>       0.47701229       0.58051559       0.53211670 </v>
   <v>       0.41812165       0.50402508       0.46119028 </v>
   <v>       0.35874750       0.60615862       0.55778969 </v>
   <v>       0.57100424       0.50661965       0.33628429 </v>
   <v>       0.30927623       0.44217278       0.45876274 </v>
   <v>       0.47051538       0.77465361       0.57700484 </v>
   <v>       0.47599299       0.44376445       0.36116796 </v>
   <v>       0.37690503       0.37684837       0.52897874 </v>
   <v>       0.47255208       0.73617367       0.46283165 </v>
   <v>       0.45844086       0.67785029       0.35587758 </v>
   <v>       0.46849612       0.56080645       0.36708765 </v>
   <v>       0.37671622       0.71860967       0.53243887 </v>
   <v>       0.31552015       0.56066115       0.45724427 </v>
   <v>       0.36305895       0.48644292       0.36226473 </v>
   <v>       0.38875707       0.37250431       0.40744489 </v>
   <v>       0.40604982       0.63746750       0.45290990 </v>
   <v>       0.36002188       0.60447974       0.35289582 </v>
  </varray>
 </structure>
</modeling>
