11
Energy = -40.55784936 eV
Pd 11.694188508109177 7.038475723196968 9.518729200478965
Pd 7.917150617806413 7.6242018706465 7.337180674168885
Pd 9.211651076792458 6.444762670370542 9.308151470343775
Pd 10.182287132630359 8.728012589287408 8.276195434435492
Pd 10.395015959242038 11.24652041830727 7.553251081546546
Pd 10.055080937700533 8.281045241054631 11.104630841669643
Pd 7.679102899608078 8.656341658988692 9.790497911664739
Pd 7.997567710817957 10.217050691598192 7.687453136464409
Pd 9.533266048206885 10.709161310768426 10.041278062402773
Pd 8.452536791246812 12.586108083318198 8.663355582961678
Pd 8.196829741795543 9.787598407725495 12.035333177353298
