12
Energy = -45.10620358 eV
Pd 11.262043276870607 10.56220184874219 9.619194735019683
Pd 10.732728833738959 9.913818731528973 12.048368910673124
Pd 11.484071448300211 8.71025939141452 7.786739802881669
Pd 8.288473862126702 9.713828008782347 11.220554208889657
Pd 8.965140603136328 9.717804337468777 8.752282674928981
Pd 10.43671376733542 8.058387210529984 10.255195187695138
Pd 9.501674885458428 6.980247128109821 8.004921877669622
Pd 9.222465047564311 8.957111320297495 6.256426363515836
Pd 7.7816303326818925 7.430050183661508 10.0204000485906
Pd 7.134049492823831 10.535014059096293 7.130165538911382
Pd 6.251079637084336 9.5501855955195 9.498869675789429
Pd 7.0387708671132385 7.969742062324699 7.490984015637522
