29
Energy = -119.30449249 eV
Pd 13.439662559858755 10.526678016865407 10.015687450637943
Pd 10.500547240145984 6.962916888662325 11.042869239126928
Pd 12.038117340687688 13.434949373165423 14.182831303817112
Pd 11.306383027201763 7.149609857435236 8.59020841640855
Pd 12.43034286970451 11.743214399715212 12.158460273972072
Pd 11.571562503568328 13.848143278711387 7.567208537605448
Pd 11.830285758057482 10.778694690313623 14.515129964191068
Pd 9.358621943503264 10.42028878384117 7.814842373531964
Pd 8.165428877292852 13.085819006433816 11.426866263432292
Pd 11.799102415494797 11.301872524315865 8.014024539627997
Pd 11.43975542242824 9.017542467746063 12.511561729696567
Pd 10.673635374711457 13.897360386304726 11.807985154205554
Pd 7.893142929497206 10.663836856933427 9.955567677012535
Pd 14.921235934761201 12.593050389999302 10.68606516583987
Pd 14.072142114568921 9.701942702767491 12.419810934387291
Pd 7.53982451673045 10.85064524538715 12.853502809051736
Pd 10.092754962992958 11.12288136712456 11.438113708938644
Pd 9.443377153381856 9.59227947656875 14.161726931598254
Pd 14.703504071669645 12.24115595540237 13.306755553174277
Pd 10.986384274743685 9.46568948606972 9.685457886754794
Pd 9.659423748874625 12.271429988086666 13.751640457495034
Pd 13.41320241549013 14.322412636959488 12.102017426493617
Pd 14.10516781905938 12.543038413825906 8.098552915955354
Pd 9.822010822016564 12.698307335948034 9.333777850379816
Pd 12.407016141005531 13.212027697740906 9.93815939971333
Pd 13.000917000273816 7.96423275730931 10.640632129747871
Pd 5.896293831095507 11.795818506054951 11.112170159948501
Pd 8.74938564317104 8.109464037693598 9.194279588623697
Pd 8.783924073487091 8.792286790931525 11.736707343694567
