28
Energy = -116.00861965 eV
Pd 15.73312391831683 11.915352465535994 11.16733445939197
Pd 12.251099026517332 10.45988750228453 7.910096194517487
Pd 7.512926895189653 11.416426494336951 10.74582029232821
Pd 9.957013164486321 11.169135711682053 14.667872189186323
Pd 14.494381252577224 10.081806662844041 12.535883019693864
Pd 9.649589158557355 10.249192420371555 9.885007817454419
Pd 9.960646580632261 11.828460787042978 7.700302951639187
Pd 7.499240901551249 9.650655902605106 8.430164889281924
Pd 12.49568050958014 10.459543075330835 14.156235283075398
Pd 12.434015041931218 8.260982511075438 12.094931425995469
Pd 11.662626147738393 13.002782880070404 13.782160478364368
Pd 10.529743949972715 8.626599584450567 14.024907992156777
Pd 8.882631283933652 7.466182587529673 9.114697471982137
Pd 11.167739960238066 10.545661144664754 11.958051057075304
Pd 9.468743884736528 12.47528832742495 12.344170951411387
Pd 9.807543783958591 7.976585829572169 11.551412516067261
Pd 13.311576286727243 9.958205008456835 10.277990768084614
Pd 13.228065868035301 12.348041628898137 11.825051279223473
Pd 11.584104758844394 12.251540687738395 9.730253368252196
Pd 9.184480137919266 13.329832843980666 9.85170914640154
Pd 7.403189402642057 12.267954798550003 8.204473285719313
Pd 11.244591439436336 14.230815904052056 11.409804504765894
Pd 11.413075136908207 8.361885304312104 9.42338681002025
Pd 7.306180740753904 8.70782481261448 10.868935531462947
Pd 8.545987549074074 10.007848337193085 12.774467966202439
Pd 14.137092732189243 12.066226967104308 9.10061234226468
Pd 8.157205684613134 10.725594604572262 6.141340091801114
Pd 9.971228460762058 9.153208873527937 7.316449574002921
