26
Energy = -106.6466608 eV
Pd 12.758021890722476 11.435025267654712 10.254362215583063
Pd 13.98094057211175 9.145346366929775 10.32606332794826
Pd 12.48436166158849 9.893681330442904 12.40125975570349
Pd 9.774290859557182 11.641574378564364 10.898050889917341
Pd 13.01034542045475 10.161392843891019 7.9732646247725185
Pd 11.714527397531645 12.58711087585697 12.416215977314634
Pd 10.832614114386429 11.586720625082602 8.365372501571988
Pd 11.747654971108291 13.73637167670029 9.851371898860432
Pd 11.111198391363082 9.195648124153339 10.186671390237667
Pd 10.084276294833252 14.590696994132152 11.664010396303306
Pd 12.421610699291412 7.053799003835985 10.953100755484465
Pd 13.08511356035422 7.598749575552552 8.370334583753735
Pd 9.191091957233795 12.84811479719162 13.476229213888407
Pd 10.901294695229316 6.301995137811093 8.705958980426205
Pd 9.165676230071632 13.604796298627692 9.293988227357552
Pd 7.594837238883914 13.71168532274071 11.535991203095465
Pd 10.039584614032993 10.398849685603611 13.20728059937614
Pd 10.654817497696804 8.84820445875237 7.67965119679384
Pd 8.422238649511998 12.061951601819322 7.318539485686785
Pd 9.828502955301275 6.4050650513447165 11.097305648167056
Pd 7.537054106908672 11.079256070829661 12.186694269296078
Pd 10.833892014577302 7.949529262043294 12.96039409580608
Pd 8.72621500868369 8.84928099192903 11.381363129500402
Pd 7.053867537907127 11.948455642069359 9.667326333985866
Pd 8.610646695014704 10.047717259008913 8.972431240366058
Pd 8.60302787797509 7.503199861241582 9.036806349894043
