25
Energy = -102.52480022 eV
Pd 7.076347077665481 10.021270130701755 12.148515864878778
Pd 6.548731357359229 10.831587983174948 9.692098533045387
Pd 9.204668898195669 8.345683315887802 12.211316032229297
Pd 7.666986127416622 8.391993104586986 10.053066694004917
Pd 6.410543975053623 11.537471427427786 7.135298541289148
Pd 9.4431194119843 6.4421287018758155 10.302905168852341
Pd 8.294387451796252 9.826887611304487 7.965216488776539
Pd 9.382494722439144 11.043586310985516 12.995627723657192
Pd 8.984971982549933 7.30502857636205 7.873203895530758
Pd 9.40282786969536 10.49267992644858 10.414085704966856
Pd 8.318303814558334 12.601174457209835 8.632318833753953
Pd 7.8616390075481375 12.531847332652317 11.336486430939429
Pd 11.60895291986424 7.109217273079045 11.553768358714182
Pd 11.485028015028995 9.627687548729742 12.139240198804059
Pd 10.86708081977499 8.52142045062863 9.298122350942426
Pd 11.72398696311047 12.23729450296692 12.462632803214165
Pd 10.332569393011045 12.979086443689122 10.339063671926509
Pd 8.89037974364194 11.577567645127978 6.147959139572963
Pd 13.635970105784041 8.183560737089413 12.83748208848734
Pd 10.481647142081446 9.243802355342101 6.602406194181005
Pd 10.65189361807688 11.41497713471272 8.131439384607198
Pd 12.328912213579653 11.181645680323536 10.073764934681718
Pd 13.926221273405375 10.73125733838416 12.180550669043443
Pd 13.40375292743003 8.735901120428503 10.270802581367827
Pd 12.7706083668053 9.75332586416639 7.882953517879742
