27
Energy = -111.61422172 eV
Pd 8.094350299110296 8.747346558805189 8.018619233470965
Pd 6.849985984035123 10.306216288135374 9.796764545750994
Pd 8.98441126561723 13.315121857656099 12.03833580353533
Pd 8.712347939281647 6.255260824227039 9.014154057989218
Pd 9.955937510178323 13.443515273581234 9.450226286805682
Pd 12.572098597949575 8.921883871000311 6.878571132817034
Pd 11.195959022180098 10.255887945911699 9.081886614603725
Pd 6.585940417554237 7.650925298755056 9.93645477517806
Pd 6.911779657452847 11.570721550869711 12.181374515841302
Pd 9.438885215939003 10.75844601052078 13.10587740094186
Pd 9.753002296686775 8.093818407529909 13.034975646682412
Pd 12.389203136909552 12.625586298193644 9.223903398048492
Pd 7.36862108566856 12.925398736728013 9.780324001084194
Pd 11.615870288074635 11.559577398631257 6.874172330431292
Pd 8.96542103827739 11.428913427332288 7.975329163943063
Pd 13.539291059907617 10.792542581912368 10.800402402492125
Pd 7.391032551740137 8.986803934109265 12.21483799953508
Pd 11.511875424290498 9.385812822770006 11.660898595318832
Pd 8.189605795705681 6.392352242903084 11.690469404284157
Pd 9.185343131981698 11.077870275226266 10.580240370505397
Pd 11.352317044481474 12.102768321246723 11.634136732157037
Pd 9.998725655017795 9.488132303360512 6.435015022924343
Pd 9.211117742189082 8.57469549063134 10.368290650942331
Pd 10.997439982698511 6.756095017597269 10.801859204040035
Pd 13.920186644401957 10.74107931596932 8.191518674217393
Pd 13.018879224924962 8.419737274252517 9.590705077888199
Pd 10.751276364976329 7.709485561439817 8.277192505592854
