24
Energy = -97.66589473 eV
Pd 12.17113826151811 7.119766787075299 10.374828336496055
Pd 11.33885280134549 9.613666328142632 10.72259320292825
Pd 11.660404459683662 8.052522025616504 12.892832371384667
Pd 12.46488286547323 11.246925462094502 8.78433550464159
Pd 11.834863310894475 8.720327886644366 8.319826597717393
Pd 12.679577360830166 13.868494616274274 9.21281779417564
Pd 11.134054192902004 13.01878215704343 7.206190401121436
Pd 12.067539357458786 12.262099483219048 11.200746728608829
Pd 11.37739487024621 10.45677533558158 6.419650468185098
Pd 11.31384623213114 10.699607013725812 13.183906797926776
Pd 10.00601465841992 6.78737181367522 8.829639093028188
Pd 9.778386044384693 6.8137237863176185 11.475270695178695
Pd 9.190568419876422 9.174910582566497 12.763016767137996
Pd 7.472596336442432 7.359179340675464 8.114153572040303
Pd 9.824134713888428 10.986014073271772 8.570860729689826
Pd 9.404930870520145 8.826350595538354 7.102950744136762
Pd 8.82776361451254 8.77808001626128 9.998759790996008
Pd 7.2648784238379 7.592047684890158 11.906574779172878
Pd 9.500929161060343 11.476140299158958 11.422985019390318
Pd 10.13871246922805 13.391233259045356 9.637394442855273
Pd 7.125938348626725 10.250043481801855 11.326662129560429
Pd 5.8366030991045506 8.48038173941773 9.860750788693897
Pd 7.711159910456703 12.293855745070019 9.747960582015933
Pd 7.302925136109285 10.08947071222003 8.30736752766645
