23
Energy = -93.10245417 eV
Pd 11.498166055531346 8.135206051718699 6.849864973722741
Pd 11.299321816441346 6.625835736646595 9.020421046226852
Pd 11.12633498963802 5.598102377718674 11.396717248025519
Pd 9.380811549074012 8.404855851562552 8.345767631720378
Pd 9.868997917813456 7.847538969133994 10.90804822615261
Pd 12.145479576561005 9.069344900899962 9.297299822032427
Pd 12.405851417180473 7.815931490486043 11.656926125251946
Pd 11.087149935761673 10.672612578293677 7.38344811483722
Pd 8.492106301329208 10.672062455816352 7.633555848876592
Pd 9.94671524047302 10.497291138450096 9.984717451335388
Pd 7.609002539479424 9.361521031471707 10.321077531109541
Pd 8.606822840829517 8.685892848544013 12.945574515905959
Pd 6.15866647500165 10.925283336577037 8.674065927482891
Pd 12.220987812705843 11.754627027174811 9.59351009528773
Pd 13.540369679074937 10.106991296869305 11.287001324852438
Pd 10.987124266369985 9.969466641559677 12.393267897745838
Pd 12.444555898375533 12.2649523902529 12.221774913051238
Pd 8.426052286691792 11.112686356560724 12.216571723009938
Pd 7.4410880541595885 13.043644332466174 7.5926160085958445
Pd 10.039620543318785 12.890859902751016 8.44183196817485
Pd 10.16267741109545 12.958782147109213 11.103588241844017
Pd 7.838620559467604 12.337865128966557 10.048530145508025
Pd 10.248353850446522 12.233245788485567 13.671151599480547
