32
Energy = -133.52453122 eV
Pd 10.699288338693652 10.085678837240875 11.670956175579748
Pd 11.583518807261196 10.691731301058043 9.316052603898587
Pd 11.763873476166385 11.097166611935881 6.769594376363667
Pd 8.099130676403059 11.024090073270512 11.895212558793789
Pd 13.517003473317665 10.18304849641121 11.474796031452184
Pd 13.311818309972143 9.05836813760484 7.614415588872043
Pd 10.904363758222926 11.205022760084454 15.220876165703169
Pd 6.9719077134872665 9.415490305115496 13.688540197087741
Pd 8.974566448424795 9.715185623028239 9.672526326030416
Pd 12.877949827066466 13.211060342525768 8.064331261790368
Pd 13.509999999044787 7.6512656679159345 12.123683007225523
Pd 8.309127863916462 8.222523805521913 11.776016168980618
Pd 14.76822676291169 8.579377987610254 9.800272593480049
Pd 12.182247609800863 8.117808865397386 9.917341136873825
Pd 9.81238850957612 15.29277332824892 12.01965315966694
Pd 11.447624938242756 14.712380351001036 9.914225805863852
Pd 9.59900036983714 9.30164004982991 13.90621902442704
Pd 9.733219065743102 7.204178006470407 9.816172183037759
Pd 14.234996666306875 11.089919028243688 8.97389184328699
Pd 12.856486225596285 12.616388120723192 10.647051936191188
Pd 9.077276459332548 10.773061389224747 7.294383248523906
Pd 10.290303994339327 12.813237799533448 8.445217223106866
Pd 12.255119147375044 14.437349078827367 12.510133697189618
Pd 7.9160418171618145 12.067563837530955 9.39480294454559
Pd 8.319326618035381 11.58961687887885 14.399772953704687
Pd 12.268435771620007 11.849933466447954 13.063548399701801
Pd 10.046742125201453 12.622288446004763 11.157342274337998
Pd 10.688000632295703 8.678580454959109 7.755296251544581
Pd 10.14805369761259 13.272892399751212 13.666000305751146
Pd 8.693898730885858 14.544685788434183 9.759663834742595
Pd 10.864457146039541 7.527297937823105 12.264906004011987
Pd 12.292417120855347 9.318558217110073 13.848473776931115
