3
Energy = -7.12101887 eV
Pd 6.659704922429382 9.075943507174467 9.167508888341404
Pd 9.067312340675896 9.066941260783537 9.065647272065382
Pd 11.47529673689472 9.059429180669149 8.969157788220365
