39
Energy = -166.15969081 eV
Pd 6.955551727360978 12.471561064449347 7.967353305260424
Pd 7.238632290600816 10.127032465723731 9.275936878266101
Pd 8.44398420980106 10.460818668606576 6.854929336332733
Pd 9.264511828776953 13.074861278481155 6.734205920878857
Pd 6.923973042037253 12.496581271055005 10.614367758285157
Pd 6.261199577416473 10.16983739832809 11.844297597605427
Pd 8.662282355167644 14.187833477166194 9.236376115082567
Pd 9.390660371691538 11.714806399691541 9.116670208708578
Pd 8.033512169685928 8.3790040058112 11.094959389964991
Pd 11.085191604824805 11.07685025924187 6.949924892401868
Pd 9.742323163381332 9.06853523700482 8.841036896624711
Pd 7.1547620812864405 12.19624694902639 13.265262874711889
Pd 8.997979195461577 10.87585048769412 11.470306105640551
Pd 11.28687061438598 13.403934052584262 8.436672848992023
Pd 8.966018209800984 13.633928109285671 11.874385681625931
Pd 8.398941626664408 9.695608068734874 13.681765427042565
Pd 12.304249401874426 7.977440682336527 9.314825234009687
Pd 11.878635289357915 10.616754676048075 9.381154646363884
Pd 10.56555960065826 8.337872010647857 11.232819790774924
Pd 13.527429346465402 12.070646208027652 7.795205727221702
Pd 14.38757952085374 9.643454255445798 8.766515669320352
Pd 12.687204770591308 7.174767759468395 12.349419654186617
Pd 13.203951271840335 9.508584206331516 11.353081180667319
Pd 14.707155752199112 7.45969678114557 10.455040724846624
Pd 10.479896017530479 7.9310966283905815 13.810567449199123
Pd 11.228123715273647 10.374777313981637 12.726422757745652
Pd 10.870796982697945 15.009851733268668 10.587938487163278
Pd 11.361333216853174 12.477299437500188 11.170443649072816
Pd 9.684433416728178 12.165108836889873 13.985270441544186
Pd 14.241395266324949 11.757735697777193 10.388265703011932
Pd 15.064361573007186 8.293662250444365 13.061674383948839
Pd 13.315474669182247 14.131157138761967 9.85946353559055
Pd 10.559838822540616 10.077947179143585 15.382000105606279
Pd 15.956593983719408 9.82653293033829 11.024438261634456
Pd 12.875281776920405 9.120875477060483 14.34915416841471
Pd 14.519386500836744 10.92172046615162 13.089722391541226
Pd 11.20834558898018 14.208966634160957 13.201468694168131
Pd 12.36246211624493 11.988972482598953 14.403885123810971
Pd 13.558076688824638 13.288392949924702 12.404829509722749
