40
Energy = -170.446366 eV
Pd 6.666702511830173 9.510812958695151 11.232925055425525
Pd 9.051147145792342 7.616222388425256 13.449630155414072
Pd 7.540719315470537 7.382539116231842 9.809545429127914
Pd 7.96214917721109 9.85282627114542 8.80422216953376
Pd 8.304232569098348 10.197678146380403 13.343159683585698
Pd 7.654406788287929 12.81185765764816 13.040083710362776
Pd 8.391693195264706 11.473367759489948 10.953119656398732
Pd 8.753978911183912 12.327282277995282 8.398188221708919
Pd 11.458124578625824 7.721864106821209 12.334593997977816
Pd 8.088496117270765 14.167456964740689 10.589821236764397
Pd 9.798939917064391 6.272450009329312 10.878328191155681
Pd 9.280014828026873 8.863112866624622 11.17588607147057
Pd 9.861564475282789 7.989488488693238 8.668453339929098
Pd 10.162197963385568 10.272360015010262 7.078667225939456
Pd 9.944145604971176 12.060579058201268 14.272870161004654
Pd 9.817535710923062 14.795870546655761 8.466181191142322
Pd 9.82480336818709 14.298569324351496 12.834015729577727
Pd 10.95987388048081 10.588843464325887 12.238379390642057
Pd 10.798122865786139 9.39801078837516 14.533144314891606
Pd 10.62668881069504 10.540502364657332 9.59045713760381
Pd 11.412051996111668 12.67318174070421 7.863778776076787
Pd 12.031769159972093 8.078197405727968 7.2732002650292005
Pd 12.783161399959987 9.459641231270185 10.694446501769972
Pd 10.438110286580642 13.068192191548993 10.498199783273126
Pd 12.10054281622098 7.098695433813118 9.790717439597916
Pd 13.287629355591065 9.176609107661635 13.440648382930078
Pd 10.2056347581527 15.939427113540246 10.828531186203472
Pd 12.580683068286856 11.442591679753734 14.642284635842671
Pd 11.6576177575858 14.05409135789346 14.822101695779452
Pd 12.09773321325081 12.89176823648224 12.440825247282019
Pd 12.878561072692019 10.41042301672375 7.995465129363843
Pd 12.897431536540557 12.117982486026106 9.995827644247568
Pd 14.290363681283615 8.32036811303873 8.873662752104302
Pd 12.409224531129432 15.412887379618397 12.37379437444048
Pd 12.315554660147898 14.721555153920683 9.664422688964677
Pd 15.191625451063617 8.88428890478496 11.54796322467871
Pd 14.167141648845694 13.604817105244967 13.910930681277765
Pd 14.26692286969005 11.333498994916384 12.238670900031293
Pd 14.428875962127222 13.869683535969584 11.21092033339137
Pd 15.122538798421651 10.771470465732477 9.648651167570575
