42
Energy = -180.38825135 eV
Pd 10.778596825271114 10.511393686511497 7.082263014689115
Pd 10.540415701514736 7.900993307356551 7.774073797102882
Pd 8.458171530150109 11.663294747179888 6.957778652142435
Pd 10.66610447365415 13.21162899427685 6.452192541819754
Pd 8.409584127750731 9.41723133929754 8.255316223203598
Pd 13.056147152435262 11.797910796086668 7.544040540864781
Pd 12.830803054872092 9.255712206734003 8.159868554141427
Pd 9.197297396879337 7.673291423426238 10.16367817020239
Pd 8.249781995751098 13.953833657237423 8.068751359190513
Pd 14.467741125637275 7.871458041298571 9.72428634947045
Pd 14.91751558385391 10.634552705462635 9.238229296803413
Pd 10.716289561749608 12.637729447987633 8.929331537063566
Pd 11.839457180393254 7.639834898624559 10.058661893304818
Pd 10.524561969907902 10.036188555848671 9.762509170171656
Pd 12.769197374408456 14.357249637012927 7.947786199040461
Pd 8.247255142099858 11.773577951544853 9.718554284160206
Pd 10.402991404986324 15.417829885991303 8.29908635287164
Pd 6.974249372058487 9.209120806908489 10.41172202609166
Pd 13.333592214800966 12.68529279207472 10.011231601085845
Pd 15.478963709394991 9.252737837434873 11.726689915373159
Pd 13.33295771822789 7.576014840757815 12.213188918756332
Pd 8.141404235636033 7.892080410229595 12.631386036495293
Pd 9.272821175796032 14.322967584985365 10.493624636467056
Pd 12.99929220998344 10.045125951244577 10.846637572503234
Pd 10.637710631262843 7.1319490496249 12.381223421802998
Pd 8.876497352897967 10.265095978918007 11.894163938486027
Pd 6.28563862511759 11.477711529442157 11.63378979720209
Pd 11.056656624652003 12.068772863097145 11.4463287507209
Pd 11.296902793644781 9.646251394419119 12.686959054191686
Pd 11.846683911596363 14.841797686535395 10.444953320016394
Pd 13.467584246802119 14.07826269029807 12.303265245047854
Pd 8.366290858092288 12.884737773971072 12.389284548234363
Pd 5.862642050304091 9.146458627838554 12.831667805722532
Pd 14.691151885290273 11.714065076564365 12.101073545217318
Pd 13.778275194315103 9.737832028464666 13.768168954517876
Pd 11.957760208708734 7.783347173026186 14.59106797945528
Pd 9.510255910822075 9.076432116983694 14.55278509944432
Pd 9.979542458188156 11.741284934642508 14.103582145079328
Pd 7.480279147817209 10.833214438175755 14.062290165425887
Pd 12.538636852439032 12.102711081541546 13.697602479273081
Pd 10.721086358140841 14.160314012487277 12.911610222208443
Pd 11.75140941358679 10.287981950572183 15.48050738095289
