41
Energy = -175.82804907 eV
Pd 8.834009349444061 11.400089834639616 7.132943832850489
Pd 7.5660589407981815 11.964209830516925 9.299262646058736
Pd 11.14969779732041 12.424993460128654 6.2886289155752175
Pd 10.46259772320421 9.400837692583748 7.590262933756481
Pd 12.81225203967859 10.503536083354671 7.150299366947014
Pd 9.62147266567501 13.860295953374012 8.021700671877678
Pd 8.061913009059479 9.309343321157508 8.814741495977458
Pd 7.5647998511817045 14.602841939699342 9.646220406242275
Pd 9.965548394667112 15.677725339163086 10.085916126016459
Pd 6.9545530661862145 10.285182085336578 11.345393089276419
Pd 11.057607249946487 11.67161664595523 8.823502758580107
Pd 6.473919092535838 12.969989876186425 11.469315812123774
Pd 13.417720693158614 13.036431914672649 7.559274881329132
Pd 10.179715821215048 7.622175773968279 9.428115830310118
Pd 8.14950861427145 7.86533156542523 11.203222940948793
Pd 12.65515497000815 7.909504417122968 8.236563162894193
Pd 9.524716138945578 10.36667667037071 10.68305464239399
Pd 12.032885118329254 14.028055261194414 9.48556490068967
Pd 8.55599503605537 14.72444882151226 12.300249579903562
Pd 14.918772240614812 9.41509064823054 8.169421420578027
Pd 9.571722087612734 13.04244524255611 10.617532493361198
Pd 13.929791160074032 11.445449311540276 9.614705029613722
Pd 10.630248385363554 8.433402093424428 12.046623777287332
Pd 8.495656446081412 11.996107279362311 12.804872138009495
Pd 9.946006520721633 5.7905771981332235 11.295264273223353
Pd 12.085514995690643 9.56759649484371 10.11873202949549
Pd 11.378619099133697 14.487466666913631 12.070273251217115
Pd 9.025205883615833 6.8164444425262465 13.619194920723196
Pd 13.850609426856522 13.459590216749838 11.360627855732968
Pd 11.72146316471818 11.82590355593211 11.451320760337723
Pd 12.453808388341656 6.841518356101035 10.762009004675486
Pd 8.521751992731037 9.432268709163012 13.422340537875229
Pd 14.464150975931936 8.707966761994133 10.630770422556047
Pd 10.68445892537248 10.944515024970286 13.75193087582057
Pd 11.672584010483101 6.216835848134081 13.315013964677181
Pd 10.93222386038121 8.475464005263365 14.679264806577013
Pd 13.997367388194633 10.819338309674093 12.262391968733642
Pd 10.096028673450432 13.536263414997835 14.192348966658667
Pd 13.09459999389991 8.430353577240881 12.8871868608666
Pd 12.670943114764345 12.77045245394878 13.760013202663306
Pd 13.009308037538618 10.289093224163864 14.738195647014617
