44
Energy = -189.84603217 eV
Pd 14.875655327821061 13.32577294767623 14.258976933029112
Pd 16.524245954500575 12.531326094533698 12.328520974038817
Pd 12.504756109948053 14.558196198028593 13.857387877974837
Pd 14.45270230181276 14.069157826533113 11.721044871270207
Pd 15.169607932067596 10.629524516738817 14.048329973765101
Pd 12.707602044596232 11.859038094829902 14.409410391252539
Pd 10.310361063436382 13.057055450566393 14.467477901359583
Pd 15.384220577853826 12.1992056024658 9.782811619118855
Pd 10.085583405417015 14.926185675108771 12.509638049804597
Pd 12.358569380905985 15.639147005291068 11.265665983465178
Pd 16.27520634578538 10.016518792800811 11.523564093818809
Pd 13.982472159295902 11.462320881023786 11.864861550227673
Pd 11.539370759880994 10.386030776025786 12.387829927928705
Pd 14.442071401177166 9.667674297197529 9.70601666644934
Pd 12.878866008389341 9.20599074626779 14.669178154048835
Pd 13.910565164817863 8.857416930206888 12.303284817303055
Pd 10.504728430744688 10.340107567077341 14.866595777869222
Pd 11.90317671926303 12.99028147861905 11.876345615827333
Pd 12.322271206766517 8.223992477987087 10.383481212065146
Pd 13.077796072496293 13.587552100909937 9.441984992599929
Pd 12.081063713893125 10.99034111507544 9.867703048533013
Pd 10.998969505181831 7.925096554800356 12.99993810641109
Pd 8.398587708072268 7.241558754232841 12.174198682174563
Pd 10.50772790521138 14.216228355074815 9.946379779699699
Pd 13.501916411755133 11.50622859231474 7.770996481515438
Pd 7.851089027658097 13.925291536736108 13.567134477372088
Pd 8.718951917879199 9.633462129348972 13.069390748500506
Pd 9.554311679991699 11.680313704393317 9.602976249410991
Pd 12.953119008963403 8.790409045879025 7.772299230468974
Pd 8.098555661480928 11.546208540301121 14.740712316594104
Pd 10.452756180531058 6.425212641807997 10.730896623401431
Pd 9.857655934516941 9.187473023284204 10.655951516918037
Pd 9.514113056014013 12.052220395238518 12.171743829439121
Pd 11.11383387870549 12.959111958556578 7.6994925452423
Pd 7.214243668299471 9.400959639654362 10.827256546027284
Pd 8.154643503181878 7.194522882794185 9.508745039802557
Pd 8.463764250989291 13.96015006074351 8.325913297074125
Pd 8.013169003469434 13.87472329033873 10.937527367528451
Pd 10.876785554582264 10.331083079794526 7.514148565314697
Pd 6.964198767104262 11.647708334824642 12.193900149392418
Pd 10.51888079958096 7.839846649486083 8.41298870858592
Pd 8.355167987242504 9.549986152588028 8.348741117167554
Pd 8.676038539184919 11.738915834638062 6.966170623182708
Pd 7.007609757177204 11.768321328121765 9.433484957772713
