43
Energy = -184.36691447 eV
Pd 13.917196163414772 14.707159960044304 12.596419851255517
Pd 12.496874264433353 13.638141585279289 14.560523328872767
Pd 14.051853680598793 12.099710222988188 13.056807515403007
Pd 15.205089515535988 13.131483539880497 10.797160705724002
Pd 15.081009695225164 10.2920842407113 11.376411337077487
Pd 14.10879302258424 9.553367164224348 13.82179745717811
Pd 11.152685124828105 15.189524144153905 12.567716483829448
Pd 12.713034006598638 14.52019778010516 10.300035772209124
Pd 11.806198505157168 11.00725023962709 14.410723138205396
Pd 15.41210771026432 11.220834932478011 8.821335993410885
Pd 14.167481650487908 13.5624097008921 8.259174756842874
Pd 11.611440086411783 12.731332301957815 12.086053510411727
Pd 9.965266268547554 12.995117463440181 14.488595481483879
Pd 13.10581785235838 11.836872265063537 10.066294360490337
Pd 13.546266823834364 7.9065010582474065 11.704347174304099
Pd 12.318188678507958 10.173615427103215 11.874226902560114
Pd 11.716374562998865 8.288646388250873 13.771876936234337
Pd 13.819815522526923 9.163101641326028 9.269847618822029
Pd 8.888960745845138 13.689068727161816 12.218532035266069
Pd 10.11596018434552 14.842433304305057 10.03840953390752
Pd 11.521388411326301 13.166074939784286 8.287089416765845
Pd 12.91926352014551 11.064674453655902 7.466019537358378
Pd 9.804470319198218 12.165561346365271 10.097206925861416
Pd 9.53452033229122 9.44647219899494 14.659934888512883
Pd 11.308715048996905 10.017637055282448 9.417819585984727
Pd 9.613682083883239 11.092494175406515 12.635756671902499
Pd 11.909715227023558 7.4412887842259385 9.672952936035982
Pd 11.346022492976276 6.260793292844231 12.001671912186998
Pd 9.022599976434098 13.729721754394417 7.781300526780533
Pd 7.5399277596236685 14.021436203683361 10.003801221506784
Pd 10.20233287139181 8.690746426583916 11.61832241193126
Pd 8.98598661596247 7.1629446068363025 13.259649401664914
Pd 9.963073473213312 11.13567204853398 7.442162902748364
Pd 7.291472551711256 11.628156740859573 11.307476032709422
Pd 9.418517010129817 6.675417405292032 10.141357568506482
Pd 8.684049289246564 9.707253403293736 9.830483163162247
Pd 7.6041323449811165 9.46998127957111 12.78467989231936
Pd 9.957598390243044 8.280090305125286 7.9464662218240045
Pd 7.424974511199676 11.781417184564287 8.613023431262969
Pd 7.179863842777395 7.541700752566785 11.17475966506482
Pd 7.744221705467064 9.643473217349595 7.181496259778983
Pd 6.113053326230106 9.639012623466677 9.766168635197273
Pd 7.391698121655795 7.460345952234327 8.574632852691828
