47
Energy = -203.11695281 eV
Pd 6.688195805170258 12.77908853684141 10.455054302258729
Pd 10.899777915209919 15.884540677631488 11.846933582721793
Pd 7.475266691416284 12.87826213815888 13.07093253115591
Pd 11.908067153698864 13.315373196723534 14.575414389800939
Pd 8.111507770520774 13.952904905660967 8.56599613400135
Pd 8.778184674570946 14.370322290915997 11.15537556096662
Pd 9.599414607765146 14.431984479808719 13.730371411441057
Pd 10.183365576337724 15.696699093471873 9.278798949784555
Pd 9.500145754811566 15.21409707033297 6.79982768708008
Pd 13.190772847961002 14.770017651059359 12.739764223071967
Pd 6.94801597874923 10.158689550342073 10.859056053285704
Pd 11.983533706760415 10.723802716621014 15.309850340501505
Pd 12.516365274437149 14.630959488195847 10.038556343643014
Pd 7.633905039767512 10.242531210002607 13.451799030215584
Pd 9.806818370277142 9.272504939769911 14.97900600606639
Pd 11.228706173954459 13.188178483824984 11.885956206681607
Pd 8.170552957581162 11.276950609736879 8.683423193466409
Pd 14.225529587072678 12.441533878895632 13.64470072359172
Pd 9.832473723098063 11.766775351038456 13.95700810942902
Pd 7.713111265520302 7.779624716202384 14.451545681291043
Pd 9.054813486509769 11.649053457677885 11.354759466949828
Pd 10.393311969476365 12.858518337708384 9.309005363198455
Pd 11.760913885868442 14.170597212526632 7.484128310335769
Pd 8.349272694427217 8.565638014266092 9.270485977235909
Pd 9.992700975902713 9.399420359260303 12.333717466650622
Pd 12.239016371425038 10.963823414492412 12.68377875165965
Pd 9.72692727209755 9.702770082971757 7.135621686171368
Pd 7.861015480503073 7.881956722552375 11.81570820530264
Pd 11.649540451103666 11.535483516317868 7.395108470147724
Pd 14.447535103057001 13.115144680027354 11.096031891492537
Pd 14.009457854278985 13.167279060258062 8.40768458135723
Pd 12.75707668047682 11.364678177801649 9.970431049446232
Pd 10.410777568471367 10.110751679756559 9.742887274422747
Pd 12.31897725587045 8.891738190166402 11.070136280822085
Pd 9.961259678777973 6.907026395591684 13.367625800267147
Pd 14.78328713524786 10.516938784486271 11.787742561693994
Pd 14.348706801793593 9.821392480708313 14.266527705135994
Pd 12.16010182840621 8.398367771962638 13.85569435935931
Pd 10.216464739946215 7.153947689362265 10.685366823216794
Pd 10.376168252620113 7.232739747631551 8.08243260541886
Pd 14.419675620636124 7.9125784594084445 12.250094882245675
Pd 12.238035529475356 9.040357877371408 8.11145767019597
Pd 14.175806842330479 10.672843324012117 7.4897515509142325
Pd 15.728107319867505 11.394145878809656 9.509386958049287
Pd 14.522986705657258 8.956306740136325 9.592067724132349
Pd 12.706019485565124 6.805371751631796 9.560928298382223
Pd 12.26731416998103 6.273726595384213 12.204009617404337
