47
Energy = -203.37989915 eV
Pd 15.899647761129373 11.945877270125422 12.182158271584145
Pd 11.519360990374347 10.698964489936015 17.385695962696836
Pd 15.526458415817693 9.357340894149813 12.066298043462536
Pd 14.278079591722468 10.693008946954885 13.960293276023606
Pd 12.454612310037366 9.342384615632858 15.305456426156104
Pd 13.314800927264177 8.116289024481915 13.113359149664632
Pd 16.05121444015973 14.561166845448426 12.203890458027338
Pd 14.780208243727081 13.41737754412848 14.31768885341385
Pd 13.085060018322196 12.114249049086252 15.830827250110652
Pd 9.773511404525932 9.78082633941846 15.673173074365103
Pd 14.626405118743216 10.843465509513338 10.05804512137225
Pd 11.458451145217586 7.563012575274372 11.135294264845841
Pd 13.893283472937036 8.238940958187346 10.368986081831673
Pd 12.555347781755518 10.190513350289942 11.765449604827246
Pd 11.391854320563437 11.265918428547234 13.820689494776607
Pd 10.343426233870854 12.538746909051321 15.855124543324193
Pd 9.6322220782303 7.224171282473043 9.124550789383147
Pd 13.351732698787687 12.734416006984814 12.221562460095758
Pd 14.976232059454881 13.515267357115118 10.061159358969283
Pd 10.672083726639787 8.541781726093054 13.444519947827366
Pd 12.009384256203777 14.01957700079449 14.308648743204145
Pd 13.672510235296752 15.377880866693811 12.71793005483111
Pd 13.201218916898464 9.688883747316943 8.146418231905692
Pd 8.829130011224144 7.8946770833756315 11.561137794450206
Pd 12.245943713592865 7.247647867298099 8.541229847605347
Pd 11.052973890273726 9.713038692090427 9.66329972922029
Pd 12.191130352508694 12.167775703982628 9.922578305592204
Pd 8.099177560114507 9.021105075391967 13.803763867253998
Pd 10.692571165655313 12.991816149868258 11.950688133969917
Pd 13.98250284936467 12.279599190635455 7.899365397592175
Pd 8.604834180338381 11.590035385943974 14.031820809697077
Pd 9.592999989146076 10.489724786379524 11.800682383175614
Pd 9.336460637656508 14.146118600622966 13.93085318974365
Pd 10.549931768884141 8.960053694437843 7.244571292777878
Pd 11.022812807463655 15.625897543468103 12.365312223331134
Pd 12.748737644771332 14.825043766169678 10.401312708521225
Pd 9.498900416296717 12.041210421615508 9.636145978224329
Pd 11.355889004546544 11.535896784692866 7.399524765235888
Pd 8.33273636830881 9.466171324817607 9.504367817096906
Pd 12.018035986495956 14.068673330012487 8.006331548644637
Pd 10.18835002094298 14.728457768146232 9.899193159806783
Pd 8.022922846854255 12.939707565967325 11.89915567966373
Pd 8.74498464931676 10.876327417908046 7.334395221512727
Pd 6.902053830909336 11.595930107663156 9.941075003865487
Pd 9.44351425244046 13.59210686189379 7.526395988369518
Pd 7.663809300453575 14.212949255214422 9.630293159570053
Pd 6.920221001892556 12.727705281837812 7.547016929512057
