41
Energy = -174.97284494 eV
Pd 15.465913897288267 9.894772938436903 11.926366893387337
Pd 13.857772879840507 10.698302941779042 13.830861228944963
Pd 15.882293004838196 12.309333494798203 13.093724081420216
Pd 14.590505565874285 12.682565231946707 15.446032785245833
Pd 12.194411928461182 11.517555429166233 15.72053996471931
Pd 14.585959820192887 7.628667466632177 10.840528554100253
Pd 12.764204475124167 9.360683844886392 11.792760310298357
Pd 11.442795979265478 9.536286908075716 14.083308276495364
Pd 16.621635675938997 11.904670017301648 10.550238944114541
Pd 16.130830454890344 9.466195682541908 9.41177515841008
Pd 11.992385407658798 7.333847284625048 10.118583798497504
Pd 12.346557891534394 14.21765162889027 15.515380431098349
Pd 9.696098991922085 10.484538115852443 15.799889967494682
Pd 13.96646594810268 11.986205088534328 11.211309615025137
Pd 10.754507437773551 7.534353879475578 12.436899743777238
Pd 11.623784470054234 11.929319805093 12.761631281216719
Pd 13.557300758203803 13.706484133573897 13.224379021289804
Pd 8.892308077430425 8.637717952129051 13.932550031819943
Pd 13.509381351657229 9.322942754866546 9.168291940995205
Pd 10.167116194131545 12.885610870848973 14.764333164627434
Pd 8.649434085307275 11.212869288717457 13.433366224376153
Pd 14.724460301730714 11.607801122490313 8.71408667004369
Pd 11.785529387293199 11.403702439147807 9.874426987086851
Pd 10.183853140035486 9.9681232451859 11.564801380057888
Pd 9.333327143667516 7.846592382003996 10.159368731877827
Pd 11.081056042811191 14.755046816069415 13.177447417995479
Pd 7.605776701599671 9.282863500943693 11.681605919295833
Pd 10.901308608033078 9.256541951491485 8.586259102085938
Pd 8.484034972636433 13.857506577662422 13.002146481211646
Pd 12.635716552775593 10.801360418199375 7.146603703839937
Pd 12.173978148891594 13.973664692616502 10.847679163564047
Pd 9.704445356743712 12.645737092868096 10.984752871038337
Pd 7.193803856567754 11.89332382867969 11.308304754462712
Pd 12.798333966489116 13.281905839825262 8.277515934960078
Pd 10.231137987525798 11.7843898778104 7.76447178486637
Pd 8.599605086505862 10.43712958633196 9.433243607899996
Pd 9.71911523354013 15.365158546824087 11.035974611993085
Pd 7.116930848668392 14.519411435630111 10.837976366867203
Pd 10.47408049180534 14.239914729253183 8.737255893650323
Pd 8.077618195675406 12.969468910536705 8.874542648834243
Pd 8.299146679955488 15.643282432294424 8.774812615834454
