50
Energy = -216.61515104 eV
Pd 15.581962869304121 7.554287956402864 10.321346635728657
Pd 13.77779806353343 5.998456606173542 11.439973995343715
Pd 14.622308890838108 8.187941962469681 12.780612399427042
Pd 15.955433785206756 10.013446035604286 11.32976096694442
Pd 13.236493448008416 7.06974733063367 8.905323071712175
Pd 14.531735523513838 10.62069987926632 13.826761615306147
Pd 14.496310305216033 9.61064359717368 9.12640559265799
Pd 12.16801289381807 7.1961752013809654 13.302283802099568
Pd 12.80300851532199 8.59395485080678 10.912254646123698
Pd 11.228746615074519 6.218413805041322 10.747616716170217
Pd 12.147894802686087 9.878543130032087 13.080468962318992
Pd 15.904995494856061 12.465884810837087 12.364054857170863
Pd 15.455473706436116 12.205169815279298 9.657876741117063
Pd 13.610271380699501 11.290104722234098 11.34139904610369
Pd 12.270021784858706 9.281592832484636 7.681663931054684
Pd 8.06930775067268 8.181838400506559 13.2282735746687
Pd 10.503725037162488 8.224936455751928 9.166173032537202
Pd 10.221060178792982 9.132591191205169 14.759865666755223
Pd 10.260108345491997 8.382856640350234 11.900106226035414
Pd 13.781127355509204 13.180263876440142 13.871322199479163
Pd 13.073684330455835 11.630747295386769 8.463317477033224
Pd 12.194999886055886 11.322255188210779 15.192620059765776
Pd 11.240097350229794 10.687177129153701 10.38409558008591
Pd 13.984254725181659 13.97735731613613 11.283437398382127
Pd 8.206495335596975 7.57961217172614 10.421577067362374
Pd 9.512070971084638 10.755782663743743 12.797385180450863
Pd 13.83513968403698 14.172954074418131 8.646969822079987
Pd 11.587053037482734 13.96542070615905 15.187039725924924
Pd 11.561082002750247 12.520941958180357 12.589776095962078
Pd 9.686956274999229 12.056450738902479 15.068459616341375
Pd 10.388602016935678 11.200159280133823 7.912256381675829
Pd 7.665649520937638 10.25726762449677 14.837736283909258
Pd 8.433129324837912 9.238077481816955 7.923885110266482
Pd 12.04480202464008 15.10713467617928 12.790433009952833
Pd 11.76240088467651 13.442709740223716 7.120196907780768
Pd 8.710592917389642 10.130903976239667 10.370090215287396
Pd 6.775933841374433 10.211392528245737 12.261671110098177
Pd 11.58210055510013 13.333214954186195 9.941287843268455
Pd 6.237369816195262 9.940893858099589 9.615009811849472
Pd 12.434139075395308 15.898634396130168 10.209405965121068
Pd 9.578741630109322 14.228416733922321 13.462131400382843
Pd 7.569294387640556 12.535242595229711 13.364702412614962
Pd 9.27808377390014 12.661109113436504 11.000573015694265
Pd 9.130330201437422 13.478069726459982 6.990125706432034
Pd 7.779970512634927 11.762395236977056 8.418955714303374
Pd 10.452893547962844 15.279934340583242 8.460906169258877
Pd 6.625566962165868 12.433822505104946 10.77362957486821
Pd 9.971514109619289 15.326801108309827 11.080002364168768
Pd 7.4670461931779935 14.746737268049182 11.847550187173805
Pd 8.116280948081512 14.278864709571977 9.301916350395542
