7
Energy = -23.06979698 eV
Pd 8.127976237214748 10.332866926671285 12.820268273893559
Pd 12.14729789637941 9.69599517923879 10.045282826984787
Pd 10.054693065008232 10.665464567869993 11.241744909292821
Pd 8.127031401094417 8.97714901386712 10.706509061141334
Pd 13.22846202914073 11.974900428150015 9.635331657217721
Pd 9.866490165434998 9.11694298759519 8.865421322166979
Pd 10.809681291776377 11.571870443026421 8.925627746183181
