8
Energy = -27.42206395 eV
Pd 9.601624280985323 11.146783475173493 10.868299691450172
Pd 8.9194604658124 8.797854511707182 10.3387391834794
Pd 9.210775640225648 6.297058548004476 9.735913967175671
Pd 9.518466643622984 10.710083249478277 8.404164449635244
Pd 6.889778376142124 7.302642661303542 9.736732546117087
Pd 9.314614153654457 9.749962514277081 6.100099076093592
Pd 7.565304919991974 8.95312759931766 7.865309755595885
Pd 9.95313326875815 8.013492173798614 7.935782638589657
