9
Energy = -32.33983469 eV
Pd 9.1007135 10.541327565230569 9.716074544145147
Pd 7.592552831062483 9.1007135 7.795748772663133
Pd 10.608874168937517 9.1007135 7.795748772663133
Pd 9.1007135 11.05663147420636 7.138177521722665
Pd 9.1007135 9.1007135 11.88021807081543
Pd 11.264717069043028 9.1007135 10.363100851650957
Pd 9.1007135 7.660099434769427 9.716074544145147
Pd 6.936709930956973 9.1007135 10.363100851650957
Pd 9.1007135 7.144795525793633 7.138177521722665
