9
Energy = -32.28602687 eV
Pd 8.986460381256851 11.103567198914696 11.08614297262245
Pd 9.113259890007885 11.732218815460573 8.550494356156497
Pd 10.285280272867016 9.747225203760978 7.220841109678114
Pd 11.408911279472674 11.684078499938071 11.819756686028438
Pd 11.236252128219661 10.51422139005065 9.526742898598565
Pd 8.523315744787572 9.24409013496811 9.168360890526193
Pd 10.028503686997508 10.057018284266324 13.218268271326219
Pd 10.31415846690819 8.672016578861532 11.104888651235674
Pd 10.589812452756298 7.654105314472944 8.77226400505514
