9
Energy = -31.76446721 eV
Pd 10.737081389794245 10.512780589590948 8.543066892873668
Pd 8.583542300876962 11.94901497300192 9.611490622372646
Pd 8.99710670065978 6.805975216791515 9.794914358824837
Pd 10.878829374263399 13.022931593789975 9.052479790610738
Pd 8.293764885855214 9.307562732656484 9.293449311789267
Pd 9.943650112104697 8.181041762054715 7.619914954299264
Pd 9.900218469866772 10.32425146290112 11.031341007687491
Pd 11.137881646237963 8.270626201923086 10.037963821541418
Pd 8.282133038201541 8.3820436894769 11.757444657127413
