 running on   64 total cores
 distrk:  each k-point on   64 cores,    1 groups
 distr:  one band on   16 cores,    4 groups
 using from now: INCAR     
 vasp.5.3.5 31Mar14 (build Feb 01 2018 12:10:03) gamma-only                     
  
 POSCAR found type information on POSCAR  Ag
 POSCAR found :  1 types and      43 ions
 scaLAPACK will be used

 ----------------------------------------------------------------------------- 
|                                                                             |
|  ADVICE TO THIS USER RUNNING 'VASP/VAMP'   (HEAR YOUR MASTER'S VOICE ...):  |
|                                                                             |
|      You have a (more or less) 'large supercell' and for larger cells       |
|      it might be more efficient to use real space projection opertators     |
|      So try LREAL= Auto  in the INCAR   file.                               |
|      Mind: At the moment your POTCAR file does not contain real space       |
|       projectors, and has to be modified,  BUT if you                       |
|      want to do an extremely  accurate calculation you might also keep the  |
|      reciprocal projection scheme          (i.e. LREAL=.FALSE.)             |
|                                                                             |
 ----------------------------------------------------------------------------- 

 LDA part: xc-table for Pade appr. of Perdew
 POSCAR, INCAR and KPOINTS ok, starting setup
 WARNING: small aliasing (wrap around) errors must be expected
 FFT: planning ...
 WAVECAR not read
 entering main loop
       N       E                     dE             d eps       ncg     rms          rms(c)
DAV:   1     0.410440475969E+04    0.41044E+04   -0.90459E+04  1248   0.599E+02
DAV:   2     0.811397389311E+03   -0.32930E+04   -0.29415E+04  2088   0.152E+02
DAV:   3    -0.504412894566E+02   -0.86184E+03   -0.78940E+03  1568   0.862E+01
DAV:   4    -0.924042349426E+02   -0.41963E+02   -0.41504E+02  1352   0.206E+01
DAV:   5    -0.930063202403E+02   -0.60209E+00   -0.60129E+00  1384   0.295E+00    0.380E+01
DAV:   6    -0.407196612017E+02    0.52287E+02   -0.16151E+02  1252   0.163E+01    0.205E+01
DAV:   7    -0.296654125609E+02    0.11054E+02   -0.99782E+00  1332   0.458E+00    0.127E+01
DAV:   8    -0.270193879841E+02    0.26460E+01   -0.24546E+00  1336   0.257E+00    0.720E+00
DAV:   9    -0.303888935324E+02   -0.33695E+01   -0.91360E-01  1360   0.131E+00    0.458E+00
DAV:  10    -0.431146393517E+02   -0.12726E+02   -0.36212E+00  1288   0.240E+00    0.396E+00
DAV:  11    -0.530870216893E+02   -0.99724E+01   -0.36830E+00  1320   0.270E+00    0.338E+00
DAV:  12    -0.614164017438E+02   -0.83294E+01   -0.31613E+00  1264   0.225E+00    0.248E+00
DAV:  13    -0.732637278850E+02   -0.11847E+02   -0.53627E+00  1288   0.226E+00    0.217E+00
DAV:  14    -0.761927041508E+02   -0.29290E+01   -0.54307E-01  1328   0.101E+00    0.174E+00
DAV:  15    -0.812718459027E+02   -0.50791E+01   -0.10591E+00  1288   0.110E+00    0.186E+00
DAV:  16    -0.831259359044E+02   -0.18541E+01   -0.24497E-01  1320   0.690E-01    0.132E+00
DAV:  17    -0.862732895344E+02   -0.31474E+01   -0.62544E-01  1240   0.827E-01    0.788E-01
DAV:  18    -0.884460018676E+02   -0.21727E+01   -0.25558E-01  1276   0.524E-01    0.537E-01
DAV:  19    -0.896904286931E+02   -0.12444E+01   -0.68513E-02  1288   0.282E-01    0.367E-01
DAV:  20    -0.909519852405E+02   -0.12616E+01   -0.56364E-02  1296   0.274E-01    0.189E-01
DAV:  21    -0.913060174556E+02   -0.35403E+00   -0.11655E-02  1280   0.139E-01    0.123E-01
DAV:  22    -0.914509726793E+02   -0.14496E+00   -0.18757E-03  1204   0.571E-02    0.761E-02
DAV:  23    -0.915741682207E+02   -0.12320E+00   -0.17902E-03  1032   0.475E-02    0.407E-02
DAV:  24    -0.916001065249E+02   -0.25938E-01   -0.38459E-04   872   0.285E-02    0.253E-02
DAV:  25    -0.916122191814E+02   -0.12113E-01   -0.22078E-04   860   0.150E-02    0.187E-02
DAV:  26    -0.916221671965E+02   -0.99480E-02   -0.21387E-04   872   0.149E-02    0.137E-02
DAV:  27    -0.916282770797E+02   -0.61099E-02   -0.71407E-05   864   0.997E-03    0.955E-03
DAV:  28    -0.916325175347E+02   -0.42405E-02   -0.26879E-05   824   0.722E-03    0.621E-03
DAV:  29    -0.916352968396E+02   -0.27793E-02   -0.16462E-05   824   0.502E-03    0.436E-03
DAV:  30    -0.916364830619E+02   -0.11862E-02   -0.67593E-06   844   0.367E-03    0.339E-03
DAV:  31    -0.916368175684E+02   -0.33451E-03   -0.20041E-06   804   0.240E-03    0.206E-03
DAV:  32    -0.916370298707E+02   -0.21230E-03   -0.12784E-06   816   0.186E-03    0.109E-03
DAV:  33    -0.916371567925E+02   -0.12692E-03   -0.68846E-07   800   0.100E-03    0.909E-04
DAV:  34    -0.916372642152E+02   -0.10742E-03   -0.53745E-07   808   0.841E-04    0.586E-04
DAV:  35    -0.916373317175E+02   -0.67502E-04   -0.38524E-07   768   0.655E-04
   1 F= -.91637332E+02 E0= -.91637332E+02  d E =-.916373E+02  mag=     1.0007
 curvature:   0.00 expect dE= 0.000E+00 dE for cont linesearch  0.000E+00
 trial: gam= 0.00000 g(F)=  0.304E-01 g(S)=  0.000E+00 ort = 0.000E+00 (trialstep = 0.100E+01)
 search vector abs. value=  0.304E-01
 bond charge predicted
       N       E                     dE             d eps       ncg     rms          rms(c)
DAV:   1    -0.916660447422E+02   -0.28781E-01   -0.20414E+00  1272   0.221E+00    0.846E-02
DAV:   2    -0.916669639062E+02   -0.91916E-03   -0.92049E-03  1312   0.206E-01    0.617E-02
DAV:   3    -0.916669427156E+02    0.21191E-04   -0.13795E-04   768   0.270E-02
   2 F= -.91666943E+02 E0= -.91666943E+02  d E =-.296110E-01  mag=     1.0004
 ZBRENT: can't locate minimum, use default step
 trial-energy change:   -0.029611  1 .order   -0.029254   -0.030428   -0.028079
 step:   4.0000(harm= 12.9578)  dis= 0.01409  next Energy=   -91.834469 (dE=-0.197E+00)
 bond charge predicted
       N       E                     dE             d eps       ncg     rms          rms(c)
DAV:   1    -0.917373369353E+02   -0.70373E-01   -0.18411E+01  1256   0.664E+00    0.251E-01
DAV:   2    -0.917455265272E+02   -0.81896E-02   -0.82981E-02  1304   0.619E-01    0.183E-01
DAV:   3    -0.917453182340E+02    0.20829E-03   -0.13554E-03  1320   0.804E-02    0.124E-01
DAV:   4    -0.917450933214E+02    0.22491E-03   -0.77659E-04  1328   0.475E-02    0.247E-02
DAV:   5    -0.917450832312E+02    0.10090E-04   -0.17623E-05   816   0.122E-02
   3 F= -.91745083E+02 E0= -.91745083E+02  d E =-.107752E+00  mag=     1.0002
 curvature:  -2.84 expect dE=-0.543E-01 dE for cont linesearch -0.523E-01
 ZBRENT: increasing intervall
 opt :  10.0000  next Energy=   -91.860584 (dE=-0.223E+00)
 bond charge predicted
       N       E                     dE             d eps       ncg     rms          rms(c)
DAV:   1    -0.918250229420E+02   -0.79930E-01   -0.73558E+01  1232   0.133E+01    0.469E-01
DAV:   2    -0.918579664787E+02   -0.32944E-01   -0.33137E-01  1288   0.124E+00    0.353E-01
DAV:   3    -0.918572264993E+02    0.73998E-03   -0.52898E-03  1304   0.159E-01    0.247E-01
DAV:   4    -0.918563699444E+02    0.85655E-03   -0.30943E-03  1304   0.937E-02    0.562E-02
DAV:   5    -0.918563595548E+02    0.10390E-04   -0.84435E-05   832   0.259E-02
   4 F= -.91856360E+02 E0= -.91856360E+02  d E =-.219028E+00  mag=     1.0001
 curvature:  -6.28 expect dE=-0.660E-01 dE for cont linesearch -0.402E-01
 ZBRENT: increasing intervall
 opt :  22.0000  next Energy=   -91.907362 (dE=-0.270E+00)
 bond charge predicted
       N       E                     dE             d eps       ncg     rms          rms(c)
DAV:   1    -0.917823289516E+02    0.74041E-01   -0.29537E+02  1232   0.267E+01    0.892E-01
DAV:   2    -0.919155979873E+02   -0.13327E+00   -0.13389E+00  1284   0.251E+00    0.678E-01
DAV:   3    -0.919131653618E+02    0.24326E-02   -0.20773E-02  1300   0.317E-01    0.485E-01
DAV:   4    -0.919098417392E+02    0.33236E-02   -0.10673E-02  1300   0.174E-01    0.138E-01
DAV:   5    -0.919098618339E+02   -0.20095E-04   -0.66551E-04  1328   0.582E-02
   5 F= -.91909862E+02 E0= -.91909862E+02  d E =-.272530E+00  mag=     1.0001
 curvature:  -7.97 expect dE=-0.153E+00 dE for cont linesearch -0.505E-02
 ZBRENT: bracketing found
 ZBRENT: interpolating
 opt :  19.1288  next Energy=   -91.916164 (dE=-0.279E+00)
 bond charge predicted
       N       E                     dE             d eps       ncg     rms          rms(c)
DAV:   1    -0.919093893132E+02    0.45243E-03   -0.16861E+01  1240   0.636E+00    0.208E-01
DAV:   2    -0.919170822598E+02   -0.76929E-02   -0.75084E-02  1336   0.592E-01    0.158E-01
DAV:   3    -0.919170263375E+02    0.55922E-04   -0.12015E-03  1360   0.744E-02    0.112E-01
DAV:   4    -0.919171502736E+02   -0.12394E-03   -0.81886E-04  1312   0.468E-02    0.280E-02
DAV:   5    -0.919172938676E+02   -0.14359E-03   -0.23356E-05   848   0.126E-02    0.139E-02
DAV:   6    -0.919173644221E+02   -0.70555E-04   -0.80025E-06   776   0.466E-03
   6 F= -.91917364E+02 E0= -.91917364E+02  d E =-.280033E+00  mag=     1.0000
 curvature:  -9.95 expect dE=-0.141E+00 dE for cont linesearch -0.240E-04
 trial: gam= 0.47560 g(F)=  0.142E-01 g(S)=  0.000E+00 ort =-0.271E-03 (trialstep = 0.463E+01)
 search vector abs. value=  0.208E-01
 bond charge predicted
       N       E                     dE             d eps       ncg     rms          rms(c)
DAV:   1    -0.919633167081E+02   -0.46023E-01   -0.29827E+01  1232   0.843E+00    0.247E-01
DAV:   2    -0.919769234973E+02   -0.13607E-01   -0.13540E-01  1280   0.805E-01    0.230E-01
DAV:   3    -0.919767454987E+02    0.17800E-03   -0.21351E-03  1316   0.103E-01    0.169E-01
DAV:   4    -0.919763358091E+02    0.40969E-03   -0.10295E-03  1300   0.535E-02    0.756E-02
DAV:   5    -0.919763780147E+02   -0.42206E-04   -0.28917E-04   904   0.313E-02
   7 F= -.91976378E+02 E0= -.91976378E+02  d E =-.590136E-01  mag=     1.0000
 ZBRENT: can't locate minimum, use default step
 trial-energy change:   -0.059014  1 .order   -0.059204   -0.065093   -0.053314
 step:  18.5030(harm= 25.5630)  dis= 0.04942  next Energy=   -92.097224 (dE=-0.180E+00)
 bond charge predicted
       N       E                     dE             d eps       ncg     rms          rms(c)
DAV:   1    -0.919604723701E+02    0.15863E-01   -0.26961E+02  1232   0.254E+01    0.676E-01
DAV:   2    -0.920823512582E+02   -0.12188E+00   -0.12181E+00  1288   0.242E+00    0.695E-01
DAV:   3    -0.920812872975E+02    0.10640E-02   -0.18881E-02  1316   0.300E-01    0.528E-01
DAV:   4    -0.920772004064E+02    0.40869E-02   -0.65372E-03  1304   0.138E-01    0.301E-01
DAV:   5    -0.920767986183E+02    0.40179E-03   -0.49025E-03  1296   0.117E-01    0.104E-01
DAV:   6    -0.920767712517E+02    0.27367E-04   -0.16651E-04   840   0.227E-02
   8 F= -.92076771E+02 E0= -.92076771E+02  d E =-.159407E+00  mag=     1.0000
 curvature: -16.77 expect dE=-0.704E-01 dE for cont linesearch -0.951E-02
 ZBRENT: extrapolating
 opt :  24.4009  next Energy=   -92.086908 (dE=-0.170E+00)
 bond charge predicted
       N       E                     dE             d eps       ncg     rms          rms(c)
DAV:   1    -0.920656294729E+02    0.11169E-01   -0.48477E+01  1244   0.107E+01    0.290E-01
DAV:   2    -0.920877483683E+02   -0.22119E-01   -0.22130E-01  1288   0.103E+00    0.277E-01
DAV:   3    -0.920875111717E+02    0.23720E-03   -0.34394E-03  1304   0.130E-01    0.204E-01
DAV:   4    -0.920868420854E+02    0.66909E-03   -0.12634E-03  1304   0.603E-02    0.106E-01
DAV:   5    -0.920868414521E+02    0.63330E-06   -0.70768E-04  1312   0.448E-02
   9 F= -.92086841E+02 E0= -.92086841E+02  d E =-.169477E+00  mag=     1.0000
 curvature: -17.87 expect dE=-0.102E+00 dE for cont linesearch -0.614E-04
 trial: gam= 0.39377 g(F)=  0.571E-02 g(S)=  0.000E+00 ort = 0.268E-03 (trialstep = 0.858E+01)
 search vector abs. value=  0.915E-02
 bond charge predicted
       N       E                     dE             d eps       ncg     rms          rms(c)
DAV:   1    -0.921087539132E+02   -0.21912E-01   -0.45056E+01  1240   0.104E+01    0.249E-01
DAV:   2    -0.921295170464E+02   -0.20763E-01   -0.20498E-01  1284   0.984E-01    0.225E-01
DAV:   3    -0.921293051174E+02    0.21193E-03   -0.31093E-03  1328   0.122E-01    0.167E-01
DAV:   4    -0.921287742248E+02    0.53089E-03   -0.92659E-04  1304   0.505E-02    0.870E-02
DAV:   5    -0.921287658895E+02    0.83353E-05   -0.73754E-04  1316   0.449E-02
  10 F= -.92128766E+02 E0= -.92128766E+02  d E =-.419244E-01  mag=     1.0000
 trial-energy change:   -0.041924  1 .order   -0.042671   -0.049887   -0.035455
 step:  29.6612(harm= 29.6612)  dis= 0.05187  next Energy=   -92.173063 (dE=-0.862E-01)
 bond charge predicted
       N       E                     dE             d eps       ncg     rms          rms(c)
DAV:   1    -0.920463786323E+02    0.82396E-01   -0.27311E+02  1232   0.256E+01    0.648E-01
DAV:   2    -0.921733206274E+02   -0.12694E+00   -0.12498E+00  1284   0.244E+00    0.559E-01
DAV:   3    -0.921717490948E+02    0.15715E-02   -0.19421E-02  1316   0.307E-01    0.407E-01
DAV:   4    -0.921683176913E+02    0.34314E-02   -0.54971E-03  1296   0.123E-01    0.213E-01
DAV:   5    -0.921679307990E+02    0.38689E-03   -0.39120E-03  1312   0.103E-01    0.691E-02
DAV:   6    -0.921679421011E+02   -0.11302E-04   -0.12490E-04   808   0.193E-02
  11 F= -.92167942E+02 E0= -.92167942E+02  d E =-.811006E-01  mag=     1.0000
 curvature: -23.34 expect dE=-0.112E+00 dE for cont linesearch -0.147E-03
 trial: gam= 0.92027 g(F)=  0.482E-02 g(S)=  0.000E+00 ort =-0.240E-03 (trialstep = 0.966E+01)
 search vector abs. value=  0.121E-01
 bond charge predicted
       N       E                     dE             d eps       ncg     rms          rms(c)
DAV:   1    -0.921692107690E+02   -0.12800E-02   -0.75600E+01  1232   0.134E+01    0.324E-01
DAV:   2    -0.922041665280E+02   -0.34956E-01   -0.34559E-01  1292   0.128E+00    0.298E-01
DAV:   3    -0.922037181659E+02    0.44836E-03   -0.52165E-03  1304   0.159E-01    0.219E-01
DAV:   4    -0.922027070505E+02    0.10111E-02   -0.16684E-03  1272   0.677E-02    0.117E-01
DAV:   5    -0.922026722813E+02    0.34769E-04   -0.13395E-03  1300   0.600E-02    0.418E-02
DAV:   6    -0.922026959695E+02   -0.23688E-04   -0.48762E-05   776   0.117E-02
  12 F= -.92202696E+02 E0= -.92202696E+02  d E =-.347539E-01  mag=     1.0000
 trial-energy change:   -0.034754  1 .order   -0.035072   -0.044385   -0.025760
 step:  23.0112(harm= 23.0112)  dis= 0.04954  next Energy=   -92.220827 (dE=-0.529E-01)
 bond charge predicted
       N       E                     dE             d eps       ncg     rms          rms(c)
DAV:   1    -0.921556460445E+02    0.47026E-01   -0.14483E+02  1232   0.186E+01    0.477E-01
DAV:   2    -0.922225973705E+02   -0.66951E-01   -0.66448E-01  1272   0.178E+00    0.416E-01
DAV:   3    -0.922216212155E+02    0.97615E-03   -0.10562E-02  1320   0.227E-01    0.300E-01
DAV:   4    -0.922196297485E+02    0.19915E-02   -0.34623E-03  1272   0.975E-02    0.152E-01
DAV:   5    -0.922195234464E+02    0.10630E-03   -0.21060E-03  1304   0.760E-02    0.533E-02
DAV:   6    -0.922195209592E+02    0.24872E-05   -0.10055E-04   784   0.167E-02
  13 F= -.92219521E+02 E0= -.92219521E+02  d E =-.515789E-01  mag=     1.0000
 curvature: -30.35 expect dE=-0.681E-01 dE for cont linesearch -0.230E-04
 trial: gam= 0.26295 g(F)=  0.224E-02 g(S)=  0.000E+00 ort =-0.958E-04 (trialstep = 0.123E+02)
 search vector abs. value=  0.303E-02
 bond charge predicted
       N       E                     dE             d eps       ncg     rms          rms(c)
DAV:   1    -0.922266416225E+02   -0.71182E-02   -0.30884E+01  1232   0.859E+00    0.241E-01
DAV:   2    -0.922405359630E+02   -0.13894E-01   -0.13974E-01  1272   0.811E-01    0.200E-01
DAV:   3    -0.922403220248E+02    0.21394E-03   -0.22510E-03  1344   0.102E-01    0.142E-01
DAV:   4    -0.922399462824E+02    0.37574E-03   -0.90493E-04  1280   0.504E-02    0.577E-02
DAV:   5    -0.922399686802E+02   -0.22398E-04   -0.21536E-04   816   0.276E-02
  14 F= -.92239969E+02 E0= -.92239969E+02  d E =-.204477E-01  mag=     1.0000
 trial-energy change:   -0.020448  1 .order   -0.020898   -0.027355   -0.014440
 step:  26.1105(harm= 26.1105)  dis= 0.03101  next Energy=   -92.248492 (dE=-0.290E-01)
 bond charge predicted
       N       E                     dE             d eps       ncg     rms          rms(c)
DAV:   1    -0.922295351293E+02    0.10411E-01   -0.38600E+01  1232   0.960E+00    0.278E-01
DAV:   2    -0.922469132663E+02   -0.17378E-01   -0.17514E-01  1264   0.907E-01    0.224E-01
DAV:   3    -0.922466320151E+02    0.28125E-03   -0.28295E-03  1328   0.115E-01    0.157E-01
DAV:   4    -0.922461711524E+02    0.46086E-03   -0.11152E-03  1280   0.562E-02    0.620E-02
DAV:   5    -0.922461940858E+02   -0.22933E-04   -0.23267E-04   816   0.292E-02
  15 F= -.92246194E+02 E0= -.92246194E+02  d E =-.266731E-01  mag=     1.0000
 curvature: -17.84 expect dE=-0.248E-01 dE for cont linesearch -0.830E-04
 trial: gam= 0.65767 g(F)=  0.139E-02 g(S)=  0.000E+00 ort =-0.119E-03 (trialstep = 0.151E+02)
 search vector abs. value=  0.255E-02
 bond charge predicted
       N       E                     dE             d eps       ncg     rms          rms(c)
DAV:   1    -0.922437546943E+02    0.24165E-02   -0.38712E+01  1232   0.962E+00    0.224E-01
DAV:   2    -0.922612276871E+02   -0.17473E-01   -0.17441E-01  1280   0.913E-01    0.211E-01
DAV:   3    -0.922610047418E+02    0.22295E-03   -0.26787E-03  1304   0.116E-01    0.155E-01
DAV:   4    -0.922605034209E+02    0.50132E-03   -0.71596E-04  1304   0.448E-02    0.869E-02
DAV:   5    -0.922604504281E+02    0.52993E-04   -0.80660E-04  1296   0.466E-02
  16 F= -.92260450E+02 E0= -.92260450E+02  d E =-.142563E-01  mag=     1.0000
 trial-energy change:   -0.014256  1 .order   -0.015020   -0.019813   -0.010228
 step:  31.1789(harm= 31.1789)  dis= 0.03691  next Energy=   -92.266671 (dE=-0.205E-01)
 bond charge predicted
       N       E                     dE             d eps       ncg     rms          rms(c)
DAV:   1    -0.922456368936E+02    0.14867E-01   -0.44075E+01  1236   0.103E+01    0.243E-01
DAV:   2    -0.922655486868E+02   -0.19912E-01   -0.19919E-01  1280   0.975E-01    0.224E-01
DAV:   3    -0.922652829966E+02    0.26569E-03   -0.30718E-03  1288   0.124E-01    0.164E-01
DAV:   4    -0.922647074688E+02    0.57553E-03   -0.82779E-04  1304   0.483E-02    0.904E-02
DAV:   5    -0.922646408446E+02    0.66624E-04   -0.85264E-04  1304   0.481E-02
  17 F= -.92264641E+02 E0= -.92264641E+02  d E =-.184468E-01  mag=     1.0000
 curvature: -30.23 expect dE=-0.395E-01 dE for cont linesearch -0.105E-04
 trial: gam= 0.78384 g(F)=  0.131E-02 g(S)=  0.000E+00 ort =-0.297E-04 (trialstep = 0.165E+02)
 search vector abs. value=  0.282E-02
 bond charge predicted
       N       E                     dE             d eps       ncg     rms          rms(c)
DAV:   1    -0.922561179309E+02    0.85895E-02   -0.51407E+01  1232   0.111E+01    0.253E-01
DAV:   2    -0.922794358773E+02   -0.23318E-01   -0.23130E-01  1284   0.104E+00    0.239E-01
DAV:   3    -0.922791276194E+02    0.30826E-03   -0.34085E-03  1308   0.127E-01    0.181E-01
DAV:   4    -0.922784125879E+02    0.71503E-03   -0.10486E-03  1292   0.536E-02    0.967E-02
DAV:   5    -0.922783297165E+02    0.82871E-04   -0.98050E-04  1296   0.516E-02
  18 F= -.92278330E+02 E0= -.92278330E+02  d E =-.136889E-01  mag=     1.0000
 trial-energy change:   -0.013689  1 .order   -0.014745   -0.021173   -0.008316
 step:  27.1781(harm= 27.1781)  dis= 0.02620  next Energy=   -92.282074 (dE=-0.174E-01)
 bond charge predicted
       N       E                     dE             d eps       ncg     rms          rms(c)
DAV:   1    -0.922707482409E+02    0.76643E-02   -0.21480E+01  1248   0.716E+00    0.167E-01
DAV:   2    -0.922805569860E+02   -0.98087E-02   -0.97275E-02  1296   0.676E-01    0.152E-01
DAV:   3    -0.922804343196E+02    0.12267E-03   -0.14370E-03  1304   0.827E-02    0.113E-01
DAV:   4    -0.922801627081E+02    0.27161E-03   -0.42376E-04  1248   0.344E-02    0.593E-02
DAV:   5    -0.922801453684E+02    0.17340E-04   -0.36790E-04  1128   0.325E-02
  19 F= -.92280145E+02 E0= -.92280145E+02  d E =-.155045E-01  mag=     1.0000
 curvature: -29.92 expect dE=-0.271E-01 dE for cont linesearch -0.869E-05
 trial: gam= 0.67795 g(F)=  0.905E-03 g(S)=  0.000E+00 ort =-0.286E-04 (trialstep = 0.186E+02)
 search vector abs. value=  0.216E-02
 bond charge predicted
       N       E                     dE             d eps       ncg     rms          rms(c)
DAV:   1    -0.922693220577E+02    0.10841E-01   -0.50207E+01  1248   0.110E+01    0.234E-01
DAV:   2    -0.922922307733E+02   -0.22909E-01   -0.22736E-01  1272   0.104E+00    0.248E-01
DAV:   3    -0.922920130899E+02    0.21768E-03   -0.36283E-03  1320   0.132E-01    0.188E-01
DAV:   4    -0.922913001603E+02    0.71293E-03   -0.76930E-04  1280   0.465E-02    0.120E-01
DAV:   5    -0.922911039676E+02    0.19619E-03   -0.14964E-03  1304   0.623E-02    0.422E-02
DAV:   6    -0.922911231958E+02   -0.19228E-04   -0.22926E-05   808   0.902E-03
  20 F= -.92291123E+02 E0= -.92291123E+02  d E =-.109778E-01  mag=     1.0000
 trial-energy change:   -0.010978  1 .order   -0.011659   -0.016515   -0.006803
 step:  31.6935(harm= 31.6935)  dis= 0.02812  next Energy=   -92.294187 (dE=-0.140E-01)
 bond charge predicted
       N       E                     dE             d eps       ncg     rms          rms(c)
DAV:   1    -0.922823996020E+02    0.87044E-02   -0.24613E+01  1240   0.767E+00    0.164E-01
DAV:   2    -0.922936013838E+02   -0.11202E-01   -0.11152E-01  1264   0.731E-01    0.173E-01
DAV:   3    -0.922934925708E+02    0.10881E-03   -0.17740E-03  1320   0.924E-02    0.131E-01
DAV:   4    -0.922931377468E+02    0.35482E-03   -0.37150E-04  1096   0.328E-02    0.835E-02
DAV:   5    -0.922930472370E+02    0.90510E-04   -0.79083E-04  1292   0.462E-02
  21 F= -.92293047E+02 E0= -.92293047E+02  d E =-.129019E-01  mag=     1.0000
 curvature: -38.72 expect dE=-0.256E-01 dE for cont linesearch -0.170E-04
 trial: gam= 0.65915 g(F)=  0.662E-03 g(S)=  0.000E+00 ort = 0.308E-04 (trialstep = 0.212E+02)
 search vector abs. value=  0.164E-02
 bond charge predicted
       N       E                     dE             d eps       ncg     rms          rms(c)
DAV:   1    -0.922787277005E+02    0.14410E-01   -0.49539E+01  1232   0.109E+01    0.259E-01
DAV:   2    -0.923011706813E+02   -0.22443E-01   -0.22340E-01  1268   0.103E+00    0.243E-01
DAV:   3    -0.923008779235E+02    0.29276E-03   -0.35006E-03  1320   0.129E-01    0.180E-01
DAV:   4    -0.923001626061E+02    0.71532E-03   -0.10767E-03  1276   0.550E-02    0.961E-02
DAV:   5    -0.923001020387E+02    0.60567E-04   -0.93180E-04  1304   0.500E-02
  22 F= -.92300102E+02 E0= -.92300102E+02  d E =-.705480E-02  mag=     1.0000
 trial-energy change:   -0.007055  1 .order   -0.008105   -0.014507   -0.001702
 step:  24.0745(harm= 24.0745)  dis= 0.02009  next Energy=   -92.301265 (dE=-0.822E-02)
 bond charge predicted
       N       E                     dE             d eps       ncg     rms          rms(c)
DAV:   1    -0.922996679054E+02    0.49470E-03   -0.87077E-01  1272   0.144E+00    0.420E-02
DAV:   2    -0.923000945503E+02   -0.42664E-03   -0.40954E-03  1328   0.138E-01    0.320E-02
DAV:   3    -0.923001057427E+02   -0.11192E-04   -0.55672E-05   752   0.176E-02
  23 F= -.92300106E+02 E0= -.92300106E+02  d E =-.705851E-02  mag=     1.0000
 curvature: -28.98 expect dE=-0.122E-01 dE for cont linesearch -0.379E-03
 trial: gam= 0.00000 g(F)=  0.421E-03 g(S)=  0.000E+00 ort =-0.147E-03 (trialstep = 0.218E+02)
 search vector abs. value=  0.421E-03
 bond charge predicted
       N       E                     dE             d eps       ncg     rms          rms(c)
DAV:   1    -0.922970043695E+02    0.30902E-02   -0.13477E+01  1232   0.566E+00    0.189E-01
DAV:   2    -0.923031070138E+02   -0.61026E-02   -0.62356E-02  1288   0.534E-01    0.145E-01
DAV:   3    -0.923030216962E+02    0.85318E-04   -0.10107E-03  1344   0.655E-02    0.972E-02
DAV:   4    -0.923029351587E+02    0.86538E-04   -0.43421E-04  1260   0.372E-02
  24 F= -.92302935E+02 E0= -.92302935E+02  d E =-.282942E-02  mag=     1.0000
 trial-energy change:   -0.002829  1 .order   -0.003106   -0.009183    0.002972
 step:  16.4812(harm= 16.4812)  dis= 0.00719  next Energy=   -92.303575 (dE=-0.347E-02)
 bond charge predicted
       N       E                     dE             d eps       ncg     rms          rms(c)
DAV:   1    -0.923030946803E+02   -0.72984E-04   -0.80647E-01  1296   0.138E+00    0.456E-02
DAV:   2    -0.923034598334E+02   -0.36515E-03   -0.35629E-03  1312   0.129E-01    0.389E-02
DAV:   3    -0.923034536782E+02    0.61552E-05   -0.52609E-05   784   0.154E-02
  25 F= -.92303454E+02 E0= -.92303454E+02  d E =-.334794E-02  mag=     1.0000
 curvature:  -8.24 expect dE=-0.182E-02 dE for cont linesearch -0.894E-05
 trial: gam= 0.47516 g(F)=  0.221E-03 g(S)=  0.000E+00 ort = 0.214E-04 (trialstep = 0.207E+02)
 search vector abs. value=  0.337E-03
 bond charge predicted
       N       E                     dE             d eps       ncg     rms          rms(c)
DAV:   1    -0.923020662116E+02    0.13936E-02   -0.96875E+00  1248   0.480E+00    0.113E-01
DAV:   2    -0.923065672043E+02   -0.45010E-02   -0.44463E-02  1300   0.456E-01    0.107E-01
DAV:   3    -0.923065092926E+02    0.57912E-04   -0.66242E-04  1320   0.544E-02
  26 F= -.92306509E+02 E0= -.92306509E+02  d E =-.305561E-02  mag=     1.0000
 trial-energy change:   -0.003056  1 .order   -0.003156   -0.004804   -0.001508
 step:  30.2363(harm= 30.2363)  dis= 0.01259  next Energy=   -92.306954 (dE=-0.350E-02)
 bond charge predicted
       N       E                     dE             d eps       ncg     rms          rms(c)
DAV:   1    -0.923058459957E+02    0.72121E-03   -0.20365E+00  1244   0.220E+00    0.768E-02
DAV:   2    -0.923067004918E+02   -0.85450E-03   -0.88352E-03  1344   0.204E-01    0.684E-02
DAV:   3    -0.923066535912E+02    0.46901E-04   -0.12283E-04   760   0.232E-02
  27 F= -.92306654E+02 E0= -.92306654E+02  d E =-.319991E-02  mag=     1.0000
 curvature: -21.99 expect dE=-0.452E-02 dE for cont linesearch -0.207E-03
 trial: gam= 0.00000 g(F)=  0.206E-03 g(S)=  0.000E+00 ort =-0.563E-04 (trialstep = 0.226E+02)
 search vector abs. value=  0.206E-03
 bond charge predicted
       N       E                     dE             d eps       ncg     rms          rms(c)
DAV:   1    -0.923048683024E+02    0.18322E-02   -0.70934E+00  1244   0.411E+00    0.130E-01
DAV:   2    -0.923080417977E+02   -0.31735E-02   -0.32587E-02  1284   0.387E-01    0.997E-02
DAV:   3    -0.923080114611E+02    0.30337E-04   -0.53464E-04  1336   0.481E-02
  28 F= -.92308011E+02 E0= -.92308011E+02  d E =-.135787E-02  mag=     1.0000
 trial-energy change:   -0.001358  1 .order   -0.001374   -0.004658    0.001910
 step:  16.0607(harm= 16.0607)  dis= 0.00532  next Energy=   -92.308305 (dE=-0.165E-02)
 bond charge predicted
       N       E                     dE             d eps       ncg     rms          rms(c)
DAV:   1    -0.923079412500E+02    0.10055E-03   -0.59581E-01  1248   0.119E+00    0.295E-02
DAV:   2    -0.923082248287E+02   -0.28358E-03   -0.27872E-03  1320   0.114E-01    0.207E-02
DAV:   3    -0.923082268287E+02   -0.20000E-05   -0.42839E-05   744   0.153E-02
  29 F= -.92308227E+02 E0= -.92308227E+02  d E =-.157324E-02  mag=     1.0000
 curvature:  -8.03 expect dE=-0.669E-03 dE for cont linesearch -0.376E-04
 trial: gam= 0.25433 g(F)=  0.833E-04 g(S)=  0.000E+00 ort = 0.310E-04 (trialstep = 0.213E+02)
 search vector abs. value=  0.112E-03
 bond charge predicted
       N       E                     dE             d eps       ncg     rms          rms(c)
DAV:   1    -0.923079126398E+02    0.31219E-03   -0.34094E+00  1240   0.285E+00    0.670E-02
DAV:   2    -0.923094696166E+02   -0.15570E-02   -0.15397E-02  1276   0.268E-01    0.605E-02
DAV:   3    -0.923094503733E+02    0.19243E-04   -0.21148E-04   792   0.320E-02
  30 F= -.92309450E+02 E0= -.92309450E+02  d E =-.122354E-02  mag=     1.0000
 trial-energy change:   -0.001224  1 .order   -0.000838   -0.001946    0.000270
 step:  18.7334(harm= 18.7334)  dis= 0.00531  next Energy=   -92.309081 (dE=-0.855E-03)
 bond charge predicted
       N       E                     dE             d eps       ncg     rms          rms(c)
DAV:   1    -0.923092936148E+02    0.17600E-03   -0.48624E-02  1292   0.339E-01    0.153E-02
DAV:   2    -0.923093189961E+02   -0.25381E-04   -0.22990E-04   768   0.351E-02
  31 F= -.92309319E+02 E0= -.92309319E+02  d E =-.109217E-02  mag=     1.0000
 curvature: -11.54 expect dE=-0.937E-03 dE for cont linesearch -0.292E-03
 trial: gam= 0.00000 g(F)=  0.812E-04 g(S)=  0.000E+00 ort = 0.534E-04 (trialstep = 0.208E+02)
 search vector abs. value=  0.812E-04
 bond charge predicted
       N       E                     dE             d eps       ncg     rms          rms(c)
DAV:   1    -0.923094696992E+02   -0.17608E-03   -0.23465E+00  1240   0.237E+00    0.554E-02
DAV:   2    -0.923105449593E+02   -0.10753E-02   -0.10627E-02  1312   0.222E-01    0.492E-02
DAV:   3    -0.923105278782E+02    0.17081E-04   -0.13637E-04   744   0.258E-02
  32 F= -.92310528E+02 E0= -.92310528E+02  d E =-.120888E-02  mag=     1.0000
 trial-energy change:   -0.001209  1 .order   -0.000949   -0.001690   -0.000208
 step:  23.7325(harm= 23.7325)  dis= 0.00574  next Energy=   -92.310283 (dE=-0.964E-03)
 bond charge predicted
       N       E                     dE             d eps       ncg     rms          rms(c)
DAV:   1    -0.923105894019E+02   -0.44443E-04   -0.48104E-02  1248   0.341E-01    0.175E-02
DAV:   2    -0.923106050147E+02   -0.15613E-04   -0.16813E-04   776   0.301E-02
  33 F= -.92310605E+02 E0= -.92310605E+02  d E =-.128602E-02  mag=     1.0000
 curvature: -11.87 expect dE=-0.446E-03 dE for cont linesearch -0.847E-04
 trial: gam= 0.16583 g(F)=  0.376E-04 g(S)=  0.000E+00 ort = 0.241E-04 (trialstep = 0.214E+02)
 search vector abs. value=  0.478E-04
 reached required accuracy - stopping structural energy minimisation
Application 91047199 resources: utime ~88453s, stime ~410s, Rss ~77680, inblocks ~833308, outblocks ~646086
