21
Energy = -51.73476117 eV
Ga 16.197448562438513 12.537270723563669 8.508777030230023
Ga 13.986589436538123 10.884203056857773 8.558943507980416
Ga 15.61536485796607 11.51861372106315 11.030354853732513
Ga 14.049878501320768 13.534801548419694 10.052943525103718
Ga 14.245204070507912 10.373115074661186 12.866520128790087
Ga 12.616590142030914 11.093243138032943 10.788128510392461
Ga 13.689781781372378 13.103003943534237 12.652983879422154
Ga 10.831884422019215 9.597089256059041 15.33172732073186
Ga 12.39582610511372 11.551415544670673 14.427272644913495
Ga 11.117148002129307 14.206898453597274 13.270079718533465
Ga 11.868184359394034 12.481107804003804 8.501499533587179
Ga 11.088634720987214 13.893556381939574 10.6149766886909
Ga 11.810938551649697 9.265545104104143 12.750467881048664
Ga 13.107680923985406 15.519952642479796 11.486745424417665
Ga 10.46903876606715 11.687910269954086 12.162626834931368
Ga 8.982253617969045 9.551679788258255 13.211909727103675
Ga 9.515965081131208 12.023732406187332 14.60795136722742
Ga 14.1026392038077 13.51042341794599 15.412081671690576
Ga 11.352328900110331 13.564372264207666 15.91755671638838
Ga 13.337792850452253 15.639164242963773 14.086858885926825
Ga 11.055917387851876 16.13061249286447 15.433005430246393
