23
Energy = -48.87146417 eV
Ga 18.056915847283914 14.629810762443052 13.718502132663524
Ga 17.393820187671103 12.148224041095158 12.36541621801717
Ga 15.514232276151748 13.4646047550171 10.833119733937846
Ga 15.614114981462551 14.578497037335834 14.750860967579086
Ga 16.401407268727134 11.793996493279224 14.685114192181432
Ga 14.7334146493208 10.93121225777555 10.092118260609736
Ga 14.034448628635365 10.940309680899167 14.313943304736135
Ga 11.716704973391591 10.162828971838406 16.28845194470031
Ga 14.049793913737957 14.303569634732561 12.732477215606568
Ga 11.572135801396541 11.472402199299127 10.324688824082251
Ga 11.127362008096311 9.664253327092029 13.504456719451792
Ga 12.258015811800552 9.565502344491698 8.204391022456907
Ga 11.943795179531554 12.603421584356566 13.04549815387316
Ga 13.337784622284607 12.04573362295356 7.770322758744589
Ga 11.744037500442422 13.840693244881697 15.437355712774895
Ga 10.089898927606797 12.104405658528808 16.697012524009818
Ga 8.906617860349622 13.459715876488909 12.64916182667153
Ga 10.727906344491213 12.891589838147246 6.525225385686265
Ga 9.794482902763358 15.386302757892036 14.68705289380029
Ga 8.453132734551195 11.899641580408758 14.760947761115025
Ga 9.974149620316023 10.240871311610645 6.9485689639495405
Ga 9.286959341434915 11.927138330773937 8.974521115499309
Ga 7.439476888372275 14.582366943661317 15.580603405958607
