25
Energy = -63.70009806 eV
Ga 8.059287807110625 12.58015032150755 7.306670572185305
Ga 10.265554468976873 11.050668270965934 7.873473406014426
Ga 9.898301366292486 8.050112837949401 7.8212469603555395
Ga 10.493121437198083 13.865874255354141 7.422373469803306
Ga 7.92223320259358 9.785559292123647 8.062175834872436
Ga 11.765375546898607 6.516342032271769 9.069286054850174
Ga 9.314206894818053 7.496254176675736 10.526544133517808
Ga 12.024878306787146 14.331019088450974 10.52326981936377
Ga 12.074067223008981 9.337130610247543 8.766147435706184
Ga 11.887594033028535 11.601598705106673 10.839964470584516
Ga 12.56597386097065 12.335060043089703 8.304539480061132
Ga 7.478487104594469 6.954439989553931 8.48081905936941
Ga 6.987261408752929 9.011047941892986 10.431657431528029
Ga 14.275877582256427 10.684511788826718 9.532297128438891
Ga 8.409079853192704 9.074390543083911 12.79882530696837
Ga 7.226185664826031 11.905115702874857 9.801817245866566
Ga 13.605287657354843 9.978188822563057 12.018414844211447
Ga 9.633764271404628 13.082843769878684 9.872276939939741
Ga 11.793523209733525 8.219876119980082 11.174662273559509
Ga 9.885420606473158 12.760284189171756 12.492293921321611
Ga 9.577703521074461 10.281261470623575 10.513023281056281
Ga 7.411703781376689 11.446136278328359 12.388155354377295
Ga 10.865822902090027 10.363664824640013 13.149846649678596
Ga 10.28117494208914 7.2774939240702485 13.271423475528776
Ga 12.64422003032147 8.35708168399305 13.904902134066234
