22
Energy = -54.21908132 eV
Ga 12.236665216234774 8.342033202962561 11.299261841793156
Ga 11.221343382283328 7.738163544155779 13.65091831289605
Ga 14.540526831847512 9.083474619885038 12.3518995461713
Ga 13.801198234925302 7.505120834706445 14.305462629586284
Ga 10.326864170267175 10.106715214886234 12.664703149555233
Ga 14.267382515910201 13.268595406855539 10.714092709088547
Ga 12.956647651704538 12.453654493174211 15.448117051507358
Ga 12.620304431361845 10.121022658290668 14.174889124493983
Ga 11.896188393845433 12.485350177240727 12.950439122215148
Ga 14.629251489121039 11.707879859785763 12.847855919654132
Ga 12.640089913252364 10.89731416955032 10.90890165119681
Ga 14.833047905115482 15.802180733510424 11.221870296094526
Ga 9.82871928284957 14.16005329864057 12.794810169505398
Ga 9.566080906326816 12.054762076460023 11.266103140961697
Ga 15.74380370268853 16.36723111358508 13.658334994745552
Ga 14.235669728202462 14.173636882303947 13.64372005664508
Ga 11.421155504589613 14.57626607752986 14.865787998289074
Ga 11.643972403619626 13.316441039306792 10.15460489785688
Ga 14.574684836939465 18.808466229532826 13.886913429195344
Ga 13.148496772595635 17.782257000848034 11.845109632714621
Ga 13.053831431360486 16.551682737430422 14.399458183624544
Ga 12.218087787862348 15.289083283360407 11.967072123702945
