21
Energy = -52.06578589 eV
Ga 11.285458139934986 6.987189681743775 7.103554591340049
Ga 11.25343042463616 9.628214535908723 7.362429984083439
Ga 11.757837615767125 10.570892946364143 10.412836588791901
Ga 13.50575426783661 12.663464752492077 9.473154961744264
Ga 13.829758668778833 7.69795696922945 7.643702994835839
Ga 11.298974427837761 12.227614691495507 7.893651551177687
Ga 9.486828942674343 7.725130673878696 8.818134638633497
Ga 13.64585803767701 10.218671900151769 8.557593297359551
Ga 9.353730847860714 10.445268726707765 9.048977507393072
Ga 11.561170204876943 14.72503990473488 9.036251523268973
Ga 7.730212867915642 8.731111660615225 10.483464579612146
Ga 10.070664563023913 11.173108784360466 12.35998337012917
Ga 12.24375536387605 7.840577323173544 9.778058524791724
Ga 6.1645729508009515 9.767126365635317 12.354520694211475
Ga 11.78545051067994 13.067720743643047 11.453177930166332
Ga 9.545973315359419 13.057322688742676 9.873947993837879
Ga 8.765291121061598 8.912549738361012 13.125270901279265
Ga 10.463662016347735 8.294271365067278 11.418354794107476
Ga 6.626547552374006 9.397842022510412 14.995473763087363
Ga 7.690291654517122 11.500741818645075 11.027047260493818
Ga 8.01320057792703 11.514178853523717 13.899957509285791
