34
Energy = -87.45971681 eV
Ga 11.450821968688288 10.914243066314192 15.266358235177988
Ga 12.96098577569977 8.81403434571539 15.781719809556822
Ga 12.874767970818855 7.507341446970861 11.302782868422389
Ga 14.456028987946667 11.22139389563551 16.173741849792798
Ga 11.184899972064615 13.954157613408121 15.642608528144311
Ga 14.265545986667735 7.245328588360795 9.03170790215591
Ga 14.23854148701492 10.412469936704527 13.617794018928825
Ga 11.872236432244955 9.003593429889115 13.309905577390422
Ga 9.391628810483759 12.301228811121513 14.51268681709979
Ga 14.130395854452878 9.931121619541528 11.112269843822501
Ga 11.654745998130505 8.349527354308746 8.829643104371716
Ga 7.099159747453716 11.590830039720277 13.154529240120942
Ga 12.23635518585042 11.846475358840062 12.123733820567352
Ga 13.241601358165557 12.893988358708823 14.369573674908679
Ga 8.518496951565739 13.820511322901911 12.349342896578847
Ga 10.344019234862785 8.387216247440264 11.20208293745584
Ga 9.022990452033664 15.28385291183779 14.49952803972906
Ga 11.638634571493009 13.639572079884111 8.193117334121606
Ga 11.273538429683715 14.447384097550326 12.977134035456167
Ga 7.396020867459187 9.14224088746273 11.90872398452359
Ga 14.178945017598885 9.894114611556763 8.433476878833481
Ga 10.967008672929083 10.745686357975474 9.917692782163533
Ga 13.600883505218205 12.16482544041683 9.78261601076057
Ga 9.6815415089968 9.54659917721285 7.356326425701335
Ga 8.414786005073177 8.778124707471273 9.509342951339914
Ga 9.720354702306823 10.697745430341287 12.428460640466602
Ga 14.00106092660837 12.438486340412263 6.880725110368745
Ga 12.61602486612695 14.544644451733499 10.797887685887288
Ga 14.231797096354043 14.64947775084871 8.593249426508931
Ga 7.030395515163457 10.67734716476041 7.93339010236595
Ga 7.955949036544247 11.604927326449097 10.38208520165409
Ga 11.860175917317049 10.989723205040622 7.388643588166389
Ga 10.240074631357876 13.2465103835827 10.474623091561975
Ga 9.304746943439165 12.272732913476231 7.963960835720387
