39
Energy = -93.62366285 eV
Ga 16.80694972067096 22.164679206460367 16.311932082120396
Ga 15.355981735543615 15.954745028743867 14.882585342361004
Ga 18.26694235926774 0.5616951600737066 18.250781595667608
Ga 16.932812650421685 19.48737387003784 17.003146006852752
Ga 18.426734727814495 17.048955334332387 17.112644814169155
Ga 15.676684713192557 0.3564984512390201 18.713669960158384
Ga 12.667020482521913 12.250762373513158 10.53069482732891
Ga 16.755015282357395 11.855420769790165 12.988497588519195
Ga 14.957233801897159 12.871037756115431 11.393261692877822
Ga 19.365053370131456 19.266169064313406 18.511065158627034
Ga 16.13839889828595 11.27255895312174 19.959840585435295
Ga 15.27861920347914 9.092920546401853 20.754420228077624
Ga 17.463259029914674 20.642203614090295 14.309999049184869
Ga 10.3655534842171 11.737243233678278 14.0092967386446
Ga 12.510301395000326 12.707485757720661 13.160551989878117
Ga 20.110384224104706 16.94397662141932 15.160257831254158
Ga 10.502520469681132 11.611709053467825 11.414879078642727
Ga 19.480666975684244 -1.3065725209917625 19.71691666605478
Ga 17.137744834850704 13.701401861478532 14.972712025699058
Ga 16.934291168134155 18.168995246965167 14.760326535768359
Ga 15.854285692809585 10.546335276433105 22.78034763368951
Ga 19.331806195173296 -1.642105465065375 17.030524963527387
Ga 15.318376216651044 17.360691071524847 17.076914021559276
Ga 14.58329107736765 21.237321611088138 17.413480455467347
Ga 16.111099180641208 15.110694328057095 12.10091889688256
Ga 14.653327032214376 19.13233116900452 19.045616803986874
Ga 20.363443548498786 14.823987584693628 13.802963781719162
Ga 16.678861250692815 15.90746968640859 18.691790351918993
Ga 19.795102037740758 19.42044351858873 15.379510897514068
Ga 19.577110309482887 22.23514940092908 14.447350589634029
Ga 14.693648958890805 13.568716071004454 14.068709055017925
Ga 16.89259188621999 20.98488671374701 19.226042443192497
Ga 18.689295501633712 19.879411082935388 21.3637253705456
Ga 16.583054757415287 12.797711671627647 -0.9316399358272774
Ga 17.95223793633542 16.085080903073607 13.727717495610177
Ga 8.536761383573662 10.271233223878896 12.719522098723958
Ga 16.633704012324884 13.568256584055058 19.53810682920781
Ga 18.470836156250158 13.733037375099457 12.422968918016819
Ga 17.358236067560807 18.10057997941139 19.820895058748796
