36
Energy = -92.13984154 eV
Ga 15.209381705317766 16.10722148759077 12.914752262838892
Ga 16.095238420427265 16.609503743998825 10.442761259891219
Ga 13.64755267167359 14.602520267654604 14.420937711113904
Ga 14.884136151193447 14.131694839310473 10.942881947178842
Ga 15.795686104716587 13.28019512942502 13.422858824689149
Ga 11.676638752325674 16.61022282620653 14.573657850061979
Ga 12.359655652512432 14.109128978651928 9.683510970607692
Ga 12.954720680178113 11.797114923598102 14.976666697729453
Ga 14.62147654102541 11.447361570837785 10.342145856409545
Ga 13.329167657266163 18.018326919026826 12.410347414627042
Ga 13.40788591478561 16.507118496016137 9.934688892265028
Ga 13.053880556394535 12.705017743983634 12.307761373712557
Ga 12.142215058808913 11.715757880752657 8.9839039485144
Ga 7.831909869716634 11.053472045655512 11.184995712194564
Ga 12.299628362389765 15.503498475510812 12.110759507945598
Ga 11.60849582275099 13.892335405595482 16.331856351792013
Ga 9.18319396970696 12.214873586134736 8.889732610437944
Ga 15.042399413358451 8.886785165803781 11.221699664472117
Ga 8.887291295089259 14.126575397711477 15.599299218789985
Ga 10.888931695051545 13.894055972895556 13.63399923906565
Ga 10.405492779818422 12.724734422293857 11.308075006959527
Ga 12.593807777985983 10.08563075741736 12.153407168847144
Ga 15.672336592879889 11.720682568332093 15.576038888455443
Ga 14.471921941029281 13.838369203850812 16.82627634051301
Ga 10.627050240071748 9.944293436751087 7.871743081574397
Ga 8.355759973792281 12.589175582594875 13.37392948045852
Ga 12.831602240719958 9.122936464937277 9.511651218628243
Ga 14.906834506989023 10.381319990680087 13.463544522665375
Ga 8.203088113370693 9.071171366371107 9.123136517216059
Ga 9.773578096352551 10.198825282806828 13.161102885300705
Ga 10.396955677688997 10.142372981875937 10.572307694684245
Ga 11.968455016029942 9.18468796180361 14.850870480322381
Ga 10.56154748585769 7.479616202969759 9.431024645673217
Ga 13.242040684632508 6.814065029708254 10.944893537226076
Ga 10.865398041492115 7.946782724339241 12.234833836154987
Ga 10.280090325208448 11.627513413673768 15.313020851656175
