37
Energy = -93.00485024 eV
Ga 14.130053929244967 17.616127163646095 18.72766929133172
Ga 18.399223560219003 19.299799312662042 20.55233996935271
Ga 19.633512347632614 17.848216333678735 -4.417841367080386
Ga 18.251971464488246 14.18200446589767 15.820854712562998
Ga 18.01231389900266 20.295264468727865 15.752135648944213
Ga 16.86265680261484 13.204661032186669 13.721589959621795
Ga 17.59606407334166 11.494271364906272 15.718548713632947
Ga 15.263085959980678 20.662960718050115 15.068129430627712
Ga 15.68103673263126 12.862746504605722 16.990720984654654
Ga 13.31894718989448 17.25104612544707 15.808055707031174
Ga 17.1578139864034 20.251475998632866 18.321392963271226
Ga -2.083398475100062 20.06246592276633 20.071902924846317
Ga 19.65385839042546 15.249318897101872 18.04417460238866
Ga 13.997095592826321 15.238379004728762 17.544667648112448
Ga 16.80568112513774 17.547706272938747 19.345401287326
Ga 17.952835537319828 18.065999977896805 14.321788838264004
Ga 16.667701253540777 17.851249697377245 11.870590451774236
Ga 17.76569003278492 15.57429928264509 13.272807310577974
Ga 17.898908403647763 16.830130995256777 16.733536631331276
Ga 10.531817596985201 12.200772445162963 12.461402070927578
Ga 12.184472823070317 12.30110734696243 14.496439092278314
Ga 18.436706176394033 12.69852831973636 18.13000819933535
Ga -3.127215296692126 20.424618843085394 17.581312718663018
Ga 20.134359807110997 18.33290625396516 15.953773693098007
Ga 9.897907786695757 10.886131201400481 14.602752395512864
Ga 13.627846959559367 19.735288119251013 16.985664220029737
Ga 14.430336327847542 13.347038557286872 14.525078475330577
Ga 17.07892183624441 20.35237536666224 13.067432244593828
Ga 13.00192079353725 13.017397619727006 16.97046249442076
Ga 15.70796453168563 15.604012215538914 15.356880136525954
Ga 16.657757010322683 14.983786803532864 18.34183381513484
Ga 14.965007703562609 15.67553451172862 -2.694903977671906
Ga 15.051220402251081 18.01462635509948 14.00429238920981
Ga 20.007793422422143 15.968437208932226 14.912309763450367
Ga 18.824432207926158 -1.2067250289093965 19.65796458636704
Ga 15.949757852840111 18.426589821747147 16.710140134546325
Ga 10.971408781097566 11.503567435369767 16.815730608228517
