36
Energy = -92.09808414 eV
Ga 16.111906859784067 16.552855343227264 16.95906570731058
Ga 10.802379022055051 14.412694801422406 13.995551134701461
Ga 9.501950204426894 12.343727088224394 12.60215791676406
Ga 13.976865641654804 18.137197690721692 16.314330770729047
Ga 13.00081931198541 15.632578585215256 12.263626776777405
Ga 15.477383338642445 14.41366074550091 12.54345498659407
Ga 17.033306308585143 12.381657641709081 12.087440078852827
Ga 14.100279087795299 14.125807645524846 10.193165420856548
Ga 15.660686583665028 9.41385327438163 15.604998545398193
Ga 14.915883963841146 7.569673695924437 13.630079155213416
Ga 15.783552189176765 10.018887140363056 12.856626666446981
Ga 13.570796072659826 15.608296162850992 17.105073252090843
Ga 13.830687567203121 11.341691701785665 16.085573268804673
Ga 11.449340900843712 11.812436623643073 14.537692896180788
Ga 13.20829694288586 9.712100138960263 14.010869820741759
Ga 16.58297550432625 19.042058066029725 16.427403895458696
Ga 14.021673110693106 12.174493236382538 12.94724534893903
Ga 14.329190474483795 20.73781300355771 15.726744183178978
Ga 10.65564000058141 15.24561626774676 16.497138844287072
Ga 17.05555899948135 10.200143834301047 10.453150106083937
Ga 11.656690100528676 10.817681465273608 11.907554661606529
Ga 15.225266563184112 16.493534983588336 14.200047834221696
Ga 12.147629228761852 12.99009790922361 17.09347126999347
Ga 13.507686614847774 9.16888684431216 11.14113025916683
Ga 15.945676140372571 14.257112612579933 15.707447630410309
Ga 15.535649546397048 19.003840928984562 13.737584011368579
Ga 11.616893089147705 14.907406119202763 18.93062535826282
Ga 11.69376260621845 13.537652524593517 11.497532183064854
Ga 14.691902564129945 11.49846990294452 10.416427858568953
Ga 13.417809014283312 14.049417139865515 14.795783754689873
Ga 12.506621279282184 19.45645020995189 14.442312378313312
Ga 12.219209142496425 16.812046190097348 14.689993845248486
Ga 15.81421390390268 7.810043468282063 10.902638504086388
Ga 16.869800977510867 21.234551280679135 14.872961061194012
Ga 13.517061280787571 18.119583597376486 12.344886015998227
Ga 16.39576337607624 11.897340311281736 14.710305049451545
