39
Energy = -100.14312373 eV
Ga 16.83302853703062 8.230785415516499 8.893447893324078
Ga 14.398417200332176 9.635065848339805 8.12282285042193
Ga 11.834625235611293 14.451038335028274 8.6414148953287
Ga 14.059029772526404 7.105968219305733 9.153749374638526
Ga 16.734587782947468 15.573395303699925 10.459837127879798
Ga 16.332857583760873 10.674979719928256 9.863584737123487
Ga 11.29686209867102 12.327991889506487 10.309419512393017
Ga 11.608007508864663 10.406212993992064 12.142817330193648
Ga 14.366847247642193 14.400673574576055 9.839841344349741
Ga 16.30412231495624 12.91892240847364 11.164897441351343
Ga 9.176316340120641 12.07043283771488 11.856867292007452
Ga 13.100356865161276 9.277216065019378 10.410950496608574
Ga 12.293459608009789 15.512642398418878 11.24077677802649
Ga 15.656534333640726 8.35079019495451 11.234622548509124
Ga 7.169383608236771 13.959933261677996 11.520566763622117
Ga 9.698674170416233 14.670099079413564 10.561997039749322
Ga 15.152706422402034 15.164684923110713 12.618818857370485
Ga 14.392377610838006 17.130463495721433 10.695057208485027
Ga 13.722924349430938 11.930345160351616 9.42475474316392
Ga 8.297511928141304 15.861881190647793 13.133442026397315
Ga 13.309476450249923 13.0569094207047 12.372387764452002
Ga 11.175376922388153 12.220851350038865 14.112895315194512
Ga 13.741883745939532 8.549285215283486 13.199463698172654
Ga 8.33308951286534 13.318738935190472 14.180336324971245
Ga 9.180380915167266 10.373448216436955 13.922334562053996
Ga 15.27478324434776 15.205536689231097 15.426811168735771
Ga 15.858684810797039 12.894400688226524 14.01801310613929
Ga 12.957587834697943 16.122397268754728 13.82863597296666
Ga 10.742640831234375 14.523155984884479 13.115830437648032
Ga 11.632905586264819 9.240666860006607 14.742451458618737
Ga 10.207603079922995 16.582252788289246 14.92797390463154
Ga 15.148196684710873 10.8017210599693 12.428910754195774
Ga 9.131732561325073 11.82237760275149 16.295786978931112
Ga 11.824028145656584 11.345897288523929 16.752397561181592
Ga 12.510549843792626 16.19245005307444 16.50390644752679
Ga 13.714869906260345 11.129881820321625 14.553386788618576
Ga 9.601379869368051 9.174812856815642 16.594957234475796
Ga 12.988245515273613 13.580378754045116 15.599531541205886
Ga 10.25521799106127 14.228578802117129 16.151566689401243
