48
Energy = -126.87663315 eV
Ga 9.378422584439427 7.192946442714443 4.24775769701906
Ga 11.235333907463389 8.854034625445953 5.185771993056175
Ga 11.589490975565207 5.990180918148756 5.5732884211283285
Ga 8.916887286205167 10.294876250210981 4.548514156616939
Ga 7.00000472702339 8.361495584859506 4.029787695414613
Ga 6.363701814692262 6.432523560197598 5.830807348927484
Ga 8.944235742867543 5.49317153770584 6.4306410384469
Ga 13.343647037138828 7.778291609921037 6.795667637867018
Ga 8.138821043980611 12.45870545915117 6.376751889329706
Ga 3.6917264277977186 10.68662675394533 7.044562189745763
Ga 10.833564047720161 12.066996243875138 5.3773993723147955
Ga 10.355675972195995 7.56524266795038 7.662467918796366
Ga 7.521054671429053 6.818772879021971 8.464203877676292
Ga 6.219417790153624 10.433902925096277 5.621476706480785
Ga 8.11869299135367 8.675327368032349 6.679807115362591
Ga 11.214313218364035 4.779987381788918 8.106082118958426
Ga 12.757796094083185 10.484362793140606 6.660841162788326
Ga 2.7718345513342704 8.058217114424108 8.487699824611283
Ga 7.162277765848815 4.020578310511333 7.85491022059055
Ga 4.741643223460794 5.77024630315005 7.966369781257941
Ga 5.870806304687502 12.08417612949959 7.979576496172894
Ga 9.910867881783846 10.457968961443123 7.647407222090496
Ga 5.306178111989374 8.516837279359665 7.384027943511169
Ga 10.384068146475252 13.293483186963352 7.922784788885827
Ga 12.212657693605623 9.110980898421069 8.970723555814997
Ga 12.60832452760832 11.950811144797475 8.890170967127283
Ga 7.085722925080129 9.837583128379396 9.160282158729819
Ga 9.148397270883429 4.720226364750379 9.748590008790872
Ga 8.303676856286655 12.288396762829134 9.262100994249247
Ga 4.1618793850186035 10.12981014505106 9.891980873054516
Ga 5.7958442434753294 12.192956342475037 10.777779549523336
Ga 10.691577662379778 6.888400854510013 10.28915677147175
Ga 9.874417636680466 9.908037542210918 10.258333635293337
Ga 5.203907533476187 7.599104274276361 10.06949287980082
Ga 8.199546202312575 7.928143426221791 10.69240020498236
Ga 6.407567499469315 5.071415615948031 10.409168534185667
Ga 13.170302112396396 6.449418147000612 9.136842325384217
Ga 12.567828485437222 10.573518523485053 11.165796870609647
Ga 10.483885087265973 12.789440266610052 10.850967715294136
Ga 5.918440035013441 9.539120801510629 11.92126244124867
Ga 8.978870011907743 5.79081182900917 12.372724494451816
Ga 8.152511458178969 11.502590785582429 11.954480537281016
Ga 8.204138726940263 8.919940943681485 13.299976135165197
Ga 10.743631108083427 7.820302475116076 12.910068929878936
Ga 6.415027507382663 6.879033258375202 12.582005633111907
Ga 12.871958994836469 9.48333917435643 13.719770748991436
Ga 13.10639029922967 7.867849640680265 11.360467124922161
Ga 10.458057698387174 10.724838647552739 12.961875572974442
