49
Energy = -129.07279084 eV
Ga 8.335281270180095 6.805678668918588 13.557324414691365
Ga 10.97541335391779 6.256272419130415 12.81391280073906
Ga 7.216670945845069 6.220912585356845 11.041036439723209
Ga 9.626898872370164 5.17960397893599 10.731192634243047
Ga 6.155767378934631 8.534792473042039 12.226751772700695
Ga 10.536337945339058 8.541175379359283 14.17131814709947
Ga 8.088171123983638 9.583881352300356 13.954956850121853
Ga 13.208553491280536 7.771514118418834 14.475436646339073
Ga 9.413857375575537 8.096303644816036 11.147572040193376
Ga 13.626365483410678 6.188964430042578 11.980863835510984
Ga 9.003691246108467 6.563361398455919 8.537406155764204
Ga 12.03684913871574 5.958598132011981 9.769101086330505
Ga 12.132318946424197 8.619511412199403 11.667033386196067
Ga 8.212882338456836 10.406860285487728 11.086955577059614
Ga 8.239455431139135 12.177689571618172 13.462143889190033
Ga 6.593828752248241 8.090486443061051 9.216845431030402
Ga 12.988041476110148 10.540567220632905 13.704532736818642
Ga 10.572521769415163 10.713633156703787 12.20760470125168
Ga 9.929409759873721 7.601358085876727 6.245263937283918
Ga 15.01637299430234 8.699656508431863 12.424563734954337
Ga 5.572795835878183 10.4315714850121 10.248417288085028
Ga 7.330513384986005 8.15791381853705 6.641404783655245
Ga 11.220203511092128 8.559265363229965 9.015637312424214
Ga 12.354656181006924 6.841041521581189 7.220337602618656
Ga 14.082151985239024 8.102275143202425 9.73773226319446
Ga 10.498503699530477 11.211868653846421 14.954271895806448
Ga 6.315184005875604 10.469819212978843 7.4503717404525895
Ga 8.937117449558079 9.634256804763877 8.392618587636807
Ga 5.296709261324308 12.724950083165508 8.60208200524093
Ga 8.755321906931245 10.168720146742658 5.269476360490765
Ga 14.109684102864337 10.762050823319925 10.962201846676155
Ga 6.334157010343645 12.682239971071084 11.505836535678691
Ga 10.434115769946574 12.478668011642016 10.335112891590127
Ga 12.727848936583124 12.79943247792717 12.148801442047988
Ga 10.463523069628856 13.6993274503905 13.159769544429917
Ga 13.854944911126314 9.11140200070166 7.236192566106656
Ga 12.08659908708097 10.982164289918174 9.041277028640492
Ga 11.473745464295678 9.783454495286458 6.200011388795363
Ga 7.962744051316517 12.15665279666732 9.201633624583627
Ga 14.78222963916601 11.326533454537088 8.379470680383609
Ga 7.643557921925823 13.055768770622322 6.607459015693538
Ga 10.091182221440993 11.917601304255038 7.197988310100935
Ga 6.576289330301901 15.086441525866777 9.478184382095858
Ga 13.75772113736107 13.412378688564427 9.735764814490617
Ga 8.56983521024403 14.342480128880268 11.315477825490902
Ga 11.647188889429113 13.970404548467505 7.997243039103671
Ga 11.415382058212415 15.075158832255184 10.769102251770402
Ga 12.999209339887978 12.161493463623383 6.492860774696724
Ga 9.122437843037222 14.609280126767363 8.521523913861376
