43
Energy = -112.88857642 eV
Ga 7.345305544502273 7.432071020123025 13.965776913090057
Ga 9.750505066030406 8.861774104215614 13.620743252798226
Ga 10.093860401174423 6.041857973473072 14.040989687303325
Ga 7.260517950482488 10.165814833922811 13.725121200218101
Ga 8.652393208719412 7.031124006110149 11.493206024987668
Ga 6.209784259329585 8.301591740582305 11.598516494907084
Ga 12.059926371028931 10.392538457820281 13.263264712786933
Ga 9.513660969061421 11.67784640316828 13.58096669301494
Ga 11.16126068386959 5.852015088238645 11.55507923758658
Ga 12.36411243327931 7.6230480539317 13.526157757327399
Ga 14.368504148132882 12.129973200206145 12.729113355303708
Ga 8.645319883441983 9.817943420719823 11.27479462019498
Ga 11.782238383357315 13.080350410428581 13.220421533644142
Ga 6.974409538908163 12.143897215158875 11.972852420821503
Ga 14.6461558073688 9.186035266072874 13.15803226841357
Ga 12.434919119446453 5.776013413567686 9.26897312892167
Ga 6.024051093558876 10.374898773926844 10.00183210760285
Ga 11.121768486843461 8.708110116525843 11.057963289831605
Ga 7.5403840317794835 8.102202644947416 9.127854068169297
Ga 10.00310068349431 6.8976146542278585 9.043329976928183
Ga 13.793412566602512 7.64670110717099 10.911336683087214
Ga 7.649075081768868 10.27261113133789 7.502941088373291
Ga 11.172609915734977 11.569869498476923 10.912053344661283
Ga 13.642291802958475 10.381120830907225 10.661442897517004
Ga 9.57962206692548 13.680987587898898 11.67334807278904
Ga 9.081422913115492 7.986365962309663 6.753865340754328
Ga 12.718129263605093 8.846803822712232 8.590451725262973
Ga 8.815973328255986 11.90501507555638 9.579642710144988
Ga 12.075600091721544 15.107714269192536 11.397888274087956
Ga 7.197691311413302 14.27080951055405 10.388442373784041
Ga 10.160166828853754 9.71530652167711 8.634691591013302
Ga 13.53354728322428 13.084089088817839 10.280075560969797
Ga 11.806985140758407 7.106664255859165 6.639754325552824
Ga 6.297331038243149 12.524394168721654 8.42400209559063
Ga 14.59060917568112 6.90386926349042 8.246173726853607
Ga 9.47098357882128 15.986337873680892 9.9666988995313
Ga 12.734044515591819 11.588563009707675 8.18512170955774
Ga 11.159589323139583 13.74356410322605 9.074039448908506
Ga 7.663094577962665 12.58606680052664 5.833368111832543
Ga 11.750756454153933 9.915897710137285 6.23127136683715
Ga 9.23382078923324 10.224606677912488 5.112758706502206
Ga 8.77390783045114 14.191664617903879 7.876685268119481
Ga 10.22390872852267 12.050402469547365 7.0404057056096905
