42
Energy = -110.08367638 eV
Ga 9.297000310250052 10.33118607892157 5.764026088638172
Ga 9.832305075626719 7.790778282293347 6.5244495959273445
Ga 9.141127291562235 12.83460782693448 6.973063233502311
Ga 11.751970827355837 11.214815379160429 6.092438464975945
Ga 6.7887044295771215 9.695370453466035 6.116778133418948
Ga 13.619957503415236 10.709422910010321 7.93122113143195
Ga 7.337649675129547 7.471099632724065 7.590628154735417
Ga 6.772439539582221 11.830531216558319 7.973149052329401
Ga 11.667307806375465 13.758292437459808 7.033613762274417
Ga 8.730100805728837 9.953324466581867 8.499465627219003
Ga 9.5437793457231 7.186487340473499 9.172525955343248
Ga 13.805103212739029 8.711316792731914 9.952332981597975
Ga 8.396533551492602 13.132958668300251 9.793783845413119
Ga 11.436266508830668 9.064650355915687 8.458849114566862
Ga 15.91269466679471 10.655462263708595 9.438638726248305
Ga 5.332656230986586 9.436029945625245 8.569923414426878
Ga 13.718933491311988 13.396206296007422 8.72903265983888
Ga 10.615806616594787 14.601619406891786 9.481408472291367
Ga 7.100446160693016 7.935549591012151 10.24357079901938
Ga 11.021598213524907 11.774656212154625 8.897211628073542
Ga 11.6941896752846 7.187030294579625 10.77981439850075
Ga 6.959584203877142 10.77723587082143 10.51881368639129
Ga 9.913609742306509 9.520975879525205 11.028355765875546
Ga 15.299601114514136 12.955940262040263 11.021915623091118
Ga 12.475806537807278 9.170704699303043 12.362812137282518
Ga 12.684961845293664 14.200266997222926 11.203419007704683
Ga 12.937984433821024 11.375735832113207 10.735083396684296
Ga 15.083442472097662 10.076168046003554 12.0981119731769
Ga 10.471419367507375 12.465522540872298 11.485861387220135
Ga 8.981139862643749 6.298483379088879 11.700430952995683
Ga 7.744483843774447 9.007334378078188 12.534217575714948
Ga 8.131470389096277 11.847053340329724 12.612403857396275
Ga 11.091787258231076 11.040060068912231 13.61640234397987
Ga 13.927186676001948 12.443316732696156 13.223123291255671
Ga 10.226140934109702 7.94377806401649 13.456485908639007
Ga 13.737086806079864 10.02310528559136 14.608150910775109
Ga 11.608515596001514 13.96057828765003 13.693765782987409
Ga 9.26955045321122 12.989397732215137 14.695038624794481
Ga 8.668561691330135 9.966450282857789 14.742128986571087
Ga 12.654643826848814 12.369518973340556 15.710084497659798
Ga 11.509068610884976 8.87764278713699 15.632327275337175
Ga 10.283583047581342 11.19553436027303 16.481341426291475
