54
Energy = -142.19276174 eV
Ga 15.782418866450358 17.712858762761005 7.884915956944345
Ga 12.513975296547462 14.070985726737428 7.696066866645275
Ga 10.515588333705658 15.959314130374464 8.476949061371377
Ga 15.24063285400447 15.132481614804478 6.97711561915645
Ga 13.289542559758459 16.743940968458435 8.258367400745525
Ga 14.9033841870313 13.094886493181345 8.8655339599237
Ga 14.730795199248993 17.685042026843913 10.785332561687287
Ga 15.275446138218486 10.705758152950965 9.96569735668179
Ga 12.290229034516189 12.005437450923953 9.52818938164337
Ga 10.458178973742395 13.882932741031487 10.337564728240666
Ga 11.963823129028995 17.565631439275236 10.32388480481108
Ga 16.1426445189171 15.663009213147113 9.597283925278036
Ga 13.14309833688925 14.835156853815612 10.259655403988845
Ga 17.390416661193868 11.139432795757932 11.744499590507404
Ga 14.107865802335795 12.686321034613925 11.77798599159255
Ga 12.877287123190952 9.86341816674094 11.152318595092611
Ga 15.263970007517376 15.191961547419773 12.201251035265324
Ga 11.363835036868487 11.98035385201894 12.449547118878709
Ga 10.998474291811272 9.162937828527472 13.014955329040065
Ga 16.88643497612953 13.522760048780109 10.784642809217736
Ga 12.658581627620954 15.904435848524292 12.533328207411857
Ga 9.944414862114899 10.621877468668442 10.46142341335285
Ga 7.957125218843186 14.98397944267109 13.465741457571482
Ga 15.054352709635944 10.216413002629585 12.813350413290138
Ga 8.632082326839418 12.823295814872528 11.866768941341713
Ga 12.85768804242138 12.912889779259393 14.443684523141325
Ga 10.716603267668784 14.346274381816723 13.487212963114766
Ga 12.547540406515544 18.89659905180491 12.564997727951019
Ga 8.766421804472682 10.57435200565764 13.294412538994578
Ga 8.52470437242442 12.753592002712281 15.050101880564435
Ga 13.786675031199122 7.906153446212538 13.182032631109191
Ga 9.906170222745214 16.350568802662405 11.619663487987046
Ga 14.57739854978828 17.47986030626706 13.718179080246367
Ga 9.472097383911748 15.56763482225575 15.726291775442922
Ga 17.727573266088914 14.019179420117466 13.415972020246777
Ga 16.1080301223938 9.487733762477843 15.250604683726257
Ga 13.334888538188912 10.250561262784139 15.155010359612158
Ga 11.108038217451648 13.768372340480266 16.570779003966695
Ga 15.380132741249048 12.488345888948992 14.224773165350499
Ga 10.921244272815283 17.278872111272857 14.141645957661291
Ga 11.723848873836504 7.831925271435452 15.176165030528008
Ga 12.804447833137155 15.799723795493033 15.420296529653843
Ga 15.799278236065817 15.385298850694324 14.934637035188015
Ga 17.91757924405432 11.286469429961342 14.412443394265319
Ga 10.803615865081731 11.11502885619518 15.113465940535807
Ga 14.306327927709663 7.811220718778453 16.100665313509264
Ga 14.247131075282425 13.917357550021007 16.69922126329233
Ga 17.154205167162463 13.367053868570055 16.26009125213874
Ga 15.432759312887468 11.410709872889367 17.18048994989467
Ga 11.145946818278238 9.511005406941896 17.335394745908978
Ga 9.567937015590005 11.687094964398943 17.564760824558164
Ga 13.84878753666472 9.532975930772725 18.1914470284232
Ga 12.613915939914062 11.859343896299876 17.503253130651018
Ga 12.336665397053919 7.071430331501865 17.86218738687082
