6
Energy = -12.4181388 eV
Ga 7.848799426748822 7.372225735336289 9.924087412186235
Ga 10.125552983694876 10.742959848825054 9.280478291776205
Ga 10.183321500562142 8.856495210931437 7.562684953405208
Ga 7.5804649788480285 10.532981589393884 9.460688796041005
Ga 10.396042331163283 7.559264653004433 9.750546635453897
Ga 7.602096231426315 8.65567166626361 7.735276188673531
