6
Energy = -12.41813713 eV
Ga 8.611352439492372 10.95281286475065 8.063875292670168
Ga 8.946513214197605 6.980693175258841 8.970278703565931
Ga 7.024356665930716 9.525006110873218 9.47072500202634
Ga 10.525396016501693 8.46627534792264 7.609794353294767
Ga 10.562753758768785 10.165461013244824 9.502374264636456
Ga 8.960606369161864 8.669165074985665 10.891072868247052
