6
Energy = -11.48250089 eV
Ga 11.660232779939939 10.211863717096662 9.264014484041839
Ga 9.190641046876083 11.024568255486248 9.160364074387308
Ga 6.726252023610648 10.20998811812856 9.260746537663618
Ga 6.704987162725663 7.613338482828239 9.179009885832244
Ga 9.19317921234514 8.478680912527219 9.1154217283775
Ga 11.680822191828808 7.617743337447007 9.176557707023518
