7
Energy = -15.49680578 eV
Ga 7.379764968024742 10.228812376411026 8.780611560799171
Ga 9.416689943388876 7.3545587302333075 9.394822246052787
Ga 9.728694411788648 11.177202266180034 9.111778201854374
Ga 11.214239094748072 9.215228898275685 8.074953989155475
Ga 10.168872628938754 9.400772840409125 10.831356272467584
Ga 8.713743505795474 8.612891005319355 7.331701584962419
Ga 7.597693451882976 8.671327399542529 10.84935932506025
