7
Energy = -14.50192866 eV
Ga 9.433650258976423 9.708563670719965 12.575429998433764
Ga 10.523376231125212 9.6584001174973 10.13094250337887
Ga 7.922727091150906 8.754286153663008 10.708197676664186
Ga 12.166338846342274 11.815000371179783 9.343086152600335
Ga 8.683966537653943 9.192837330463963 8.27683257903464
Ga 11.108266344665129 10.253920114292733 7.577448377934597
Ga 11.214186582899888 11.629767741164711 11.742364146390443
