 vasp.5.3.5 31Mar14 (build Feb 01 2018 12:10:03) gamma-only                     
  
 executed on             LinuxIFC date 2019.03.22  09:55:19
 running on   32 total cores
 distrk:  each k-point on   32 cores,    1 groups
 distr:  one band on NCORES_PER_BAND=   8 cores,    4 groups


--------------------------------------------------------------------------------------------------------


 INCAR:
 POTCAR:    PAW_PBE Ag 02Apr2005                  
 POTCAR:    PAW_PBE Ag 02Apr2005                  
   VRHFIN =Ag : s1 d10                                                          
   LEXCH  = PE                                                                  
   EATOM  =  1037.2675 eV,   76.2370 Ry                                         
                                                                                
   TITEL  = PAW_PBE Ag 02Apr2005                                                
   LULTRA =        F    use ultrasoft PP ?                                      
   IUNSCR =        1    unscreen: 0-lin 1-nonlin 2-no                           
   RPACOR =    2.000    partial core radius                                     
   POMASS =  107.868; ZVAL   =   11.000    mass and valenz                      
   RCORE  =    2.500    outmost cutoff radius                                   
   RWIGS  =    2.840; RWIGS  =    1.503    wigner-seitz radius (au A)           
   ENMAX  =  249.844; ENMIN  =  187.383 eV                                      
   ICORE  =        3    local potential                                         
   LCOR   =        T    correct aug charges                                     
   LPAW   =        T    paw PP                                                  
   EAUG   =  412.496                                                            
   DEXC   =    0.000                                                            
   RMAX   =    2.560    core radius for proj-oper                               
   RAUG   =    1.300    factor for augmentation sphere                          
   RDEP   =    2.576    radius for radial grids                                 
   RDEPT  =    2.072    core radius for aug-charge                              
                                                                                
   Atomic configuration                                                         
   12 entries                                                                   
     n  l   j            E        occ.                                          
     1  0  0.50    -25324.9161   2.0000                                         
     2  0  0.50     -3728.5341   2.0000                                         
     2  1  1.50     -3344.0404   6.0000                                         
     3  0  0.50      -683.5581   2.0000                                         
     3  1  1.50      -557.3225   6.0000                                         
     3  2  2.50      -358.3853  10.0000                                         
     4  0  0.50       -95.0341   2.0000                                         
     4  1  1.50       -58.5511   6.0000                                         
     4  2  2.50        -7.4440  10.0000                                         
     5  0  0.50        -4.4045   1.0000                                         
     5  1  0.50        -1.3606   0.0000                                         
     4  3  2.50        -1.3606   0.0000                                         
   Description                                                                  
     l       E           TYP  RCUT    TYP  RCUT                                 
     2     -7.4439781     23  2.400                                             
     2     -8.8045607     23  2.400                                             
     0     -4.4044681     23  2.400                                             
     0      1.9520038     23  2.400                                             
     1     -1.3605826     23  2.500                                             
     1     27.2116520     23  2.500                                             
     3     -4.0817478     23  2.400                                             
  local pseudopotential read in
  partial core-charges read in
  partial kinetic energy density read in
  atomic valenz-charges read in
  non local Contribution for L=           2  read in
    real space projection operators read in
  non local Contribution for L=           2  read in
    real space projection operators read in
  non local Contribution for L=           0  read in
    real space projection operators read in
  non local Contribution for L=           0  read in
    real space projection operators read in
  non local Contribution for L=           1  read in
    real space projection operators read in
  non local Contribution for L=           1  read in
    real space projection operators read in
    PAW grid and wavefunctions read in
 
   number of l-projection  operators is LMAX  =           6
   number of lm-projection operators is LMMAX =          18
 

 ----------------------------------------------------------------------------- 
|                                                                             |
|  ADVICE TO THIS USER RUNNING 'VASP/VAMP'   (HEAR YOUR MASTER'S VOICE ...):  |
|                                                                             |
|      You have a (more or less) 'large supercell' and for larger cells       |
|      it might be more efficient to use real space projection opertators     |
|      So try LREAL= Auto  in the INCAR   file.                               |
|      Mind: At the moment your POTCAR file does not contain real space       |
|       projectors, and has to be modified,  BUT if you                       |
|      want to do an extremely  accurate calculation you might also keep the  |
|      reciprocal projection scheme          (i.e. LREAL=.FALSE.)             |
|                                                                             |
 ----------------------------------------------------------------------------- 

  PAW_PBE Ag 02Apr2005                  :
 energy of atom  1       EATOM=-1037.2675
 kinetic energy error for atom=    0.0689 (will be added to EATOM!!)
 
 
 POSCAR: Pt29, -137.66150981 <s> Ag </s>         
  positions in direct lattice
  No initial velocities read in
 exchange correlation table for  LEXCH =        8
   RHO(1)=    0.500       N(1)  =     2000
   RHO(2)=  100.500       N(2)  =     4000
 


--------------------------------------------------------------------------------------------------------


 ion  position               nearest neighbor table
   1  0.347  0.512  0.528-  13 2.66  14 2.71  18 2.78  26 2.83   5 2.89  19 3.47
   2  0.668  0.430  0.452-  25 2.66   8 2.69  20 2.72  24 2.75   7 2.78
   3  0.615  0.570  0.288-  16 2.61  15 2.64  25 2.73  20 3.47
   4  0.491  0.658  0.557-   6 2.65  29 2.66  12 2.78  26 2.82  10 2.82  28 2.83  19 2.88  14 3.45

   5  0.381  0.482  0.407-  18 2.66  14 2.67  11 2.70   1 2.89
   6  0.490  0.657  0.676-   4 2.65  27 2.65  26 2.85  12 2.86
   7  0.552  0.394  0.477-  20 2.67  18 2.70  24 2.72   9 2.73   2 2.78   8 3.20  19 3.52
   8  0.617  0.513  0.524-  24 2.68   2 2.69  12 2.70  28 2.73  19 2.75  15 2.96   7 3.20   9 3.52

   9  0.515  0.414  0.592-  13 2.72  18 2.72  24 2.72   7 2.73  22 2.78  23 2.78  19 3.42   8 3.52

  10  0.513  0.649  0.433-  29 2.73  28 2.75  15 2.76   4 2.82  14 2.88  19 2.95  11 2.95
  11  0.491  0.527  0.387-  19 2.68  16 2.69  20 2.69   5 2.70  15 2.81  14 2.91  10 2.95  18 3.43

  12  0.569  0.578  0.613-   8 2.70  28 2.73  27 2.75   4 2.78   6 2.86  22 2.86  19 2.98  26 3.40

  13  0.401  0.449  0.614-   1 2.66  21 2.66  23 2.71   9 2.72  18 2.73  26 2.81  27 3.56
  14  0.399  0.591  0.452-  29 2.62   5 2.67   1 2.71  19 2.78  10 2.88  11 2.91   4 3.45
  15  0.607  0.573  0.406-   3 2.64  28 2.70  25 2.75  10 2.76  11 2.81   8 2.96  20 3.06  19 3.37

  16  0.527  0.494  0.277-   3 2.61  20 2.64  11 2.69
  17  0.681  0.406  0.672-  22 2.57  24 2.58
  18  0.440  0.434  0.499-   5 2.66   7 2.70  19 2.70   9 2.72  13 2.73   1 2.78  11 3.43
  19  0.498  0.540  0.506-  11 2.68  18 2.70   8 2.75  14 2.78   4 2.88  10 2.95  12 2.98  26 3.12
                            28 3.20  15 3.37   9 3.42   1 3.47   7 3.52
  20  0.578  0.444  0.371-  16 2.64   7 2.67  11 2.69  25 2.71   2 2.72  15 3.06   3 3.47
  21  0.376  0.509  0.714-  13 2.66  27 2.73  26 2.80  23 2.86
  22  0.585  0.469  0.679-  17 2.57  27 2.69   9 2.78  23 2.80  12 2.86  24 3.11
  23  0.472  0.424  0.708-  27 2.68  13 2.71   9 2.78  22 2.80  21 2.86
  24  0.634  0.402  0.567-  17 2.58   8 2.68   9 2.72   7 2.72   2 2.75  22 3.11
  25  0.686  0.496  0.354-   2 2.66  20 2.71   3 2.73  15 2.75
  26  0.416  0.573  0.614-  27 2.73  21 2.80  13 2.81   4 2.82   1 2.83   6 2.85  19 3.12  12 3.40

  27  0.493  0.542  0.704-   6 2.65  23 2.68  22 2.69  21 2.73  26 2.73  12 2.75  13 3.56
  28  0.606  0.634  0.511-  15 2.70   8 2.73  12 2.73  10 2.75   4 2.83  19 3.20
  29  0.414  0.704  0.479-  14 2.62   4 2.66  10 2.73
 
  LATTYP: Found a simple cubic cell.
 ALAT       =    22.3303785395
  
  Lattice vectors:
  
 A1 = (  22.3303785395,   0.0000000000,   0.0000000000)
 A2 = (   0.0000000000,  22.3303785395,   0.0000000000)
 A3 = (   0.0000000000,   0.0000000000,  22.3303785395)


Analysis of symmetry for initial positions (statically):
=====================================================================
 Subroutine PRICEL returns:
 Original cell was already a primitive cell.
 

 Routine SETGRP: Setting up the symmetry group for a 
 simple cubic supercell.


 Subroutine GETGRP returns: Found  1 space group operations
 (whereof  1 operations were pure point group operations)
 out of a pool of 48 trial point group operations.


The static configuration has the point symmetry C_1 .


Analysis of symmetry for dynamics (positions and initial velocities):
=====================================================================
 Subroutine PRICEL returns:
 Original cell was already a primitive cell.
 

 Routine SETGRP: Setting up the symmetry group for a 
 simple cubic supercell.


 Subroutine GETGRP returns: Found  1 space group operations
 (whereof  1 operations were pure point group operations)
 out of a pool of 48 trial point group operations.


The dynamic configuration has the point symmetry C_1 .


Analysis of magnetic symmetry:
=====================================================================
 Subroutine PRICEL returns:
 Original cell was already a primitive cell.
 

 Subroutine MAGSYM returns: Found  1 space group operations
 (whereof  1 operations were pure point group operations)
 out of a pool of  1 trial space group operations
 (whereof  1 operations were pure point group operations)
 and found also     1 'primitive' translations


The magnetic configuration has the point symmetry C_1 .
 
 
 KPOINTS: Gamma-point only                        
  k-points in reciprocal lattice
Space group operators:
 irot       det(A)        alpha          n_x          n_y          n_z        tau_x        tau_y        tau_z
    1     1.000000     0.000000     1.000000     0.000000     0.000000     0.000000     0.000000     0.000000


--------------------------------------------------------------------------------------------------------




 Dimension of arrays:
   k-points           NKPTS =      1   k-points in BZ     NKDIM =      1   number of bands    NBANDS=    208
   number of dos      NEDOS =    301   number of ions     NIONS =     29
   non local maximal  LDIM  =      6   non local SUM 2l+1 LMDIM =     18
   total plane-waves  NPLWV = 729000
   max r-space proj   IRMAX =      1   max aug-charges    IRDMAX=   3418
   dimension x,y,z NGX =    90 NGY =   90 NGZ =   90
   dimension x,y,z NGXF=   180 NGYF=  180 NGZF=  180
   support grid    NGXF=   180 NGYF=  180 NGZF=  180
   ions per type =              29
 NGX,Y,Z   is equivalent  to a cutoff of   6.70,  6.70,  6.70 a.u.
 NGXF,Y,Z  is equivalent  to a cutoff of  13.40, 13.40, 13.40 a.u.


 I would recommend the setting:
   dimension x,y,z NGX =    86 NGY =   86 NGZ =   86
 SYSTEM =  unknown system                          
 POSCAR =  Pt29, -137.66150981 <s> Ag </s>         

 Startparameter for this run:
   NWRITE =      2    write-flag & timer
   PREC   = normal    normal or accurate (medium, high low for compatibility)
   ISTART =      0    job   : 0-new  1-cont  2-samecut
   ICHARG =      2    charge: 1-file 2-atom 10-const
   ISPIN  =      2    spin polarized calculation?
   LNONCOLLINEAR =      F non collinear calculations
   LSORBIT =      F    spin-orbit coupling
   INIWAV =      1    electr: 0-lowe 1-rand  2-diag
   LASPH  =      F    aspherical Exc in radial PAW
   METAGGA=      F    non-selfconsistent MetaGGA calc.

 Electronic Relaxation 1
   ENCUT  =  249.8 eV  18.36 Ry    4.29 a.u.  28.78 28.78 28.78*2*pi/ulx,y,z
   ENINI  =  249.8     initial cutoff
   ENAUG  =  412.5 eV  augmentation charge cutoff
   NELM   =     60;   NELMIN=  2; NELMDL= -5     # of ELM steps 
   EDIFF  = 0.1E-03   stopping-criterion for ELM
   LREAL  =      F    real-space projection
   NLSPLINE    = F    spline interpolate recip. space projectors
   LCOMPAT=      F    compatible to vasp.4.4
   GGA_COMPAT  = T    GGA compatible to vasp.4.4-vasp.4.6
   LMAXPAW     = -100 max onsite density
   LMAXMIX     =    2 max onsite mixed and CHGCAR
   VOSKOWN=      0    Vosko Wilk Nusair interpolation
   ROPT   =    0.00000
 Ionic relaxation
   EDIFFG = 0.1E-02   stopping-criterion for IOM
   NSW    =   1000    number of steps for IOM
   NBLOCK =      1;   KBLOCK =   1000    inner block; outer block 
   IBRION =      2    ionic relax: 0-MD 1-quasi-New 2-CG
   NFREE  =      1    steps in history (QN), initial steepest desc. (CG)
   ISIF   =      2    stress and relaxation
   IWAVPR =     11    prediction:  0-non 1-charg 2-wave 3-comb
   ISYM   =      2    0-nonsym 1-usesym 2-fastsym
   LCORR  =      T    Harris-Foulkes like correction to forces

   POTIM  = 0.1000    time-step for ionic-motion
   TEIN   =    0.0    initial temperature
   TEBEG  =    0.0;   TEEND  =   0.0 temperature during run
   SMASS  =  -3.00    Nose mass-parameter (am)
   estimated Nose-frequenzy (Omega)   =  0.10E-29 period in steps =****** mass=  -0.114E-25a.u.
   SCALEE = 1.0000    scale energy and forces
   NPACO  =    256;   APACO  = 16.0  distance and # of slots for P.C.
   PSTRESS=    0.0 pullay stress

  Mass of Ions in am
   POMASS = 107.87
  Ionic Valenz
   ZVAL   =  11.00
  Atomic Wigner-Seitz radii
   RWIGS  =  -1.00
  virtual crystal weights 
   VCA    =   1.00
   NELECT =     319.0000    total number of electrons
   NUPDOWN=      -1.0000    fix difference up-down

 DOS related values:
   EMIN   =  10.00;   EMAX   =-10.00  energy-range for DOS
   EFERMI =   0.00
   ISMEAR =     0;   SIGMA  =   0.00  broadening in eV -4-tet -1-fermi 0-gaus

 Electronic relaxation 2 (details)
   IALGO  =     38    algorithm
   LDIAG  =      T    sub-space diagonalisation (order eigenvalues)
   LSUBROT=      F    optimize rotation matrix (better conditioning)
   TURBO    =      0    0=normal 1=particle mesh
   IRESTART =      0    0=no restart 2=restart with 2 vectors
   NREBOOT  =      0    no. of reboots
   NMIN     =      0    reboot dimension
   EREF     =   0.00    reference energy to select bands
   IMIX   =      4    mixing-type and parameters
     AMIX     =   0.40;   BMIX     =  1.00
     AMIX_MAG =   1.60;   BMIX_MAG =  1.00
     AMIN     =   0.10
     WC   =   100.;   INIMIX=   1;  MIXPRE=   1;  MAXMIX= -45

 Intra band minimization:
   WEIMIN = 0.0010     energy-eigenvalue tresh-hold
   EBREAK =  0.12E-06  absolut break condition
   DEPER  =   0.30     relativ break condition  

   TIME   =   0.40     timestep for ELM

  volume/ion in A,a.u.               =     383.96      2591.12
  Fermi-wavevector in a.u.,A,eV,Ry     =   0.500928  0.946617  3.414100  0.250929
  Thomas-Fermi vector in A             =   1.509182
 
 Write flags
   LWAVE  =      F    write WAVECAR
   LCHARG =      F    write CHGCAR
   LVTOT  =      F    write LOCPOT, total local potential
   LVHAR  =      F    write LOCPOT, Hartree potential only
   LELF   =      F    write electronic localiz. function (ELF)
   LORBIT =      0    0 simple, 1 ext, 2 COOP (PROOUT)


 Dipole corrections
   LMONO  =      F    monopole corrections only (constant potential shift)
   LDIPOL =      F    correct potential (dipole corrections)
   IDIPOL =      0    1-x, 2-y, 3-z, 4-all directions 
   EPSILON=  1.0000000 bulk dielectric constant

 Exchange correlation treatment:
   GGA     =    PE    GGA type
   LEXCH   =     8    internal setting for exchange type
   VOSKOWN=      0    Vosko Wilk Nusair interpolation
   LHFCALC =     F    Hartree Fock is set to
   LHFONE  =     F    Hartree Fock one center treatment
   AEXX    =    0.0000 exact exchange contribution

 Linear response parameters
   LEPSILON=     F    determine dielectric tensor
   LRPA    =     F    only Hartree local field effects (RPA)
   LNABLA  =     F    use nabla operator in PAW spheres
   LVEL    =     F    velocity operator in full k-point grid
   LINTERFAST=   F  fast interpolation
   KINTER  =     0    interpolate to denser k-point grid
   CSHIFT  =0.1000    complex shift for real part using Kramers Kronig
   OMEGAMAX=  -1.0    maximum frequency
   DEG_THRESHOLD= 0.2000000E-02 threshold for treating states as degnerate
   RTIME   =    0.100 relaxation time in fs

 Orbital magnetization related:
   ORBITALMAG=     F  switch on orbital magnetization
   LCHIMAG   =     F  perturbation theory with respect to B field
   DQ        =  0.001000  dq finite difference perturbation B field



--------------------------------------------------------------------------------------------------------


 conjugate gradient relaxation of ions
 charge density and potential will be updated during run
 spin polarized calculation
 Variant of blocked Davidson
 Davidson routine will perform the subspace rotation
 perform sub-space diagonalisation
    after iterative eigenvector-optimisation
 modified Broyden-mixing scheme, WC =      100.0
 initial mixing is a Kerker type mixing with AMIX =  0.4000 and BMIX =      1.0000
 Hartree-type preconditioning will be used
 using additional bands           48
 reciprocal scheme for non local part
 use partial core corrections
 calculate Harris-corrections to forces 
   (improved forces if not selfconsistent)
 use gradient corrections 
 use of overlap-Matrix (Vanderbilt PP)
 Gauss-broadening in eV      SIGMA  =   0.00


--------------------------------------------------------------------------------------------------------


  energy-cutoff  :      249.84
  volume of cell :    11134.95
      direct lattice vectors                 reciprocal lattice vectors
    22.330378539  0.000000000  0.000000000     0.044782044  0.000000000  0.000000000
     0.000000000 22.330378539  0.000000000     0.000000000  0.044782044  0.000000000
     0.000000000  0.000000000 22.330378539     0.000000000  0.000000000  0.044782044

  length of vectors
    22.330378539 22.330378539 22.330378539     0.044782044  0.044782044  0.044782044


 
 k-points in units of 2pi/SCALE and weight: Gamma-point only                        
   0.00000000  0.00000000  0.00000000       1.000
 
 k-points in reciprocal lattice and weights: Gamma-point only                        
   0.00000000  0.00000000  0.00000000       1.000
 
 position of ions in fractional coordinates (direct lattice) 
   0.34704214  0.51178092  0.52823693
   0.66820368  0.43013317  0.45190830
   0.61530784  0.57002406  0.28832995
   0.49103544  0.65766398  0.55728963
   0.38062663  0.48205016  0.40679069
   0.49024329  0.65707843  0.67581161
   0.55150567  0.39404309  0.47701003
   0.61739759  0.51253242  0.52375033
   0.51523800  0.41362630  0.59212086
   0.51250538  0.64860596  0.43332660
   0.49134103  0.52665552  0.38724114
   0.56853384  0.57759601  0.61326803
   0.40062650  0.44855921  0.61356493
   0.39887992  0.59107833  0.45241586
   0.60657722  0.57342942  0.40639748
   0.52732157  0.49364248  0.27700566
   0.68121859  0.40568031  0.67215464
   0.43970388  0.43414492  0.49864804
   0.49841828  0.53959159  0.50628989
   0.57780259  0.44397262  0.37141078
   0.37624358  0.50851381  0.71359544
   0.58546754  0.46879242  0.67874752
   0.47209404  0.42368183  0.70845142
   0.63390945  0.40180471  0.56665833
   0.68630420  0.49566205  0.35407279
   0.41644241  0.57339822  0.61421390
   0.49328042  0.54182336  0.70413279
   0.60646367  0.63356415  0.51126489
   0.41378107  0.70438600  0.47940700
 
 position of ions in cartesian coordinates  (Angst):
   7.74958239 11.42826163 11.79573058
  14.92124109  9.60503662 10.09128341
  13.74005696 12.72885296  6.43851691
  10.96500718 14.68588564 12.44448848
   8.49953668 10.76436248  9.08379008
  10.94731817 14.67281005 15.09112906
  12.31533037  8.79913128 10.65181446
  13.78672199 11.44504293 11.69554306
  11.50545953  9.23643194 13.22228296
  11.44443918 14.48361659  9.67634700
  10.97183109 11.76041715  8.64724124
  12.69557578 12.89793762 13.69450722
   8.94614145 10.01649700 13.70113710
   8.90713962 13.19900280 10.10261742
  13.54509892 12.80489600  9.07500966
  11.77529024 11.02322341  6.18564126
  15.21186889  9.05899487 15.00946757
   9.81875412  9.69462042 11.13499943
  11.12986892 12.04928448 11.30564486
  12.90255054  9.91407676  8.29374325
   8.40166165 11.35530585 15.93485635
  13.07371177 10.46831218 15.15668902
  10.54203860  9.46097568 15.81998830
  14.15543795  8.97245130 12.65369510
  15.32543257 11.06832118  7.90657938
   9.29931661 12.80419930 13.71562884
  11.01513852 12.09912067 15.72355175
  13.54256324 14.14772728 11.41673852
   9.23988800 15.72920598 10.70533977
 


--------------------------------------------------------------------------------------------------------


 use parallel FFT for wavefunctions z direction half grid
 k-point  1 :   0.0000 0.0000 0.0000  plane waves:   49937

 maximum and minimum number of plane-waves per node :      6246     6238

 maximum number of plane-waves:     49937
 maximum index in each direction: 
   IXMAX=   28   IYMAX=   28   IZMAX=   28
   IXMIN=  -28   IYMIN=  -28   IZMIN=    0

 WARNING: aliasing errors must be expected set NGX to 114 to avoid them
 WARNING: aliasing errors must be expected set NGY to 114 to avoid them
 WARNING: aliasing errors must be expected set NGZ to 114 to avoid them
 aliasing errors are usually negligible using standard VASP settings
 and one can safely disregard these warnings

 parallel 3D FFT for wavefunctions:
    minimum data exchange during FFTs selected (reduces bandwidth)
 parallel 3D FFT for charge:
    minimum data exchange during FFTs selected (reduces bandwidth)


 total amount of memory used by VASP on root node    74823. kBytes
========================================================================

   base      :      30000. kBytes
   nonl-proj :       3798. kBytes
   fftplans  :       8579. kBytes
   grid      :      21928. kBytes
   one-center:         62. kBytes
   wavefun   :      10456. kBytes
 
     INWAV:  cpu time    0.00: real time    0.00
 Broyden mixing: mesh for mixing (old mesh)
   NGX = 57   NGY = 57   NGZ = 57
  (NGX  =180   NGY  =180   NGZ  =180)
  gives a total of 185193 points

 initial charge density was supplied:
 charge density of overlapping atoms calculated
 number of electron     319.0000000 magnetization      29.0000000
 keeping initial charge density in first step


--------------------------------------------------------------------------------------------------------


 Maximum index for augmentation-charges          251 (set IRDMAX)


--------------------------------------------------------------------------------------------------------


 First call to EWALD:  gamma=   0.079
 Maximum number of real-space cells 3x 3x 3
 Maximum number of reciprocal cells 3x 3x 3

 FEWALD executed in parallel
    FEWALD:  cpu time    0.00: real time    0.00


----------------------------------------- Iteration    1(   1)  ---------------------------------------


    POTLOK:  cpu time    0.37: real time    0.37
    SETDIJ:  cpu time    0.01: real time    0.01
     EDDAV:  cpu time    4.46: real time    4.46
       DOS:  cpu time    0.00: real time    0.00
    --------------------------------------------
      LOOP:  cpu time    4.84: real time    4.87

 eigenvalue-minimisations  :   848
 total energy-change (2. order) : 0.2793516E+04  (-0.5766309E+04)
 number of electron     319.0000000 magnetization      29.0000000
 augmentation part      319.0000000 magnetization      29.0000000

 Free energy of the ion-electron system (eV)
  ---------------------------------------------------
  alpha Z        PSCENC =        64.24242424
  Ewald energy   TEWEN  =     62191.92679010
  -Hartree energ DENC   =    -91010.95813127
  -exchange      EXHF   =         0.00000000
  -V(xc)+E(xc)   XCENC  =      -318.10875268
  PAW double counting   =     29097.79316402   -27760.67365749
  entropy T*S    EENTRO =        -0.00000000
  eigenvalues    EBANDS =       450.53361747
  atomic energy  EATOM  =     30078.76027250
  ---------------------------------------------------
  free energy    TOTEN  =      2793.51572690 eV

  energy without entropy =     2793.51572690  energy(sigma->0) =     2793.51572690


--------------------------------------------------------------------------------------------------------




----------------------------------------- Iteration    1(   2)  ---------------------------------------


     EDDAV:  cpu time    6.76: real time    6.77
       DOS:  cpu time    0.00: real time    0.00
    --------------------------------------------
      LOOP:  cpu time    6.77: real time    6.78

 eigenvalue-minimisations  :  1424
 total energy-change (2. order) :-0.2131510E+04  (-0.1895230E+04)
 number of electron     319.0000000 magnetization      29.0000000
 augmentation part      319.0000000 magnetization      29.0000000

 Free energy of the ion-electron system (eV)
  ---------------------------------------------------
  alpha Z        PSCENC =        64.24242424
  Ewald energy   TEWEN  =     62191.92679010
  -Hartree energ DENC   =    -91010.95813127
  -exchange      EXHF   =         0.00000000
  -V(xc)+E(xc)   XCENC  =      -318.10875268
  PAW double counting   =     29097.79316402   -27760.67365749
  entropy T*S    EENTRO =         0.00000000
  eigenvalues    EBANDS =     -1680.97676191
  atomic energy  EATOM  =     30078.76027250
  ---------------------------------------------------
  free energy    TOTEN  =       662.00534753 eV

  energy without entropy =      662.00534753  energy(sigma->0) =      662.00534753


--------------------------------------------------------------------------------------------------------




----------------------------------------- Iteration    1(   3)  ---------------------------------------


     EDDAV:  cpu time    5.46: real time    5.47
       DOS:  cpu time    0.00: real time    0.00
    --------------------------------------------
      LOOP:  cpu time    5.47: real time    5.47

 eigenvalue-minimisations  :  1096
 total energy-change (2. order) :-0.6783005E+03  (-0.6213830E+03)
 number of electron     319.0000000 magnetization      29.0000000
 augmentation part      319.0000000 magnetization      29.0000000

 Free energy of the ion-electron system (eV)
  ---------------------------------------------------
  alpha Z        PSCENC =        64.24242424
  Ewald energy   TEWEN  =     62191.92679010
  -Hartree energ DENC   =    -91010.95813127
  -exchange      EXHF   =         0.00000000
  -V(xc)+E(xc)   XCENC  =      -318.10875268
  PAW double counting   =     29097.79316402   -27760.67365749
  entropy T*S    EENTRO =         0.00000000
  eigenvalues    EBANDS =     -2359.27727515
  atomic energy  EATOM  =     30078.76027250
  ---------------------------------------------------
  free energy    TOTEN  =       -16.29516571 eV

  energy without entropy =      -16.29516571  energy(sigma->0) =      -16.29516571


--------------------------------------------------------------------------------------------------------




----------------------------------------- Iteration    1(   4)  ---------------------------------------


     EDDAV:  cpu time    4.74: real time    4.74
       DOS:  cpu time    0.00: real time    0.00
    --------------------------------------------
      LOOP:  cpu time    4.74: real time    4.74

 eigenvalue-minimisations  :   912
 total energy-change (2. order) :-0.4022674E+02  (-0.3971502E+02)
 number of electron     319.0000000 magnetization      29.0000000
 augmentation part      319.0000000 magnetization      29.0000000

 Free energy of the ion-electron system (eV)
  ---------------------------------------------------
  alpha Z        PSCENC =        64.24242424
  Ewald energy   TEWEN  =     62191.92679010
  -Hartree energ DENC   =    -91010.95813127
  -exchange      EXHF   =         0.00000000
  -V(xc)+E(xc)   XCENC  =      -318.10875268
  PAW double counting   =     29097.79316402   -27760.67365749
  entropy T*S    EENTRO =        -0.00000000
  eigenvalues    EBANDS =     -2399.50401714
  atomic energy  EATOM  =     30078.76027250
  ---------------------------------------------------
  free energy    TOTEN  =       -56.52190770 eV

  energy without entropy =      -56.52190770  energy(sigma->0) =      -56.52190770


--------------------------------------------------------------------------------------------------------




----------------------------------------- Iteration    1(   5)  ---------------------------------------


     EDDAV:  cpu time    4.86: real time    4.86
       DOS:  cpu time    0.00: real time    0.00
    CHARGE:  cpu time    0.18: real time    0.18
    MIXING:  cpu time    0.01: real time    0.01
    --------------------------------------------
      LOOP:  cpu time    5.05: real time    5.06

 eigenvalue-minimisations  :   944
 total energy-change (2. order) :-0.5875520E+00  (-0.5869107E+00)
 number of electron     318.9999963 magnetization      25.7133367
 augmentation part      149.8537586 magnetization      25.3493920

 Broyden mixing:
  rms(total) = 0.31453E+01    rms(broyden)= 0.31448E+01
  rms(prec ) = 0.31943E+01
  weight for this iteration     100.00

 Free energy of the ion-electron system (eV)
  ---------------------------------------------------
  alpha Z        PSCENC =        64.24242424
  Ewald energy   TEWEN  =     62191.92679010
  -Hartree energ DENC   =    -91010.95813127
  -exchange      EXHF   =         0.00000000
  -V(xc)+E(xc)   XCENC  =      -318.10875268
  PAW double counting   =     29097.79316402   -27760.67365749
  entropy T*S    EENTRO =        -0.00000000
  eigenvalues    EBANDS =     -2400.09156913
  atomic energy  EATOM  =     30078.76027250
  ---------------------------------------------------
  free energy    TOTEN  =       -57.10945970 eV

  energy without entropy =      -57.10945970  energy(sigma->0) =      -57.10945970


--------------------------------------------------------------------------------------------------------




----------------------------------------- Iteration    1(   6)  ---------------------------------------


    POTLOK:  cpu time    0.37: real time    0.37
    SETDIJ:  cpu time    0.01: real time    0.01
     EDDAV:  cpu time    4.51: real time    4.52
       DOS:  cpu time    0.00: real time    0.00
    CHARGE:  cpu time    0.18: real time    0.18
    MIXING:  cpu time    0.01: real time    0.01
    --------------------------------------------
      LOOP:  cpu time    5.08: real time    5.08

 eigenvalue-minimisations  :   856
 total energy-change (2. order) : 0.4008824E+02  (-0.1265161E+02)
 number of electron     318.9999961 magnetization      23.6402619
 augmentation part      153.2312242 magnetization      14.5848488

 Broyden mixing:
  rms(total) = 0.16354E+01    rms(broyden)= 0.16353E+01
  rms(prec ) = 0.16579E+01
  weight for this iteration     100.00

 eigenvalues of (default mixing * dielectric matrix)
  average eigenvalue GAMMA=   0.8560
  0.8560

 Free energy of the ion-electron system (eV)
  ---------------------------------------------------
  alpha Z        PSCENC =        64.24242424
  Ewald energy   TEWEN  =     62191.92679010
  -Hartree energ DENC   =    -90897.00330122
  -exchange      EXHF   =         0.00000000
  -V(xc)+E(xc)   XCENC  =      -297.85809006
  PAW double counting   =     30144.98574032   -28830.44883102
  entropy T*S    EENTRO =         0.00000000
  eigenvalues    EBANDS =     -2471.62622210
  atomic energy  EATOM  =     30078.76027250
  ---------------------------------------------------
  free energy    TOTEN  =       -17.02121723 eV

  energy without entropy =      -17.02121723  energy(sigma->0) =      -17.02121723


--------------------------------------------------------------------------------------------------------




----------------------------------------- Iteration    1(   7)  ---------------------------------------


    POTLOK:  cpu time    0.36: real time    0.37
    SETDIJ:  cpu time    0.01: real time    0.01
     EDDAV:  cpu time    4.64: real time    4.64
       DOS:  cpu time    0.00: real time    0.00
    CHARGE:  cpu time    0.18: real time    0.18
    MIXING:  cpu time    0.01: real time    0.01
    --------------------------------------------
      LOOP:  cpu time    5.21: real time    5.21

 eigenvalue-minimisations  :   888
 total energy-change (2. order) : 0.3802546E+01  (-0.6579150E+00)
 number of electron     318.9999961 magnetization      20.3882127
 augmentation part      153.1509420 magnetization      11.6439500

 Broyden mixing:
  rms(total) = 0.96265E+00    rms(broyden)= 0.96263E+00
  rms(prec ) = 0.97355E+00
  weight for this iteration     100.00

 eigenvalues of (default mixing * dielectric matrix)
  average eigenvalue GAMMA=   1.0261
  0.7646  1.2876

 Free energy of the ion-electron system (eV)
  ---------------------------------------------------
  alpha Z        PSCENC =        64.24242424
  Ewald energy   TEWEN  =     62191.92679010
  -Hartree energ DENC   =    -90966.96633322
  -exchange      EXHF   =         0.00000000
  -V(xc)+E(xc)   XCENC  =      -294.72982972
  PAW double counting   =     30776.85015644   -29476.84270215
  entropy T*S    EENTRO =         0.00000000
  eigenvalues    EBANDS =     -2386.45944974
  atomic energy  EATOM  =     30078.76027250
  ---------------------------------------------------
  free energy    TOTEN  =       -13.21867155 eV

  energy without entropy =      -13.21867155  energy(sigma->0) =      -13.21867155


--------------------------------------------------------------------------------------------------------




----------------------------------------- Iteration    1(   8)  ---------------------------------------


    POTLOK:  cpu time    0.37: real time    0.37
    SETDIJ:  cpu time    0.01: real time    0.01
     EDDAV:  cpu time    4.68: real time    4.68
       DOS:  cpu time    0.00: real time    0.00
    CHARGE:  cpu time    0.18: real time    0.18
    MIXING:  cpu time    0.01: real time    0.01
    --------------------------------------------
      LOOP:  cpu time    5.24: real time    5.56

 eigenvalue-minimisations  :   896
 total energy-change (2. order) :-0.2141858E+01  (-0.2230100E+00)
 number of electron     318.9999960 magnetization      18.3173214
 augmentation part      152.9660525 magnetization       9.7848809

 Broyden mixing:
  rms(total) = 0.50483E+00    rms(broyden)= 0.50481E+00
  rms(prec ) = 0.50838E+00
  weight for this iteration     100.00

 eigenvalues of (default mixing * dielectric matrix)
  average eigenvalue GAMMA=   1.2408
  2.2136  0.8940  0.6147

 Free energy of the ion-electron system (eV)
  ---------------------------------------------------
  alpha Z        PSCENC =        64.24242424
  Ewald energy   TEWEN  =     62191.92679010
  -Hartree energ DENC   =    -91042.73562563
  -exchange      EXHF   =         0.00000000
  -V(xc)+E(xc)   XCENC  =      -295.95067074
  PAW double counting   =     31525.40264572   -30240.68004527
  entropy T*S    EENTRO =         0.00000000
  eigenvalues    EBANDS =     -2296.32632019
  atomic energy  EATOM  =     30078.76027250
  ---------------------------------------------------
  free energy    TOTEN  =       -15.36052927 eV

  energy without entropy =      -15.36052927  energy(sigma->0) =      -15.36052927


--------------------------------------------------------------------------------------------------------




----------------------------------------- Iteration    1(   9)  ---------------------------------------


    POTLOK:  cpu time    0.36: real time    0.37
    SETDIJ:  cpu time    0.01: real time    0.01
     EDDAV:  cpu time    4.68: real time    4.68
       DOS:  cpu time    0.00: real time    0.00
    CHARGE:  cpu time    0.18: real time    0.18
    MIXING:  cpu time    0.01: real time    0.01
    --------------------------------------------
      LOOP:  cpu time    5.25: real time    5.28

 eigenvalue-minimisations  :   896
 total energy-change (2. order) :-0.4027126E+01  (-0.9460308E-01)
 number of electron     318.9999960 magnetization      16.2103562
 augmentation part      152.9211101 magnetization       7.8479271

 Broyden mixing:
  rms(total) = 0.30307E+00    rms(broyden)= 0.30306E+00
  rms(prec ) = 0.30664E+00
  weight for this iteration     100.00

 eigenvalues of (default mixing * dielectric matrix)
  average eigenvalue GAMMA=   1.2235
  2.2790  0.6203  0.8012  1.1934

 Free energy of the ion-electron system (eV)
  ---------------------------------------------------
  alpha Z        PSCENC =        64.24242424
  Ewald energy   TEWEN  =     62191.92679010
  -Hartree energ DENC   =    -91065.09431804
  -exchange      EXHF   =         0.00000000
  -V(xc)+E(xc)   XCENC  =      -298.85584174
  PAW double counting   =     31775.76720022   -30495.95163673
  entropy T*S    EENTRO =         0.00000000
  eigenvalues    EBANDS =     -2270.18254577
  atomic energy  EATOM  =     30078.76027250
  ---------------------------------------------------
  free energy    TOTEN  =       -19.38765522 eV

  energy without entropy =      -19.38765522  energy(sigma->0) =      -19.38765522


--------------------------------------------------------------------------------------------------------




----------------------------------------- Iteration    1(  10)  ---------------------------------------


    POTLOK:  cpu time    0.37: real time    0.37
    SETDIJ:  cpu time    0.01: real time    0.01
     EDDAV:  cpu time    4.50: real time    4.50
       DOS:  cpu time    0.00: real time    0.00
    CHARGE:  cpu time    0.18: real time    0.18
    MIXING:  cpu time    0.01: real time    0.01
    --------------------------------------------
      LOOP:  cpu time    5.06: real time    5.07

 eigenvalue-minimisations  :   848
 total energy-change (2. order) :-0.8482277E+01  (-0.2453147E+00)
 number of electron     318.9999960 magnetization      15.2355612
 augmentation part      152.8985508 magnetization       9.1220370

 Broyden mixing:
  rms(total) = 0.30601E+00    rms(broyden)= 0.30589E+00
  rms(prec ) = 0.31558E+00
  weight for this iteration     100.00

 eigenvalues of (default mixing * dielectric matrix)
  average eigenvalue GAMMA=   1.0757
  2.3309  1.2693  0.8141  0.6202  0.3440

 Free energy of the ion-electron system (eV)
  ---------------------------------------------------
  alpha Z        PSCENC =        64.24242424
  Ewald energy   TEWEN  =     62191.92679010
  -Hartree energ DENC   =    -91066.79089827
  -exchange      EXHF   =         0.00000000
  -V(xc)+E(xc)   XCENC  =      -305.30419570
  PAW double counting   =     31798.81682904   -30519.50216742
  entropy T*S    EENTRO =         0.00000000
  eigenvalues    EBANDS =     -2270.01898644
  atomic energy  EATOM  =     30078.76027250
  ---------------------------------------------------
  free energy    TOTEN  =       -27.86993195 eV

  energy without entropy =      -27.86993195  energy(sigma->0) =      -27.86993195


--------------------------------------------------------------------------------------------------------




----------------------------------------- Iteration    1(  11)  ---------------------------------------


    POTLOK:  cpu time    0.37: real time    0.37
    SETDIJ:  cpu time    0.01: real time    0.01
     EDDAV:  cpu time    4.78: real time    4.78
       DOS:  cpu time    0.00: real time    0.00
    CHARGE:  cpu time    0.18: real time    0.18
    MIXING:  cpu time    0.01: real time    0.01
    --------------------------------------------
      LOOP:  cpu time    5.35: real time    5.50

 eigenvalue-minimisations  :   920
 total energy-change (2. order) :-0.1990143E+01  (-0.3630400E-01)
 number of electron     318.9999960 magnetization      11.9933378
 augmentation part      152.8763727 magnetization       6.0087213

 Broyden mixing:
  rms(total) = 0.25924E+00    rms(broyden)= 0.25923E+00
  rms(prec ) = 0.26491E+00
  weight for this iteration     100.00

 eigenvalues of (default mixing * dielectric matrix)
  average eigenvalue GAMMA=   1.2068
  2.5012  1.6563  0.9708  0.9708  0.6377  0.5042

 Free energy of the ion-electron system (eV)
  ---------------------------------------------------
  alpha Z        PSCENC =        64.24242424
  Ewald energy   TEWEN  =     62191.92679010
  -Hartree energ DENC   =    -91070.63632235
  -exchange      EXHF   =         0.00000000
  -V(xc)+E(xc)   XCENC  =      -306.69273205
  PAW double counting   =     31810.63506654   -30531.69284885
  entropy T*S    EENTRO =         0.00000000
  eigenvalues    EBANDS =     -2266.40272482
  atomic energy  EATOM  =     30078.76027250
  ---------------------------------------------------
  free energy    TOTEN  =       -29.86007468 eV

  energy without entropy =      -29.86007468  energy(sigma->0) =      -29.86007468


--------------------------------------------------------------------------------------------------------




----------------------------------------- Iteration    1(  12)  ---------------------------------------


    POTLOK:  cpu time    0.36: real time    0.37
    SETDIJ:  cpu time    0.01: real time    0.01
     EDDAV:  cpu time    4.50: real time    4.50
       DOS:  cpu time    0.00: real time    0.00
    CHARGE:  cpu time    0.18: real time    0.18
    MIXING:  cpu time    0.01: real time    0.01
    --------------------------------------------
      LOOP:  cpu time    5.07: real time    5.21

 eigenvalue-minimisations  :   848
 total energy-change (2. order) :-0.9027117E+01  (-0.4132866E+00)
 number of electron     318.9999960 magnetization      10.5351193
 augmentation part      152.8813681 magnetization       6.8435494

 Broyden mixing:
  rms(total) = 0.24461E+00    rms(broyden)= 0.24448E+00
  rms(prec ) = 0.25401E+00
  weight for this iteration     100.00

 eigenvalues of (default mixing * dielectric matrix)
  average eigenvalue GAMMA=   1.1741
  2.8454  1.8789  0.9595  0.9595  0.6327  0.5024  0.4402

 Free energy of the ion-electron system (eV)
  ---------------------------------------------------
  alpha Z        PSCENC =        64.24242424
  Ewald energy   TEWEN  =     62191.92679010
  -Hartree energ DENC   =    -91076.83440476
  -exchange      EXHF   =         0.00000000
  -V(xc)+E(xc)   XCENC  =      -313.36961240
  PAW double counting   =     31769.73303796   -30490.98049739
  entropy T*S    EENTRO =         0.00000000
  eigenvalues    EBANDS =     -2262.36520200
  atomic energy  EATOM  =     30078.76027250
  ---------------------------------------------------
  free energy    TOTEN  =       -38.88719174 eV

  energy without entropy =      -38.88719174  energy(sigma->0) =      -38.88719174


--------------------------------------------------------------------------------------------------------




----------------------------------------- Iteration    1(  13)  ---------------------------------------


    POTLOK:  cpu time    0.37: real time    0.37
    SETDIJ:  cpu time    0.01: real time    0.01
     EDDAV:  cpu time    4.76: real time    4.76
       DOS:  cpu time    0.00: real time    0.00
    CHARGE:  cpu time    0.18: real time    0.18
    MIXING:  cpu time    0.01: real time    0.01
    --------------------------------------------
      LOOP:  cpu time    5.33: real time    5.35

 eigenvalue-minimisations  :   912
 total energy-change (2. order) :-0.2529955E+01  (-0.6123979E-01)
 number of electron     318.9999960 magnetization       8.0269897
 augmentation part      152.8674384 magnetization       4.4982304

 Broyden mixing:
  rms(total) = 0.18625E+00    rms(broyden)= 0.18623E+00
  rms(prec ) = 0.19324E+00
  weight for this iteration     100.00

 eigenvalues of (default mixing * dielectric matrix)
  average eigenvalue GAMMA=   1.3355
  4.0509  2.1411  1.0395  0.9542  0.7160  0.7160  0.6319  0.4343

 Free energy of the ion-electron system (eV)
  ---------------------------------------------------
  alpha Z        PSCENC =        64.24242424
  Ewald energy   TEWEN  =     62191.92679010
  -Hartree energ DENC   =    -91079.81482355
  -exchange      EXHF   =         0.00000000
  -V(xc)+E(xc)   XCENC  =      -315.23934792
  PAW double counting   =     31762.50616560   -30483.93501773
  entropy T*S    EENTRO =         0.00000000
  eigenvalues    EBANDS =     -2259.86360972
  atomic energy  EATOM  =     30078.76027250
  ---------------------------------------------------
  free energy    TOTEN  =       -41.41714647 eV

  energy without entropy =      -41.41714647  energy(sigma->0) =      -41.41714647


--------------------------------------------------------------------------------------------------------




----------------------------------------- Iteration    1(  14)  ---------------------------------------


    POTLOK:  cpu time    0.37: real time    0.37
    SETDIJ:  cpu time    0.01: real time    0.01
     EDDAV:  cpu time    4.44: real time    4.44
       DOS:  cpu time    0.00: real time    0.00
    CHARGE:  cpu time    0.18: real time    0.18
    MIXING:  cpu time    0.01: real time    0.01
    --------------------------------------------
      LOOP:  cpu time    5.01: real time    6.89

 eigenvalue-minimisations  :   832
 total energy-change (2. order) :-0.5271916E+01  (-0.1855679E+00)
 number of electron     318.9999960 magnetization       7.4275706
 augmentation part      152.8967662 magnetization       6.0570026

 Broyden mixing:
  rms(total) = 0.20832E+00    rms(broyden)= 0.20819E+00
  rms(prec ) = 0.22112E+00
  weight for this iteration     100.00

 eigenvalues of (default mixing * dielectric matrix)
  average eigenvalue GAMMA=   1.2454
  4.2957  2.1185  1.0345  0.9258  0.7502  0.7502  0.6290  0.4452  0.2596

 Free energy of the ion-electron system (eV)
  ---------------------------------------------------
  alpha Z        PSCENC =        64.24242424
  Ewald energy   TEWEN  =     62191.92679010
  -Hartree energ DENC   =    -91077.70264212
  -exchange      EXHF   =         0.00000000
  -V(xc)+E(xc)   XCENC  =      -319.38085267
  PAW double counting   =     31713.02877910   -30434.16795812
  entropy T*S    EENTRO =         0.00000000
  eigenvalues    EBANDS =     -2263.39587570
  atomic energy  EATOM  =     30078.76027250
  ---------------------------------------------------
  free energy    TOTEN  =       -46.68906266 eV

  energy without entropy =      -46.68906266  energy(sigma->0) =      -46.68906266


--------------------------------------------------------------------------------------------------------




----------------------------------------- Iteration    1(  15)  ---------------------------------------


    POTLOK:  cpu time    0.37: real time    0.37
    SETDIJ:  cpu time    0.01: real time    0.01
     EDDAV:  cpu time    4.96: real time    4.96
       DOS:  cpu time    0.00: real time    0.00
    CHARGE:  cpu time    0.18: real time    0.18
    MIXING:  cpu time    0.01: real time    0.01
    --------------------------------------------
      LOOP:  cpu time    5.53: real time    5.56

 eigenvalue-minimisations  :   960
 total energy-change (2. order) :-0.6597684E+00  (-0.9570788E-02)
 number of electron     318.9999960 magnetization       5.6198307
 augmentation part      152.8834129 magnetization       4.3057661

 Broyden mixing:
  rms(total) = 0.17702E+00    rms(broyden)= 0.17701E+00
  rms(prec ) = 0.18874E+00
  weight for this iteration     100.00

 eigenvalues of (default mixing * dielectric matrix)
  average eigenvalue GAMMA=   1.3406
  5.1460  2.1773  0.9373  0.9373  1.0515  0.9211  0.6297  0.5972  0.5972  0.4116

 Free energy of the ion-electron system (eV)
  ---------------------------------------------------
  alpha Z        PSCENC =        64.24242424
  Ewald energy   TEWEN  =     62191.92679010
  -Hartree energ DENC   =    -91076.81064660
  -exchange      EXHF   =         0.00000000
  -V(xc)+E(xc)   XCENC  =      -319.89749719
  PAW double counting   =     31708.58986318   -30429.73129227
  entropy T*S    EENTRO =         0.00000000
  eigenvalues    EBANDS =     -2264.42874500
  atomic energy  EATOM  =     30078.76027250
  ---------------------------------------------------
  free energy    TOTEN  =       -47.34883102 eV

  energy without entropy =      -47.34883102  energy(sigma->0) =      -47.34883102


--------------------------------------------------------------------------------------------------------




----------------------------------------- Iteration    1(  16)  ---------------------------------------


    POTLOK:  cpu time    0.36: real time    0.37
    SETDIJ:  cpu time    0.01: real time    0.01
     EDDAV:  cpu time    4.54: real time    4.54
       DOS:  cpu time    0.00: real time    0.00
    CHARGE:  cpu time    0.18: real time    0.18
    MIXING:  cpu time    0.01: real time    0.01
    --------------------------------------------
      LOOP:  cpu time    5.11: real time    5.12

 eigenvalue-minimisations  :   856
 total energy-change (2. order) :-0.2663122E+01  (-0.6351859E-01)
 number of electron     318.9999960 magnetization       3.8202849
 augmentation part      152.8937589 magnetization       2.6286691

 Broyden mixing:
  rms(total) = 0.11902E+00    rms(broyden)= 0.11902E+00
  rms(prec ) = 0.12622E+00
  weight for this iteration     100.00

 eigenvalues of (default mixing * dielectric matrix)
  average eigenvalue GAMMA=   1.4617
  6.3757  2.1041  1.3716  1.1590  1.1590  0.9764  0.6579  0.6579  0.6484  0.5564
  0.4122

 Free energy of the ion-electron system (eV)
  ---------------------------------------------------
  alpha Z        PSCENC =        64.24242424
  Ewald energy   TEWEN  =     62191.92679010
  -Hartree energ DENC   =    -91067.35000143
  -exchange      EXHF   =         0.00000000
  -V(xc)+E(xc)   XCENC  =      -322.16321378
  PAW double counting   =     31667.89642195   -30388.55049214
  entropy T*S    EENTRO =        -0.00000000
  eigenvalues    EBANDS =     -2274.77415435
  atomic energy  EATOM  =     30078.76027250
  ---------------------------------------------------
  free energy    TOTEN  =       -50.01195291 eV

  energy without entropy =      -50.01195291  energy(sigma->0) =      -50.01195291


--------------------------------------------------------------------------------------------------------




----------------------------------------- Iteration    1(  17)  ---------------------------------------


    POTLOK:  cpu time    0.37: real time    0.37
    SETDIJ:  cpu time    0.01: real time    0.01
     EDDAV:  cpu time    4.54: real time    4.55
       DOS:  cpu time    0.00: real time    0.00
    CHARGE:  cpu time    0.18: real time    0.18
    MIXING:  cpu time    0.01: real time    0.01
    --------------------------------------------
      LOOP:  cpu time    5.12: real time    5.15

 eigenvalue-minimisations  :   856
 total energy-change (2. order) :-0.2653808E+01  (-0.7768924E-01)
 number of electron     318.9999960 magnetization       2.6922929
 augmentation part      152.8753739 magnetization       1.5943516

 Broyden mixing:
  rms(total) = 0.65899E-01    rms(broyden)= 0.65885E-01
  rms(prec ) = 0.71263E-01
  weight for this iteration     100.00

 eigenvalues of (default mixing * dielectric matrix)
  average eigenvalue GAMMA=   1.5800
  7.7475  2.3482  1.6516  1.6516  0.9236  0.9236  0.8316  0.6404  0.6404  0.6409
  0.5478  0.4135

 Free energy of the ion-electron system (eV)
  ---------------------------------------------------
  alpha Z        PSCENC =        64.24242424
  Ewald energy   TEWEN  =     62191.92679010
  -Hartree energ DENC   =    -91051.21276342
  -exchange      EXHF   =         0.00000000
  -V(xc)+E(xc)   XCENC  =      -324.53578230
  PAW double counting   =     31636.88608350   -30356.97608731
  entropy T*S    EENTRO =         0.00000000
  eigenvalues    EBANDS =     -2291.75669797
  atomic energy  EATOM  =     30078.76027250
  ---------------------------------------------------
  free energy    TOTEN  =       -52.66576065 eV

  energy without entropy =      -52.66576065  energy(sigma->0) =      -52.66576065


--------------------------------------------------------------------------------------------------------




----------------------------------------- Iteration    1(  18)  ---------------------------------------


    POTLOK:  cpu time    0.37: real time    0.37
    SETDIJ:  cpu time    0.01: real time    0.01
     EDDAV:  cpu time    4.58: real time    4.58
       DOS:  cpu time    0.00: real time    0.00
    CHARGE:  cpu time    0.18: real time    0.18
    MIXING:  cpu time    0.02: real time    0.01
    --------------------------------------------
      LOOP:  cpu time    5.16: real time    5.18

 eigenvalue-minimisations  :   864
 total energy-change (2. order) :-0.1138128E+01  (-0.1893467E-01)
 number of electron     318.9999960 magnetization       1.8030925
 augmentation part      152.8950332 magnetization       0.7624099

 Broyden mixing:
  rms(total) = 0.48636E-01    rms(broyden)= 0.48622E-01
  rms(prec ) = 0.53856E-01
  weight for this iteration     100.00

 eigenvalues of (default mixing * dielectric matrix)
  average eigenvalue GAMMA=   1.6338
  8.4467  2.5657  2.2211  1.0998  1.0998  1.1719  0.8845  0.6691  0.6691  0.7119
  0.7119  0.4135  0.5746

 Free energy of the ion-electron system (eV)
  ---------------------------------------------------
  alpha Z        PSCENC =        64.24242424
  Ewald energy   TEWEN  =     62191.92679010
  -Hartree energ DENC   =    -91035.59791621
  -exchange      EXHF   =         0.00000000
  -V(xc)+E(xc)   XCENC  =      -325.71352105
  PAW double counting   =     31613.50185453   -30333.06609892
  entropy T*S    EENTRO =         0.00000000
  eigenvalues    EBANDS =     -2307.85769341
  atomic energy  EATOM  =     30078.76027250
  ---------------------------------------------------
  free energy    TOTEN  =       -53.80388821 eV

  energy without entropy =      -53.80388821  energy(sigma->0) =      -53.80388821


--------------------------------------------------------------------------------------------------------




----------------------------------------- Iteration    1(  19)  ---------------------------------------


    POTLOK:  cpu time    0.37: real time    0.36
    SETDIJ:  cpu time    0.01: real time    0.01
     EDDAV:  cpu time    4.52: real time    4.52
       DOS:  cpu time    0.00: real time    0.00
    CHARGE:  cpu time    0.18: real time    0.18
    MIXING:  cpu time    0.02: real time    0.02
    --------------------------------------------
      LOOP:  cpu time    5.09: real time    5.13

 eigenvalue-minimisations  :   848
 total energy-change (2. order) :-0.1434396E+01  (-0.1320888E-01)
 number of electron     318.9999960 magnetization       1.4937140
 augmentation part      152.9041461 magnetization       0.4712817

 Broyden mixing:
  rms(total) = 0.31924E-01    rms(broyden)= 0.31907E-01
  rms(prec ) = 0.36258E-01
  weight for this iteration     100.00

 eigenvalues of (default mixing * dielectric matrix)
  average eigenvalue GAMMA=   1.7011
  8.9472  3.2760  2.1626  1.4435  1.4435  0.9286  0.9286  0.9460  0.8440  0.6428
  0.6428  0.6376  0.5586  0.4130

 Free energy of the ion-electron system (eV)
  ---------------------------------------------------
  alpha Z        PSCENC =        64.24242424
  Ewald energy   TEWEN  =     62191.92679010
  -Hartree energ DENC   =    -91017.09982539
  -exchange      EXHF   =         0.00000000
  -V(xc)+E(xc)   XCENC  =      -327.26498800
  PAW double counting   =     31610.67765308   -30329.98980248
  entropy T*S    EENTRO =         0.00000000
  eigenvalues    EBANDS =     -2326.49080816
  atomic energy  EATOM  =     30078.76027250
  ---------------------------------------------------
  free energy    TOTEN  =       -55.23828411 eV

  energy without entropy =      -55.23828411  energy(sigma->0) =      -55.23828411


--------------------------------------------------------------------------------------------------------




----------------------------------------- Iteration    1(  20)  ---------------------------------------


    POTLOK:  cpu time    0.37: real time    0.37
    SETDIJ:  cpu time    0.01: real time    0.01
     EDDAV:  cpu time    4.58: real time    4.59
       DOS:  cpu time    0.00: real time    0.00
    CHARGE:  cpu time    0.18: real time    0.18
    MIXING:  cpu time    0.02: real time    0.02
    --------------------------------------------
      LOOP:  cpu time    5.16: real time    5.19

 eigenvalue-minimisations  :   864
 total energy-change (2. order) :-0.6870756E+00  (-0.3246662E-02)
 number of electron     318.9999960 magnetization       1.3793196
 augmentation part      152.9122428 magnetization       0.3563307

 Broyden mixing:
  rms(total) = 0.18511E-01    rms(broyden)= 0.18501E-01
  rms(prec ) = 0.22227E-01
  weight for this iteration     100.00

 eigenvalues of (default mixing * dielectric matrix)
  average eigenvalue GAMMA=   1.7225
  9.2260  3.7889  1.9557  1.9557  1.3075  1.3075  0.9605  0.9605  0.6442  0.6442
  0.8086  0.6505  0.6505  0.5643  0.4132

 Free energy of the ion-electron system (eV)
  ---------------------------------------------------
  alpha Z        PSCENC =        64.24242424
  Ewald energy   TEWEN  =     62191.92679010
  -Hartree energ DENC   =    -91004.21510279
  -exchange      EXHF   =         0.00000000
  -V(xc)+E(xc)   XCENC  =      -328.04157608
  PAW double counting   =     31613.75703144   -30332.97084319
  entropy T*S    EENTRO =         0.00000000
  eigenvalues    EBANDS =     -2339.38435590
  atomic energy  EATOM  =     30078.76027250
  ---------------------------------------------------
  free energy    TOTEN  =       -55.92535967 eV

  energy without entropy =      -55.92535967  energy(sigma->0) =      -55.92535967


--------------------------------------------------------------------------------------------------------




----------------------------------------- Iteration    1(  21)  ---------------------------------------


    POTLOK:  cpu time    0.37: real time    0.37
    SETDIJ:  cpu time    0.01: real time    0.01
     EDDAV:  cpu time    4.74: real time    4.74
       DOS:  cpu time    0.00: real time    0.00
    CHARGE:  cpu time    0.18: real time    0.18
    MIXING:  cpu time    0.02: real time    0.02
    --------------------------------------------
      LOOP:  cpu time    5.31: real time    5.90

 eigenvalue-minimisations  :   904
 total energy-change (2. order) :-0.2147845E+00  (-0.6691827E-03)
 number of electron     318.9999960 magnetization       1.2765267
 augmentation part      152.9174902 magnetization       0.2522839

 Broyden mixing:
  rms(total) = 0.14134E-01    rms(broyden)= 0.14132E-01
  rms(prec ) = 0.16928E-01
  weight for this iteration     100.00

 eigenvalues of (default mixing * dielectric matrix)
  average eigenvalue GAMMA=   1.7357
  9.3943  4.1160  2.3480  1.7092  1.7092  1.0385  1.0385  1.0135  1.0135  0.6543
  0.6543  0.4131  0.7364  0.7364  0.5603  0.6355

 Free energy of the ion-electron system (eV)
  ---------------------------------------------------
  alpha Z        PSCENC =        64.24242424
  Ewald energy   TEWEN  =     62191.92679010
  -Hartree energ DENC   =    -90997.47689600
  -exchange      EXHF   =         0.00000000
  -V(xc)+E(xc)   XCENC  =      -328.29771132
  PAW double counting   =     31617.89835874   -30337.12829290
  entropy T*S    EENTRO =         0.00000000
  eigenvalues    EBANDS =     -2346.06508958
  atomic energy  EATOM  =     30078.76027250
  ---------------------------------------------------
  free energy    TOTEN  =       -56.14014421 eV

  energy without entropy =      -56.14014421  energy(sigma->0) =      -56.14014421


--------------------------------------------------------------------------------------------------------




----------------------------------------- Iteration    1(  22)  ---------------------------------------


    POTLOK:  cpu time    0.37: real time    0.37
    SETDIJ:  cpu time    0.01: real time    0.01
     EDDAV:  cpu time    4.64: real time    4.65
       DOS:  cpu time    0.00: real time    0.00
    CHARGE:  cpu time    0.18: real time    0.18
    MIXING:  cpu time    0.02: real time    0.02
    --------------------------------------------
      LOOP:  cpu time    5.22: real time    5.25

 eigenvalue-minimisations  :   880
 total energy-change (2. order) :-0.1515142E+00  (-0.4687928E-03)
 number of electron     318.9999960 magnetization       1.1028393
 augmentation part      152.9179370 magnetization       0.0762244

 Broyden mixing:
  rms(total) = 0.75260E-02    rms(broyden)= 0.75241E-02
  rms(prec ) = 0.95096E-02
  weight for this iteration     100.00

 eigenvalues of (default mixing * dielectric matrix)
  average eigenvalue GAMMA=   1.7912
  9.7721  4.6852  2.2709  2.0539  2.0539  1.1695  1.1695  0.9972  0.9972  0.9345
  0.6501  0.6501  0.4131  0.7527  0.5622  0.6869  0.6310

 Free energy of the ion-electron system (eV)
  ---------------------------------------------------
  alpha Z        PSCENC =        64.24242424
  Ewald energy   TEWEN  =     62191.92679010
  -Hartree energ DENC   =    -90990.99848301
  -exchange      EXHF   =         0.00000000
  -V(xc)+E(xc)   XCENC  =      -328.48455528
  PAW double counting   =     31623.70291924   -30342.98427838
  entropy T*S    EENTRO =         0.00000000
  eigenvalues    EBANDS =     -2352.45674786
  atomic energy  EATOM  =     30078.76027250
  ---------------------------------------------------
  free energy    TOTEN  =       -56.29165844 eV

  energy without entropy =      -56.29165844  energy(sigma->0) =      -56.29165844


--------------------------------------------------------------------------------------------------------




----------------------------------------- Iteration    1(  23)  ---------------------------------------


    POTLOK:  cpu time    0.37: real time    0.37
    SETDIJ:  cpu time    0.01: real time    0.01
     EDDAV:  cpu time    4.61: real time    4.61
       DOS:  cpu time    0.00: real time    0.00
    CHARGE:  cpu time    0.18: real time    0.18
    MIXING:  cpu time    0.02: real time    0.02
    --------------------------------------------
      LOOP:  cpu time    5.18: real time    5.22

 eigenvalue-minimisations  :   872
 total energy-change (2. order) :-0.6368311E-01  (-0.2555218E-03)
 number of electron     318.9999960 magnetization       1.0760201
 augmentation part      152.9232509 magnetization       0.0542347

 Broyden mixing:
  rms(total) = 0.44541E-02    rms(broyden)= 0.44516E-02
  rms(prec ) = 0.59530E-02
  weight for this iteration     100.00

 eigenvalues of (default mixing * dielectric matrix)
  average eigenvalue GAMMA=   1.7805
  9.7509  5.0523  2.5108  2.0974  2.0974  1.2892  1.2892  0.9812  0.9812  0.6519
  0.6519  0.4131  0.8914  0.7703  0.7703  0.5621  0.6562  0.6323

 Free energy of the ion-electron system (eV)
  ---------------------------------------------------
  alpha Z        PSCENC =        64.24242424
  Ewald energy   TEWEN  =     62191.92679010
  -Hartree energ DENC   =    -90985.82147977
  -exchange      EXHF   =         0.00000000
  -V(xc)+E(xc)   XCENC  =      -328.58344082
  PAW double counting   =     31623.07285387   -30342.33608241
  entropy T*S    EENTRO =         0.00000000
  eigenvalues    EBANDS =     -2357.61667926
  atomic energy  EATOM  =     30078.76027250
  ---------------------------------------------------
  free energy    TOTEN  =       -56.35534155 eV

  energy without entropy =      -56.35534155  energy(sigma->0) =      -56.35534155


--------------------------------------------------------------------------------------------------------




----------------------------------------- Iteration    1(  24)  ---------------------------------------


    POTLOK:  cpu time    0.36: real time    0.37
    SETDIJ:  cpu time    0.01: real time    0.01
     EDDAV:  cpu time    3.64: real time    3.64
       DOS:  cpu time    0.00: real time    0.00
    CHARGE:  cpu time    0.18: real time    0.18
    MIXING:  cpu time    0.02: real time    0.02
    --------------------------------------------
      LOOP:  cpu time    4.22: real time    4.63

 eigenvalue-minimisations  :   624
 total energy-change (2. order) :-0.1759297E-01  (-0.4140669E-04)
 number of electron     318.9999960 magnetization       1.0304067
 augmentation part      152.9205328 magnetization       0.0085992

 Broyden mixing:
  rms(total) = 0.29035E-02    rms(broyden)= 0.29031E-02
  rms(prec ) = 0.41681E-02
  weight for this iteration     100.00

 eigenvalues of (default mixing * dielectric matrix)
  average eigenvalue GAMMA=   1.7887
  9.9024  5.2121  2.4861  2.3260  1.8186  1.8186  1.2099  1.2099  0.9927  0.9927
  0.9711  0.6511  0.6511  0.4131  0.7995  0.5621  0.6702  0.6702  0.6284

 Free energy of the ion-electron system (eV)
  ---------------------------------------------------
  alpha Z        PSCENC =        64.24242424
  Ewald energy   TEWEN  =     62191.92679010
  -Hartree energ DENC   =    -90984.33498234
  -exchange      EXHF   =         0.00000000
  -V(xc)+E(xc)   XCENC  =      -328.60136698
  PAW double counting   =     31626.22360260   -30345.54373546
  entropy T*S    EENTRO =         0.00000000
  eigenvalues    EBANDS =     -2359.04593918
  atomic energy  EATOM  =     30078.76027250
  ---------------------------------------------------
  free energy    TOTEN  =       -56.37293452 eV

  energy without entropy =      -56.37293452  energy(sigma->0) =      -56.37293452


--------------------------------------------------------------------------------------------------------




----------------------------------------- Iteration    1(  25)  ---------------------------------------


    POTLOK:  cpu time    0.37: real time    0.37
    SETDIJ:  cpu time    0.01: real time    0.01
     EDDAV:  cpu time    3.64: real time    3.64
       DOS:  cpu time    0.00: real time    0.00
    CHARGE:  cpu time    0.18: real time    0.18
    MIXING:  cpu time    0.02: real time    0.02
    --------------------------------------------
      LOOP:  cpu time    4.21: real time    4.24

 eigenvalue-minimisations  :   624
 total energy-change (2. order) :-0.4739172E-02  (-0.4860397E-04)
 number of electron     318.9999960 magnetization       1.0248867
 augmentation part      152.9208549 magnetization       0.0037276

 Broyden mixing:
  rms(total) = 0.19974E-02    rms(broyden)= 0.19970E-02
  rms(prec ) = 0.28927E-02
  weight for this iteration     100.00

 eigenvalues of (default mixing * dielectric matrix)
  average eigenvalue GAMMA=   1.8112
  9.8958  5.4666  3.1123  2.4022  2.0090  2.0090  1.2880  1.2880  0.9777  0.9777
  0.9983  0.6516  0.6516  0.4131  0.7537  0.7537  0.7440  0.5631  0.6215  0.6459

 Free energy of the ion-electron system (eV)
  ---------------------------------------------------
  alpha Z        PSCENC =        64.24242424
  Ewald energy   TEWEN  =     62191.92679010
  -Hartree energ DENC   =    -90982.07314850
  -exchange      EXHF   =         0.00000000
  -V(xc)+E(xc)   XCENC  =      -328.61496992
  PAW double counting   =     31627.14867446   -30346.47132352
  entropy T*S    EENTRO =         0.00000000
  eigenvalues    EBANDS =     -2361.29639306
  atomic energy  EATOM  =     30078.76027250
  ---------------------------------------------------
  free energy    TOTEN  =       -56.37767369 eV

  energy without entropy =      -56.37767369  energy(sigma->0) =      -56.37767369


--------------------------------------------------------------------------------------------------------




----------------------------------------- Iteration    1(  26)  ---------------------------------------


    POTLOK:  cpu time    0.37: real time    0.37
    SETDIJ:  cpu time    0.01: real time    0.01
     EDDAV:  cpu time    3.68: real time    3.68
       DOS:  cpu time    0.00: real time    0.00
    CHARGE:  cpu time    0.18: real time    0.18
    MIXING:  cpu time    0.02: real time    0.02
    --------------------------------------------
      LOOP:  cpu time    4.26: real time    4.42

 eigenvalue-minimisations  :   632
 total energy-change (2. order) :-0.2989057E-02  (-0.2374709E-04)
 number of electron     318.9999960 magnetization       1.0144655
 augmentation part      152.9208077 magnetization      -0.0074611

 Broyden mixing:
  rms(total) = 0.14060E-02    rms(broyden)= 0.14058E-02
  rms(prec ) = 0.19523E-02
  weight for this iteration     100.00

 eigenvalues of (default mixing * dielectric matrix)
  average eigenvalue GAMMA=   1.8052
  9.9014  5.6559  3.3701  2.3951  2.0952  2.0952  1.3723  1.3723  0.9876  0.9876
  0.9617  0.9617  0.6515  0.6515  0.4131  0.7717  0.7717  0.6949  0.5629  0.6262
  0.6102

 Free energy of the ion-electron system (eV)
  ---------------------------------------------------
  alpha Z        PSCENC =        64.24242424
  Ewald energy   TEWEN  =     62191.92679010
  -Hartree energ DENC   =    -90980.42462248
  -exchange      EXHF   =         0.00000000
  -V(xc)+E(xc)   XCENC  =      -328.62251781
  PAW double counting   =     31628.04008280   -30347.36530504
  entropy T*S    EENTRO =         0.00000000
  eigenvalues    EBANDS =     -2362.93778705
  atomic energy  EATOM  =     30078.76027250
  ---------------------------------------------------
  free energy    TOTEN  =       -56.38066275 eV

  energy without entropy =      -56.38066275  energy(sigma->0) =      -56.38066275


--------------------------------------------------------------------------------------------------------




----------------------------------------- Iteration    1(  27)  ---------------------------------------


    POTLOK:  cpu time    0.37: real time    0.37
    SETDIJ:  cpu time    0.01: real time    0.01
     EDDAV:  cpu time    3.51: real time    3.51
       DOS:  cpu time    0.00: real time    0.00
    CHARGE:  cpu time    0.18: real time    0.18
    MIXING:  cpu time    0.02: real time    0.02
    --------------------------------------------
      LOOP:  cpu time    4.10: real time    4.10

 eigenvalue-minimisations  :   592
 total energy-change (2. order) :-0.2404233E-02  (-0.8156973E-05)
 number of electron     318.9999960 magnetization       1.0038172
 augmentation part      152.9211213 magnetization      -0.0178210

 Broyden mixing:
  rms(total) = 0.10100E-02    rms(broyden)= 0.10099E-02
  rms(prec ) = 0.13679E-02
  weight for this iteration     100.00

 eigenvalues of (default mixing * dielectric matrix)
  average eigenvalue GAMMA=   1.7896
  9.9110  5.7777  3.5789  2.3733  1.8972  1.8972  1.5553  1.3113  1.3113  1.2235
  0.9865  0.9865  0.6514  0.6514  0.4131  0.7925  0.7925  0.8005  0.5624  0.6347
  0.6347  0.6289

 Free energy of the ion-electron system (eV)
  ---------------------------------------------------
  alpha Z        PSCENC =        64.24242424
  Ewald energy   TEWEN  =     62191.92679010
  -Hartree energ DENC   =    -90979.46738635
  -exchange      EXHF   =         0.00000000
  -V(xc)+E(xc)   XCENC  =      -328.62852442
  PAW double counting   =     31627.81391903   -30347.13533701
  entropy T*S    EENTRO =         0.00000000
  eigenvalues    EBANDS =     -2363.89522508
  atomic energy  EATOM  =     30078.76027250
  ---------------------------------------------------
  free energy    TOTEN  =       -56.38306698 eV

  energy without entropy =      -56.38306698  energy(sigma->0) =      -56.38306698


--------------------------------------------------------------------------------------------------------




----------------------------------------- Iteration    1(  28)  ---------------------------------------


    POTLOK:  cpu time    0.36: real time    0.37
    SETDIJ:  cpu time    0.01: real time    0.01
     EDDAV:  cpu time    3.48: real time    3.48
       DOS:  cpu time    0.00: real time    0.00
    CHARGE:  cpu time    0.18: real time    0.18
    MIXING:  cpu time    0.02: real time    0.02
    --------------------------------------------
      LOOP:  cpu time    4.06: real time    4.09

 eigenvalue-minimisations  :   584
 total energy-change (2. order) :-0.2031255E-02  (-0.4531523E-05)
 number of electron     318.9999960 magnetization       1.0053140
 augmentation part      152.9217195 magnetization      -0.0157286

 Broyden mixing:
  rms(total) = 0.73850E-03    rms(broyden)= 0.73838E-03
  rms(prec ) = 0.94552E-03
  weight for this iteration     100.00

 eigenvalues of (default mixing * dielectric matrix)
  average eigenvalue GAMMA=   1.8003
  9.8756  6.0021  3.7682  2.2845  2.2845  2.0378  2.0378  1.3382  1.3382  0.9863
  0.9863  0.4131  0.6514  0.6514  0.9725  0.8578  0.8578  0.9093  0.5628  0.6874
  0.6457  0.6295  0.6295

 Free energy of the ion-electron system (eV)
  ---------------------------------------------------
  alpha Z        PSCENC =        64.24242424
  Ewald energy   TEWEN  =     62191.92679010
  -Hartree energ DENC   =    -90978.65294398
  -exchange      EXHF   =         0.00000000
  -V(xc)+E(xc)   XCENC  =      -328.63489263
  PAW double counting   =     31627.32965846   -30346.64776075
  entropy T*S    EENTRO =         0.00000000
  eigenvalues    EBANDS =     -2364.70864617
  atomic energy  EATOM  =     30078.76027250
  ---------------------------------------------------
  free energy    TOTEN  =       -56.38509823 eV

  energy without entropy =      -56.38509823  energy(sigma->0) =      -56.38509823


--------------------------------------------------------------------------------------------------------




----------------------------------------- Iteration    1(  29)  ---------------------------------------


    POTLOK:  cpu time    0.37: real time    0.37
    SETDIJ:  cpu time    0.01: real time    0.01
     EDDAV:  cpu time    3.55: real time    3.55
       DOS:  cpu time    0.00: real time    0.00
    CHARGE:  cpu time    0.18: real time    0.18
    MIXING:  cpu time    0.03: real time    0.03
    --------------------------------------------
      LOOP:  cpu time    4.13: real time    4.28

 eigenvalue-minimisations  :   600
 total energy-change (2. order) :-0.1544392E-02  (-0.2287478E-05)
 number of electron     318.9999960 magnetization       1.0062677
 augmentation part      152.9218432 magnetization      -0.0149914

 Broyden mixing:
  rms(total) = 0.49566E-03    rms(broyden)= 0.49556E-03
  rms(prec ) = 0.62477E-03
  weight for this iteration     100.00

 eigenvalues of (default mixing * dielectric matrix)
  average eigenvalue GAMMA=   1.8407
  9.7815  6.5576  3.9458  2.7630  2.7630  2.0741  2.0741  1.3363  1.3363  1.1941
  0.9900  0.9900  0.9521  0.9521  0.6513  0.6513  0.8628  0.4131  0.7157  0.7157
  0.5626  0.6499  0.6215  0.6215

 Free energy of the ion-electron system (eV)
  ---------------------------------------------------
  alpha Z        PSCENC =        64.24242424
  Ewald energy   TEWEN  =     62191.92679010
  -Hartree energ DENC   =    -90978.15724032
  -exchange      EXHF   =         0.00000000
  -V(xc)+E(xc)   XCENC  =      -328.63843615
  PAW double counting   =     31627.33268883   -30346.65259851
  entropy T*S    EENTRO =         0.00000000
  eigenvalues    EBANDS =     -2365.20054333
  atomic energy  EATOM  =     30078.76027250
  ---------------------------------------------------
  free energy    TOTEN  =       -56.38664262 eV

  energy without entropy =      -56.38664262  energy(sigma->0) =      -56.38664262


--------------------------------------------------------------------------------------------------------




----------------------------------------- Iteration    1(  30)  ---------------------------------------


    POTLOK:  cpu time    0.37: real time    0.37
    SETDIJ:  cpu time    0.01: real time    0.01
     EDDAV:  cpu time    3.48: real time    3.49
       DOS:  cpu time    0.00: real time    0.00
    CHARGE:  cpu time    0.18: real time    0.18
    MIXING:  cpu time    0.03: real time    0.03
    --------------------------------------------
      LOOP:  cpu time    4.07: real time    4.09

 eigenvalue-minimisations  :   584
 total energy-change (2. order) :-0.8050443E-03  (-0.1266193E-05)
 number of electron     318.9999960 magnetization       1.0022393
 augmentation part      152.9218952 magnetization      -0.0191449

 Broyden mixing:
  rms(total) = 0.45575E-03    rms(broyden)= 0.45567E-03
  rms(prec ) = 0.54710E-03
  weight for this iteration     100.00

 eigenvalues of (default mixing * dielectric matrix)
  average eigenvalue GAMMA=   1.8815
  9.7580  7.2302  4.7731  3.0230  2.5719  2.0765  2.0765  1.3577  1.3577  1.4008
  0.9891  0.9891  1.0920  1.0920  0.6514  0.6514  0.4131  0.8312  0.8312  0.7435
  0.5626  0.6647  0.6647  0.6189  0.6164

 Free energy of the ion-electron system (eV)
  ---------------------------------------------------
  alpha Z        PSCENC =        64.24242424
  Ewald energy   TEWEN  =     62191.92679010
  -Hartree energ DENC   =    -90977.81938365
  -exchange      EXHF   =         0.00000000
  -V(xc)+E(xc)   XCENC  =      -328.64038137
  PAW double counting   =     31627.36593828   -30346.68546132
  entropy T*S    EENTRO =        -0.00000000
  eigenvalues    EBANDS =     -2365.53764646
  atomic energy  EATOM  =     30078.76027250
  ---------------------------------------------------
  free energy    TOTEN  =       -56.38744767 eV

  energy without entropy =      -56.38744767  energy(sigma->0) =      -56.38744767


--------------------------------------------------------------------------------------------------------




----------------------------------------- Iteration    1(  31)  ---------------------------------------


    POTLOK:  cpu time    0.37: real time    0.37
    SETDIJ:  cpu time    0.01: real time    0.01
     EDDAV:  cpu time    3.48: real time    3.48
       DOS:  cpu time    0.00: real time    0.00
    CHARGE:  cpu time    0.18: real time    0.18
    MIXING:  cpu time    0.03: real time    0.03
    --------------------------------------------
      LOOP:  cpu time    4.07: real time    4.09

 eigenvalue-minimisations  :   584
 total energy-change (2. order) :-0.1949782E-03  (-0.4600316E-06)
 number of electron     318.9999960 magnetization       1.0010543
 augmentation part      152.9218813 magnetization      -0.0201605

 Broyden mixing:
  rms(total) = 0.26023E-03    rms(broyden)= 0.26019E-03
  rms(prec ) = 0.32777E-03
  weight for this iteration     100.00

 eigenvalues of (default mixing * dielectric matrix)
  average eigenvalue GAMMA=   1.8992
  9.7290  7.7437  5.1740  2.7540  2.7540  2.1136  2.1136  2.1287  1.3460  1.3460
  0.9878  0.9878  1.1152  0.9212  0.9212  0.9006  0.6514  0.6514  0.4131  0.7993
  0.6929  0.6929  0.5627  0.6409  0.6195  0.6195

 Free energy of the ion-electron system (eV)
  ---------------------------------------------------
  alpha Z        PSCENC =        64.24242424
  Ewald energy   TEWEN  =     62191.92679010
  -Hartree energ DENC   =    -90977.68582062
  -exchange      EXHF   =         0.00000000
  -V(xc)+E(xc)   XCENC  =      -328.64098030
  PAW double counting   =     31627.42873357   -30346.74855664
[...]
    184      -0.3293      0.00000
    185      -0.2298      0.00000
    186      -0.1460      0.00000
    187       0.0362      0.00000
    188       0.1775      0.00000
    189       0.2110      0.00000
    190       0.3311      0.00000
    191       0.4456      0.00000
    192       0.5136      0.00000
    193       0.5756      0.00000
    194       0.6428      0.00000
    195       0.6548      0.00000
    196       0.7061      0.00000
    197       0.7294      0.00000
    198       0.7705      0.00000
    199       0.8150      0.00000
    200       0.8863      0.00000
    201       0.9008      0.00000
    202       0.9270      0.00000
    203       0.9421      0.00000
    204       0.9513      0.00000
    205       0.9699      0.00000
    206       0.9896      0.00000
    207       1.0157      0.00000
    208       1.0260      0.00000


--------------------------------------------------------------------------------------------------------


 soft charge-density along one line, spin component           1
         0         1         2         3         4         5         6         7         8         9
 total charge-density along one line
 
 soft charge-density along one line, spin component           2
         0         1         2         3         4         5         6         7         8         9
 total charge-density along one line
 
 pseudopotential strength for first ion, spin component:           1
-10.360  -0.002  -0.006   0.004  -0.002 -10.333  -0.002  -0.005
 -0.002 -10.382   0.001  -0.000  -0.009  -0.002 -10.353   0.001
 -0.006   0.001 -10.371  -0.006  -0.001  -0.005   0.001 -10.343
  0.004  -0.000  -0.006 -10.362  -0.006   0.004  -0.000  -0.006
 -0.002  -0.009  -0.001  -0.006 -10.365  -0.002  -0.009  -0.001
-10.333  -0.002  -0.005   0.004  -0.002 -10.281  -0.002  -0.005
 -0.002 -10.353   0.001  -0.000  -0.009  -0.002 -10.301   0.001
 -0.005   0.001 -10.343  -0.006  -0.001  -0.005   0.001 -10.290
  0.004  -0.000  -0.006 -10.334  -0.005   0.004  -0.000  -0.006
 -0.002  -0.009  -0.001  -0.005 -10.337  -0.001  -0.008  -0.001
 -0.000  -0.002   0.005   0.003  -0.004  -0.000  -0.002   0.005
 -0.001  -0.003   0.008   0.004  -0.006  -0.001  -0.003   0.008
 -0.022  -0.002  -0.002  -0.000  -0.004  -0.021  -0.002  -0.002
 -0.000   0.004  -0.001  -0.022   0.000  -0.000   0.004  -0.001
  0.004  -0.000   0.013  -0.001  -0.023   0.003  -0.000   0.013
 -0.027  -0.003  -0.003  -0.000  -0.005  -0.026  -0.003  -0.002
 -0.000   0.006  -0.002  -0.027   0.000  -0.000   0.005  -0.002
  0.005  -0.000   0.016  -0.002  -0.028   0.005  -0.000   0.015
 pseudopotential strength for first ion, spin component:           2
-10.361  -0.003  -0.006   0.004  -0.001 -10.333  -0.003  -0.005
 -0.003 -10.381   0.002  -0.001  -0.009  -0.003 -10.353   0.002
 -0.006   0.002 -10.372  -0.006  -0.001  -0.005   0.002 -10.343
  0.004  -0.001  -0.006 -10.362  -0.006   0.004  -0.001  -0.006
 -0.001  -0.009  -0.001  -0.006 -10.366  -0.001  -0.009  -0.001
-10.333  -0.003  -0.005   0.004  -0.001 -10.282  -0.002  -0.005
 -0.003 -10.353   0.002  -0.001  -0.009  -0.002 -10.300   0.001
 -0.005   0.002 -10.343  -0.006  -0.001  -0.005   0.001 -10.291
  0.004  -0.001  -0.006 -10.334  -0.005   0.004  -0.001  -0.006
 -0.001  -0.009  -0.001  -0.005 -10.338  -0.001  -0.009  -0.001
 -0.000  -0.002   0.005   0.003  -0.003  -0.000  -0.002   0.005
 -0.000  -0.004   0.008   0.005  -0.006  -0.000  -0.004   0.008
 -0.022  -0.002  -0.002  -0.000  -0.004  -0.021  -0.002  -0.002
 -0.000   0.005  -0.002  -0.022   0.000  -0.000   0.004  -0.002
  0.004  -0.000   0.013  -0.002  -0.023   0.004  -0.000   0.013
 -0.027  -0.003  -0.003  -0.000  -0.006  -0.026  -0.003  -0.003
 -0.000   0.006  -0.003  -0.027   0.000  -0.000   0.005  -0.003
  0.005  -0.000   0.016  -0.002  -0.028   0.005  -0.000   0.016
 total augmentation occupancy for first ion, spin component:           1
  3.007  -0.009   0.057  -0.022   0.045  -0.917   0.016  -0.092   0.017  -0.064   0.053  -0.030  -0.217  -0.002   0.010  -0.001
 -0.009   2.733  -0.030  -0.089  -0.017   0.016  -0.892   0.009   0.047  -0.043   0.099  -0.032   0.028   0.038   0.018  -0.002
  0.057  -0.030   3.071  -0.033  -0.063  -0.092   0.009  -1.097  -0.027   0.078  -0.452   0.051  -0.013   0.040   0.065  -0.000
 -0.022  -0.089  -0.033   2.933  -0.033   0.017   0.047  -0.027  -0.872  -0.001  -0.189   0.024   0.007  -0.191  -0.016  -0.001
  0.045  -0.017  -0.063  -0.033   2.759  -0.064  -0.043   0.077  -0.001  -0.729   0.191  -0.010  -0.056  -0.022  -0.074   0.001
 -0.917   0.016  -0.092   0.017  -0.064   0.811  -0.021   0.124  -0.014   0.080  -0.050   0.024   0.229  -0.001  -0.015  -0.013
  0.016  -0.892   0.009   0.047  -0.043  -0.021   0.991   0.009  -0.012   0.095  -0.092   0.024  -0.034  -0.031  -0.015   0.002
 -0.092   0.009  -1.097  -0.027   0.077   0.124   0.009   1.083   0.077  -0.091   0.413  -0.056   0.019  -0.034  -0.075  -0.001
  0.017   0.047  -0.027  -0.872  -0.001  -0.014  -0.012   0.077   0.787   0.030   0.168  -0.020  -0.007   0.200   0.013   0.000
 -0.064  -0.043   0.078  -0.001  -0.729   0.080   0.095  -0.091   0.030   0.670  -0.177   0.011   0.054   0.024   0.092  -0.003
  0.053   0.099  -0.452  -0.189   0.191  -0.050  -0.092   0.413   0.168  -0.177   1.922  -0.297  -0.029  -0.013   0.186   0.003
 -0.030  -0.032   0.051   0.024  -0.010   0.024   0.024  -0.056  -0.020   0.011  -0.297   0.061   0.008   0.008  -0.044  -0.001
 -0.217   0.028  -0.013   0.007  -0.056   0.229  -0.034   0.019  -0.007   0.054  -0.029   0.008   0.111  -0.002   0.006  -0.006
 -0.002   0.038   0.040  -0.191  -0.022  -0.001  -0.031  -0.034   0.200   0.024  -0.013   0.008  -0.002   0.152   0.011   0.000
  0.010   0.018   0.065  -0.016  -0.074  -0.015  -0.015  -0.075   0.013   0.092   0.186  -0.044   0.006   0.011   0.066   0.000
 -0.001  -0.002  -0.000  -0.001   0.001  -0.013   0.002  -0.001   0.000  -0.003   0.003  -0.001  -0.006   0.000   0.000   0.000
 -0.000  -0.000  -0.003  -0.000   0.002   0.000   0.002   0.002  -0.012  -0.002   0.002  -0.001   0.000  -0.008  -0.001  -0.000
  0.000  -0.001   0.005   0.001  -0.008   0.001   0.001   0.003  -0.001  -0.005  -0.018   0.004   0.000  -0.001  -0.005  -0.000
 total augmentation occupancy for first ion, spin component:           2
 -0.016  -0.010   0.003   0.007   0.003   0.008   0.009  -0.002  -0.005  -0.002   0.010   0.002  -0.004   0.003  -0.003   0.000
 -0.010   0.019   0.007  -0.015  -0.009   0.009  -0.020  -0.004   0.011   0.006  -0.025  -0.006   0.011  -0.009   0.006  -0.000
  0.003   0.007  -0.014  -0.001   0.000  -0.002  -0.004   0.006   0.001  -0.000  -0.008  -0.000   0.002  -0.003   0.002  -0.000
  0.007  -0.015  -0.001  -0.016   0.004  -0.005   0.011   0.001   0.008  -0.003   0.010   0.002  -0.003   0.003  -0.001   0.000
  0.003  -0.009   0.000   0.004  -0.014  -0.003   0.006  -0.000  -0.003   0.006   0.009   0.001  -0.003   0.002  -0.002   0.000
  0.008   0.009  -0.002  -0.005  -0.003  -0.001  -0.007   0.001   0.003   0.002  -0.007  -0.001   0.002  -0.002   0.002  -0.000
  0.009  -0.020  -0.004   0.011   0.006  -0.007   0.022   0.002  -0.007  -0.003   0.019   0.004  -0.008   0.006  -0.004   0.000
 -0.002  -0.004   0.006   0.001  -0.000   0.001   0.002   0.002  -0.001   0.000   0.006  -0.000  -0.002   0.004  -0.001   0.000
 -0.005   0.011   0.001   0.008  -0.003   0.003  -0.007  -0.001  -0.001   0.002  -0.009  -0.001   0.003  -0.003   0.001  -0.000
 -0.002   0.006  -0.000  -0.003   0.006   0.002  -0.003   0.000   0.002   0.001  -0.007  -0.000   0.003  -0.002   0.001  -0.000
  0.010  -0.025  -0.008   0.010   0.009  -0.007   0.019   0.006  -0.009  -0.007   0.036   0.001  -0.012   0.010  -0.006   0.000
  0.002  -0.006  -0.000   0.002   0.001  -0.001   0.004  -0.000  -0.001  -0.000   0.001   0.001  -0.001   0.001  -0.001   0.000
 -0.004   0.011   0.002  -0.003  -0.003   0.002  -0.008  -0.002   0.003   0.003  -0.012  -0.001   0.004  -0.003   0.002  -0.000
  0.003  -0.009  -0.003   0.003   0.002  -0.002   0.006   0.004  -0.003  -0.002   0.010   0.001  -0.003   0.003  -0.002   0.000
 -0.003   0.006   0.002  -0.001  -0.002   0.002  -0.004  -0.001   0.001   0.001  -0.006  -0.001   0.002  -0.002   0.001  -0.000
  0.000  -0.000  -0.000   0.000   0.000  -0.000   0.000   0.000  -0.000  -0.000   0.000   0.000  -0.000   0.000  -0.000   0.000
 -0.000   0.000   0.000  -0.000  -0.000   0.000  -0.000  -0.000   0.000   0.000  -0.000  -0.000   0.000  -0.000   0.000  -0.000
 -0.000  -0.000  -0.000   0.000   0.000  -0.000   0.000   0.000  -0.000  -0.000   0.000   0.000  -0.000   0.000  -0.000   0.000


------------------------ aborting loop because EDIFF is reached ----------------------------------------


    CHARGE:  cpu time    0.18: real time    0.18
    FORLOC:  cpu time    0.02: real time    0.02
    FORNL :  cpu time    2.93: real time    2.93
    STRESS:  cpu time    3.79: real time    3.80
    FORCOR:  cpu time    0.37: real time    0.37
    FORHAR:  cpu time    0.06: real time    0.06
    MIXING:  cpu time    0.01: real time    0.01
    OFIELD:  cpu time    0.00: real time    0.00

  FORCE on cell =-STRESS in cart. coord.  units (eV):
  Direction    XX          YY          ZZ          XY          YZ          ZX
  --------------------------------------------------------------------------------------
  Alpha Z    64.24242    64.24242    64.24242
  Ewald   15198.45213 14618.29748 32859.82701 -3978.49729 -2794.49669 -3275.83720
  Hartree 25112.55070 24652.62259 41741.40907 -3544.40569 -2549.09622 -2961.62377
  E(xc)   -1681.94118 -1682.09998 -1680.23310    -1.05231    -0.50968    -0.62017
  Local  -45031.66766-43997.57572-79316.25113  7512.94086  5342.49636  6231.14607
  n-local  -309.45206  -308.46564  -307.31000     0.58687    -0.72427     0.45173
  augment  2664.47718  2665.70162  2661.40183     3.06261     0.75211     1.78631
  Kinetic  3972.85944  3976.89931  3966.13918     7.42157     1.60448     4.85528
  Fock        0.00000     0.00000     0.00000     0.00000     0.00000     0.00000
  -------------------------------------------------------------------------------------
  Total     -10.47902   -10.37791   -10.77472     0.05660     0.02609     0.15825
  in kB      -1.50780    -1.49325    -1.55034     0.00814     0.00375     0.02277
  external pressure =       -1.52 kB  Pullay stress =        0.00 kB


 VOLUME and BASIS-vectors are now :
 -----------------------------------------------------------------------------
  energy-cutoff  :      249.84
  volume of cell :    11134.95
      direct lattice vectors                 reciprocal lattice vectors
    22.330378539  0.000000000  0.000000000     0.044782044  0.000000000  0.000000000
     0.000000000 22.330378539  0.000000000     0.000000000  0.044782044  0.000000000
     0.000000000  0.000000000 22.330378539     0.000000000  0.000000000  0.044782044

  length of vectors
    22.330378539 22.330378539 22.330378539     0.044782044  0.044782044  0.044782044


 FORCES acting on ions
    electron-ion (+dipol)            ewald-force                    non-local-force                 convergence-correction
 -----------------------------------------------------------------------------------------------
   0.139E+04 0.106E+02 0.336E+01   -.139E+04 -.111E+02 -.322E+01   -.330E+01 0.420E+00 -.194E+00   -.308E-02 0.866E-02 0.413E-01
   -.130E+04 0.500E+03 0.253E+03   0.130E+04 -.497E+03 -.253E+03   0.423E+01 -.243E+01 -.491E+00   -.320E-03 -.146E-01 -.540E-02
   -.231E+03 -.537E+03 0.127E+04   0.230E+03 0.536E+03 -.127E+04   0.464E+00 0.123E+01 -.429E+01   -.316E-02 -.296E-02 -.153E-02
   0.406E+03 -.116E+04 -.221E+03   -.405E+03 0.116E+04 0.221E+03   -.839E+00 0.150E+01 0.401E-01   -.241E-04 0.122E-01 0.107E-01
   0.116E+04 0.390E+03 0.764E+03   -.115E+04 -.389E+03 -.760E+03   -.415E+01 -.170E+01 -.357E+01   0.411E-03 0.863E-02 0.302E-01
   0.260E+03 -.111E+04 -.840E+03   -.259E+03 0.110E+04 0.838E+03   -.148E+01 0.591E+01 0.285E+01   0.391E-01 0.587E-02 0.163E-02
   -.328E+03 0.106E+04 0.354E+03   0.327E+03 -.106E+04 -.354E+03   0.140E+01 -.177E+01 0.469E-01   -.186E-01 -.326E-01 0.288E-01
   -.120E+04 -.257E+03 -.351E+03   0.120E+04 0.256E+03 0.352E+03   0.201E+01 0.292E+00 -.681E+00   -.856E-02 -.361E-01 0.965E-02
   0.654E+02 0.117E+04 -.214E+03   -.668E+02 -.117E+04 0.214E+03   0.132E+01 -.101E+01 0.241E+00   -.669E-02 0.517E-01 -.442E-01
   -.153E+03 -.107E+04 0.761E+03   0.153E+03 0.107E+04 -.761E+03   0.385E-01 0.192E+01 -.247E+00   0.173E-01 -.247E-01 -.710E-03
   0.365E+03 0.154E+03 0.753E+03   -.364E+03 -.154E+03 -.753E+03   -.272E+00 0.189E+00 -.276E+00   -.879E-01 -.355E-01 -.966E-01
   -.621E+03 -.784E+03 -.757E+03   0.621E+03 0.782E+03 0.756E+03   0.559E+00 0.222E+01 0.655E+00   -.702E-02 -.430E-01 0.386E-01
   0.101E+04 0.797E+03 -.394E+03   -.100E+04 -.795E+03 0.394E+03   -.198E+01 -.208E+01 0.595E+00   -.500E-02 0.122E-01 -.364E-02
   0.104E+04 -.639E+03 0.582E+03   -.104E+04 0.639E+03 -.581E+03   -.258E+01 0.579E+00 -.150E+01   -.405E-03 -.258E-01 0.220E-01
   -.843E+03 -.459E+03 0.433E+03   0.842E+03 0.460E+03 -.433E+03   0.113E+01 -.122E+01 0.174E+00   -.110E-01 0.215E-01 -.655E-02
   0.447E+03 0.385E+03 0.120E+04   -.444E+03 -.384E+03 -.120E+04   -.319E+01 -.172E+01 -.463E+01   0.321E-01 0.113E-01 0.324E-02
   -.527E+03 0.102E+04 -.765E+03   0.525E+03 -.102E+04 0.762E+03   0.236E+01 -.484E+01 0.335E+01   0.123E-01 -.326E-01 0.188E-01
   0.696E+03 0.118E+04 0.339E+03   -.694E+03 -.118E+04 -.337E+03   -.123E+01 -.229E+01 -.218E+01   -.838E-02 0.103E-01 0.222E-01
   0.114E+03 -.596E+02 -.955E+02   -.114E+03 0.602E+02 0.949E+02   0.309E+00 -.579E+00 0.657E+00   -.153E-01 0.281E-01 -.732E-03
   -.392E+03 0.896E+03 0.979E+03   0.390E+03 -.894E+03 -.977E+03   0.156E+01 -.281E+01 -.150E+01   0.910E-02 -.535E-03 -.260E-01
   0.961E+03 0.129E+03 -.993E+03   -.956E+03 -.129E+03 0.989E+03   -.467E+01 0.707E-01 0.422E+01   -.638E-02 0.115E-01 0.180E-01
   -.816E+03 0.613E+02 -.977E+03   0.815E+03 -.597E+02 0.976E+03   0.168E+01 -.164E+01 0.138E+01   0.285E-01 0.434E-01 0.165E-03
   0.213E+03 0.753E+03 -.109E+04   -.212E+03 -.752E+03 0.109E+04   -.826E+00 -.142E+01 0.277E+01   -.143E-01 0.367E-02 0.206E-01
   -.108E+04 0.851E+03 -.238E+03   0.108E+04 -.848E+03 0.238E+03   0.313E+01 -.258E+01 0.244E+00   -.137E-02 -.578E-02 -.183E-01
   -.108E+04 -.954E+02 0.850E+03   0.108E+04 0.938E+02 -.846E+03   0.450E+01 0.161E+01 -.394E+01   -.402E-02 0.752E-02 -.383E-02
   0.946E+03 -.460E+03 -.562E+03   -.945E+03 0.460E+03 0.560E+03   -.337E+00 0.476E+00 0.144E+01   0.142E-01 -.186E-01 -.268E-01
   -.753E+02 -.315E+03 -.132E+04   0.753E+02 0.315E+03 0.131E+04   0.121E-01 0.164E+00 0.359E+01   0.323E-01 0.158E-01 -.118E-01
   -.866E+03 -.118E+04 -.726E+02   0.864E+03 0.118E+04 0.729E+02   0.225E+01 0.381E+01 -.290E+00   0.117E-01 0.106E-02 -.176E-01
   0.456E+03 -.123E+04 0.342E+03   -.454E+03 0.122E+04 -.341E+03   -.230E+01 0.665E+01 -.101E+01   -.118E-01 0.718E-02 -.742E-02
 -----------------------------------------------------------------------------------------------
   0.253E+00 0.114E+01 0.261E+01   0.114E-11 0.227E-12 0.131E-11   -.200E+00 -.107E+01 -.256E+01   -.163E-01 -.119E-01 -.525E-02
 
 
 POSITION                                       TOTAL-FORCE (eV/Angst)
 -----------------------------------------------------------------------------------
      8.40766     11.54993     11.54613         0.009678     -0.002522     -0.017887
     15.33127     10.22836     10.15528         0.008598      0.007683      0.006621
     12.57208     12.64892      7.04199        -0.000059     -0.001998      0.002004
     10.53753     14.54166     12.09321        -0.003856     -0.008403     -0.001347
      8.37612     10.73375      8.84958         0.022638     -0.002619     -0.022395
     10.53816     14.82957     15.09541        -0.022397     -0.002528      0.001259
     12.69632      9.60685     10.59013         0.007376      0.002603      0.006104
     14.14958     11.76511     12.32016         0.005592      0.011906      0.003685
     11.70359      8.86744     13.07096        -0.002227     -0.022068     -0.004073
     11.76438     14.34052      9.15350         0.003664      0.002744     -0.001040
     10.96864     11.39083      9.04837         0.006918      0.008535      0.012582
     12.45394     13.30031     13.90487        -0.004939      0.008345      0.003873
      9.18506      9.81463     13.56339         0.004858      0.000426     -0.009332
      9.20799     13.46821      9.77542        -0.003019      0.007593     -0.011054
     13.57055     12.33509      9.65175         0.008858      0.007616      0.000682
     10.62889     10.60577      6.50084        -0.016566      0.001727      0.024263
     13.35771      8.01292     15.11870         0.002209      0.001873      0.001902
      9.92966      9.31690     10.85687         0.006743     -0.005759     -0.006853
     11.28503     11.78301     11.79121         0.003953     -0.015649      0.022056
     13.05641      9.94757      7.82166        -0.004747      0.000917      0.003379
      8.70099     11.00929     16.01149        -0.002733     -0.009857     -0.006479
     13.25687     10.77046     14.77790        -0.015829      0.001294     -0.008188
     10.98332      9.40747     15.74687        -0.002739     -0.004796     -0.003398
     14.54437      9.07595     12.77591         0.002401      0.010850      0.005876
     15.27264     11.59540      7.66234         0.002350     -0.004267     -0.001166
      9.45354     12.62648     13.88051        -0.009511     -0.000677     -0.001314
     11.21220     12.24289     16.12307        -0.008710     -0.003901     -0.003775
     13.32147     14.39781     11.50731        -0.002829      0.006262      0.000817
      9.90803     16.16091      9.93913         0.004324      0.004670      0.003199
 -----------------------------------------------------------------------------------
    total drift:                                0.036897      0.052649      0.047384


--------------------------------------------------------------------------------------------------------



  FREE ENERGIE OF THE ION-ELECTRON SYSTEM (eV)
  ---------------------------------------------------
  free  energy   TOTEN  =       -59.43782412 eV

  energy  without entropy=      -59.43782412  energy(sigma->0) =      -59.43782412
 
 d Force = 0.2594307E-03[-0.395E-03, 0.914E-03]  d Energy = 0.1736409E-03 0.858E-04
 d Force = 0.2149234E+01[ 0.214E+01, 0.216E+01]  d Ewald  = 0.2149233E+01 0.831E-06


--------------------------------------------------------------------------------------------------------


    POTLOK:  cpu time    0.38: real time    0.38


--------------------------------------------------------------------------------------------------------




--------------------------------------------------------------------------------------------------------


  
 reached required accuracy - stopping structural energy minimisation
     LOOP+:  cpu time   21.72: real time   22.14
    4ORBIT:  cpu time    0.00: real time    0.00

 total amount of memory used by VASP on root node    74823. kBytes
========================================================================

   base      :      30000. kBytes
   nonl-proj :       3798. kBytes
   fftplans  :       8579. kBytes
   grid      :      21928. kBytes
   one-center:         62. kBytes
   wavefun   :      10456. kBytes
 
  
  
 General timing and accounting informations for this job:
 ========================================================
  
                  Total CPU time used (sec):     3070.096
                            User time (sec):     3053.967
                          System time (sec):       16.129
                         Elapsed time (sec):     3156.710
  
                   Maximum memory used (kb):       95816.
                   Average memory used (kb):           0.
  
                          Minor page faults:      2626919
                          Major page faults:            0
                 Voluntary context switches:        14770
