unknown system                          
           1
    23.781622    0.000000    0.000000
     0.000000   23.781622    0.000000
     0.000000    0.000000   23.781622
   Ag
  35
Direct configuration=     1
   0.57112703  0.53766976  0.31163812
   0.48006102  0.47073024  0.33748868
   0.50958553  0.27314504  0.45167048
   0.38172097  0.52800069  0.35046645
   0.58638496  0.43647793  0.36906843
   0.49431063  0.36931323  0.38800611
   0.39395779  0.42612148  0.40383738
   0.47908244  0.58704721  0.36127493
   0.66338273  0.52468212  0.37707134
   0.58970012  0.35751154  0.45403554
   0.31960281  0.50881773  0.44332032
   0.58527261  0.60814493  0.40381423
   0.65998192  0.44663045  0.45967557
   0.52235305  0.33663213  0.54766405
   0.39303901  0.60069304  0.43966444
   0.42625761  0.34541781  0.48066359
   0.34453404  0.41594234  0.50948146
   0.49184508  0.66153135  0.44667859
   0.65864727  0.56412427  0.48377076
   0.69538341  0.48779436  0.56000721
   0.34372313  0.56859235  0.54065973
   0.34929530  0.47516991  0.61061213
   0.42644932  0.38903259  0.58825785
   0.50643927  0.72528829  0.54274015
   0.61964131  0.39810696  0.55817383
   0.58730839  0.64761478  0.51270115
   0.42451921  0.64596931  0.54183817
   0.53162145  0.41081995  0.63353488
   0.61875641  0.57033563  0.59349987
   0.42537334  0.56437580  0.62435523
   0.52063097  0.62958335  0.60713774
   0.43945152  0.46233955  0.67731291
   0.62908452  0.46874634  0.65071310
   0.53110909  0.52801375  0.65786988
   0.25937633  0.48858106  0.54025863
Direct configuration=     2
   0.57112136  0.53768312  0.31154128
   0.48004945  0.47072152  0.33743015
   0.50960385  0.27299874  0.45162608
   0.38165057  0.52802697  0.35034218
   0.58642739  0.43649039  0.36902532
   0.49429948  0.36923018  0.38797697
   0.39392928  0.42612068  0.40381812
   0.47908028  0.58707915  0.36122730
   0.66348611  0.52469975  0.37698089
   0.58970543  0.35742653  0.45402156
   0.31954836  0.50881843  0.44331456
   0.58530551  0.60815801  0.40378107
   0.66002819  0.44661635  0.45966724
   0.52234846  0.33654549  0.54765440
   0.39300716  0.60071456  0.43964440
   0.42628846  0.34533053  0.48064060
   0.34444737  0.41597196  0.50950313
   0.49184149  0.66161766  0.44669581
   0.65869439  0.56413724  0.48376452
   0.69550895  0.48779137  0.56005858
   0.34364121  0.56856709  0.54066984
   0.34924423  0.47516728  0.61063557
   0.42642143  0.38900479  0.58828744
   0.50645409  0.72543702  0.54276293
   0.61969323  0.39809427  0.55820493
   0.58731046  0.64768328  0.51271753
   0.42454439  0.64604872  0.54184432
   0.53163267  0.41078944  0.63359116
   0.61880598  0.57033553  0.59352685
   0.42534651  0.56438201  0.62438685
   0.52062380  0.62966658  0.60715663
   0.43943085  0.46230266  0.67745848
   0.62915015  0.46873327  0.65080676
   0.53111845  0.52802428  0.65792072
   0.25922063  0.48858239  0.54027872
Direct configuration=     3
   0.57110434  0.53772320  0.31125075
   0.48001475  0.47069535  0.33725457
   0.50965880  0.27255985  0.45149289
   0.38143937  0.52810584  0.34996937
   0.58655469  0.43652778  0.36889597
   0.49426606  0.36898102  0.38788955
   0.39384376  0.42611828  0.40376037
   0.47907381  0.58717498  0.36108443
   0.66379624  0.52475266  0.37670952
   0.58972135  0.35717152  0.45397962
   0.31938501  0.50882051  0.44329731
   0.58540420  0.60819726  0.40368162
   0.66016701  0.44657406  0.45964227
   0.52233470  0.33628555  0.54762547
   0.39291160  0.60077910  0.43958426
   0.42638100  0.34506867  0.48057164
   0.34418737  0.41606084  0.50956817
   0.49183072  0.66187659  0.44674746
   0.65883572  0.56417617  0.48374578
   0.69588555  0.48778238  0.56021270
   0.34339543  0.56849130  0.54070018
   0.34909104  0.47515940  0.61070590
   0.42633774  0.38892138  0.58837620
   0.50649855  0.72588320  0.54283126
   0.61984900  0.39805622  0.55829826
   0.58731668  0.64788875  0.51276667
   0.42461993  0.64628696  0.54186275
   0.53166634  0.41069792  0.63376001
   0.61895469  0.57033524  0.59360781
   0.42526599  0.56440064  0.62448170
   0.52060228  0.62991628  0.60721331
   0.43936884  0.46219199  0.67789519
   0.62934702  0.46869409  0.65108772
   0.53114651  0.52805587  0.65807325
   0.25875351  0.48858638  0.54033901
Direct configuration=     4
   0.57107030  0.53780335  0.31066970
   0.47994533  0.47064301  0.33690340
   0.50976872  0.27168208  0.45122651
   0.38101697  0.52826358  0.34922375
   0.58680930  0.43660256  0.36863728
   0.49419920  0.36848269  0.38771470
   0.39367272  0.42611346  0.40364486
   0.47906085  0.58736664  0.36079868
   0.66441651  0.52485848  0.37616679
   0.58975319  0.35666150  0.45389574
   0.31905833  0.50882467  0.44326279
   0.58560159  0.60827576  0.40348270
   0.66044463  0.44648948  0.45959232
   0.52230718  0.33576567  0.54756760
   0.39272050  0.60090820  0.43946397
   0.42656609  0.34454496  0.48043371
   0.34366737  0.41623859  0.50969824
   0.49180917  0.66239445  0.44685075
   0.65911840  0.56425403  0.48370831
   0.69663875  0.48776441  0.56052094
   0.34290388  0.56833972  0.54076085
   0.34878466  0.47514364  0.61084655
   0.42617038  0.38875457  0.58855371
   0.50658745  0.72677558  0.54296792
   0.62016054  0.39798012  0.55848490
   0.58732912  0.64829971  0.51286496
   0.42477102  0.64676344  0.54189962
   0.53173369  0.41051486  0.63409770
   0.61925211  0.57033466  0.59376974
   0.42510496  0.56443790  0.62467140
   0.52055924  0.63041568  0.60732667
   0.43924482  0.46197066  0.67876861
   0.62974077  0.46861572  0.65164964
   0.53120263  0.52811905  0.65837831
   0.25781926  0.48859437  0.54045959
Direct configuration=     5
   0.57100223  0.53796367  0.30950760
   0.47980650  0.47053832  0.33620107
   0.50998854  0.26992652  0.45069375
   0.38017217  0.52857906  0.34773251
   0.58731851  0.43675212  0.36811990
   0.49406549  0.36748605  0.38736501
   0.39333065  0.42610384  0.40341384
   0.47903493  0.58774997  0.36022717
   0.66565703  0.52507011  0.37508133
   0.58981688  0.35564146  0.45372798
   0.31840495  0.50883300  0.44319376
   0.58599636  0.60843276  0.40308487
   0.66099988  0.44632032  0.45949243
   0.52225214  0.33472591  0.54745186
   0.39233828  0.60116639  0.43922341
   0.42693627  0.34349753  0.48015785
   0.34262736  0.41659409  0.50995839
   0.49176608  0.66343017  0.44705734
   0.65968374  0.56440975  0.48363338
   0.69814515  0.48772847  0.56113743
   0.34192078  0.56803656  0.54088220
   0.34817189  0.47511211  0.61112784
   0.42583564  0.38842095  0.58890874
   0.50676527  0.72856034  0.54324124
   0.62078362  0.39782792  0.55885820
   0.58735400  0.64912162  0.51306152
   0.42507318  0.64771639  0.54197335
   0.53186838  0.41014875  0.63477309
   0.61984695  0.57033349  0.59409358
   0.42478290  0.56451242  0.62505080
   0.52047316  0.63141446  0.60755339
   0.43899678  0.46152800  0.68051545
   0.63052827  0.46845898  0.65277348
   0.53131488  0.52824541  0.65898842
   0.25595078  0.48861035  0.54070074
Direct configuration=     6
   0.57097613  0.53802515  0.30906197
   0.47975326  0.47049818  0.33593174
   0.51007284  0.26925332  0.45048946
   0.37984821  0.52870004  0.34716066
   0.58751377  0.43680947  0.36792150
   0.49401421  0.36710387  0.38723092
   0.39319947  0.42610015  0.40332525
   0.47902499  0.58789696  0.36000802
   0.66613274  0.52515126  0.37466509
   0.58984130  0.35525030  0.45366365
   0.31815440  0.50883619  0.44316729
   0.58614774  0.60849296  0.40293231
   0.66121280  0.44625545  0.45945413
   0.52223104  0.33432719  0.54740747
   0.39219171  0.60126540  0.43913116
   0.42707822  0.34309587  0.48005207
   0.34222854  0.41673041  0.51005815
   0.49174955  0.66382734  0.44713656
   0.65990054  0.56446946  0.48360464
   0.69872281  0.48771469  0.56137383
   0.34154379  0.56792031  0.54092873
   0.34793692  0.47510002  0.61123571
   0.42570728  0.38829302  0.58904488
   0.50683346  0.72924474  0.54334606
   0.62102255  0.39776956  0.55900135
   0.58736354  0.64943679  0.51313690
   0.42518905  0.64808182  0.54200162
   0.53192004  0.41000835  0.63503208
   0.62007505  0.57033305  0.59421777
   0.42465940  0.56454099  0.62519629
   0.52044015  0.63179747  0.60764033
   0.43890166  0.46135825  0.68118531
   0.63083025  0.46839887  0.65320444
   0.53135792  0.52829387  0.65922239
   0.25523427  0.48861648  0.54079322
Direct configuration=     7
   0.57111720  0.53805250  0.30898036
   0.47966458  0.47030679  0.33585319
   0.51017000  0.26882666  0.45032183
   0.37966510  0.52875661  0.34705270
   0.58750911  0.43673595  0.36792376
   0.49412638  0.36706483  0.38696262
   0.39318931  0.42613052  0.40337381
   0.47891020  0.58810839  0.36002625
   0.66620165  0.52519981  0.37451388
   0.58998939  0.35523899  0.45361860
   0.31801460  0.50891354  0.44292562
   0.58618419  0.60848437  0.40290164
   0.66128269  0.44624922  0.45946162
   0.52239364  0.33421356  0.54758083
   0.39215235  0.60126958  0.43908830
   0.42662175  0.34331730  0.48016961
   0.34246552  0.41638931  0.50997523
   0.49181073  0.66396459  0.44693163
   0.65997350  0.56444810  0.48356504
   0.69886608  0.48769413  0.56147620
   0.34169925  0.56823023  0.54095405
   0.34790033  0.47504001  0.61150878
   0.42567819  0.38827156  0.58908998
   0.50693198  0.72969295  0.54341006
   0.62104724  0.39772415  0.55904953
   0.58750215  0.64949076  0.51314288
   0.42481666  0.64788043  0.54202645
   0.53193905  0.40982706  0.63504929
   0.62009054  0.57035709  0.59424370
   0.42464173  0.56449498  0.62520705
   0.52057842  0.63185813  0.60783131
   0.43874242  0.46131341  0.68130397
   0.63100156  0.46840455  0.65332923
   0.53133110  0.52840232  0.65925880
   0.25480101  0.48864486  0.54085516
Direct configuration=     8
   0.57119068  0.53806674  0.30893784
   0.47961839  0.47020709  0.33581227
   0.51022062  0.26860441  0.45023451
   0.37956972  0.52878608  0.34699646
   0.58750668  0.43669766  0.36792494
   0.49418481  0.36704449  0.38682285
   0.39318402  0.42614634  0.40339910
   0.47885040  0.58821852  0.36003574
   0.66623755  0.52522511  0.37443511
   0.59006653  0.35523310  0.45359513
   0.31794178  0.50895384  0.44279973
   0.58620317  0.60847989  0.40288566
   0.66131909  0.44624598  0.45946552
   0.52247835  0.33415437  0.54767113
   0.39213185  0.60127176  0.43906597
   0.42638396  0.34343265  0.48023084
   0.34258897  0.41621163  0.50993204
   0.49184261  0.66403608  0.44682488
   0.66001150  0.56443697  0.48354442
   0.69894071  0.48768342  0.56152952
   0.34178023  0.56839168  0.54096723
   0.34788128  0.47500874  0.61165103
   0.42566303  0.38826039  0.58911347
   0.50698331  0.72992643  0.54344340
   0.62106011  0.39770050  0.55907463
   0.58757436  0.64951887  0.51314599
   0.42462267  0.64777553  0.54203938
   0.53194896  0.40973262  0.63505826
   0.62009861  0.57036961  0.59425720
   0.42463252  0.56447102  0.62521265
   0.52065044  0.63188973  0.60793080
   0.43865947  0.46129005  0.68136579
   0.63109079  0.46840752  0.65339424
   0.53131712  0.52845881  0.65927777
   0.25457532  0.48865964  0.54088743
Direct configuration=     9
   0.57122400  0.53806142  0.30900593
   0.47956131  0.47017039  0.33577128
   0.51018510  0.26864055  0.45019923
   0.37954060  0.52880408  0.34700019
   0.58748486  0.43667428  0.36795902
   0.49425199  0.36694252  0.38675992
   0.39322520  0.42621871  0.40340226
   0.47878198  0.58828453  0.36001855
   0.66619655  0.52522490  0.37442005
   0.59010696  0.35523243  0.45358822
   0.31781692  0.50896829  0.44278673
   0.58619765  0.60844586  0.40289393
   0.66134972  0.44629152  0.45948147
   0.52253819  0.33405382  0.54765312
   0.39213177  0.60126088  0.43900938
   0.42638158  0.34344210  0.48023139
   0.34259229  0.41620839  0.50994927
   0.49188978  0.66414889  0.44680913
   0.66004077  0.56437850  0.48352294
   0.69891736  0.48767364  0.56155163
   0.34175959  0.56840415  0.54096641
   0.34776183  0.47498632  0.61168548
   0.42571352  0.38826636  0.58918476
   0.50697719  0.72992075  0.54343743
   0.62106401  0.39770347  0.55909014
   0.58761984  0.64954627  0.51314618
   0.42462133  0.64776941  0.54203967
   0.53195464  0.40968553  0.63508780
   0.62008844  0.57035822  0.59423865
   0.42467930  0.56440441  0.62522121
   0.52069568  0.63198762  0.60798051
   0.43863467  0.46127669  0.68132972
   0.63111464  0.46843081  0.65339478
   0.53129588  0.52844555  0.65927274
   0.25461448  0.48868597  0.54087385
Direct configuration=    10
   0.57128882  0.53805108  0.30913841
   0.47945027  0.47009899  0.33569152
   0.51011600  0.26871087  0.45013060
   0.37948394  0.52883909  0.34700745
   0.58744240  0.43662880  0.36802531
   0.49438268  0.36674414  0.38663748
   0.39330532  0.42635952  0.40340840
   0.47864886  0.58841296  0.35998509
   0.66611678  0.52522451  0.37439074
   0.59018563  0.35523112  0.45357478
   0.31757401  0.50899641  0.44276143
   0.58618691  0.60837964  0.40291004
   0.66140931  0.44638013  0.45951251
   0.52265461  0.33385820  0.54761809
   0.39213161  0.60123973  0.43889929
   0.42637696  0.34346049  0.48023246
   0.34259875  0.41620208  0.50998277
   0.49198155  0.66436835  0.44677847
   0.66009772  0.56426475  0.48348116
   0.69887195  0.48765461  0.56159464
   0.34171943  0.56842842  0.54096480
   0.34752945  0.47494270  0.61175252
   0.42581175  0.38827799  0.58932346
   0.50696528  0.72990969  0.54342580
   0.62107159  0.39770926  0.55912032
   0.58770832  0.64959958  0.51314654
   0.42461873  0.64775752  0.54204023
   0.53196569  0.40959391  0.63514526
   0.62006863  0.57033607  0.59420256
   0.42477031  0.56427482  0.62523785
   0.52078371  0.63217807  0.60807721
   0.43858640  0.46125069  0.68125954
   0.63116103  0.46847613  0.65339584
   0.53125456  0.52841975  0.65926294
   0.25469065  0.48873719  0.54084743
Direct configuration=    11
   0.57120184  0.53802838  0.30920609
   0.47946192  0.47009052  0.33564098
   0.51008856  0.26871328  0.45009092
   0.37942982  0.52884876  0.34700485
   0.58740296  0.43662601  0.36805889
   0.49437319  0.36670750  0.38655869
   0.39336730  0.42639624  0.40348238
   0.47865634  0.58846727  0.35993711
   0.66612718  0.52519857  0.37437966
   0.59024713  0.35523289  0.45359373
   0.31747760  0.50900927  0.44271708
   0.58613272  0.60837074  0.40296555
   0.66142115  0.44636695  0.45951628
   0.52268734  0.33380083  0.54764027
   0.39213081  0.60126195  0.43893950
   0.42641817  0.34351285  0.48024115
   0.34263734  0.41622662  0.50999613
   0.49199386  0.66444280  0.44674151
   0.66009842  0.56427370  0.48348569
   0.69887416  0.48764557  0.56162108
   0.34174945  0.56843520  0.54096237
   0.34746789  0.47491829  0.61180738
   0.42583089  0.38825213  0.58929532
   0.50695739  0.72991649  0.54342788
   0.62105910  0.39769873  0.55912253
   0.58777402  0.64959875  0.51313562
   0.42466348  0.64771482  0.54202017
   0.53202009  0.40953701  0.63517101
   0.62002904  0.57034197  0.59417046
   0.42478291  0.56424895  0.62515879
   0.52080338  0.63222587  0.60815141
   0.43855542  0.46123085  0.68123611
   0.63113665  0.46848703  0.65341862
   0.53128269  0.52841189  0.65923647
   0.25466942  0.48875859  0.54083122
Direct configuration=    12
   0.57102561  0.53798239  0.30934321
   0.47948553  0.47007336  0.33553858
   0.51003296  0.26871816  0.45001052
   0.37932015  0.52886837  0.34699957
   0.58732303  0.43662036  0.36812693
   0.49435395  0.36663326  0.38639905
   0.39349288  0.42647063  0.40363228
   0.47867150  0.58857733  0.35983989
   0.66614824  0.52514600  0.37435722
   0.59037175  0.35523648  0.45363214
   0.31728225  0.50903532  0.44262722
   0.58602292  0.60835270  0.40307805
   0.66144514  0.44634025  0.45952393
   0.52275366  0.33368458  0.54768522
   0.39212921  0.60130696  0.43902099
   0.42650168  0.34361896  0.48025875
   0.34271552  0.41627636  0.51002318
   0.49201880  0.66459363  0.44666662
   0.66009983  0.56429185  0.48349488
   0.69887864  0.48762724  0.56167466
   0.34181028  0.56844894  0.54095746
   0.34734315  0.47486883  0.61191854
   0.42586967  0.38819974  0.58923831
   0.50694140  0.72993026  0.54343209
   0.62103379  0.39767740  0.55912700
   0.58790715  0.64959706  0.51311351
   0.42475416  0.64762830  0.54197953
   0.53213031  0.40942171  0.63522320
   0.61994883  0.57035393  0.59410542
   0.42480845  0.56419654  0.62499860
   0.52084325  0.63232270  0.60830175
   0.43849265  0.46119064  0.68118865
   0.63108725  0.46850911  0.65346479
   0.53133966  0.52839597  0.65918283
   0.25462638  0.48880194  0.54079837
Direct configuration=    13
   0.57111788  0.53799594  0.30935175
   0.47933823  0.47007492  0.33554766
   0.51005479  0.26875536  0.45000144
   0.37940151  0.52888265  0.34704007
   0.58733686  0.43661532  0.36816357
   0.49438733  0.36661496  0.38641480
   0.39352749  0.42657407  0.40362583
   0.47850591  0.58860016  0.35985865
   0.66609125  0.52515853  0.37436874
   0.59026186  0.35515290  0.45359518
   0.31727505  0.50904709  0.44262795
   0.58606290  0.60828866  0.40305769
   0.66148329  0.44638047  0.45954074
   0.52275949  0.33364958  0.54766706
   0.39215179  0.60126123  0.43892198
   0.42658313  0.34359123  0.48023473
   0.34268082  0.41637673  0.51004351
   0.49200800  0.66462326  0.44667453
   0.66015306  0.56422173  0.48346281
   0.69884096  0.48763501  0.56166486
   0.34174574  0.56833730  0.54093464
   0.34732240  0.47486574  0.61189157
   0.42590135  0.38823770  0.58929107
   0.50696757  0.72989809  0.54343334
   0.62107817  0.39770167  0.55914822
   0.58779959  0.64970102  0.51317690
   0.42485537  0.64766876  0.54198133
   0.53203468  0.40941164  0.63526204
   0.61997342  0.57031586  0.59411157
   0.42486650  0.56412644  0.62501677
   0.52084635  0.63236059  0.60830208
   0.43857689  0.46118493  0.68112817
   0.63114213  0.46850625  0.65345462
   0.53123457  0.52836798  0.65917930
   0.25464330  0.48881349  0.54078779
Direct configuration=    14
   0.57108261  0.53799076  0.30934848
   0.47939454  0.47007433  0.33554419
   0.51004645  0.26874114  0.45000491
   0.37937041  0.52887719  0.34702459
   0.58733157  0.43661725  0.36814957
   0.49437457  0.36662195  0.38640878
   0.39351426  0.42653453  0.40362830
   0.47856921  0.58859143  0.35985148
   0.66611303  0.52515374  0.37436434
   0.59030387  0.35518485  0.45360930
   0.31727780  0.50904259  0.44262767
   0.58604762  0.60831314  0.40306547
   0.66146871  0.44636509  0.45953431
   0.52275726  0.33366296  0.54767400
   0.39214316  0.60127871  0.43895983
   0.42655199  0.34360183  0.48024391
   0.34269408  0.41633837  0.51003574
   0.49201213  0.66461194  0.44667150
   0.66013271  0.56424853  0.48347507
   0.69885536  0.48763204  0.56166861
   0.34177041  0.56837997  0.54094336
   0.34733033  0.47486692  0.61190188
   0.42588924  0.38822319  0.58927090
   0.50695756  0.72991039  0.54343286
   0.62106121  0.39769239  0.55914011
   0.58784070  0.64966128  0.51315267
   0.42481668  0.64765329  0.54198064
   0.53207124  0.40941549  0.63524719
   0.61996402  0.57033041  0.59410922
   0.42484431  0.56415323  0.62500982
   0.52084516  0.63234611  0.60830195
   0.43854469  0.46118711  0.68115129
   0.63112115  0.46850734  0.65345851
   0.53127474  0.52837868  0.65918065
   0.25463683  0.48880907  0.54079184
