  50  50   0   0
  0.2654371E+03  0.2367612E-08  0.2367612E-08  0.2367612E-08  0.1000000E-15
  1.000000000000000E-004
  CAR 
 unknown system                          
      2.07634195    -10.32011872  301     -3.39876151      1.00000000
    -10.320  0.0000E+00  0.0000E+00  0.0000E+00  0.0000E+00
    -10.279  0.0000E+00  0.0000E+00  0.0000E+00  0.0000E+00
    -10.237  0.0000E+00  0.0000E+00  0.0000E+00  0.0000E+00
    -10.196  0.0000E+00  0.0000E+00  0.0000E+00  0.0000E+00
    -10.155  0.0000E+00  0.0000E+00  0.0000E+00  0.0000E+00
    -10.114  0.0000E+00  0.0000E+00  0.0000E+00  0.0000E+00
    -10.072  0.0000E+00  0.0000E+00  0.0000E+00  0.0000E+00
    -10.031  0.0000E+00  0.0000E+00  0.0000E+00  0.0000E+00
     -9.990  0.0000E+00  0.0000E+00  0.0000E+00  0.0000E+00
     -9.948  0.0000E+00  0.0000E+00  0.0000E+00  0.0000E+00
     -9.907  0.0000E+00  0.0000E+00  0.0000E+00  0.0000E+00
     -9.866  0.0000E+00  0.0000E+00  0.0000E+00  0.0000E+00
     -9.824  0.0000E+00  0.0000E+00  0.0000E+00  0.0000E+00
     -9.783  0.0000E+00  0.0000E+00  0.0000E+00  0.0000E+00
     -9.742  0.0000E+00  0.0000E+00  0.1000E-02  0.1000E-02
     -9.700  0.0000E+00  0.0000E+00  0.1000E-02  0.1000E-02
     -9.659  0.0000E+00  0.0000E+00  0.1000E-02  0.1000E-02
     -9.618  0.0000E+00  0.0000E+00  0.1000E-02  0.1000E-02
     -9.576  0.0000E+00  0.0000E+00  0.1000E-02  0.1000E-02
     -9.535  0.0000E+00  0.0000E+00  0.1000E-02  0.1000E-02
     -9.494  0.0000E+00  0.0000E+00  0.1000E-02  0.1000E-02
     -9.452  0.0000E+00  0.0000E+00  0.1000E-02  0.1000E-02
     -9.411  0.0000E+00  0.0000E+00  0.1000E-02  0.1000E-02
     -9.370  0.0000E+00  0.0000E+00  0.1000E-02  0.1000E-02
     -9.328  0.0000E+00  0.0000E+00  0.1000E-02  0.1000E-02
     -9.287  0.0000E+00  0.0000E+00  0.1000E-02  0.1000E-02
     -9.246  0.0000E+00  0.0000E+00  0.1000E-02  0.1000E-02
     -9.204  0.0000E+00  0.0000E+00  0.2000E-02  0.2000E-02
     -9.163  0.0000E+00  0.0000E+00  0.2000E-02  0.2000E-02
     -9.122  0.0000E+00  0.0000E+00  0.4000E-02  0.4000E-02
     -9.080  0.0000E+00  0.0000E+00  0.5000E-02  0.5000E-02
     -9.039  0.0000E+00  0.0000E+00  0.6000E-02  0.6000E-02
     -8.998  0.0000E+00  0.0000E+00  0.8000E-02  0.8000E-02
     -8.957  0.0000E+00  0.0000E+00  0.9000E-02  0.9000E-02
     -8.915  0.0000E+00  0.0000E+00  0.1100E-01  0.1100E-01
     -8.874  0.0000E+00  0.0000E+00  0.1300E-01  0.1300E-01
     -8.833  0.0000E+00  0.0000E+00  0.1400E-01  0.1400E-01
     -8.791  0.0000E+00  0.0000E+00  0.1600E-01  0.1600E-01
     -8.750  0.0000E+00  0.0000E+00  0.1700E-01  0.1700E-01
     -8.709  0.0000E+00  0.0000E+00  0.1900E-01  0.1900E-01
     -8.667  0.0000E+00  0.0000E+00  0.2200E-01  0.2200E-01
     -8.626  0.0000E+00  0.0000E+00  0.2400E-01  0.2400E-01
     -8.585  0.0000E+00  0.0000E+00  0.2600E-01  0.2600E-01
     -8.543  0.0000E+00  0.0000E+00  0.2900E-01  0.2900E-01
     -8.502  0.0000E+00  0.0000E+00  0.3300E-01  0.3300E-01
     -8.461  0.0000E+00  0.0000E+00  0.3600E-01  0.3600E-01
     -8.419  0.2420E-01  0.2420E-01  0.3900E-01  0.3900E-01
     -8.378  0.2420E-01  0.2420E-01  0.4300E-01  0.4300E-01
     -8.337  0.0000E+00  0.0000E+00  0.4500E-01  0.4500E-01
     -8.295  0.0000E+00  0.0000E+00  0.4800E-01  0.4800E-01
     -8.254  0.2420E-01  0.2420E-01  0.5100E-01  0.5100E-01
     -8.213  0.0000E+00  0.0000E+00  0.5300E-01  0.5300E-01
     -8.171  0.0000E+00  0.0000E+00  0.5600E-01  0.5600E-01
     -8.130  0.0000E+00  0.0000E+00  0.5900E-01  0.5900E-01
     -8.089  0.0000E+00  0.0000E+00  0.6300E-01  0.6300E-01
     -8.047  0.0000E+00  0.0000E+00  0.6600E-01  0.6600E-01
     -8.006  0.0000E+00  0.0000E+00  0.7000E-01  0.7000E-01
     -7.965  0.0000E+00  0.0000E+00  0.7300E-01  0.7300E-01
     -7.923  0.0000E+00  0.0000E+00  0.7800E-01  0.7800E-01
     -7.882  0.2420E-01  0.2420E-01  0.8100E-01  0.8100E-01
     -7.841  0.0000E+00  0.0000E+00  0.8400E-01  0.8400E-01
     -7.800  0.0000E+00  0.0000E+00  0.8700E-01  0.8700E-01
     -7.758  0.0000E+00  0.0000E+00  0.9100E-01  0.9100E-01
     -7.717  0.0000E+00  0.0000E+00  0.9400E-01  0.9400E-01
     -7.676  0.0000E+00  0.0000E+00  0.9700E-01  0.9700E-01
     -7.634  0.0000E+00  0.0000E+00  0.1010E+00  0.1010E+00
     -7.593  0.0000E+00  0.0000E+00  0.1040E+00  0.1040E+00
     -7.552  0.0000E+00  0.0000E+00  0.1080E+00  0.1080E+00
     -7.510  0.0000E+00  0.0000E+00  0.1110E+00  0.1110E+00
     -7.469  0.0000E+00  0.0000E+00  0.1140E+00  0.1140E+00
     -7.428  0.0000E+00  0.0000E+00  0.1190E+00  0.1190E+00
     -7.386  0.2254E-01  0.2254E-01  0.1219E+00  0.1219E+00
     -7.345  0.0000E+00  0.0000E+00  0.1240E+00  0.1240E+00
     -7.304  0.0000E+00  0.0000E+00  0.1270E+00  0.1270E+00
     -7.262  0.0000E+00  0.0000E+00  0.1320E+00  0.1320E+00
     -7.221  0.0000E+00  0.0000E+00  0.1350E+00  0.1350E+00
     -7.180  0.0000E+00  0.0000E+00  0.1380E+00  0.1380E+00
     -7.138  0.0000E+00  0.0000E+00  0.1410E+00  0.1410E+00
     -7.097  0.0000E+00  0.0000E+00  0.1450E+00  0.1450E+00
     -7.056  0.0000E+00  0.0000E+00  0.1480E+00  0.1480E+00
     -7.014  0.0000E+00  0.0000E+00  0.1510E+00  0.1510E+00
     -6.973  0.0000E+00  0.0000E+00  0.1560E+00  0.1560E+00
     -6.932  0.0000E+00  0.0000E+00  0.1580E+00  0.1580E+00
     -6.890  0.0000E+00  0.0000E+00  0.1620E+00  0.1620E+00
     -6.849  0.2420E-01  0.2420E-01  0.1670E+00  0.1670E+00
     -6.808  0.0000E+00  0.0000E+00  0.1710E+00  0.1710E+00
     -6.766  0.3478E-13  0.3478E-13  0.1740E+00  0.1740E+00
     -6.725  0.0000E+00  0.0000E+00  0.1790E+00  0.1790E+00
     -6.684  0.0000E+00  0.0000E+00  0.1840E+00  0.1840E+00
     -6.643  0.0000E+00  0.0000E+00  0.1900E+00  0.1900E+00
     -6.601  0.0000E+00  0.0000E+00  0.1930E+00  0.1930E+00
     -6.560  0.0000E+00  0.0000E+00  0.2010E+00  0.2010E+00
     -6.519  0.0000E+00  0.0000E+00  0.2060E+00  0.2060E+00
     -6.477  0.0000E+00  0.0000E+00  0.2110E+00  0.2110E+00
     -6.436  0.0000E+00  0.0000E+00  0.2170E+00  0.2170E+00
     -6.395  0.0000E+00  0.0000E+00  0.2220E+00  0.2220E+00
     -6.353  0.0000E+00  0.0000E+00  0.2270E+00  0.2270E+00
     -6.312  0.0000E+00  0.0000E+00  0.2310E+00  0.2310E+00
     -6.271  0.0000E+00  0.0000E+00  0.2360E+00  0.2360E+00
     -6.229  0.0000E+00  0.0000E+00  0.2390E+00  0.2390E+00
     -6.188  0.0000E+00  0.0000E+00  0.2440E+00  0.2440E+00
     -6.147  0.0000E+00  0.0000E+00  0.2490E+00  0.2490E+00
     -6.105  0.2420E-01  0.2420E-01  0.2520E+00  0.2520E+00
     -6.064  0.0000E+00  0.0000E+00  0.2540E+00  0.2540E+00
     -6.023  0.0000E+00  0.0000E+00  0.2550E+00  0.2550E+00
     -5.981  0.0000E+00  0.0000E+00  0.2570E+00  0.2570E+00
     -5.940  0.0000E+00  0.0000E+00  0.2580E+00  0.2580E+00
     -5.899  0.0000E+00  0.0000E+00  0.2580E+00  0.2580E+00
     -5.857  0.0000E+00  0.0000E+00  0.2580E+00  0.2580E+00
     -5.816  0.0000E+00  0.0000E+00  0.2580E+00  0.2580E+00
     -5.775  0.0000E+00  0.0000E+00  0.2590E+00  0.2590E+00
     -5.733  0.0000E+00  0.0000E+00  0.2590E+00  0.2590E+00
     -5.692  0.0000E+00  0.0000E+00  0.2590E+00  0.2590E+00
     -5.651  0.0000E+00  0.0000E+00  0.2590E+00  0.2590E+00
     -5.609  0.0000E+00  0.0000E+00  0.2590E+00  0.2590E+00
     -5.568  0.0000E+00  0.0000E+00  0.2590E+00  0.2590E+00
     -5.527  0.0000E+00  0.0000E+00  0.2590E+00  0.2590E+00
     -5.485  0.0000E+00  0.0000E+00  0.2590E+00  0.2590E+00
     -5.444  0.0000E+00  0.0000E+00  0.2600E+00  0.2600E+00
     -5.403  0.0000E+00  0.0000E+00  0.2600E+00  0.2600E+00
     -5.362  0.0000E+00  0.0000E+00  0.2600E+00  0.2600E+00
     -5.320  0.0000E+00  0.0000E+00  0.2600E+00  0.2600E+00
     -5.279  0.0000E+00  0.0000E+00  0.2620E+00  0.2620E+00
     -5.238  0.0000E+00  0.0000E+00  0.2620E+00  0.2620E+00
     -5.196  0.0000E+00  0.0000E+00  0.2620E+00  0.2620E+00
     -5.155  0.0000E+00  0.0000E+00  0.2620E+00  0.2620E+00
     -5.114  0.0000E+00  0.0000E+00  0.2620E+00  0.2620E+00
     -5.072  0.0000E+00  0.0000E+00  0.2630E+00  0.2630E+00
     -5.031  0.0000E+00  0.0000E+00  0.2630E+00  0.2630E+00
     -4.990  0.0000E+00  0.0000E+00  0.2630E+00  0.2630E+00
     -4.948  0.0000E+00  0.0000E+00  0.2640E+00  0.2640E+00
     -4.907  0.0000E+00  0.0000E+00  0.2640E+00  0.2640E+00
     -4.866  0.0000E+00  0.0000E+00  0.2650E+00  0.2650E+00
     -4.824  0.0000E+00  0.0000E+00  0.2650E+00  0.2650E+00
     -4.783  0.0000E+00  0.0000E+00  0.2650E+00  0.2650E+00
     -4.742  0.0000E+00  0.0000E+00  0.2650E+00  0.2650E+00
     -4.700  0.0000E+00  0.0000E+00  0.2650E+00  0.2650E+00
     -4.659  0.0000E+00  0.0000E+00  0.2650E+00  0.2650E+00
     -4.618  0.0000E+00  0.0000E+00  0.2650E+00  0.2650E+00
     -4.576  0.0000E+00  0.0000E+00  0.2650E+00  0.2650E+00
     -4.535  0.0000E+00  0.0000E+00  0.2650E+00  0.2650E+00
     -4.494  0.0000E+00  0.0000E+00  0.2660E+00  0.2660E+00
     -4.452  0.0000E+00  0.0000E+00  0.2660E+00  0.2660E+00
     -4.411  0.0000E+00  0.0000E+00  0.2660E+00  0.2660E+00
     -4.370  0.0000E+00  0.0000E+00  0.2660E+00  0.2660E+00
     -4.328  0.0000E+00  0.0000E+00  0.2670E+00  0.2670E+00
     -4.287  0.0000E+00  0.0000E+00  0.2670E+00  0.2670E+00
     -4.246  0.0000E+00  0.0000E+00  0.2670E+00  0.2670E+00
     -4.205  0.0000E+00  0.0000E+00  0.2680E+00  0.2680E+00
     -4.163  0.0000E+00  0.0000E+00  0.2680E+00  0.2680E+00
     -4.122  0.0000E+00  0.0000E+00  0.2680E+00  0.2680E+00
     -4.081  0.0000E+00  0.0000E+00  0.2680E+00  0.2680E+00
     -4.039  0.0000E+00  0.0000E+00  0.2690E+00  0.2690E+00
     -3.998  0.0000E+00  0.0000E+00  0.2690E+00  0.2690E+00
     -3.957  0.0000E+00  0.0000E+00  0.2700E+00  0.2700E+00
     -3.915  0.0000E+00  0.0000E+00  0.2700E+00  0.2700E+00
     -3.874  0.0000E+00  0.0000E+00  0.2700E+00  0.2700E+00
     -3.833  0.0000E+00  0.0000E+00  0.2710E+00  0.2710E+00
     -3.791  0.0000E+00  0.0000E+00  0.2710E+00  0.2710E+00
     -3.750  0.0000E+00  0.0000E+00  0.2710E+00  0.2710E+00
     -3.709  0.0000E+00  0.0000E+00  0.2720E+00  0.2720E+00
     -3.667  0.0000E+00  0.0000E+00  0.2720E+00  0.2720E+00
     -3.626  0.0000E+00  0.0000E+00  0.2730E+00  0.2730E+00
     -3.585  0.0000E+00  0.0000E+00  0.2730E+00  0.2730E+00
     -3.543  0.0000E+00  0.0000E+00  0.2730E+00  0.2730E+00
     -3.502  0.0000E+00  0.0000E+00  0.2730E+00  0.2730E+00
     -3.461  0.0000E+00  0.0000E+00  0.2740E+00  0.2740E+00
     -3.419  0.0000E+00  0.0000E+00  0.2740E+00  0.2740E+00
     -3.378  0.0000E+00  0.0000E+00  0.2750E+00  0.2750E+00
     -3.337  0.0000E+00  0.0000E+00  0.2750E+00  0.2750E+00
     -3.295  0.0000E+00  0.0000E+00  0.2750E+00  0.2750E+00
     -3.254  0.0000E+00  0.0000E+00  0.2750E+00  0.2750E+00
     -3.213  0.0000E+00  0.0000E+00  0.2750E+00  0.2750E+00
     -3.171  0.0000E+00  0.0000E+00  0.2760E+00  0.2760E+00
     -3.130  0.0000E+00  0.0000E+00  0.2760E+00  0.2760E+00
     -3.089  0.0000E+00  0.0000E+00  0.2760E+00  0.2760E+00
     -3.048  0.0000E+00  0.0000E+00  0.2760E+00  0.2760E+00
     -3.006  0.0000E+00  0.0000E+00  0.2760E+00  0.2760E+00
     -2.965  0.0000E+00  0.0000E+00  0.2770E+00  0.2770E+00
     -2.924  0.0000E+00  0.0000E+00  0.2770E+00  0.2770E+00
     -2.882  0.0000E+00  0.0000E+00  0.2780E+00  0.2780E+00
     -2.841  0.0000E+00  0.0000E+00  0.2780E+00  0.2780E+00
     -2.800  0.0000E+00  0.0000E+00  0.2780E+00  0.2780E+00
     -2.758  0.0000E+00  0.0000E+00  0.2790E+00  0.2790E+00
     -2.717  0.0000E+00  0.0000E+00  0.2790E+00  0.2790E+00
     -2.676  0.0000E+00  0.0000E+00  0.2790E+00  0.2790E+00
     -2.634  0.0000E+00  0.0000E+00  0.2790E+00  0.2790E+00
     -2.593  0.0000E+00  0.0000E+00  0.2800E+00  0.2800E+00
     -2.552  0.0000E+00  0.0000E+00  0.2810E+00  0.2810E+00
     -2.510  0.0000E+00  0.0000E+00  0.2810E+00  0.2810E+00
     -2.469  0.0000E+00  0.0000E+00  0.2810E+00  0.2810E+00
     -2.428  0.0000E+00  0.0000E+00  0.2820E+00  0.2820E+00
     -2.386  0.0000E+00  0.0000E+00  0.2820E+00  0.2820E+00
     -2.345  0.0000E+00  0.0000E+00  0.2830E+00  0.2830E+00
     -2.304  0.0000E+00  0.0000E+00  0.2830E+00  0.2830E+00
     -2.262  0.0000E+00  0.0000E+00  0.2840E+00  0.2840E+00
     -2.221  0.0000E+00  0.0000E+00  0.2850E+00  0.2850E+00
     -2.180  0.0000E+00  0.0000E+00  0.2860E+00  0.2860E+00
     -2.138  0.0000E+00  0.0000E+00  0.2860E+00  0.2860E+00
     -2.097  0.0000E+00  0.0000E+00  0.2860E+00  0.2860E+00
     -2.056  0.0000E+00  0.0000E+00  0.2860E+00  0.2860E+00
     -2.014  0.0000E+00  0.0000E+00  0.2860E+00  0.2860E+00
     -1.973  0.0000E+00  0.0000E+00  0.2880E+00  0.2880E+00
     -1.932  0.0000E+00  0.0000E+00  0.2880E+00  0.2880E+00
     -1.891  0.0000E+00  0.0000E+00  0.2880E+00  0.2880E+00
     -1.849  0.0000E+00  0.0000E+00  0.2890E+00  0.2890E+00
     -1.808  0.0000E+00  0.0000E+00  0.2890E+00  0.2890E+00
     -1.767  0.0000E+00  0.0000E+00  0.2890E+00  0.2890E+00
     -1.725  0.0000E+00  0.0000E+00  0.2900E+00  0.2900E+00
     -1.684  0.0000E+00  0.0000E+00  0.2900E+00  0.2900E+00
     -1.643  0.0000E+00  0.0000E+00  0.2910E+00  0.2910E+00
     -1.601  0.0000E+00  0.0000E+00  0.2910E+00  0.2910E+00
     -1.560  0.0000E+00  0.0000E+00  0.2920E+00  0.2920E+00
     -1.519  0.0000E+00  0.0000E+00  0.2930E+00  0.2930E+00
     -1.477  0.0000E+00  0.0000E+00  0.2940E+00  0.2940E+00
     -1.436  0.0000E+00  0.0000E+00  0.2940E+00  0.2940E+00
     -1.395  0.0000E+00  0.0000E+00  0.2940E+00  0.2940E+00
     -1.353  0.0000E+00  0.0000E+00  0.2940E+00  0.2940E+00
     -1.312  0.0000E+00  0.0000E+00  0.2940E+00  0.2940E+00
     -1.271  0.0000E+00  0.0000E+00  0.2950E+00  0.2950E+00
     -1.229  0.0000E+00  0.0000E+00  0.2950E+00  0.2950E+00
     -1.188  0.0000E+00  0.0000E+00  0.2960E+00  0.2960E+00
     -1.147  0.0000E+00  0.0000E+00  0.2960E+00  0.2960E+00
     -1.105  0.6583E-16  0.6583E-16  0.2970E+00  0.2970E+00
     -1.064  0.0000E+00  0.0000E+00  0.2980E+00  0.2980E+00
     -1.023  0.0000E+00  0.0000E+00  0.2980E+00  0.2980E+00
     -0.981  0.0000E+00  0.0000E+00  0.2990E+00  0.2990E+00
     -0.940  0.0000E+00  0.0000E+00  0.3000E+00  0.3000E+00
     -0.899  0.0000E+00  0.0000E+00  0.3000E+00  0.3000E+00
     -0.857  0.0000E+00  0.0000E+00  0.3000E+00  0.3000E+00
     -0.816  0.0000E+00  0.0000E+00  0.3010E+00  0.3010E+00
     -0.775  0.0000E+00  0.0000E+00  0.3030E+00  0.3030E+00
     -0.734  0.0000E+00  0.0000E+00  0.3040E+00  0.3040E+00
     -0.692  0.0000E+00  0.0000E+00  0.3050E+00  0.3050E+00
     -0.651  0.0000E+00  0.0000E+00  0.3050E+00  0.3050E+00
     -0.610  0.0000E+00  0.0000E+00  0.3060E+00  0.3060E+00
     -0.568  0.0000E+00  0.0000E+00  0.3060E+00  0.3060E+00
     -0.527  0.0000E+00  0.0000E+00  0.3060E+00  0.3060E+00
     -0.486  0.0000E+00  0.0000E+00  0.3070E+00  0.3070E+00
     -0.444  0.0000E+00  0.0000E+00  0.3080E+00  0.3080E+00
     -0.403  0.0000E+00  0.0000E+00  0.3080E+00  0.3080E+00
     -0.362  0.0000E+00  0.0000E+00  0.3080E+00  0.3080E+00
     -0.320  0.0000E+00  0.0000E+00  0.3080E+00  0.3080E+00
     -0.279  0.0000E+00  0.0000E+00  0.3080E+00  0.3080E+00
     -0.238  0.0000E+00  0.0000E+00  0.3090E+00  0.3090E+00
     -0.196  0.0000E+00  0.0000E+00  0.3100E+00  0.3100E+00
     -0.155  0.0000E+00  0.0000E+00  0.3110E+00  0.3110E+00
     -0.114  0.0000E+00  0.0000E+00  0.3110E+00  0.3110E+00
     -0.072  0.0000E+00  0.0000E+00  0.3120E+00  0.3120E+00
     -0.031  0.0000E+00  0.0000E+00  0.3120E+00  0.3120E+00
      0.010  0.0000E+00  0.0000E+00  0.3130E+00  0.3130E+00
      0.052  0.0000E+00  0.0000E+00  0.3130E+00  0.3130E+00
      0.093  0.0000E+00  0.0000E+00  0.3130E+00  0.3130E+00
      0.134  0.0000E+00  0.0000E+00  0.3140E+00  0.3140E+00
      0.176  0.0000E+00  0.0000E+00  0.3140E+00  0.3140E+00
      0.217  0.0000E+00  0.0000E+00  0.3150E+00  0.3150E+00
      0.258  0.0000E+00  0.0000E+00  0.3160E+00  0.3160E+00
      0.300  0.0000E+00  0.0000E+00  0.3160E+00  0.3160E+00
      0.341  0.0000E+00  0.0000E+00  0.3160E+00  0.3160E+00
      0.382  0.0000E+00  0.0000E+00  0.3180E+00  0.3180E+00
      0.423  0.0000E+00  0.0000E+00  0.3180E+00  0.3180E+00
      0.465  0.0000E+00  0.0000E+00  0.3190E+00  0.3190E+00
      0.506  0.0000E+00  0.0000E+00  0.3190E+00  0.3190E+00
      0.547  0.2646E-15  0.2646E-15  0.3190E+00  0.3190E+00
      0.589  0.0000E+00  0.0000E+00  0.3200E+00  0.3200E+00
      0.630  0.0000E+00  0.0000E+00  0.3220E+00  0.3220E+00
      0.671  0.0000E+00  0.0000E+00  0.3230E+00  0.3230E+00
      0.713  0.0000E+00  0.0000E+00  0.3230E+00  0.3230E+00
      0.754  0.0000E+00  0.0000E+00  0.3240E+00  0.3240E+00
      0.795  0.0000E+00  0.0000E+00  0.3250E+00  0.3250E+00
      0.837  0.0000E+00  0.0000E+00  0.3260E+00  0.3260E+00
      0.878  0.0000E+00  0.0000E+00  0.3270E+00  0.3270E+00
      0.919  0.0000E+00  0.0000E+00  0.3300E+00  0.3300E+00
      0.961  0.0000E+00  0.0000E+00  0.3320E+00  0.3320E+00
      1.002  0.0000E+00  0.0000E+00  0.3330E+00  0.3330E+00
      1.043  0.0000E+00  0.0000E+00  0.3340E+00  0.3340E+00
      1.085  0.0000E+00  0.0000E+00  0.3350E+00  0.3350E+00
      1.126  0.0000E+00  0.0000E+00  0.3380E+00  0.3380E+00
      1.167  0.0000E+00  0.0000E+00  0.3400E+00  0.3400E+00
      1.209  0.0000E+00  0.0000E+00  0.3410E+00  0.3410E+00
      1.250  0.0000E+00  0.0000E+00  0.3430E+00  0.3430E+00
      1.291  0.0000E+00  0.0000E+00  0.3450E+00  0.3450E+00
      1.333  0.0000E+00  0.0000E+00  0.3470E+00  0.3470E+00
      1.374  0.0000E+00  0.0000E+00  0.3500E+00  0.3500E+00
      1.415  0.0000E+00  0.0000E+00  0.3510E+00  0.3510E+00
      1.457  0.0000E+00  0.0000E+00  0.3530E+00  0.3530E+00
      1.498  0.0000E+00  0.0000E+00  0.3550E+00  0.3550E+00
      1.539  0.0000E+00  0.0000E+00  0.3560E+00  0.3560E+00
      1.580  0.0000E+00  0.0000E+00  0.3560E+00  0.3560E+00
      1.622  0.0000E+00  0.0000E+00  0.3560E+00  0.3560E+00
      1.663  0.0000E+00  0.0000E+00  0.3560E+00  0.3560E+00
      1.704  0.0000E+00  0.0000E+00  0.3560E+00  0.3560E+00
      1.746  0.0000E+00  0.0000E+00  0.3560E+00  0.3560E+00
      1.787  0.0000E+00  0.0000E+00  0.3560E+00  0.3560E+00
      1.828  0.0000E+00  0.0000E+00  0.3560E+00  0.3560E+00
      1.870  0.0000E+00  0.0000E+00  0.3560E+00  0.3560E+00
      1.911  0.0000E+00  0.0000E+00  0.3560E+00  0.3560E+00
      1.952  0.0000E+00  0.0000E+00  0.3560E+00  0.3560E+00
      1.994  0.0000E+00  0.0000E+00  0.3560E+00  0.3560E+00
      2.035  0.0000E+00  0.0000E+00  0.3560E+00  0.3560E+00
      2.076  0.0000E+00  0.0000E+00  0.3560E+00  0.3560E+00
