unknown system                          
           1
    23.676121    0.000000    0.000000
     0.000000   23.676121    0.000000
     0.000000    0.000000   23.676121
   Ag
  50
Direct configuration=     1
   0.73230706  0.49816564  0.55712811
   0.71046098  0.48399944  0.44094091
   0.71053983  0.60476611  0.52003246
   0.62168304  0.31001920  0.48915730
   0.64688628  0.66903206  0.59286672
   0.63932324  0.43775205  0.52283906
   0.67529256  0.43827087  0.63892925
   0.64341938  0.39535530  0.40983600
   0.62639753  0.34317991  0.59872784
   0.60585544  0.61483545  0.68816006
   0.63309667  0.54853317  0.59407632
   0.67746973  0.59093157  0.40929058
   0.60283230  0.50163588  0.70503799
   0.54772475  0.51294802  0.52400468
   0.59410504  0.50575292  0.42014790
   0.59353628  0.61464513  0.49255393
   0.56520698  0.30194880  0.38593172
   0.49623837  0.45934449  0.71609166
   0.49502721  0.27801192  0.47872290
   0.54943855  0.43442724  0.61091494
   0.52790541  0.66394704  0.61889273
   0.53971892  0.39173789  0.48521871
   0.51500463  0.31877377  0.58420141
   0.54356282  0.41611175  0.35622465
   0.51397515  0.54989786  0.63684616
   0.43000936  0.42525172  0.30977905
   0.45217725  0.36007306  0.40662259
   0.57233449  0.73038166  0.53206685
   0.44062255  0.38951955  0.64205779
   0.42810136  0.37254757  0.52148660
   0.44507618  0.48769142  0.56016761
   0.50971935  0.52523685  0.33378582
   0.47468875  0.47925116  0.43931909
   0.52219481  0.69651696  0.43538640
   0.47732769  0.60527787  0.51773875
   0.57662740  0.61584574  0.36958824
   0.40329176  0.51129532  0.67054722
   0.42036221  0.62519415  0.62338581
   0.39108112  0.52392482  0.35971063
   0.45619038  0.71779642  0.54262191
   0.36412760  0.43129336  0.43301470
   0.34763290  0.42895318  0.58938470
   0.45860378  0.60660723  0.40119289
   0.40964375  0.71522402  0.43164582
   0.38000297  0.54262189  0.47324603
   0.33790816  0.54906899  0.58426457
   0.36254547  0.65157537  0.52313334
   0.28332314  0.47630111  0.50501048
   0.33663041  0.62818076  0.40280878
   0.26947297  0.59009587  0.49218871
Direct configuration=     2
   0.73250193  0.49816521  0.55708575
   0.71055909  0.48410159  0.44098984
   0.71059783  0.60468980  0.51999808
   0.62162631  0.31000679  0.48914264
   0.64688483  0.66897606  0.59286635
   0.63944124  0.43767555  0.52290191
   0.67524140  0.43830737  0.63893352
   0.64346405  0.39521401  0.40990140
   0.62646441  0.34313846  0.59881601
   0.60583758  0.61484937  0.68821624
   0.63311832  0.54848997  0.59415824
   0.67767022  0.59090114  0.40929812
   0.60289068  0.50156592  0.70498638
   0.54775853  0.51293029  0.52400476
   0.59418631  0.50579288  0.42003366
   0.59360692  0.61477514  0.49248649
   0.56520825  0.30211580  0.38596086
   0.49620337  0.45931919  0.71620534
   0.49506136  0.27798163  0.47870921
   0.54953565  0.43437698  0.61097011
   0.52799385  0.66408088  0.61881156
   0.53970414  0.39175016  0.48518048
   0.51501972  0.31880851  0.58420467
   0.54343809  0.41604235  0.35614544
   0.51405833  0.54988615  0.63691808
   0.43009079  0.42532242  0.30995819
   0.45220138  0.35998680  0.40647127
   0.57236970  0.73050858  0.53207413
   0.44065153  0.38952930  0.64206002
   0.42805323  0.37255439  0.52155061
   0.44489460  0.48761515  0.56018897
   0.50965436  0.52518706  0.33370026
   0.47461117  0.47929140  0.43922840
   0.52227098  0.69652284  0.43539255
   0.47728324  0.60521943  0.51786551
   0.57640241  0.61591932  0.36957485
   0.40328081  0.51120637  0.67057267
   0.42027039  0.62517337  0.62335769
   0.39097296  0.52387040  0.35950529
   0.45617365  0.71786838  0.54262984
   0.36411863  0.43122968  0.43299803
   0.34749860  0.42900517  0.58939543
   0.45859949  0.60668691  0.40117172
   0.40958658  0.71520913  0.43166138
   0.37992274  0.54266843  0.47333487
   0.33778510  0.54910752  0.58419855
   0.36253318  0.65163675  0.52312821
   0.28327675  0.47626865  0.50501011
   0.33670634  0.62815463  0.40276661
   0.26942297  0.59006625  0.49220809
Direct configuration=     3
   0.73308655  0.49816391  0.55695866
   0.71085339  0.48440803  0.44113665
   0.71077185  0.60446086  0.51989494
   0.62145613  0.30996954  0.48909864
   0.64688047  0.66880809  0.59286526
   0.63979524  0.43744607  0.52309046
   0.67508791  0.43841685  0.63894635
   0.64359805  0.39479016  0.41009762
   0.62666507  0.34301412  0.59908053
   0.60578400  0.61489112  0.68838478
   0.63318328  0.54836039  0.59440399
   0.67827169  0.59080984  0.40932073
   0.60306580  0.50135603  0.70483152
   0.54785987  0.51287711  0.52400500
   0.59443015  0.50591279  0.41969092
   0.59381884  0.61516517  0.49228418
   0.56521206  0.30261680  0.38604828
   0.49609839  0.45924329  0.71654637
   0.49516383  0.27789075  0.47866814
   0.54982693  0.43422621  0.61113564
   0.52825916  0.66448237  0.61856806
   0.53965978  0.39178697  0.48506578
   0.51506498  0.31891274  0.58421445
   0.54306390  0.41583413  0.35590783
   0.51430786  0.54985102  0.63713385
   0.43033508  0.42553453  0.31049561
   0.45227376  0.35972803  0.40601731
   0.57247534  0.73088934  0.53209596
   0.44073847  0.38955853  0.64206669
   0.42790886  0.37257485  0.52174263
   0.44434986  0.48738633  0.56025304
   0.50945938  0.52503770  0.33344358
   0.47437842  0.47941209  0.43895632
   0.52249950  0.69654050  0.43541098
   0.47714986  0.60504412  0.51824579
   0.57572744  0.61614007  0.36953468
   0.40324796  0.51093954  0.67064902
   0.41999491  0.62511103  0.62327331
   0.39064849  0.52370713  0.35888927
   0.45612346  0.71808426  0.54265363
   0.36409174  0.43103865  0.43294801
   0.34709569  0.42916114  0.58942760
   0.45858663  0.60692596  0.40110820
   0.40941506  0.71516446  0.43170805
   0.37968204  0.54280802  0.47360137
   0.33741592  0.54922310  0.58400050
   0.36249631  0.65182088  0.52311284
   0.28313758  0.47617129  0.50500901
   0.33693412  0.62807623  0.40264010
   0.26927294  0.58997741  0.49226625
Direct configuration=     4
   0.73425579  0.49816132  0.55670449
   0.71144200  0.48502092  0.44143026
   0.71111990  0.60400299  0.51968867
   0.62111577  0.30989504  0.48901064
   0.64687177  0.66847213  0.59286308
   0.64050324  0.43698709  0.52346756
   0.67478093  0.43863582  0.63897201
   0.64386604  0.39394245  0.41049005
   0.62706637  0.34276543  0.59960956
   0.60567684  0.61497463  0.68872186
   0.63331319  0.54810122  0.59489550
   0.67947462  0.59062723  0.40936596
   0.60341605  0.50093624  0.70452182
   0.54806255  0.51277074  0.52400547
   0.59491782  0.50615259  0.41900544
   0.59424268  0.61594522  0.49187956
   0.56521967  0.30361880  0.38622313
   0.49588842  0.45909150  0.71722844
   0.49536875  0.27770899  0.47858600
   0.55040948  0.43392468  0.61146668
   0.52878977  0.66528537  0.61808106
   0.53957106  0.39186059  0.48483640
   0.51515550  0.31912119  0.58423399
   0.54231552  0.41541770  0.35543260
   0.51480694  0.54978076  0.63756540
   0.43082365  0.42595876  0.31157045
   0.45241851  0.35921050  0.40510939
   0.57268662  0.73165086  0.53213963
   0.44091234  0.38961699  0.64208003
   0.42762011  0.37261577  0.52212666
   0.44326036  0.48692870  0.56038119
   0.50906944  0.52473897  0.33293022
   0.47391293  0.47965347  0.43841217
   0.52295654  0.69657582  0.43544784
   0.47688310  0.60469351  0.51900635
   0.57437748  0.61658156  0.36945433
   0.40318224  0.51040588  0.67080171
   0.41944397  0.62498634  0.62310456
   0.38999955  0.52338060  0.35765723
   0.45602308  0.71851601  0.54270120
   0.36403796  0.43065660  0.43284797
   0.34628987  0.42947306  0.58949195
   0.45856092  0.60740407  0.40098118
   0.40907202  0.71507512  0.43180140
   0.37920065  0.54308721  0.47413439
   0.33667757  0.54945426  0.58360439
   0.36242257  0.65218914  0.52308209
   0.28285924  0.47597655  0.50500680
   0.33738969  0.62791942  0.40238708
   0.26897288  0.58979973  0.49238258
Direct configuration=     5
   0.73659427  0.49815612  0.55619613
   0.71261922  0.48624670  0.44201749
   0.71181598  0.60308724  0.51927613
   0.62043504  0.30974603  0.48883465
   0.64685436  0.66780022  0.59285871
   0.64191925  0.43606913  0.52422177
   0.67416697  0.43907376  0.63902332
   0.64440203  0.39224703  0.41127491
   0.62786899  0.34226806  0.60066762
   0.60546251  0.61514164  0.68939601
   0.63357302  0.54758289  0.59587850
   0.68188050  0.59026203  0.40945641
   0.60411655  0.50009668  0.70390242
   0.54846790  0.51255801  0.52400641
   0.59589315  0.50663221  0.41763448
   0.59509035  0.61750532  0.49107032
   0.56523489  0.30562280  0.38657283
   0.49546849  0.45878790  0.71859258
   0.49577861  0.27734547  0.47842172
   0.55157459  0.43332160  0.61212876
   0.52985101  0.66689137  0.61710705
   0.53939362  0.39200783  0.48437762
   0.51533655  0.31953810  0.58427309
   0.54081876  0.41458484  0.35448214
   0.51580508  0.54964023  0.63842849
   0.43180079  0.42680721  0.31372012
   0.45270802  0.35817542  0.40329354
   0.57310918  0.73317390  0.53222696
   0.44126010  0.38973391  0.64210671
   0.42704261  0.37269762  0.52289474
   0.44108138  0.48601343  0.56063748
   0.50828954  0.52414151  0.33190350
   0.47298194  0.48013623  0.43732386
   0.52387061  0.69664646  0.43552157
   0.47634958  0.60399228  0.52052747
   0.57167758  0.61746455  0.36929364
   0.40305081  0.50933856  0.67110711
   0.41834207  0.62473698  0.62276705
   0.38870167  0.52272753  0.35519313
   0.45582231  0.71937952  0.54279634
   0.36393039  0.42989249  0.43264789
   0.34467824  0.43009691  0.58962065
   0.45850949  0.60836028  0.40072713
   0.40838595  0.71489644  0.43198809
   0.37823788  0.54364560  0.47520041
   0.33520086  0.54991659  0.58281219
   0.36227510  0.65292567  0.52302060
   0.28230256  0.47558707  0.50500239
   0.33830082  0.62760582  0.40188104
   0.26837277  0.58944437  0.49261522
Direct configuration=     6
   0.73760286  0.49792769  0.55627036
   0.71299670  0.48628712  0.44243547
   0.71203244  0.60269856  0.51933177
   0.62005378  0.30943660  0.48947481
   0.64696914  0.66729941  0.59262995
   0.64258234  0.43567257  0.52430754
   0.67443412  0.43923189  0.63878088
   0.64473674  0.39229234  0.41154632
   0.62824317  0.34171662  0.60105574
   0.60522268  0.61522325  0.68972249
   0.63400180  0.54734288  0.59601392
   0.68205923  0.59065402  0.40883938
   0.60407024  0.49989489  0.70403644
   0.54829674  0.51230016  0.52374806
   0.59618872  0.50672662  0.41707207
   0.59541553  0.61791071  0.49078415
   0.56513484  0.30629012  0.38653644
   0.49542069  0.45869163  0.71922658
   0.49592115  0.27731188  0.47844556
   0.55196414  0.43317900  0.61245487
   0.52987582  0.66703955  0.61683342
   0.53917227  0.39243451  0.48415490
   0.51558024  0.31982132  0.58409054
   0.54108232  0.41455180  0.35417017
   0.51590589  0.54975846  0.63863799
   0.43198622  0.42704025  0.31423440
   0.45255537  0.35723349  0.40330491
   0.57340988  0.73415244  0.53216630
   0.44124398  0.39003833  0.64206262
   0.42689843  0.37255724  0.52279427
   0.44112414  0.48597475  0.56049792
   0.50786869  0.52410713  0.33150734
   0.47263505  0.48052506  0.43703576
   0.52385176  0.69721937  0.43595942
   0.47629256  0.60363785  0.52112172
   0.57157043  0.61728458  0.36927394
   0.40281617  0.50896311  0.67096990
   0.41834983  0.62459014  0.62273390
   0.38795111  0.52330886  0.35491113
   0.45583668  0.71967213  0.54269827
   0.36398547  0.42960631  0.43256565
   0.34389224  0.43006688  0.59009575
   0.45793955  0.60819934  0.40064024
   0.40841692  0.71494754  0.43215503
   0.37809644  0.54357571  0.47470731
   0.33452774  0.55006517  0.58318155
   0.36201553  0.65334042  0.52291946
   0.28185493  0.47528231  0.50470734
   0.33859070  0.62718941  0.40156506
   0.26803056  0.58947811  0.49251935
Direct configuration=     7
   0.74062862  0.49724239  0.55649306
   0.71412911  0.48640838  0.44368942
   0.71268184  0.60153252  0.51949869
   0.61890998  0.30850831  0.49139527
   0.64731348  0.66579700  0.59194370
   0.64457162  0.43448289  0.52456486
   0.67523557  0.43970628  0.63805356
   0.64574088  0.39242827  0.41236056
   0.62936573  0.34006230  0.60222009
   0.60450319  0.61546808  0.69070193
   0.63528811  0.54662284  0.59642017
   0.68259542  0.59183000  0.40698831
   0.60393129  0.49928955  0.70443849
   0.54778326  0.51152662  0.52297301
   0.59707541  0.50700987  0.41538482
   0.59639107  0.61912690  0.48992566
   0.56483467  0.30829211  0.38642726
   0.49527729  0.45840279  0.72112859
   0.49634877  0.27721114  0.47851710
   0.55313280  0.43275117  0.61343318
   0.52995023  0.66748411  0.61601254
   0.53850820  0.39371457  0.48348673
   0.51631132  0.32067095  0.58354290
   0.54187300  0.41445271  0.35323425
   0.51620832  0.55011315  0.63926648
   0.43254249  0.42773937  0.31577725
   0.45209740  0.35440769  0.40333900
   0.57431196  0.73708808  0.53198434
   0.44119565  0.39095161  0.64193035
   0.42646592  0.37213608  0.52249289
   0.44125243  0.48585869  0.56007926
   0.50660616  0.52400396  0.33031885
   0.47159437  0.48169155  0.43617148
   0.52379520  0.69893808  0.43727296
   0.47612150  0.60257455  0.52290444
   0.57124896  0.61674466  0.36921481
   0.40211225  0.50783673  0.67055827
   0.41837309  0.62414962  0.62263446
   0.38569942  0.52505284  0.35406513
   0.45587980  0.72054998  0.54240407
   0.36415072  0.42874780  0.43231895
   0.34153424  0.42997678  0.59152104
   0.45622972  0.60771652  0.40037957
   0.40850982  0.71510084  0.43265587
   0.37767213  0.54336605  0.47322800
   0.33250839  0.55051092  0.58428962
   0.36123682  0.65458467  0.52261605
   0.28051206  0.47436806  0.50382221
   0.33946035  0.62594020  0.40061712
   0.26700393  0.58957931  0.49223175
Direct configuration=     8
   0.74136644  0.49677301  0.55693397
   0.71402988  0.48672590  0.44390982
   0.71269898  0.60093705  0.51914969
   0.61806462  0.30855632  0.49203521
   0.64704739  0.66542144  0.59157051
   0.64472321  0.43414154  0.52447542
   0.67584971  0.43957745  0.63780788
   0.64588028  0.39290519  0.41277271
   0.62988296  0.33964014  0.60277586
   0.60418709  0.61544918  0.69060872
   0.63552098  0.54627943  0.59609640
   0.68221962  0.59210806  0.40650463
   0.60365134  0.49934306  0.70475801
   0.54847820  0.51129379  0.52257351
   0.59712924  0.50694157  0.41531544
   0.59637398  0.61897342  0.48988100
   0.56502932  0.30816212  0.38665041
   0.49512953  0.45849886  0.72133356
   0.49656793  0.27706800  0.47876599
   0.55336471  0.43298703  0.61363119
   0.52985275  0.66713963  0.61572417
   0.53860142  0.39434793  0.48322860
   0.51665483  0.32118444  0.58321991
   0.54245601  0.41514387  0.35333259
   0.51596369  0.55007854  0.63920241
   0.43219327  0.42790303  0.31625766
   0.45183261  0.35407232  0.40356100
   0.57470995  0.73778669  0.53238652
   0.44113430  0.39154527  0.64164342
   0.42631242  0.37206344  0.52229834
   0.44130215  0.48587169  0.55980878
   0.50627135  0.52422601  0.33020469
   0.47169181  0.48191307  0.43583376
   0.52332826  0.69875734  0.43741169
   0.47615625  0.60248207  0.52275432
   0.57138065  0.61654358  0.36967394
   0.40198080  0.50757386  0.67020168
   0.41850672  0.62401885  0.62269306
   0.38507908  0.52541438  0.35404490
   0.45616667  0.72042933  0.54220629
   0.36430901  0.42860123  0.43211424
   0.34148342  0.43008832  0.59194424
   0.45663772  0.60779770  0.40079002
   0.40864006  0.71523389  0.43265796
   0.37712974  0.54305177  0.47350017
   0.33228635  0.55046696  0.58423001
   0.36091232  0.65432006  0.52269809
   0.28046749  0.47424797  0.50341703
   0.33896128  0.62606295  0.40028711
   0.26710619  0.58960078  0.49205186
Direct configuration=     9
   0.74331904  0.49553083  0.55810080
   0.71376729  0.48756620  0.44449309
   0.71274434  0.59936119  0.51822609
   0.61582743  0.30868339  0.49372876
   0.64634319  0.66442755  0.59058286
   0.64512440  0.43323817  0.52423873
   0.67747499  0.43923652  0.63715770
   0.64624918  0.39416732  0.41386344
   0.63125179  0.33852290  0.60424665
   0.60335054  0.61539914  0.69036203
   0.63613725  0.54537062  0.59523955
   0.68122509  0.59284394  0.40522458
   0.60291048  0.49948469  0.70560360
   0.55031730  0.51067761  0.52151625
   0.59727171  0.50676079  0.41513183
   0.59632873  0.61856724  0.48976281
   0.56554442  0.30781811  0.38724099
   0.49473848  0.45875311  0.72187602
   0.49714792  0.27668919  0.47942468
   0.55397843  0.43361120  0.61415523
   0.52959477  0.66622800  0.61496102
   0.53884810  0.39602409  0.48254547
   0.51756390  0.32254336  0.58236512
   0.54399892  0.41697301  0.35359286
   0.51531630  0.54998694  0.63903286
   0.43126907  0.42833616  0.31752903
   0.45113185  0.35318476  0.40414852
   0.57576320  0.73963552  0.53345088
   0.44097196  0.39311635  0.64088410
   0.42590619  0.37187120  0.52178345
   0.44143374  0.48590608  0.55909296
   0.50538530  0.52481365  0.32990256
   0.47194969  0.48249932  0.43494001
   0.52209253  0.69827904  0.43777883
   0.47624823  0.60223734  0.52235704
   0.57172917  0.61601145  0.37088898
   0.40163291  0.50687818  0.66925798
   0.41886037  0.62367277  0.62284811
   0.38343740  0.52637117  0.35399136
   0.45692587  0.72011001  0.54168287
   0.36472794  0.42821334  0.43157251
   0.34134890  0.43038350  0.59306421
   0.45771746  0.60801256  0.40187626
   0.40898473  0.71558602  0.43266349
   0.37569431  0.54222006  0.47422046
   0.33169874  0.55035061  0.58407226
   0.36005352  0.65361976  0.52291519
   0.28034955  0.47393016  0.50234472
   0.33764053  0.62638782  0.39941376
   0.26737682  0.58965760  0.49157579
Direct configuration=    10
   0.74409031  0.49496873  0.55836433
   0.71362739  0.48842807  0.44493330
   0.71265590  0.59823167  0.51761863
   0.61458261  0.30903437  0.49462918
   0.64603007  0.66387797  0.59000036
   0.64546412  0.43286117  0.52470944
   0.67779585  0.43914640  0.63736844
   0.64625281  0.39429483  0.41422447
   0.63191235  0.33816183  0.60510341
   0.60303901  0.61519905  0.68993195
   0.63633649  0.54480420  0.59507480
   0.68100610  0.59299407  0.40481225
   0.60295609  0.49940111  0.70550202
   0.55052934  0.51068041  0.52151854
   0.59743973  0.50678655  0.41494209
   0.59616184  0.61835960  0.48989698
   0.56582320  0.30813625  0.38752776
   0.49440863  0.45898286  0.72194414
   0.49729168  0.27639021  0.47955509
   0.55445958  0.43400809  0.61432871
   0.52956833  0.66582811  0.61440895
   0.53875945  0.39659128  0.48200831
   0.51814006  0.32360978  0.58214736
   0.54419756  0.41721757  0.35398659
   0.51507015  0.54965662  0.63877934
   0.43093513  0.42849790  0.31847633
   0.45138936  0.35312588  0.40423769
   0.57591102  0.74011281  0.53376403
   0.44134252  0.39367008  0.64040027
   0.42582541  0.37185461  0.52166688
   0.44188514  0.48599725  0.55834362
   0.50492722  0.52524300  0.32972788
   0.47185672  0.48299972  0.43462785
   0.52229710  0.69817481  0.43850847
   0.47631829  0.60176959  0.52203406
   0.57165667  0.61595790  0.37137179
   0.40153384  0.50678224  0.66893870
   0.41881416  0.62349793  0.62275427
   0.38299974  0.52685041  0.35427757
   0.45717916  0.71972488  0.54140940
   0.36485419  0.42825061  0.43116351
   0.34121531  0.43070572  0.59312581
   0.45749605  0.60768222  0.40245177
   0.40848167  0.71555441  0.43259175
   0.37535236  0.54197004  0.47411034
   0.33152288  0.55031548  0.58403853
   0.36025895  0.65336699  0.52307214
   0.28049488  0.47360207  0.50194956
   0.33728278  0.62680432  0.39934509
   0.26727477  0.58958785  0.49122460
Direct configuration=    11
   0.74640413  0.49328242  0.55915494
   0.71320771  0.49101371  0.44625392
   0.71239059  0.59484312  0.51579626
   0.61084817  0.31008731  0.49733044
   0.64509069  0.66222924  0.58825287
   0.64648326  0.43173017  0.52612159
   0.67875845  0.43887605  0.63800067
   0.64626371  0.39467734  0.41530757
   0.63389403  0.33707861  0.60767367
   0.60210443  0.61459877  0.68864171
   0.63693421  0.54310494  0.59458057
   0.68034913  0.59344446  0.40357525
   0.60309290  0.49915038  0.70519728
   0.55116544  0.51068880  0.52152541
   0.59794379  0.50686380  0.41437285
   0.59566116  0.61773668  0.49029948
   0.56665954  0.30909066  0.38838808
   0.49341907  0.45967212  0.72214851
   0.49772296  0.27549327  0.47994632
   0.55590301  0.43519877  0.61484913
   0.52948902  0.66462846  0.61275275
   0.53849349  0.39829287  0.48039684
   0.51986852  0.32680904  0.58149408
   0.54479349  0.41795127  0.35516777
   0.51433170  0.54866568  0.63801877
   0.42993331  0.42898313  0.32131823
   0.45216190  0.35294923  0.40450520
   0.57635447  0.74154467  0.53470351
   0.44245419  0.39533127  0.63894879
   0.42558309  0.37180484  0.52131717
   0.44323935  0.48627075  0.55609559
   0.50355297  0.52653107  0.32920386
   0.47157780  0.48450093  0.43369136
   0.52291084  0.69786213  0.44069738
   0.47652850  0.60036633  0.52106513
   0.57143916  0.61579725  0.37282021
   0.40123664  0.50649443  0.66798088
   0.41867550  0.62297340  0.62247275
   0.38168676  0.52828814  0.35513621
   0.45793905  0.71856949  0.54058901
   0.36523295  0.42836243  0.42993652
   0.34081453  0.43167236  0.59331059
   0.45683180  0.60669122  0.40417829
   0.40697251  0.71545958  0.43237651
   0.37432651  0.54121998  0.47377999
   0.33099530  0.55021007  0.58393732
   0.36087522  0.65260867  0.52354297
   0.28093087  0.47261781  0.50076409
   0.33620953  0.62805383  0.39913910
   0.26696863  0.58937859  0.49017104
Direct configuration=    12
   0.74690219  0.49262424  0.55905908
   0.71294036  0.49109294  0.44704537
   0.71190922  0.59369373  0.51561004
   0.61073655  0.31054477  0.49866369
   0.64566795  0.66149699  0.58760181
   0.64682214  0.43148594  0.52680580
   0.67889431  0.43882572  0.63921234
   0.64660989  0.39459227  0.41568955
   0.63433269  0.33696908  0.60848758
   0.60205879  0.61417789  0.68798053
   0.63723657  0.54272327  0.59491405
   0.68081785  0.59381276  0.40308730
   0.60336924  0.49895290  0.70486101
   0.55125599  0.51054709  0.52149275
   0.59800799  0.50703662  0.41427570
   0.59579932  0.61744964  0.49044840
   0.56689289  0.30965604  0.38857505
   0.49336377  0.46008539  0.72215471
   0.49710143  0.27525497  0.47998225
   0.55674420  0.43537122  0.61493708
   0.52954812  0.66423467  0.61224607
   0.53806375  0.39896111  0.47979050
   0.52036246  0.32776174  0.58120689
   0.54379030  0.41795562  0.35513727
   0.51435125  0.54830043  0.63776324
   0.42991994  0.42942433  0.32217410
   0.45304497  0.35273585  0.40473751
   0.57613570  0.74166760  0.53497201
   0.44312125  0.39553581  0.63832995
   0.42566944  0.37186876  0.52131938
   0.44295103  0.48580523  0.55557084
   0.50342242  0.52661602  0.32874522
   0.47154474  0.48513044  0.43369780
   0.52285581  0.69776459  0.44125068
   0.47618694  0.59982653  0.52138964
   0.57026041  0.61624775  0.37281057
   0.40124976  0.50697411  0.66775476
   0.41855742  0.62278537  0.62222278
   0.38141385  0.52845571  0.35503044
   0.45758192  0.71837256  0.54032781
   0.36512568  0.42833305  0.42944341
   0.34107867  0.43192013  0.59258580
   0.45605379  0.60707160  0.40460325
   0.40681894  0.71531997  0.43239672
   0.37412969  0.54166915  0.47338808
   0.33072973  0.55042972  0.58362462
   0.36141390  0.65229644  0.52332953
   0.28102980  0.47226817  0.50058860
   0.33602097  0.62856877  0.39964533
   0.26680799  0.58905484  0.48996151
Direct configuration=    13
   0.74741797  0.49194266  0.55895980
   0.71266349  0.49117500  0.44786497
   0.71141072  0.59250347  0.51541720
   0.61062096  0.31101850  0.50004437
   0.64626575  0.66073870  0.58692759
   0.64717307  0.43123303  0.52751435
   0.67903501  0.43877360  0.64046709
   0.64696838  0.39450417  0.41608511
   0.63478696  0.33685566  0.60933044
   0.60201153  0.61374205  0.68729584
   0.63754969  0.54232802  0.59525940
   0.68130323  0.59419414  0.40258198
   0.60365540  0.49874839  0.70451277
   0.55134976  0.51040033  0.52145894
   0.59807448  0.50721558  0.41417508
   0.59594239  0.61715238  0.49060262
   0.56713455  0.31024154  0.38876866
   0.49330651  0.46051336  0.72216113
   0.49645779  0.27500820  0.48001946
   0.55761530  0.43554981  0.61502817
   0.52960933  0.66382687  0.61172136
   0.53761871  0.39965312  0.47916260
   0.52087398  0.32874832  0.58090949
   0.54275144  0.41796012  0.35510569
   0.51437149  0.54792219  0.63749861
   0.42990609  0.42988121  0.32306042
   0.45395944  0.35251487  0.40497808
   0.57590915  0.74179490  0.53525006
   0.44381203  0.39574763  0.63768911
   0.42575886  0.37193495  0.52132168
   0.44265246  0.48532315  0.55502743
   0.50328723  0.52670400  0.32827027
   0.47151050  0.48578233  0.43370447
   0.52279883  0.69766358  0.44182367
   0.47583324  0.59926752  0.52172571
   0.56903974  0.61671427  0.37280060
   0.40126334  0.50747085  0.66752061
   0.41843513  0.62259066  0.62196392
   0.38113124  0.52862924  0.35492091
   0.45721208  0.71816862  0.54005733
   0.36501460  0.42830263  0.42893275
   0.34135220  0.43217672  0.59183524
   0.45524810  0.60746552  0.40504331
   0.40665990  0.71517540  0.43241765
   0.37392586  0.54213430  0.47298223
   0.33045473  0.55065719  0.58330079
   0.36197175  0.65197310  0.52310850
   0.28113226  0.47190610  0.50040686
   0.33582570  0.62910203  0.40016957
   0.26664163  0.58871958  0.48974453
Direct configuration=    14
   0.74769416  0.49089963  0.55942034
   0.71212524  0.49069409  0.44800543
   0.71105083  0.59175967  0.51536382
   0.61073185  0.31169747  0.50035143
   0.64710637  0.66056010  0.58661188
   0.64723228  0.43091329  0.52830580
   0.67992048  0.43852465  0.64157017
   0.64696856  0.39457163  0.41654402
   0.63513542  0.33697024  0.61056218
   0.60227295  0.61353696  0.68679681
   0.63787078  0.54181793  0.59558131
   0.68121081  0.59439470  0.40206251
   0.60360869  0.49878158  0.70501122
   0.55149951  0.51023877  0.52163015
   0.59799273  0.50761865  0.41385370
   0.59591216  0.61676453  0.49006853
   0.56765408  0.31055808  0.38962040
   0.49342701  0.46094100  0.72196681
   0.49608784  0.27491206  0.48048583
   0.55840673  0.43543954  0.61504990
   0.52982989  0.66346914  0.61111820
   0.53813789  0.39972818  0.47900717
   0.52124677  0.32887239  0.58023065
   0.54234323  0.41819525  0.35488462
   0.51438503  0.54767338  0.63716689
   0.42968807  0.43002071  0.32324703
   0.45393994  0.35244777  0.40497263
   0.57559292  0.74151351  0.53569067
   0.44428259  0.39624391  0.63767585
   0.42570265  0.37166840  0.52089985
   0.44218933  0.48495647  0.55461886
   0.50322949  0.52697169  0.32801731
   0.47134952  0.48682690  0.43370360
   0.52249608  0.69767926  0.44221830
   0.47568610  0.59864113  0.52219120
   0.56830908  0.61694115  0.37272440
   0.40134062  0.50810299  0.66716205
   0.41835598  0.62251109  0.62217238
   0.38073592  0.52910710  0.35457231
   0.45695126  0.71836156  0.54037538
   0.36512135  0.42812062  0.42867257
   0.34199562  0.43205590  0.59111082
   0.45454948  0.60801583  0.40484743
   0.40698250  0.71577919  0.43231649
   0.37370447  0.54215215  0.47263635
   0.33020553  0.55080716  0.58297763
   0.36180899  0.65168822  0.52253575
   0.28112697  0.47177479  0.50009918
   0.33523013  0.62943083  0.40045430
   0.26627811  0.58839833  0.48976630
Direct configuration=    15
   0.74800514  0.48972520  0.55993891
   0.71151917  0.49015259  0.44816358
   0.71064559  0.59092216  0.51530371
   0.61085671  0.31246198  0.50069719
   0.64805289  0.66035900  0.58625639
   0.64729894  0.43055326  0.52919695
   0.68091751  0.43824434  0.64281222
   0.64696877  0.39464758  0.41706075
   0.63552779  0.33709926  0.61194911
   0.60256730  0.61330605  0.68623491
   0.63823232  0.54124359  0.59594377
   0.68110673  0.59462052  0.40147758
   0.60355609  0.49881895  0.70557246
   0.55166812  0.51005685  0.52182293
   0.59790067  0.50807251  0.41349183
   0.59587812  0.61632781  0.48946716
   0.56823907  0.31091450  0.39057945
   0.49356270  0.46142252  0.72174801
   0.49567129  0.27480382  0.48101095
   0.55929786  0.43531537  0.61507437
   0.53007825  0.66306634  0.61043904
   0.53872247  0.39981269  0.47883215
   0.52166654  0.32901210  0.57946628
   0.54188359  0.41846000  0.35463570
   0.51440027  0.54739321  0.63679338
   0.42944257  0.43017779  0.32345716
   0.45391799  0.35237220  0.40496650
   0.57523684  0.74119667  0.53618679
   0.44481244  0.39680272  0.63766092
   0.42563935  0.37136826  0.52042487
   0.44166786  0.48454359  0.55415882
   0.50316449  0.52727311  0.32773248
   0.47116826  0.48800306  0.43370262
   0.52215519  0.69769692  0.44266265
   0.47552042  0.59793581  0.52271535
   0.56748636  0.61719661  0.37263861
   0.40142764  0.50881476  0.66675833
   0.41826686  0.62242150  0.62240711
   0.38029079  0.52964516  0.35417979
   0.45665758  0.71857882  0.54073350
   0.36524156  0.42791567  0.42837960
   0.34272010  0.43191985  0.59029513
   0.45376284  0.60863548  0.40462686
   0.40734574  0.71645904  0.43220258
   0.37345517  0.54217224  0.47224690
   0.32992494  0.55097602  0.58261376
   0.36162573  0.65136745  0.52189084
   0.28112102  0.47162694  0.49975274
   0.33455952  0.62980104  0.40077491
   0.26586879  0.58803661  0.48979081
Direct configuration=    16
   0.74799009  0.48891541  0.56020055
   0.71086543  0.48988485  0.44812120
   0.71071272  0.58966347  0.51499642
   0.61203882  0.31262622  0.50136435
   0.64841579  0.66038494  0.58600190
   0.64754860  0.43017461  0.53034460
   0.68217034  0.43820269  0.64405818
   0.64677221  0.39524665  0.41733270
   0.63531373  0.33694446  0.61294811
   0.60306833  0.61345041  0.68577518
   0.63864844  0.54057058  0.59626605
   0.68045215  0.59427278  0.40120784
   0.60366717  0.49885393  0.70640730
   0.55185802  0.50962486  0.52195448
   0.59735030  0.50849005  0.41301595
   0.59574060  0.61606154  0.48893483
   0.56841354  0.31102304  0.39154507
   0.49358677  0.46197552  0.72158879
   0.49548148  0.27461141  0.48105310
   0.55997877  0.43497560  0.61552627
   0.53059187  0.66217407  0.60999992
   0.53867530  0.40064204  0.47838452