unknown system                          
           1
    21.702012    0.000000    0.000000
     0.000000   21.702012    0.000000
     0.000000    0.000000   21.702012
   Ag
  27
Direct configuration=     1
   0.49989277  0.69834868  0.64337320
   0.53576558  0.69763769  0.52344012
   0.43557866  0.62029553  0.56426933
   0.55055844  0.57792740  0.35580276
   0.56821322  0.69630422  0.40158134
   0.47036393  0.62227173  0.44341454
   0.40969836  0.55841011  0.34794518
   0.47861899  0.58138241  0.68367108
   0.37918930  0.54694277  0.47932679
   0.40596683  0.50257213  0.59799545
   0.57290291  0.59750897  0.59806392
   0.34261588  0.46024915  0.39434352
   0.60729930  0.59889717  0.47640708
   0.50736570  0.51091110  0.51802534
   0.55010832  0.48363853  0.64190120
   0.44721744  0.45928357  0.71458482
   0.40413464  0.41776825  0.49534394
   0.47631010  0.46164967  0.39884175
   0.56896572  0.46803415  0.30301636
   0.60053030  0.48242876  0.42866371
   0.63758466  0.49764845  0.54967826
   0.46463957  0.38761891  0.60094214
   0.53629855  0.37088394  0.70661716
   0.52432940  0.38279442  0.48665417
   0.59419839  0.37662255  0.59207719
   0.58213864  0.36750755  0.37626510
   0.65577948  0.37996976  0.48388708
Direct configuration=     2
   0.49987113  0.69841136  0.64344866
   0.53580835  0.69770263  0.52346139
   0.43567555  0.62040779  0.56444277
   0.55046731  0.57796652  0.35580553
   0.56824919  0.69631110  0.40151246
   0.47051128  0.62230962  0.44321091
   0.40980548  0.55849599  0.34795771
   0.47847022  0.58131447  0.68374452
   0.37911752  0.54675015  0.47926665
   0.40586674  0.50247265  0.59814147
   0.57283978  0.59767658  0.59813766
   0.34258187  0.46024541  0.39432073
   0.60723913  0.59893609  0.47621581
   0.50736711  0.51098172  0.51800285
   0.55005012  0.48353217  0.64213085
   0.44715915  0.45929958  0.71457845
   0.40399051  0.41783923  0.49542506
   0.47633031  0.46173974  0.39861082
   0.56896970  0.46796447  0.30289131
   0.60063036  0.48238217  0.42852020
   0.63760704  0.49751202  0.54963357
   0.46462255  0.38761548  0.60113357
   0.53632491  0.37085786  0.70661318
   0.52444153  0.38271258  0.48665487
   0.59431768  0.37657149  0.59224448
   0.58213225  0.36746751  0.37619300
   0.65581832  0.38003120  0.48383405
Direct configuration=     3
   0.49980622  0.69859937  0.64367501
   0.53593666  0.69789745  0.52352521
   0.43596624  0.62074456  0.56496308
   0.55019391  0.57808389  0.35581385
   0.56835710  0.69633176  0.40130582
   0.47095330  0.62242332  0.44260002
   0.41012681  0.55875363  0.34799528
   0.47802389  0.58111063  0.68396482
   0.37890218  0.54617230  0.47908623
   0.40556649  0.50217419  0.59857956
   0.57265038  0.59817942  0.59835891
   0.34247985  0.46023416  0.39425235
   0.60705860  0.59905286  0.47564201
   0.50737137  0.51119356  0.51793538
   0.54987552  0.48321308  0.64281979
   0.44698427  0.45934761  0.71455935
   0.40355811  0.41805217  0.49566843
   0.47639094  0.46200994  0.39791802
   0.56898161  0.46775544  0.30251615
   0.60093055  0.48224242  0.42808966
   0.63767416  0.49710274  0.54949949
   0.46457151  0.38760521  0.60170786
   0.53640399  0.37077962  0.70660122
   0.52477793  0.38246709  0.48665697
   0.59467557  0.37641830  0.59274637
   0.58211309  0.36734736  0.37597670
   0.65593484  0.38021549  0.48367496
Direct configuration=     4
   0.49967638  0.69897541  0.64412773
   0.53619329  0.69828708  0.52365286
   0.43654761  0.62141810  0.56600371
   0.54964711  0.57831863  0.35583048
   0.56857292  0.69637308  0.40089253
   0.47183736  0.62265072  0.44137823
   0.41076947  0.55926892  0.34807043
   0.47713124  0.58070296  0.68440543
   0.37847150  0.54501659  0.47872541
   0.40496598  0.50157727  0.59945573
   0.57227157  0.59918511  0.59880139
   0.34227580  0.46021167  0.39411561
   0.60669755  0.59928638  0.47449441
   0.50737987  0.51161724  0.51780045
   0.54952631  0.48257489  0.64419769
   0.44663453  0.45944367  0.71452116
   0.40269331  0.41847805  0.49615515
   0.47651220  0.46255034  0.39653241
   0.56900545  0.46733738  0.30176584
   0.60153093  0.48196293  0.42722858
   0.63780839  0.49628419  0.54923134
   0.46446944  0.38758466  0.60285644
   0.53656214  0.37062313  0.70657732
   0.52545073  0.38197610  0.48666117
   0.59539135  0.37611193  0.59375014
   0.58207477  0.36710708  0.37554411
   0.65616787  0.38058408  0.48335677
Direct configuration=     5
   0.49941672  0.69972748  0.64503316
   0.53670654  0.69906635  0.52390815
   0.43771035  0.62276519  0.56808497
   0.54855352  0.57878809  0.35586375
   0.56900456  0.69645571  0.40006595
   0.47360547  0.62310552  0.43893467
   0.41205479  0.56029949  0.34822073
   0.47534594  0.57988762  0.68528665
   0.37761015  0.54270517  0.47800375
   0.40376497  0.50038343  0.60120808
   0.57151397  0.60119647  0.59968636
   0.34186770  0.46016668  0.39384211
   0.60597545  0.59975344  0.47219920
   0.50739688  0.51246461  0.51753058
   0.54882791  0.48129852  0.64695348
   0.44593503  0.45963579  0.71444477
   0.40096371  0.41932982  0.49712861
   0.47675471  0.46363115  0.39376120
   0.56905312  0.46650125  0.30026522
   0.60273169  0.48140393  0.42550644
   0.63807687  0.49464708  0.54869504
   0.46426529  0.38754357  0.60515359
   0.53687845  0.37031015  0.70652951
   0.52679632  0.38099412  0.48666957
   0.59682291  0.37549918  0.59575768
   0.58199814  0.36662650  0.37467892
   0.65663393  0.38132127  0.48272039
Direct configuration=     6
   0.49957186  0.69927813  0.64449218
   0.53639988  0.69860076  0.52375562
   0.43701564  0.62196033  0.56684146
   0.54920691  0.57850760  0.35584387
   0.56874667  0.69640634  0.40055981
   0.47254907  0.62283379  0.44039464
   0.41128684  0.55968374  0.34813093
   0.47641262  0.58037477  0.68476014
   0.37812479  0.54408619  0.47843493
   0.40448255  0.50109672  0.60016109
   0.57196662  0.59999473  0.59915761
   0.34211153  0.46019356  0.39400552
   0.60640689  0.59947438  0.47357054
   0.50738672  0.51195833  0.51769182
   0.54924519  0.48206112  0.64530696
   0.44635296  0.45952100  0.71449041
   0.40199711  0.41882091  0.49654699
   0.47660981  0.46298539  0.39541694
   0.56902464  0.46700082  0.30116181
   0.60201426  0.48173792  0.42653538
   0.63791646  0.49562522  0.54901547
   0.46438726  0.38756812  0.60378109
   0.53668946  0.37049715  0.70655807
   0.52599236  0.38158083  0.48666455
   0.59596758  0.37586529  0.59455822
   0.58204393  0.36691363  0.37519585
   0.65635547  0.38088081  0.48310061
Direct configuration=     7
   0.49950664  0.69959243  0.64496626
   0.53652770  0.69886633  0.52372368
   0.43726614  0.62179433  0.56685815
   0.54914120  0.57817353  0.35527182
   0.56900486  0.69674036  0.40019031
   0.47250574  0.62293065  0.44065736
   0.41157925  0.56003784  0.34804299
   0.47589508  0.58029834  0.68507385
   0.37850370  0.54408387  0.47864032
   0.40411597  0.50105695  0.60039747
   0.57172780  0.59997703  0.59930076
   0.34195203  0.46010066  0.39368990
   0.60612936  0.59928539  0.47323983
   0.50734682  0.51220379  0.51764047
   0.54939528  0.48220447  0.64568554
   0.44584092  0.45936936  0.71481910
   0.40202926  0.41893002  0.49695372
   0.47680661  0.46301698  0.39492516
   0.56904232  0.46687592  0.30058415
   0.60238612  0.48167599  0.42595451
   0.63750497  0.49538228  0.54890535
   0.46431165  0.38752773  0.60412094
   0.53676642  0.37021143  0.70688935
   0.52599386  0.38166095  0.48683249
   0.59652674  0.37569264  0.59493208
   0.58196851  0.36673774  0.37484357
   0.65649011  0.38108058  0.48299337
Direct configuration=     8
   0.49931098  0.70053534  0.64638849
   0.53691116  0.69966306  0.52362787
   0.43801765  0.62129632  0.56690823
   0.54894406  0.57717131  0.35355569
   0.56977945  0.69774240  0.39908182
   0.47237577  0.62322125  0.44144549
   0.41245647  0.56110014  0.34777917
   0.47434248  0.58006903  0.68601500
   0.37964045  0.54407691  0.47925649
   0.40301623  0.50093761  0.60110662
   0.57101135  0.59992395  0.59973021
   0.34147354  0.45982197  0.39274305
   0.60529678  0.59871840  0.47224769
   0.50722714  0.51294017  0.51748643
   0.54984556  0.48263450  0.64682130
   0.44430481  0.45891444  0.71580518
   0.40212570  0.41925736  0.49817391
   0.47739699  0.46311174  0.39344985
   0.56909537  0.46650124  0.29885119
   0.60350171  0.48149021  0.42421189
   0.63627049  0.49465348  0.54857499
   0.46408479  0.38740654  0.60514050
   0.53699731  0.36935426  0.70788316
   0.52599837  0.38190132  0.48733631
   0.59820420  0.37517468  0.59605365
   0.58174224  0.36621007  0.37378674
   0.65689403  0.38167988  0.48267165
Direct configuration=     9
   0.49891966  0.70242115  0.64923294
   0.53767808  0.70125651  0.52343624
   0.43952066  0.62030029  0.56700837
   0.54854978  0.57516688  0.35012341
   0.57132864  0.69974650  0.39686482
   0.47211583  0.62380244  0.44302177
   0.41421091  0.56322475  0.34725152
   0.47123728  0.57961041  0.68789728
   0.38191394  0.54406298  0.48048882
   0.40081676  0.50069894  0.60252491
   0.56957845  0.59981779  0.60058911
   0.34051656  0.45926458  0.39084935
   0.60363161  0.59758442  0.47026341
   0.50698778  0.51441294  0.51717833
   0.55074611  0.48349456  0.64909281
   0.44123258  0.45800459  0.71777732
   0.40231858  0.41991204  0.50061429
   0.47857775  0.46330127  0.39049921
   0.56920148  0.46575187  0.29538525
   0.60573290  0.48111865  0.42072666
   0.63380152  0.49319588  0.54791426
   0.46363109  0.38716416  0.60717960
   0.53745907  0.36763994  0.70987080
   0.52600738  0.38238205  0.48834394
   0.60155911  0.37413878  0.59829680
   0.58128972  0.36515473  0.37167308
   0.65770188  0.38287847  0.48202820
Direct configuration=    10
   0.49917091  0.70121035  0.64740664
   0.53718568  0.70023342  0.52355928
   0.43855564  0.62093980  0.56694407
   0.54880293  0.57645384  0.35232712
   0.57033398  0.69845976  0.39828826
   0.47228273  0.62342928  0.44200971
   0.41308446  0.56186063  0.34759030
   0.47323099  0.57990487  0.68668875
   0.38045424  0.54407192  0.47969759
   0.40222894  0.50085218  0.60161429
   0.57049845  0.59988595  0.60003765
   0.34113099  0.45962245  0.39206521
   0.60470074  0.59831250  0.47153742
   0.50714147  0.51346734  0.51737615
   0.55016790  0.48294235  0.64763438
   0.44320512  0.45858876  0.71651109
   0.40219474  0.41949170  0.49904743
   0.47781964  0.46317958  0.39239368
   0.56913335  0.46623301  0.29761057
   0.60430035  0.48135721  0.42296437
   0.63538673  0.49413174  0.54833848
   0.46392239  0.38731978  0.60587038
   0.53716259  0.36874063  0.70859463
   0.52600159  0.38207339  0.48769698
   0.59940507  0.37480389  0.59685657
   0.58158027  0.36583232  0.37303017
   0.65718320  0.38210891  0.48244133
Direct configuration=    11
   0.49906931  0.70098306  0.64764719
   0.53738652  0.70035715  0.52364501
   0.43917566  0.62069828  0.56719542
   0.54843407  0.57654323  0.35181620
   0.57037756  0.69831106  0.39783486
   0.47302489  0.62385746  0.44214167
   0.41341389  0.56208126  0.34760898
   0.47266347  0.58009347  0.68705767
   0.38103482  0.54400403  0.47955330
   0.40190421  0.50104515  0.60202640
   0.56990434  0.59965959  0.60004479
   0.34175061  0.45999109  0.39224778
   0.60393810  0.59803710  0.47132180
   0.50710106  0.51340580  0.51722385
   0.55008908  0.48293721  0.64819344
   0.44271105  0.45791464  0.71687228
   0.40266114  0.41971122  0.49890840
   0.47806864  0.46277917  0.39245431
   0.56928398  0.46576696  0.29652057
   0.60468501  0.48125914  0.42200978
   0.63389950  0.49400967  0.54801076
   0.46436695  0.38744182  0.60631939
   0.53695484  0.36874256  0.70913334
   0.52608564  0.38285960  0.48797344
   0.59998650  0.37486158  0.59727593
   0.58118655  0.36585680  0.37275944
   0.65710772  0.38229947  0.48233651
Direct configuration=    12
   0.49876450  0.70030119  0.64836883
   0.53798905  0.70072833  0.52390220
   0.44103572  0.61997374  0.56794945
   0.54732748  0.57681141  0.35028344
   0.57050829  0.69786498  0.39647469
   0.47525137  0.62514200  0.44253753
   0.41440216  0.56274315  0.34766503
   0.47096089  0.58065928  0.68816444
   0.38277659  0.54380036  0.47912042
   0.40093000  0.50162405  0.60326273
   0.56812200  0.59898049  0.60006622
   0.34360945  0.46109699  0.39279547
   0.60165018  0.59721090  0.47067493
   0.50697985  0.51322116  0.51676694
   0.54985262  0.48292179  0.64987063
   0.44122885  0.45589226  0.71795584
   0.40406033  0.42036977  0.49849133
   0.47881563  0.46157794  0.39263621
   0.56973586  0.46436884  0.29325058
   0.60583897  0.48096493  0.41914599
   0.62943781  0.49364346  0.54702757
   0.46570063  0.38780794  0.60766641
   0.53633158  0.36874834  0.71074950
   0.52633777  0.38521822  0.48880280
   0.60173079  0.37503467  0.59853400
   0.58000541  0.36593024  0.37194725
   0.65688129  0.38287115  0.48202207
Direct configuration=    13
   0.49883036  0.69983555  0.64843698
   0.53844712  0.70090669  0.52433221
   0.44120898  0.61968478  0.56776387
   0.54705390  0.57626332  0.34922452
   0.57051496  0.69741340  0.39602768
   0.47535693  0.62565068  0.44223746
   0.41503727  0.56253707  0.34825293
   0.47037710  0.58008204  0.68884387
   0.38370080  0.54479078  0.47899030
   0.40111164  0.50156326  0.60357654
   0.56763102  0.59860938  0.60016672
   0.34489729  0.46175411  0.39304319
   0.60096493  0.59691753  0.47040448
   0.50575564  0.51291204  0.51655825
   0.54892547  0.48273237  0.65116625
   0.44110495  0.45517856  0.71794312
   0.40484327  0.42032659  0.49865861
   0.47933153  0.46120888  0.39251561
   0.56966383  0.46437457  0.29261194
   0.60593597  0.48140250  0.41755938
   0.62799498  0.49323530  0.54643406
   0.46620527  0.38853714  0.60728988
   0.53630201  0.36900786  0.71161969
   0.52761358  0.38598675  0.48938719
   0.60199810  0.37557354  0.59917968
   0.57910793  0.36616175  0.37209274
   0.65635026  0.38286114  0.48181536
Direct configuration=    14
   0.49893363  0.69910533  0.64854385
   0.53916545  0.70118639  0.52500654
   0.44148069  0.61923163  0.56747286
   0.54662487  0.57540383  0.34756396
   0.57052541  0.69670526  0.39532671
   0.47552247  0.62644837  0.44176690
   0.41603322  0.56221391  0.34917484
   0.46946162  0.57917684  0.68990934
   0.38515012  0.54634393  0.47878623
   0.40139649  0.50146793  0.60406864
   0.56686109  0.59802742  0.60032433
   0.34691683  0.46278459  0.39343166
   0.59989034  0.59645749  0.46998035
   0.50383589  0.51242727  0.51623099
   0.54747154  0.48243534  0.65319798
   0.44091066  0.45405935  0.71792318
   0.40607104  0.42025887  0.49892094
   0.48014055  0.46063013  0.39232651
   0.56955088  0.46438355  0.29161044
   0.60608806  0.48208867  0.41507132
   0.62573240  0.49259524  0.54550333
   0.46699663  0.38968064  0.60669942
   0.53625563  0.36941482  0.71298430
   0.52961426  0.38719192  0.49030361
   0.60241728  0.37641858  0.60019221
   0.57770053  0.36652479  0.37232089
   0.65551752  0.38284545  0.48149120
Direct configuration=    15
   0.49888366  0.69945869  0.64849214
   0.53881785  0.70105104  0.52468023
   0.44134921  0.61945091  0.56761368
   0.54683248  0.57581974  0.34836751
   0.57052035  0.69704793  0.39566591
   0.47544236  0.62606237  0.44199461
   0.41555128  0.56237029  0.34872872
   0.46990463  0.57961487  0.68939375
   0.38444879  0.54559236  0.47888498
   0.40125865  0.50151406  0.60383051
   0.56723366  0.59830903  0.60024806
   0.34593957  0.46228594  0.39324368
   0.60041033  0.59668011  0.47018559
   0.50476487  0.51266185  0.51638935
   0.54817510  0.48257908  0.65221482
   0.44100468  0.45460094  0.71793283
   0.40547692  0.42029164  0.49879400
   0.47974906  0.46091019  0.39241802
   0.56960553  0.46437921  0.29209507
   0.60601446  0.48175663  0.41627530
   0.62682727  0.49290497  0.54595371
   0.46661369  0.38912730  0.60698515
   0.53627807  0.36921789  0.71232396
   0.52864612  0.38660874  0.48986015
   0.60221444  0.37600967  0.59970224
   0.57838158  0.36634911  0.37221049
   0.65592048  0.38285304  0.48164806
Direct configuration=    16
   0.49899662  0.69911990  0.64849831
   0.53909578  0.70080057  0.52472463
   0.44095627  0.61992614  0.56767131
   0.54687910  0.57581953  0.34807314
   0.57062151  0.69673084  0.39578831
   0.47526239  0.62677155  0.44153770
   0.41583615  0.56213646  0.34875636
   0.46953654  0.57926807  0.68942658
   0.38362230  0.54586416  0.47905343
   0.40153220  0.50139453  0.60355333
   0.56743709  0.59767946  0.60047143
   0.34631637  0.46213455  0.39330146
   0.60026466  0.59657524  0.47011901
   0.50386539  0.51274431  0.51652542
   0.54830570  0.48294942  0.65220997
   0.44073500  0.45458542  0.71802882
   0.40553667  0.42040811  0.49872753
   0.48007611  0.46062584  0.39212289
   0.56938803  0.46447387  0.29205118
   0.60641339  0.48228546  0.41641884
   0.62684600  0.49257752  0.54573871
   0.46694818  0.38933898  0.60659353
   0.53659157  0.36907788  0.71253290
   0.52958618  0.38658129  0.49019562
   0.60199275  0.37660682  0.60031998
   0.57772538  0.36627983  0.37234705
   0.65589778  0.38275181  0.48134509
Direct configuration=    17
   0.49909674  0.69881963  0.64850378
   0.53934212  0.70057858  0.52476399
   0.44060801  0.62034735  0.56772238
   0.54692041  0.57581935  0.34781223
   0.57071116  0.69644979  0.39589679
   0.47510287  0.62740010  0.44113273
   0.41608864  0.56192922  0.34878086
   0.46921030  0.57896069  0.68945568
   0.38288977  0.54610506  0.47920273
   0.40177465  0.50128859  0.60330765
   0.56761738  0.59712147  0.60066940
   0.34665033  0.46200037  0.39335268
   0.60013554  0.59648229  0.47005999
   0.50306816  0.51281740  0.51664602
   0.54842145  0.48327766  0.65220568
   0.44049597  0.45457166  0.71811389
   0.40558963  0.42051133  0.49866862
   0.48036598  0.46037382  0.39186131
   0.56919526  0.46455778  0.29201228
   0.60676697  0.48275418  0.41654605
   0.62686261  0.49228729  0.54554815
   0.46724465  0.38952660  0.60624644
   0.53686942  0.36895379  0.71271808
   0.53041937  0.38655697  0.49049296
   0.60179626  0.37713609  0.60086749
   0.57714378  0.36621842  0.37246809
   0.65587765  0.38266209  0.48107657
Direct configuration=    18
   0.49940907  0.69830503  0.64858165
   0.53967792  0.69996981  0.52496841
   0.44016465  0.62091154  0.56748151
   0.54703134  0.57613464  0.34784114
   0.57123527  0.69637653  0.39590684
   0.47412965  0.62772564  0.44104842
   0.41643021  0.56158262  0.34875252
   0.46860742  0.57883749  0.68921588
   0.38189999  0.54673558  0.47937434
   0.40185374  0.50131557  0.60309356
   0.56778208  0.59698961  0.60067271
   0.34685876  0.46152530  0.39322728
   0.59980487  0.59644565  0.47033650
   0.50264746  0.51315210  0.51656722
   0.54850233  0.48321540  0.65251929
   0.44055604  0.45434309  0.71792438
   0.40596494  0.42054662  0.49826545
   0.48097059  0.45984170  0.39177859
   0.56901355  0.46447550  0.29218827
   0.60713313  0.48275709  0.41654860
   0.62678791  0.49206537  0.54522303
   0.46778628  0.38964899  0.60632118
   0.53687123  0.36914548  0.71267068
   0.53062318  0.38687685  0.49085492
   0.60201560  0.37769833  0.60154790
   0.57601064  0.36647126  0.37248606
   0.65649723  0.38241478  0.48073620
Direct configuration=    19
   0.49956922  0.69804118  0.64862157
   0.53985010  0.69965766  0.52507322
   0.43993732  0.62120082  0.56735801
   0.54708821  0.57629631  0.34785596
   0.57150401  0.69633897  0.39591199
   0.47363064  0.62789256  0.44100519
   0.41660535  0.56140490  0.34873798
   0.46829830  0.57877432  0.68909292
   0.38139250  0.54705887  0.47946233
   0.40189429  0.50132941  0.60298379
   0.56786653  0.59692199  0.60067441
   0.34696563  0.46128171  0.39316298
   0.59963532  0.59642686  0.47047828
   0.50243175  0.51332372  0.51652681
   0.54854380  0.48318348  0.65268009
   0.44058684  0.45422589  0.71782720
   0.40615737  0.42056472  0.49805873
   0.48128059  0.45956886  0.39173618
   0.56892038  0.46443330  0.29227851
   0.60732088  0.48275858  0.41654990
   0.62674961  0.49195158  0.54505633
   0.46806400  0.38971174  0.60635950
   0.53687216  0.36924376  0.71264638
   0.53072768  0.38704086  0.49104051
   0.60212807  0.37798661  0.60189677
   0.57542963  0.36660091  0.37249528
   0.65681492  0.38228798  0.48056168
Direct configuration=    20
   0.49990646  0.69776132  0.64891826
   0.54001708  0.69936818  0.52503188
   0.43971358  0.62134178  0.56716587
   0.54719510  0.57664914  0.34843741
   0.57175197  0.69621916  0.39612630
   0.47336678  0.62813687  0.44097674
   0.41687661  0.56078729  0.34874497
   0.46775749  0.57881820  0.68859838
   0.38081043  0.54700837  0.47933819
   0.40169986  0.50139705  0.60280072
   0.56776168  0.59687885  0.60064615
   0.34720280  0.46111190  0.39307242
   0.59904925  0.59631499  0.47070190
   0.50262425  0.51385587  0.51614278
   0.54864032  0.48347981  0.65301375
   0.44063992  0.45407395  0.71756264
   0.40665386  0.42079096  0.49782504
   0.48142175  0.45934235  0.39183728
   0.56892241  0.46461604  0.29232600
   0.60753419  0.48241523  0.41630370
   0.62638039  0.49187364  0.54487366
   0.46800704  0.38974021  0.60639062
   0.53672009  0.36925406  0.71295292
   0.53097622  0.38761387  0.49149004
   0.60322350  0.37797526  0.60184659
   0.57428654  0.36648979  0.37251680
   0.65712549  0.38219342  0.48049153
Direct configuration=    21
   0.50024357  0.69748156  0.64921484
   0.54018400  0.69907880  0.52499054
   0.43948993  0.62148270  0.56697380
   0.54730194  0.57700184  0.34901863
   0.57199984  0.69609940  0.39634053
   0.47310303  0.62838108  0.44094830
   0.41714777  0.56016993  0.34875196
   0.46721688  0.57886207  0.68810404
   0.38022858  0.54695788  0.47921409
   0.40150551  0.50146467  0.60261772
   0.56765688  0.59683573  0.60061789
   0.34743987  0.46094215  0.39298189
   0.59846342  0.59620315  0.47092544
   0.50281668  0.51438783  0.51575889
   0.54873680  0.48377603  0.65334727
   0.44069298  0.45392207  0.71729818
   0.40715017  0.42101711  0.49759143
   0.48156286  0.45911592  0.39193835
   0.56892445  0.46479871  0.29237348
   0.60774742  0.48207202  0.41605759
   0.62601131  0.49179573  0.54469105
   0.46795011  0.38976866  0.60642173
   0.53656808  0.36926435  0.71325934
   0.53122467  0.38818665  0.49193940
   0.60431850  0.37796392  0.60179642
   0.57314389  0.36637871  0.37253832
   0.65743594  0.38209891  0.48042140
Direct configuration=    22
   0.50003402  0.69765545  0.64903049
   0.54008024  0.69925868  0.52501624
   0.43962895  0.62139511  0.56709319
   0.54723553  0.57678261  0.34865735
   0.57184577  0.69617385  0.39620737
   0.47326698  0.62822928  0.44096598
   0.41697922  0.56055368  0.34874762
   0.46755292  0.57883480  0.68841132
   0.38059025  0.54698926  0.47929123
   0.40162632  0.50142264  0.60273147
   0.56772202  0.59686253  0.60063546
   0.34729251  0.46104766  0.39303816
   0.59882757  0.59627267  0.47078649
   0.50269707  0.51405717  0.51599751
   0.54867683  0.48359190  0.65313995
   0.44066000  0.45401648  0.71746257
   0.40684167  0.42087653  0.49773664
   0.48147515  0.45925666  0.39187552
   0.56892318  0.46468516  0.29234397
   0.60761488  0.48228536  0.41621057
   0.62624073  0.49184416  0.54480456
   0.46798550  0.38975098  0.60640239
   0.53666257  0.36925796  0.71306887
   0.53107024  0.38783061  0.49166008
   0.60363786  0.37797097  0.60182760
   0.57385415  0.36644776  0.37252495
   0.65724296  0.38215766  0.48046499
Direct configuration=    23
   0.50015334  0.69768003  0.64932013
   0.53997808  0.69963335  0.52511393
   0.43961635  0.62128166  0.56697059
   0.54739122  0.57660797  0.34896236
   0.57185559  0.69627758  0.39640327
   0.47313857  0.62827534  0.44089781
   0.41720019  0.56030965  0.34871527
   0.46721704  0.57885766  0.68820015
   0.38090021  0.54677663  0.47920561
   0.40142745  0.50137841  0.60245391
   0.56754840  0.59692923  0.60070139
   0.34723164  0.46094625  0.39286974
   0.59877900  0.59588861  0.47072917
   0.50250218  0.51446872  0.51560120
   0.54889640  0.48330251  0.65310087
   0.44051802  0.45413700  0.71731115
   0.40702791  0.42105684  0.49788363
   0.48129892  0.45925174  0.39191569
   0.56896696  0.46511781  0.29237001
   0.60766078  0.48207462  0.41599500
   0.62598454  0.49176451  0.54488812
   0.46793464  0.38976041  0.60651343
   0.53673238  0.36925373  0.71293597
   0.53169160  0.38834376  0.49210548
   0.60418818  0.37791439  0.60200606
   0.57330821  0.36600358  0.37252276
   0.65711729  0.38221560  0.48043983
Direct configuration=    24
   0.50017530  0.69768455  0.64937344
   0.53995928  0.69970231  0.52513191
   0.43961404  0.62126078  0.56694803
   0.54741987  0.57657582  0.34901850
   0.57185740  0.69629667  0.39643933
   0.47311494  0.62828382  0.44088526
   0.41724086  0.56026474  0.34870932
   0.46715521  0.57886187  0.68816128
   0.38095726  0.54673750  0.47918986
   0.40139085  0.50137027  0.60240282
   0.56751645  0.59694151  0.60071352
   0.34722043  0.46092758  0.39283874
   0.59877007  0.59581792  0.47071862
   0.50246630  0.51454447  0.51552826
   0.54893681  0.48324924  0.65309367
   0.44049188  0.45415918  0.71728328
   0.40706220  0.42109003  0.49791069
   0.48126649  0.45925083  0.39192309
   0.56897501  0.46519744  0.29237480
   0.60766923  0.48203583  0.41595532
   0.62593739  0.49174985  0.54490351
   0.46792527  0.38976214  0.60653387
   0.53674523  0.36925295  0.71291151
   0.53180597  0.38843821  0.49218746
   0.60428947  0.37790398  0.60203890
   0.57320772  0.36592182  0.37252236
   0.65709415  0.38222626  0.48043520
Direct configuration=    25
   0.50006115  0.69775106  0.64947531
   0.53974183  0.69986611  0.52520362
   0.43978538  0.62139338  0.56704222
   0.54751181  0.57651410  0.34909720
   0.57173805  0.69635482  0.39667575
   0.47326758  0.62851438  0.44081700
   0.41730520  0.56038191  0.34853001
   0.46711434  0.57870813  0.68812582
   0.38117012  0.54662955  0.47886758
   0.40127049  0.50127812  0.60232399
   0.56734229  0.59693067  0.60077195
   0.34709629  0.46084645  0.39280257
   0.59890126  0.59589164  0.47065477
   0.50242003  0.51466262  0.51540034
   0.54896743  0.48313043  0.65294796
   0.44039504  0.45433362  0.71716431
   0.40710747  0.42091718  0.49795235
   0.48122272  0.45906749  0.39196481
   0.56900819  0.46517221  0.29246355
   0.60765681  0.48162235  0.41582601
   0.62572415  0.49172367  0.54497977
   0.46796867  0.38972047  0.60659933
   0.53684605  0.36920435  0.71271323
   0.53197398  0.38907457  0.49246574
   0.60440228  0.37774814  0.60244734
   0.57303694  0.36586266  0.37247032
   0.65722954  0.38220751  0.48034968
Direct configuration=    26
   0.50005286  0.69775589  0.64948271
   0.53972604  0.69987800  0.52520883
   0.43979782  0.62140300  0.56704906
   0.54751849  0.57650962  0.34910291
   0.57172938  0.69635904  0.39669291
   0.47327866  0.62853112  0.44081205
   0.41730987  0.56039042  0.34851699
   0.46711138  0.57869697  0.68812324
   0.38118557  0.54662171  0.47884417
   0.40126175  0.50127143  0.60231827
   0.56732965  0.59692988  0.60077619
   0.34708728  0.46084056  0.39279995
   0.59891079  0.59589699  0.47065013
   0.50241667  0.51467120  0.51539105
   0.54896965  0.48312180  0.65293738
   0.44038801  0.45434628  0.71715567
   0.40711075  0.42090462  0.49795537
   0.48121954  0.45905417  0.39196784
   0.56901060  0.46517038  0.29246999
   0.60765591  0.48159233  0.41581662
   0.62570867  0.49172177  0.54498531
   0.46797182  0.38971744  0.60660408
   0.53685338  0.36920082  0.71269883
   0.53198618  0.38912078  0.49248595
   0.60441047  0.37773682  0.60247700
   0.57302453  0.36585836  0.37246655
   0.65723937  0.38220615  0.48034347
Direct configuration=    27
   0.49990217  0.69783879  0.64959099
   0.53958120  0.69988752  0.52531403
   0.43976937  0.62136189  0.56698773
   0.54759813  0.57649587  0.34910085
   0.57171229  0.69654671  0.39676980
   0.47324750  0.62858255  0.44078283
   0.41738248  0.56049953  0.34844000
   0.46721022  0.57860190  0.68815970
   0.38141672  0.54671811  0.47862183
   0.40122555  0.50129381  0.60215046
   0.56725819  0.59695170  0.60076964
   0.34707927  0.46080064  0.39280614
   0.59909284  0.59587515  0.47063023
   0.50237972  0.51485839  0.51541674
   0.54885647  0.48318707  0.65287966
   0.44041421  0.45432072  0.71712000
   0.40701121  0.42068461  0.49786394
   0.48105241  0.45895935  0.39191477
   0.56901709  0.46497226  0.29245890
   0.60765952  0.48158269  0.41595641
   0.62557469  0.49163933  0.54489892
   0.46792685  0.38965157  0.60661188
   0.53680990  0.36915333  0.71276536
   0.53218063  0.38950794  0.49260196
   0.60449546  0.37760270  0.60260922
   0.57300428  0.36579815  0.37249272
   0.65740672  0.38213528  0.48041779
Direct configuration=    28
   0.49991997  0.69782900  0.64957820
   0.53959831  0.69988640  0.52530160
   0.43977273  0.62136674  0.56699497
   0.54758872  0.57649749  0.34910110
   0.57171431  0.69652454  0.39676072
   0.47325118  0.62857648  0.44078628
   0.41737390  0.56048664  0.34844909
   0.46719854  0.57861313  0.68815540
   0.38138942  0.54670672  0.47864810
   0.40122983  0.50129117  0.60217028
   0.56726663  0.59694913  0.60077042
   0.34708022  0.46080536  0.39280541
   0.59907133  0.59587773  0.47063258
   0.50238408  0.51483628  0.51541371
   0.54886984  0.48317936  0.65288648
   0.44041111  0.45432374  0.71712421
   0.40702297  0.42071060  0.49787474
   0.48107215  0.45897055  0.39192104
   0.56901632  0.46499566  0.29246021
   0.60765910  0.48158383  0.41593989
   0.62559052  0.49164907  0.54490913
   0.46793217  0.38965936  0.60661096
   0.53681503  0.36915894  0.71275750
   0.53215766  0.38946221  0.49258825
   0.60448542  0.37761854  0.60259360
   0.57300667  0.36580526  0.37248963
   0.65738695  0.38214365  0.48040901
