30
Energy = -3.55560127 Dir = /p/work1/plile1/GA_structures/Hg/30/all_candidates/4806/
Hg 14.157598441755514 4.817974907507956 4.295233189051404
Hg 11.761791864491126 12.791140246493693 6.434055865080625
Hg 11.512830340396853 6.423749613351217 6.478389443354451
Hg 9.108492083862778 15.237756577876826 7.002639099844627
Hg 14.397502310135796 10.437067752285357 7.492052221430681
Hg 10.931386488264305 9.648534867542612 7.469514777410462
Hg 12.61312198512411 8.008657649710978 9.933826360130858
Hg 11.839125178332576 14.979091205128844 9.11540946105635
Hg 9.389504795491149 12.476663209597934 9.083850540778965
Hg 12.564687384720441 11.68981084692332 10.185356402075085
Hg 15.204152419354934 13.613753106107454 9.093311691667806
Hg 9.354061222181365 7.220316924282884 9.355489549496447
Hg 6.739414090456099 9.626296604927754 9.901506587790351
Hg 8.83484961879207 15.678666790940765 10.68363224814661
Hg 15.479672029120346 9.901830438576132 10.721531345938844
Hg 6.944043126741214 12.805627836998545 11.345184311631932
Hg 9.867791931280696 9.901095109844656 11.50414788021612
Hg 13.607476822389131 14.440570285434301 12.062882785787457
Hg 15.484050729374827 11.956633303307653 13.62100859338489
Hg 10.934382093749532 6.703698738046585 12.791713439613313
Hg 7.27406192702766 8.564086728001456 13.35592732714646
Hg 10.430136039831481 14.932282271071276 13.622122462335833
Hg 11.785189986175931 11.772294441396292 13.601634593618943
Hg 13.631131713406534 8.828821461604008 13.588726177359469
Hg 8.339296419533479 12.01898986841908 14.427295885254994
Hg 13.638948726548648 13.948600242994589 15.716466504652955
Hg 10.178294965006524 9.107024675453564 15.230765709653868
Hg 7.508461787990203 15.20410639409967 15.509132352636868
Hg 13.093130873973582 10.678825418575613 16.58831504782273
Hg 10.41427719331452 13.604897072321757 16.80774273445322
