20
Energy = -2.16402126 Dir = /p/work1/plile1/GA_structures/Hg/20/all_candidates/800/
Hg 11.298818397600952 9.91796268752489 4.901377315160779
Hg 8.362929565594827 11.563961995140668 5.11419788452657
Hg 8.073216822778605 8.118754223292282 5.14074634469371
Hg 8.88933831103364 5.37871641682362 7.011442833133112
Hg 11.812398807141616 7.312653286236219 7.827938628622129
Hg 6.380807923486206 11.291012592293859 7.78261471688989
Hg 9.374050672765629 13.14122314088223 8.058147402640971
Hg 9.177467013610025 9.510728017501506 8.196594630668798
Hg 6.464068127868963 7.547435421166303 8.294205217003602
Hg 12.368846974889253 10.785875367225627 8.078883936581706
Hg 11.591432820234473 13.435802514172922 10.487674605043628
Hg 6.440987046748 10.74002142141243 11.020663566438095
Hg 11.257881150458402 9.143010325764514 10.795397758996378
Hg 8.853900377091206 5.154015476483277 10.724038122009814
Hg 12.127885919214433 5.886182617357865 11.296306738421501
Hg 6.1947556257879866 7.245442927299577 11.625178430174262
Hg 8.38577548195673 13.428598401993078 11.80992045290452
Hg 8.631256832146246 9.113214722182068 12.914098255488804
Hg 11.029613973982487 11.518619089539527 13.214601598330098
Hg 11.60111436509372 8.083315565190528 14.022517771754357
