25
Energy = -2.91136357 Dir = /p/work1/plile1/GA_structures/Hg/25/all_candidates/1449/
Hg 12.514913821734314 12.334666707246155 5.338787207093852
Hg 6.446515251501459 13.07270698504795 6.676262825236314
Hg 9.327917936280018 10.955728550913948 6.546359758817275
Hg 12.295656324931178 9.308413487237019 6.720615155964092
Hg 14.636819701797602 8.289159837631244 9.112991048214125
Hg 12.529485001129547 12.299556433462971 8.800916185011449
Hg 11.654180847885003 6.6669345591398255 8.842001153436314
Hg 6.94040461989855 10.6809157401343 9.092409081196012
Hg 9.073778453615715 13.369180252358465 8.849428934724848
Hg 8.007589050648555 7.267904091462157 9.326790662441049
Hg 10.391878570471146 9.665953016220756 9.706719255312015
Hg 10.657789001848958 15.451854854795165 10.964921891149334
Hg 10.14880853140285 6.950787740305318 12.001278124232211
Hg 11.024602669680203 12.015880660536798 12.015389246067013
Hg 14.11625070796289 10.749240748079695 11.430385871143052
Hg 7.992763482070749 13.338504559615991 12.255500415133978
Hg 13.850298264488227 14.12625339042093 11.764222757508307
Hg 5.058496879374687 11.513221965978014 11.985948763970326
Hg 16.54549670634191 8.540163361145035 12.004887018014273
Hg 7.796224686966239 9.632705317048217 12.246571653555176
Hg 7.757034602970701 7.206264183823552 14.631772595709593
Hg 13.341536168759935 7.817257739834954 13.044423086456657
Hg 10.950345257272875 14.651757619411558 14.36615283841789
Hg 10.427479981431242 9.41828388019711 14.397215278148089
Hg 13.324723397385076 11.487694235801744 14.68903911089624
