4
Energy = -0.13232409 eV
Hg 7.401725154394025 11.159082392393296 10.38369688520066
Hg 11.303648334758362 8.953323706331455 11.412180947918761
Hg 13.118770174472193 10.861924985440599 9.038007259539809
Hg 7.47365433739634 8.228804066525804 8.391874362730706
