6
Energy = -898.0
Hg -1.307532 -0.567449 1.014933
Hg 0.479606 1.052285 -1.366842
Hg -1.705906 -1.723735 -2.336164
Hg 1.321666 -2.269634 -0.60413
Hg -0.679778 2.948892 1.434529
Hg 1.891945 0.559642 1.857674
