7
Energy = -0.49590769 eV
Hg 8.653879089744366 9.193773736737276 6.820972630632327
Hg 6.776168518288463 6.809751133715427 5.242858842127663
Hg 4.017940977825009 7.600515995988735 7.326791179205882
Hg 5.273351265525008 8.629505229094198 10.468712182527769
Hg 10.267518093579948 6.544159517405297 5.532003846826442
Hg 10.491433197726767 8.654640521464135 9.955557382804693
Hg 8.235085285347468 6.2982090355208475 8.370072007116933
