8
Energy = -0.64395036 eV
Hg 12.37662644272872 9.9888177430963 7.564604661381245
Hg 12.374224487451997 9.370570667222045 11.053190105557048
Hg 9.177353343732674 8.914825466711957 8.354512711553793
Hg 11.568623220617988 12.442964225408948 9.98433987689095
Hg 8.040462197961018 10.040330624249787 11.313404248418388
Hg 8.3518671047522 12.401108855300036 8.622278001384682
Hg 9.710007171775871 7.015944174797715 11.333251048366968
Hg 10.510783286285148 11.334360739929723 13.252861917175501
