18
Energy = -44.22593493 eV
Au 8.106453465769503 10.083462243797824 10.028225227229377
Au 14.336278530464353 7.761401852015131 10.43501152269574
Au 10.593972416945094 14.365849107557414 12.051595190648731
Au 11.011155595999808 9.91710686489592 12.986097678416122
Au 12.396035000571946 12.260133154476046 12.46345445834472
Au 12.597745333937285 9.176925302723028 8.934488485109954
Au 9.18023246150321 8.226598299325131 11.808470188013148
Au 8.31114016930035 12.361936739824886 8.502536716124999
Au 8.688894476710951 12.548792557920773 11.187856057562172
Au 11.766542334692259 7.772730636294575 11.335918029175813
Au 9.885715403917795 12.313620387200752 13.688600566388175
Au 10.545921611659182 10.83422175138585 8.401764929771096
Au 8.070227486047868 10.456738267751941 12.835767456215937
Au 9.970144294663367 8.263339179589995 9.141894578441725
Au 12.977064963948582 14.271637588644765 10.696293697986553
Au 10.693497488707578 13.442198262594001 9.34331174708937
Au 13.480377917198261 9.986994192973027 11.666784557865057
Au 12.915445588776054 11.798694458696957 9.582324125476639
