17
Energy = -40.68848481 eV
Au 11.798514561086705 9.485878821919266 14.116941630252454
Au 12.635507358339483 9.33223529081749 11.512681303346724
Au 11.257708839293032 7.183330312912336 12.510249602278035
Au 12.814771488726894 11.763454333930852 10.090320171932955
Au 11.495708607068437 11.727525799041956 12.601678610381079
Au 9.682856250562986 9.385906182738344 12.301404280416953
Au 14.684165136558862 9.799921829579379 9.831167857272266
Au 9.768010870938841 13.79989309187864 12.987850034905033
Au 8.108913614291064 14.243308243917356 10.825612412206926
Au 12.347642617278346 9.346693072829746 8.604173469819516
Au 8.468983677269234 11.684220469838904 11.785968084286818
Au 10.636495455059078 13.254289824093108 10.367512833745693
Au 10.413759383872101 7.7835629547024645 10.010583910408663
Au 10.723348115216515 11.543340970684724 8.237573757807143
Au 9.887027711401721 9.002851039726554 7.55695469382718
Au 8.573911354862096 9.827285082649357 9.825756868429291
Au 8.205302886514843 12.356296653355693 8.885957060227886
