12
Energy = -27.1208489 eV
Au 8.59210740214026 8.231593448254108 8.453521867604357
Au 7.692825600774561 10.623413982665214 9.587013207154808
Au 11.203402159540236 8.675760496195677 7.370644311641449
Au 7.524827126748963 11.174326863528574 12.256699836716988
Au 11.473163744375682 10.96582494939817 8.897071976957392
Au 10.946417680805446 8.592397325054716 10.141370246125668
Au 10.00605529343487 11.141513358425433 11.18475279409332
Au 9.13318451884067 10.641494526061306 7.306249131790114
Au 9.310378498941306 6.4209800012381155 10.421485565004005
Au 10.414657101092331 6.14673398603988 7.951379461443618
Au 9.389889109564349 12.83234346596087 9.10180583764105
Au 8.486495060306053 8.744373648828548 11.503124501063207
