10
Energy = -20.68288843 eV
Au 12.212561272277801 9.21386994464483 8.516802260079704
Au 11.870420793205614 10.389868113665855 10.932127729088418
Au 10.126259501217165 7.678436098729661 9.048309937884818
Au 9.787963798566159 8.855769528003638 11.483841861509042
Au 10.19683498342628 12.345823021683161 9.912988761939507
Au 8.245702381992816 6.834969917147652 10.721572313779554
Au 10.534085582542389 11.18535723685506 7.493227552304773
Au 8.11723714097035 10.766748448658706 10.336103089370154
Au 8.452693336394688 9.604485843390208 7.900217330769676
Au 6.422469637108445 8.920207842149619 9.472176599751565
