18
Energy = -43.23465868 eV
Au 13.501381650742038 13.412023003118197 13.33669397894417
Au 14.787667162278366 11.546897042132407 11.927857504383892
Au 12.445641496252284 13.285931586827628 10.714389309301062
Au 11.517152096521716 15.208159562975991 12.377322339515823
Au 12.143586039865918 14.968048393844164 15.022056564092985
Au 13.028050953510542 10.735491320759534 9.995225204006498
Au 10.691787454014825 12.858874132211879 13.962761726760624
Au 9.548501664453457 13.65229465897375 11.434793223710384
Au 12.301924183877302 10.902068064922863 12.833433094537137
Au 9.610954290495568 10.954018069907008 12.354681308740748
Au 11.304069880989546 9.571100978771097 8.327024898113091
Au 10.451773744820347 11.847709735467234 9.547861029104928
Au 7.768394842648279 11.837104028726646 10.47638950196945
Au 13.192254020404103 8.047426759271406 10.307181700889247
Au 11.01704890351701 8.656729689507861 11.973540792604611
Au 9.129178382760266 8.052881325424798 7.705336047094954
Au 8.989219105605596 9.400682883333472 10.139795212832647
Au 10.699811519510597 7.190956156091991 9.692053955665102
