12
Energy = -27.4925059 eV
Au 10.468785920005748 9.194817495918016 7.633962271893592
Au 10.38455834942332 9.22190498354007 10.351641099274618
Au 10.312195152388773 9.155136874464302 13.033973682705001
Au 10.501961943992669 11.543473940329372 6.448700594071625
Au 10.425796542841905 11.5946798933114 9.125678650537596
Au 10.338083744652696 11.544235003257219 11.883228958360778
Au 10.287424778898949 13.942349614989004 13.083354963867372
Au 10.373691813584362 13.969500986976831 10.489323533150703
Au 10.459404323998701 13.991081971275598 7.845756933984144
Au 10.416476024476555 6.84566095833763 8.91008177928805
Au 10.338605420273815 6.776016113069282 11.560147335627764
Au 10.26568798546235 6.793814164531706 14.206822197239042
