26
Energy = -65.58601491 eV
Au 13.448422660590673 11.640474791311687 14.703594223089427
Au 14.4171720769692 7.610393883139683 11.110610084122065
Au 7.573420787613783 11.095349044110767 11.002298151400414
Au 9.219749508417449 9.028213361890813 12.165932062219857
Au 13.18242322239726 10.365491459676983 7.521156008530388
Au 12.636337136889535 12.411293880285955 9.348647899278385
Au 11.032029135484587 14.357596145181759 8.40336593688237
Au 9.073246074136739 12.729243172298375 9.363315139785719
Au 12.64399597830596 7.762277945248035 9.0275656919361
Au 10.825465899085843 8.905600477495742 7.410042112053518
Au 13.742211945300298 10.094675288168117 10.22650427959642
Au 9.009153831891648 11.721781596591336 13.307378852984577
Au 10.817099036450077 12.380664120759764 15.156315131294882
Au 11.099290939846384 13.912570223050118 11.228415933126291
Au 9.90959359814623 7.680492110282351 9.671619073680732
Au 9.8534393490718 14.515452380495145 13.604190526106231
Au 11.259772077677829 10.064726183655921 13.739128411133075
Au 10.71920665010823 11.662486832626517 7.460558081765097
Au 13.992502735622976 9.592627954707048 13.013791981478727
Au 12.546151721915386 14.158671542985454 13.812813754934927
Au 11.811365583492416 8.28652660217011 11.697313436367676
Au 7.3253465367936474 8.370409157207124 10.343653235252047
Au 13.245419166059728 12.169195406627747 12.031207142627053
Au 10.806027416548147 11.013814467361888 11.015310113658535
Au 8.746539364735721 10.078755340893835 8.694749265951426
Au 8.140344781231935 13.779411602815895 11.68085587301161
