29
Energy = -72.95584781 eV
Au 11.380309981938325 6.853351400828902 10.51307847527452
Au 12.941781780080928 8.102160640861698 8.663396559647751
Au 11.05019992965469 8.022180651051686 13.108522194173148
Au 12.908552055000165 9.114954682157203 11.324513095999821
Au 14.145202182828013 10.68473010112095 9.38276471754259
Au 11.795228384508151 9.314755892529108 6.4215445964528906
Au 12.27583204164212 10.319607093007297 13.831872379337513
Au 13.84009577862496 11.77886241993114 11.840123564991133
Au 8.659172469855614 6.567891083236204 10.13980428221751
Au 10.129002680080772 7.822420248243009 8.123556529555962
Au 9.211709984943125 10.27360994707354 7.064549962754112
Au 9.720870903872727 9.166852300595329 10.780346740836919
Au 11.341009103462829 10.459898039151135 8.990736322375453
Au 8.297751019760986 7.664319123177886 12.650764247172358
Au 12.885495450400734 11.822028664942126 7.093716890497127
Au 11.008876104959112 11.491165447274868 11.515101590342827
Au 7.119140151036383 10.076262064409576 11.401745367949017
Au 13.216041465714065 12.840859271785783 14.256290346894305
Au 10.301708723337097 12.796207965307469 7.749397780489637
Au 8.477174017197813 11.551082450961344 9.458767028965148
Au 7.587264714420357 8.912855740403083 8.867981549413416
Au 12.620351414421146 13.190470245816782 9.467875520921982
Au 9.188675270197685 10.138693328343711 13.530493847136443
Au 9.962580203558701 13.896798538194668 10.235013333031745
Au 10.366014375014464 12.497748010999358 14.168937117187982
Au 8.322326424308875 12.470500842022998 12.123236979250146
Au 12.189024013726195 14.194608499247451 11.943759467039913
Au 9.487916786303487 14.834979558670875 12.754227454784631
Au 11.556449657492749 14.99349123820928 14.52611680507506
