26
Energy = -65.73269731 eV
Au 6.79049510272778 10.293435351762945 12.83964517262524
Au 9.351094498190703 9.30331328066965 13.377572829577714
Au 9.073982590450179 12.03164774355824 13.187333888783956
Au 10.071225786249695 6.861091153264348 12.23302409513993
Au 7.581355489454221 7.866522964579332 11.828822169049438
Au 13.286696974483789 10.52372117043996 11.896838802549452
Au 12.288021395674328 8.389508346978708 13.403433403913096
Au 6.961729406725319 12.658136938825612 11.45390913824198
Au 7.7997570854520815 10.236424878429627 10.266098412353399
Au 11.506683617299476 10.89974850347605 13.929182076195355
Au 10.646244614174936 10.561662242444475 11.016560455561095
Au 11.475975125100723 13.125182469342798 12.317519785544487
Au 12.552121457029592 5.865543065578075 12.352814585338388
Au 9.39014066936219 7.995961620626915 9.759399097725034
Au 13.227268562163196 12.70998979784685 10.250697971662511
Au 12.944356853716014 10.157830210118865 9.14502809401417
Au 8.997614638611875 14.46518599103396 11.730337109526417
Au 9.081947796730468 12.690290031317328 9.66525570714659
Au 11.102026971302804 14.699405957187565 10.022044650423462
Au 13.237936777995145 14.709566030678305 8.361205067857552
Au 13.883766211045478 12.200343265760072 7.45369006022975
Au 12.186298942958592 7.975710998604497 10.615451197459631
Au 11.4081638934819 8.153764853581025 7.930815086326623
Au 9.791123216142713 10.37560329560641 8.309517491592615
Au 11.2405092558793 12.718797177258262 8.021303252417841
Au 11.950523287820506 10.42508005403299 6.5086072831260005
