34
Energy = -88.86929962 eV
Au 16.171114153864043 14.551056648556632 11.83801627390405
Au 14.806148528742291 12.993678771567813 13.568614364456314
Au 15.631208212874505 12.020210237649774 11.047471262734673
Au 14.739850856583377 10.239073344962945 13.255880736492239
Au 14.53628257074362 9.644124312015808 10.498326458319962
Au 12.211404339886688 14.017450585643477 13.80699727707078
Au 13.98885097334478 7.6926813481664835 12.46928351813118
Au 13.431118609117807 7.219185477193168 9.730063623823971
Au 13.025127630113232 11.580247134079515 15.074233478685723
Au 13.504796311152873 14.17103180112938 11.287780428143527
Au 12.184030035199555 9.1627276597416 13.993016600621953
Au 12.45445513224486 11.552222676432262 12.169283203979852
Au 13.457852192493522 11.9577010168787 9.363071418034338
Au 11.69475911922546 8.74791546338131 11.205887942424011
Au 11.115932159956072 13.24797807499284 16.19361020840422
Au 12.495565542530123 9.550262135298762 8.429542848057187
Au 10.353089597611763 10.68499164747775 15.29283148222051
Au 8.489045714256783 12.43670523699722 16.368650895613516
Au 10.845111081740363 7.359161144348511 8.715374917303526
Au 8.996850249665842 8.693431380481199 10.233353221007919
Au 9.704200844062871 9.758101171449354 12.77297682963016
Au 9.726538750667542 9.634350620159411 7.651677212536357
Au 10.573372377316332 11.174602231411665 10.24954294783871
Au 11.444038944043578 11.894151933691814 7.48229926377054
Au 11.948888921752992 14.283273221398913 9.033185140687236
Au 10.725194905860409 13.978432134886834 11.521229982693418
Au 9.476341246242253 13.536872873180025 13.941709862184451
Au 7.122098005189122 10.052614639150667 11.715051278561432
Au 7.745720449208836 11.272444830219476 14.0625904327346
Au 10.31901882971301 14.30620176755155 6.821826630104947
Au 7.778868000814117 11.081178628178847 9.240834270777912
Au 8.69843654223339 12.040381304899654 6.832675331013659
Au 8.316218269850529 12.587988951648196 11.625768783241321
Au 9.21049608343798 13.508959428995814 9.208389162389233
