3
Energy = -4.13302287 eV
Au 8.332106703540495 7.835459763826352 6.258130258724419
Au 7.486354702230764 9.076014386734713 8.362758087781577
Au 7.624909794637772 6.531897049847855 8.822482853902924
