38
Energy = -99.91681271 eV
Au 14.9716065112583 11.88100327165561 9.828845526426957
Au 15.604836136124293 13.821414483418641 11.649627413415754
Au 15.43593888803565 11.320440844060926 12.587724899855578
Au 14.93497871301716 9.267945034994543 10.79710292040668
Au 15.148812990189487 8.808860073124006 13.541738067993288
Au 14.013519977329727 14.851249024799346 9.613838136410381
Au 13.584432330098243 10.014758242203872 8.272117398330327
Au 12.967312426761719 12.717986311155691 8.13837906786332
Au 12.986549976988611 7.679072527427949 12.26032164730009
Au 12.762651418061363 13.053354964310165 11.40386560245038
Au 13.185828249781798 7.556963376346496 9.562244203051995
Au 14.074761848135653 13.449465271158978 13.995499853376412
Au 13.884108030533305 15.783720692145549 12.384369372781709
Au 11.131676364412732 10.870243755517397 7.320242321311911
Au 11.663529626329455 15.112682617221973 8.191601034510494
Au 11.099962035927401 8.24925216728706 8.024106285506003
Au 13.842546876165843 10.836342563048683 14.874846609106259
Au 11.598874285329238 15.784518809780991 10.899843281091627
Au 12.95747728377166 8.038129267664038 14.99284627317683
Au 9.81657949023321 12.993001569519182 8.216952303749569
Au 12.257892522303713 10.422986183158512 10.66630891723786
Au 9.28080979346005 15.424598431156527 9.461166276231724
Au 9.26459269668842 10.061350370144519 9.189805221297549
Au 11.516131604685562 11.32836448579922 13.177180171032807
Au 11.584313576252024 14.790261198270207 13.560821378412216
Au 10.146437991304929 12.170349059845389 10.92961227308929
Au 11.929749538696793 12.798040404001194 15.581156309161237
Au 10.626577347094198 8.074000249887083 10.777846714640757
Au 11.326539755609396 10.056659270507286 15.885107748300058
Au 10.673796672344327 8.548651656080303 13.561849914922966
Au 9.584591639088188 12.154477461499507 16.862666465588365
Au 7.715810043289178 13.277391020673381 10.087233952054799
Au 6.859203487956498 10.673510753802503 10.382751275309696
Au 8.723298746580218 9.59241031685567 11.997546299766723
Au 9.212621155203516 14.654679304196637 12.09662378375895
Au 9.00575102386657 10.662923002785103 14.547132304854971
Au 9.346346637263208 13.50192890885 14.531479810836647
Au 7.759818838349587 12.197279584166276 12.627865493908219
