37
Energy = -97.35086529 eV
Au 6.992046822675713 12.96375292658178 12.003719811836154
Au 8.828483860458007 14.84425378511777 11.163892905022095
Au 8.072504410929355 12.523632458977195 9.528915925935243
Au 8.190796619015433 14.662770240897158 13.839396845574472
Au 9.335481913166262 14.693358750276039 8.526361948320739
Au 7.283350767543256 10.363405630483776 11.153079243162166
Au 11.546942913151886 14.888786461142645 10.282319240896246
Au 8.212051361714739 11.82302525196489 14.16561932359202
Au 10.950336961860742 14.593646725912452 12.932665673088506
Au 9.748237122125222 11.440049394279054 11.883633796636364
Au 11.819984220663635 14.340934830629557 7.573649269310705
Au 8.720164263153794 10.009983932315576 8.685154949233938
Au 11.227163561954988 12.134882794580834 9.700576217176263
Au 9.843604564525062 12.227503748182125 7.256439632834888
Au 8.67321764854529 8.06694013186895 10.765180020701813
Au 10.098288362915287 13.569776509885227 15.388488334118263
Au 8.853916147831724 9.226528636736097 13.386551205904755
Au 13.784872838271756 13.110429948030792 9.065798802194777
Au 11.16211055140877 9.820975163790624 7.23101645360716
Au 12.66912921172717 11.987870834552297 6.550083477423849
Au 12.536795542410045 12.84249385425074 14.399640323813141
Au 13.492556418632555 13.767644182149635 11.822547723656346
Au 10.110007848761306 7.582970618922853 8.47989463565
Au 12.438977012022912 11.134154023871615 12.06913797778792
Au 10.623004088466185 10.879901706082974 14.970336399602179
Au 11.139058167058742 8.230853435611541 14.833927615621446
Au 13.866389361566627 10.366121318600468 8.339036016313523
Au 11.202072206804262 9.453378039841143 10.333510616635408
Au 12.896597373792916 7.822346321767857 8.01982731690318
Au 14.922348837926922 11.973542372886897 13.388668042913181
Au 10.311824484672615 6.948322219522528 12.611483645582808
Au 13.221369980927891 10.030179148619323 14.57976682260675
Au 14.96306355902393 11.282181108489745 10.706183754166654
Au 11.935489841830496 6.748323867450723 10.440751887134327
Au 15.23813792572007 9.329165533548947 12.743222984557166
Au 12.97458947891385 7.785076963028315 12.811128237592351
Au 14.128628964804653 8.544432346122836 10.381988139867602
