35
Energy = -91.5811998 eV
Au 15.554794782671141 9.357503400730456 13.843018978997968
Au 13.995046012059637 11.516020603774175 14.34361505689248
Au 12.408900160196945 13.64998173216283 14.879077365340088
Au 15.550369689767805 11.537377990062478 11.98001588721169
Au 16.858814725732845 9.129893602525053 11.46098465736889
Au 13.84397054434878 13.649024814195846 12.436366352120489
Au 9.167695117479399 15.001043842586919 13.676865285354824
Au 12.894292600634126 8.832432926957994 14.112558558759961
Au 11.41051254131732 10.885774025357374 15.2044969264543
Au 11.74448562740167 15.382513867671365 12.812847118487403
Au 9.831638132604452 13.030294225155775 15.502668912368899
Au 14.23939733802573 8.198791237107832 11.656006174936834
Au 10.144250540418133 8.735174786820657 13.99931131131859
Au 12.788074417015459 10.768959082109264 11.678901075242164
Au 10.843721117168796 12.537870932457839 12.776421425793952
Au 14.94138261595265 10.058544357911721 9.646959052420156
Au 14.253948762440128 12.758862252298302 9.814919549670249
Au 11.160723903914562 12.313855337273045 10.065995487275934
Au 8.558953827668521 10.935414505102916 13.765363865160086
Au 10.084136026177696 10.109610265375098 11.482829821138514
Au 12.623529027702075 13.567271579080378 7.753438122888221
Au 12.957555138906132 10.894699370120085 7.964216603346496
Au 12.60643087413116 8.538713842933825 9.437895578246492
Au 9.915563358078844 7.911292786912031 9.754036523726995
Au 11.561020430594798 7.6793966162654455 11.927618704608912
Au 7.245413826660816 13.121047211290012 14.719115001899205
Au 12.473920654531273 14.893515212799961 10.217393221248692
Au 10.79382857508619 9.280053551832312 7.490613243338522
Au 7.727484343126606 13.269063872920471 12.046313903311795
Au 9.686393429034327 14.91527685638559 10.974845033593153
Au 10.171886667142958 14.598954694232065 8.34469841476901
Au 8.346451766377 12.808319912567322 9.43560184996295
Au 10.257302869172271 11.964156829543317 7.419114392226142
Au 7.389077386161763 10.704473638413011 11.215695037798652
Au 8.58735441211413 10.15240138107493 8.84837706463384
