35
Energy = -91.37247662 eV
Au 12.47337623983006 11.590080615557856 7.390055376622697
Au 13.091709195817776 14.34956106920617 6.895787232568571
Au 11.911251894986437 9.154150307401883 8.417290056729566
Au 9.858189538050887 11.089946617143022 8.291409016831722
Au 10.743042491599299 13.805065074533328 8.09302052086297
Au 11.292623885625476 6.807651593469461 9.651105726293874
Au 9.329089575619191 8.682514377866475 9.653581896180883
Au 14.718578395138696 12.8158301199092 8.515214140039717
Au 7.5086993269647175 10.677573911135463 9.78741880611781
Au 8.375359715240158 13.357592229364062 9.221408253990674
Au 14.300120006624622 10.317213988255173 9.498970811514493
Au 13.72129760727321 7.919243001326726 10.616077785162531
Au 5.946598178834687 13.035687495733754 10.349087441237806
Au 12.135119624735825 12.150768625663105 10.183209894546035
Au 12.994409769079981 14.803992114946071 9.642525513449906
Au 12.543146566100031 5.662063363383194 11.809024815235993
Au 11.557085001096425 9.644666859305984 11.260730123822713
Au 9.672762601708573 11.68609508114678 11.366738858800893
Au 7.980193044329853 13.852128729992243 12.056601644806275
Au 8.397929439794853 9.2234782696 12.30723924705634
Au 11.971151306927737 11.810978082521796 12.95643444313762
Au 14.795766886418821 12.679414560322114 11.201668992205901
Au 10.535004420991388 9.345949391836466 14.142896643652085
Au 10.427132756286703 14.592073807986358 10.834909543640087
Au 10.289311749857482 7.295088168776188 12.253281773143815
Au 6.671655358274767 11.318646538943792 12.378112382914093
Au 14.422663954767476 10.049332895651851 12.28889488486062
Au 12.870438042053904 7.882101309950866 13.358210027343809
Au 10.177054233915847 13.994486584497636 13.594807835540264
Au 12.852672230755026 14.493727260723672 12.304991616913881
Au 8.733176142025192 11.55019892236475 14.098453458493521
Au 12.537607951572816 13.949442450569705 14.953311828376691
Au 14.581119284708214 12.344920047183072 13.879622712580408
Au 10.990450838512057 11.698279614594673 15.599845912414933
Au 13.207352789789395 10.104315657731131 14.885637796697536
