32
Energy = -82.75690487 eV
Au 8.354807825138211 7.823316790031351 7.710822153874036
Au 9.072775061634097 6.7775352806248055 10.084805279258292
Au 7.464804904352643 8.32439732281043 11.554241657185173
Au 10.9832184122542 6.934478629732623 8.089212571648686
Au 7.866892891883516 10.447331837887518 7.137284289939907
Au 5.84713621367467 9.7117467081927 13.228600836976751
Au 10.142711579128074 7.77283314130018 12.385264399430993
Au 10.432084980809071 9.42344519473592 6.9171882999835015
Au 12.911104201889582 8.34095977357153 6.557959734369786
Au 11.678135324894361 6.184436821639366 10.698298653306964
Au 8.556573177640038 9.698728693455173 13.668705850852684
Au 9.069083126706042 9.834855780748173 9.716921928414354
Au 6.9544892522021975 11.374636333384707 11.488794940143134
Au 13.350270718032867 7.803169451995754 9.162736520742074
Au 7.762981367316147 12.349280491370074 9.066663206916823
Au 12.65790604236065 10.861180847446555 7.633243618450838
Au 8.04952110708477 13.951431326079128 11.230898998897512
Au 10.104354802827867 12.079645107169409 7.563621491761108
Au 9.69623409328813 11.673520831144595 11.80982927854378
Au 9.60052144722886 14.44553116837156 8.872757009875382
Au 15.048041668027166 9.36285892600378 10.523576350742115
Au 11.676266290508842 10.524864928554964 10.266629061876293
Au 12.813656451335792 8.374983404715833 11.857155397619968
Au 14.31431056875776 11.818305499512313 9.643131720868395
Au 12.052959630333822 13.2298939243611 9.10755928800622
Au 9.378766575912344 14.00490131210268 13.60454368658905
Au 11.322959188471726 9.970382778291377 13.529748293840097
Au 9.770337476524531 11.709752187224614 15.005362395137936
Au 10.832503651795042 14.476896220009262 11.316434624419848
Au 13.453828072250996 13.688309309511487 11.474784551464978
Au 11.859168903518515 12.757917324543683 13.470861907542169
Au 13.645563496463506 10.992441157724421 12.34633050556859
