34
Energy = -86.96787711 eV
Au 14.587229464885333 10.462384513988324 11.858313754912846
Au 9.586120114844487 14.793843458023595 10.19154161003068
Au 12.510008956442938 13.916709211642525 19.169849384930142
Au 11.494168811603716 16.773485297799798 10.714430393424442
Au 10.686659858568015 12.815342610136135 8.619684610020476
Au 11.691265922683224 11.035310608131478 12.32452619359293
Au 9.808598517353335 12.585238984476955 13.62693004908587
Au 12.574443940954582 8.722961020334946 10.967591384101775
Au 11.335125836808736 10.894429526834253 15.056333339714381
Au 13.105442565019645 11.572049250215168 9.840567793780883
Au 13.643360622622984 14.236948650321883 16.81135948915998
Au 11.201723454861744 9.467653175545049 17.38489929035298
Au 9.318376254939272 12.093520680367757 10.948764574142329
Au 13.844209711485608 15.157739109347885 10.032755564211504
Au 13.626088670897568 9.62042001611968 16.213943488765803
Au 17.211802787737888 9.94992632840671 12.303592992243125
Au 13.162553464657137 15.779243535815263 12.789669495854763
Au 11.580054949259486 15.425936318431253 8.437058269650116
Au 10.60246702984251 10.196257025682684 9.625808762507374
Au 11.317407234956372 17.831749963271445 13.132106061176463
Au 13.577325267045394 13.105572568868697 12.016298204718295
Au 14.906710039820622 14.430934564853473 14.46695853738759
Au 14.954965859224094 12.017861287954403 15.786684245037671
Au 12.236274414491678 13.574907660612578 14.492699261459835
Au 12.259147921262164 8.532362553780207 8.282292066804018
Au 7.993968585086491 14.110373556620221 12.310459337358509
Au 15.559177184352206 9.733450002907574 14.40501618930582
Au 12.986999356435504 8.86518628634689 13.63503604990782
Au 16.274120406636115 12.339329459746974 13.281232192547268
Au 12.5286421936744 11.807931323389255 17.560709592537798
Au 15.81103388952268 14.738591451187103 11.925154315878983
Au 13.407771976813471 13.508071337222455 7.845294530510734
Au 10.44052094316901 15.226268869428973 12.928318898360786
Au 12.329091360951681 11.055129302875983 7.2652694350559885
