41
Energy = -108.88027002 eV
Au 13.201043301050857 9.56178946525332 14.557386763678707
Au 15.12340747295652 13.441445269385168 11.42584980724898
Au 8.070051610543432 14.090513609149204 10.968204294768576
Au 15.217828500154052 13.835677854612646 14.138191608207242
Au 11.922074598709541 8.451110618775466 12.270606615139753
Au 11.812449750633846 16.664938435566 14.051755378015901
Au 13.175671787052833 14.76770909623961 9.971696955698397
Au 7.816425803718403 11.407013814723996 11.42216415249368
Au 9.223433483447353 9.021643400306267 11.95827516805207
Au 13.012371757381048 14.696123556482586 15.477516093531575
Au 13.116028498182423 11.099006941724884 6.788742847072013
Au 8.585623650225612 9.774418017363073 9.354109463462924
Au 15.380861936069717 11.158690898041554 13.643305425647894
Au 10.622184591330267 12.204171594813458 11.097981495697173
Au 10.40009595537879 14.899551950157576 9.807703623406423
Au 16.23543405196273 8.17960215594536 10.225945093986677
Au 10.253432613410459 14.625540092699158 15.150037388688343
Au 8.18398432816608 10.589414509081873 14.029169602045876
Au 8.97002596984211 12.506218717159438 8.915614037962909
Au 10.421979433408655 9.039899914743796 14.484505884613894
Au 11.70144645992931 13.055058415324098 8.277995843657841
Au 12.431441669305185 10.541470189884052 9.688261991210052
Au 15.589842235305765 10.824766020189553 10.856268929985221
Au 10.80381712353406 8.256192925080137 9.738378226774834
Au 11.74883629017086 16.76756497005633 11.322475811812918
Au 11.528963796351526 10.634783428331088 16.432738825904984
Au 14.929919329982685 9.766684149299794 8.350611055636104
Au 9.560260676017943 15.632991005179063 12.626324403828614
Au 12.01655428927143 14.007219105377965 12.729923596379768
Au 14.113316281477113 15.775796985967366 12.493527313166298
Au 14.373088717617922 12.499883955606567 8.914778997418066
Au 10.540475179449086 10.560675340116866 7.582292941795334
Au 8.299654073479747 13.322907828548164 13.590067665186096
Au 12.472045644163472 8.450592974187119 7.501137434989591
Au 14.677882809807631 8.707931109856819 12.43208551763984
Au 13.046785267838743 11.406638685418997 12.199069269800171
Au 13.81641750069574 12.065246578791713 15.78092781711024
Au 13.512827432047628 7.8724616174913855 10.018244002614884
Au 9.160935303728657 12.200900479210762 16.0420828542146
Au 10.86405116579918 11.81281333636811 13.854546903840092
Au 11.467195893914873 13.223107221003305 17.229665131128705
