42
Energy = -111.25895342 eV
Au 12.264806531043378 14.348190040073131 6.7962762351779284
Au 14.335120554452628 16.551271254760824 14.596459126432283
Au 13.66562681241119 15.937041744258966 11.977876818116032
Au 9.314573158711367 14.655276781585698 13.442783348644756
Au 10.316113412374296 14.570806335482166 8.722240825953483
Au 10.913976191627718 15.624071652747487 11.310026841674818
Au 12.980390859555689 15.163527195286848 9.44882933130285
Au 8.527043061914645 14.38107431374661 10.736179395112192
Au 7.259760332229023 12.856902353671686 12.595592914209133
Au 11.723044245246435 15.76493555143445 14.058673407549259
Au 13.221832217104495 11.928632955362538 5.971847285827936
Au 13.349260797130036 14.313780016084003 15.881371095432936
Au 10.625593917505315 13.786346753993321 15.759229072559151
Au 12.081736811487518 12.487326732586796 9.801656002760803
Au 14.852636517852684 13.55329676093797 10.88101521336251
Au 14.392516094520852 12.98669855837697 8.210356467263825
Au 15.077954756038315 14.071330378997132 13.598795739062506
Au 10.752708447519082 12.101788616297604 7.385790403180195
Au 8.115803798065892 12.880527483806747 15.215307269681661
Au 10.027968204579953 12.208602135773893 11.73978705805285
Au 12.437351974446202 13.435754143324374 12.508448757439842
Au 15.289981121429523 11.451503890059596 12.68222676051571
Au 14.821792650681438 11.990491093830126 15.361778736163703
Au 12.341831969171885 11.914168186899945 16.792566900669033
Au 15.042033160662761 10.927111797378913 9.96001758830068
Au 15.109865538920566 10.382017097280043 7.20179068653407
Au 11.33286483110659 11.548373504051991 14.12341816110626
Au 9.722344394224319 10.884953941576287 16.20992251794491
Au 12.539211258874255 10.703727673692063 11.838322330022397
Au 7.846960635658298 10.752002487543505 10.92587357341918
Au 8.228773874030239 10.508898910180319 13.748658915836243
Au 12.494455823190723 10.051397977208552 8.04072497441008
Au 9.865108848719421 9.08087466211899 11.842641799916876
Au 14.307010044688303 9.98210306873264 17.12016422560112
Au 10.109289488621515 10.35714422271938 9.405847382218532
Au 14.539041014815076 8.367410837169396 8.993915277853018
Au 14.450807247631257 9.359397094711618 14.39254760453262
Au 14.584640676760309 8.80695447543604 11.735691551662669
Au 12.03268217800383 9.237378691185695 15.837904222061157
Au 12.203210992039411 8.218875209369884 13.21193595915549
Au 9.780795251068453 8.450672454797598 14.546481151580858
Au 12.073144192438757 8.401031772724867 10.311188402078574
