46
Energy = -123.00357003 eV
Au 14.914430171656122 8.837349736966145 8.264963052272966
Au 13.048757011177516 10.711525467814837 7.084909421999878
Au 14.853928524022646 11.36825571708691 9.310225699714588
Au 14.805905969459314 9.09738488760287 11.019487232758534
Au 12.549123693981777 7.896896105390287 7.276432314410297
Au 13.112496770733692 6.983617917020011 9.849226712149148
Au 13.408251833442472 7.19711296530331 12.56353816788325
Au 14.48602648963356 9.568457528435834 13.71676369471595
Au 15.10227235656568 11.698072676788737 12.118369853016583
Au 13.682379498282256 7.548615620347796 15.342120805793481
Au 14.772309150255976 13.936018638280817 10.462387265232929
Au 12.334485933547576 9.634865710259747 9.664969227669614
Au 13.189364903416502 13.269742504374172 8.08071758815743
Au 10.541340204169613 9.624685211723317 6.462062635177708
Au 10.199251417632864 8.013551391819524 8.703697011139253
Au 11.74070446277699 10.151356193793273 12.444181688589195
Au 13.398721180831215 14.383611092109293 15.751997987484119
Au 10.821622817291402 7.652098069371453 11.381929913599128
Au 14.597522046063354 14.261982817230056 13.222091167353616
Au 12.61029749403332 12.210572562758205 10.771464440177052
Au 14.205687056428953 16.42327234681078 11.590585435656761
Au 11.27515998971002 8.099072379677938 14.230041202444298
Au 14.559493813496502 12.036339054367552 14.90704429164316
Au 12.61460259279517 10.158719493354756 15.762961472312579
Au 12.171637620380753 12.639823546593155 13.633284996854089
Au 13.310289005472548 15.830489662727583 9.03828969885322
Au 8.182616888481636 8.412067061522743 10.438309629334947
Au 10.66490875662112 12.112633002576485 7.623283520841334
Au 10.05159440089181 10.966336104917973 10.449862213615258
Au 11.31060245474269 12.549522827094274 16.310143043059966
Au 12.420490541854221 16.031248291839706 13.680739190777464
Au 10.018973403470245 10.620269594380389 14.79584908389305
Au 8.501245483357593 10.284235714204842 8.263125821892428
Au 8.915847604952129 8.777810369019678 13.078530825330004
Au 10.847519323515492 14.549680338193578 8.880408759695703
Au 10.443281067680129 13.467000694064557 11.749480394862852
Au 6.288433985024036 9.11443597126481 12.307677310700923
Au 10.735293560964383 15.172923041991712 15.691592807386284
Au 9.153449320197364 13.227991416800615 14.484434901726795
Au 11.472179609941689 16.23645139673447 11.08517682727026
Au 7.177685227780479 11.100822173032025 10.639351239874571
Au 8.548934804420867 13.049531759913213 9.249351342747168
Au 7.545236171909994 11.198600757773526 13.571072230147436
Au 9.688269965647182 15.751745440344218 13.22579696549435
Au 8.840766863764928 15.505582086319004 10.555089232228237
Au 7.692609616576086 13.468731209964387 12.04941706757068
