46
Energy = -123.24996907 eV
Au 16.299083250221873 9.761617138498977 13.66235313374834
Au 16.518031523733697 12.439575715266132 13.154395944161829
Au 15.449468101372045 10.811523877854487 11.221866719712285
Au 15.268215882828004 11.445130431806671 15.545231158916069
Au 14.168670581477148 8.829784198507763 15.059768722112763
Au 17.030037836574554 15.088797098118297 13.029510828060241
Au 14.384868725755963 8.364312611620097 12.29775490145336
Au 16.185205615698244 13.580314954727838 10.64281064440987
Au 15.139031519053217 14.219206344488324 14.875946923153288
Au 13.444745645765378 10.459816836439689 17.252037535146535
Au 14.716961149803277 11.88721285131163 8.799678810637193
Au 12.153881790316078 10.177952954664512 12.325933369083915
Au 13.531741365488267 9.562842647230903 9.702918792610063
Au 11.937680032025364 7.732695397248349 13.64033300720736
Au 13.079745149398438 13.052169029568674 16.27357236099858
Au 12.168505687130825 7.494822964549738 10.886899838617232
Au 14.412589585313471 15.13375997013883 12.250976562015522
Au 13.588041808876847 12.29897912626524 13.381882673886524
Au 11.648748053537764 8.678106683034319 16.163892494734082
Au 13.734116174023217 14.772812915134075 9.61573120780482
Au 12.747919345370484 12.369137204553018 10.745563034491896
Au 10.912505585093836 11.284581209970133 16.447400573842234
Au 15.80282120344705 14.209618865879518 7.9415124883546335
Au 13.21580977234509 13.69006946369028 7.023626381329289
Au 12.443543711194387 14.883009942543355 14.236253669859984
Au 12.133325772557457 11.214740876247689 7.947286854675927
Au 10.500404813774537 14.013597618856808 16.025531693126872
Au 10.799484462534208 9.023511580102479 9.095446305783222
Au 11.752136244533098 15.071028305106287 11.523744800000692
Au 9.888398709367506 9.62564801799539 14.308860469952435
Au 10.759202279770706 12.46448155312847 12.80832326181143
Au 11.131629371101594 14.214518908942418 8.89154340192787
Au 8.779406158198318 12.057302246723564 14.865541329754977
Au 9.77914933794697 8.62009971453679 11.7277481740956
Au 9.790544439970304 15.035991998593191 13.440673351948826
Au 10.635109348516563 13.055162671867656 6.41383451541146
Au 7.88786205101297 14.602654056293435 15.380150025467294
Au 10.119749421885322 11.6225668186511 10.13192393153367
Au 9.429231267420066 10.754802651770557 7.444426006173573
Au 9.170925735814341 14.226085197564313 10.852470340430797
Au 8.257896288586172 10.835366751841063 12.397924029696924
Au 7.3715048457841625 13.470768425082117 12.881754966888424
Au 8.527806668147557 13.381759388452089 8.205129442096
Au 8.078361004557525 9.668662621130487 9.795529693378658
Au 6.7791026663248894 11.214163464776082 7.925911861567267
Au 7.052883989465309 12.43482225335581 10.390591429671428
