53
Energy = -143.24413476 eV
Au 11.25020010600073 12.082349422294023 16.761347458069764
Au 11.942687526083102 7.802920768246822 13.649459731711673
Au 9.40787724554533 8.702071251706153 14.711299061633763
Au 11.83493351488955 9.676154478205941 15.570885439304218
Au 8.532553740759985 11.924810034914332 16.405054372073064
Au 13.768910471685972 11.578464760905497 15.595468246209656
Au 14.379924385766179 9.273385110855973 14.023601403112169
Au 12.652273465718446 14.253599118972447 15.926703141218937
Au 15.942813981041501 11.694018522301471 13.705684252839273
Au 9.439518601543913 6.758234526400229 12.824361215567343
Au 9.9297379727962 14.109793345975813 15.233124414112565
Au 15.458031769291047 13.69560302508721 15.72751804320838
Au 11.707454986424843 6.125228315849985 11.485798159619414
Au 10.20760705237225 9.84636656059684 11.843916973181907
Au 13.860274294831527 7.890059078923317 11.615142657528065
Au 10.005670036032706 11.430886685858825 14.107989769297014
Au 7.238832964056023 10.38145614244488 14.500451091362661
Au 7.608284247934741 8.722826696176352 12.304111429506614
Au 7.480463626344779 13.14946498322229 14.140729337336897
Au 16.40002620647309 14.612981186074645 13.311379952199806
Au 15.990161796428179 9.723041673180225 11.737463095528678
Au 17.048469668023586 12.819703893925892 11.346926643106578
Au 14.301570437956496 16.044877527925266 14.542999921681991
Au 13.758129250612859 13.568373871377053 13.290273114857154
Au 12.54176391398199 10.921660623113956 12.931506018535318
Au 9.552027919573883 7.703150744088923 10.229172698817713
Au 14.427251699561314 11.961658221533133 11.106585327232906
Au 11.60977361552241 15.690842409506983 13.692683205232584
Au 7.974559145548868 10.019852939966112 9.840520103189895
Au 15.937845673692228 15.435325135404543 10.769536161790585
Au 13.631571314593954 16.277090086951038 11.910169580346059
Au 6.331328365851215 11.211860230533082 12.02541580417039
Au 12.406040697238328 10.282062509016914 10.129977789881858
Au 16.605593466283345 10.999882447777662 9.353355296084455
Au 14.821976020056551 8.942125809795153 9.226021529828209
Au 8.864552518371173 12.247806653274315 11.557656742328124
Au 12.209173965501876 7.581058670962201 9.276966730172166
Au 12.853773030186108 9.313750089793658 7.295630908808568
Au 11.26854102588024 13.204848198472222 12.277889528210117
Au 9.101960445174292 15.037167094183374 12.669203636629565
Au 12.359176615160118 12.991176633354188 9.738298892546615
Au 10.285083605875922 9.638896487601876 8.365068031650043
Au 6.648267150674068 14.108401897556979 11.74938449712526
Au 15.622691888446415 13.572946969875494 8.848606126769567
Au 6.810901666758375 12.49381075581545 9.533072612594756
Au 13.536592907283065 15.570012096945208 9.286843675412204
Au 11.148956727399273 15.659335626445154 10.77587488863765
Au 14.564609471444726 11.382228613102924 7.537814231491175
Au 9.264505471611624 12.243487257593518 8.365160874406433
Au 8.726445324416646 14.597108366290877 9.833886785214574
Au 11.682930232756526 11.806128025348645 7.211837669500555
Au 13.447086319531385 13.896675275766086 7.137500901870607
Au 10.892115626742893 14.600130336123602 8.103820237649519
