51
Energy = -137.633017 eV
Au 16.726964608193814 9.488058620576215 10.33808442138333
Au 14.865056088630896 7.590477006079537 11.000108730278257
Au 15.900418279696364 11.885330065872637 9.249673998648408
Au 16.788169005441624 11.689722473370615 11.965387882691305
Au 12.457488450966464 7.465586696076422 9.667828603443436
Au 16.71537507889459 14.164856697335827 10.745679355584924
Au 14.256146567623633 7.261508008449583 13.613896138057028
Au 14.328150927869714 9.464903718298137 8.981448456555341
Au 16.224010678921054 9.135024713524443 13.01814084721299
Au 10.114941593547872 7.532566120242725 8.10372696790389
Au 13.257967719820783 11.956843427130261 8.260625642641642
Au 13.819101409745567 11.650099663817624 11.093093941823842
Au 11.783903147767836 6.82353036483898 12.51182621063342
Au 15.851587914571416 11.491198968806627 14.539622468286687
Au 11.743813896078908 9.712689262804867 7.996268448212751
Au 14.41808261099415 14.259429811148719 9.195539568616546
Au 14.943998029685973 9.114950729040174 15.511966135709535
Au 15.617771153825114 13.916481709286927 13.247329696060879
Au 14.637287229564139 15.88249309729622 11.472208548165591
Au 12.662791773256808 9.288532590569098 11.881759323949144
Au 12.261080793732837 8.59582150228471 14.947125678725648
Au 11.052092932065554 11.039796871152763 10.481245059760719
Au 13.216497484763046 11.20031686565512 13.736756748847089
Au 8.981705551764456 9.97046108195748 8.775961752737832
Au 10.503875657179972 12.280549758425385 7.944127338034991
Au 11.809175832705813 13.694352375158779 10.11363994797257
Au 13.116717536931896 10.963268040261688 16.472546638510813
Au 9.952383972736389 8.059659614933537 10.77552558656932
Au 13.9841676387572 13.427420034627344 15.474848388685892
Au 12.813691290468764 13.810580606993524 12.747140826314267
Au 13.952748981489053 15.985093987588087 14.150309590866332
Au 12.606079520910722 16.292636255596076 9.556601177198463
Au 9.616698992661979 14.769136536850358 8.707508629664408
Au 8.369713965243458 12.526676169999217 9.799817281472144
Au 8.40125559338568 10.274618580016524 11.479512279715593
Au 10.036859686903611 8.884322910685325 13.379103259536622
Au 12.580323171108896 15.54066071758995 16.56076659317098
Au 10.56058322043794 11.869366811185419 13.042598763315063
Au 12.297578582429665 17.18692902514748 12.164228287318334
Au 10.236513773682596 14.475986665632293 12.285705946035264
Au 10.473602551169654 10.626406904122085 15.62128097291818
Au 11.327106487358146 13.119108574235018 16.48889864029917
Au 11.786223710896166 17.529326621766888 14.842383495252108
Au 10.020744378891258 15.481424356345856 15.505615234023908
Au 10.075390676658538 16.800466510076575 10.485139439062818
Au 7.892450560796598 15.084526262242235 10.935690112922215
Au 7.643124609072281 12.773424736295729 12.486283730909179
Au 8.084482479654874 10.639481756560388 14.194812396071532
Au 9.666063276676653 17.1669158219281 13.17074417608044
Au 8.886537071558383 13.03379254340728 15.20981043073143
Au 7.883571386311659 15.19331123693482 13.75198790540663
