50
Energy = -135.03865487 eV
Au 17.574614802449783 11.589774946780297 13.032855370057373
Au 16.551920292626345 11.572105677445514 10.41218678105949
Au 16.264472467391716 13.81066577174071 12.091368565084343
Au 14.42340855143998 7.446146025377361 11.58349929272927
Au 14.770053850330855 15.454328669427923 13.79294771174336
Au 16.345924423282174 9.36575492053504 12.111112874019005
Au 15.817840488680584 10.407296803587041 14.846103857865458
Au 14.977058040679998 9.444822056591612 9.692586687356465
Au 15.225112658157798 7.837127778931922 14.186385887286834
Au 14.172365093499447 14.652363006316364 16.391067251617752
Au 15.860176092585359 13.106852529818468 14.728822024855562
Au 16.029892335418253 14.097826907689152 9.380011919147478
Au 14.056889532082641 11.904607965004265 16.41661869286616
Au 13.60560907515991 12.951676949939216 13.029442455491496
Au 14.310277826601428 12.019202457586799 8.826919153836572
Au 14.723634075160936 15.861597685074772 11.046466326610977
Au 13.165538864075335 7.419256824490071 9.15928053088212
Au 11.546415066222771 10.96977726787218 17.035588870204506
Au 11.892058845291167 6.352347856718121 11.404069309812401
Au 13.390027102054438 9.330608543803418 15.734102779578315
Au 12.26198825471344 15.946126205364953 14.91283754791778
Au 13.682228086782299 10.168221815163097 12.74313302023108
Au 12.5164602553826 7.63026435516666 13.739129760565863
Au 12.386793997807427 9.988086438409157 8.645151404823894
Au 11.64518722403924 13.603520923632484 16.267984845162005
Au 9.66561752269529 10.538025419933113 8.717494984085711
Au 10.57897015352485 8.159729247426302 9.789053065521015
Au 13.347943749160214 17.558336905204296 12.81668182326507
Au 10.695836110016755 9.275500239941977 15.01982185516023
Au 10.058165028236505 8.065937297265101 12.562859023881959
Au 11.219586107870569 11.31020286417459 13.212758593326141
Au 11.530767188838455 12.654915342337496 8.323821055042334
Au 12.36951641422954 11.830709465873884 10.787613631914951
Au 12.308311137432115 16.87034225427747 10.326019570541435
Au 11.038956631361815 13.91364628378371 12.092176206530874
Au 13.31308277940754 14.65110511044154 9.008499891273981
Au 9.550262540367308 12.039964848460881 15.407296251257565
Au 9.774124757849368 14.707521523237482 14.507549242623362
Au 8.807636885781918 13.116129194646852 8.5816879419521
Au 10.75577913958438 16.720429522702556 12.790642647810927
Au 8.277063900163869 9.208436978339092 10.81420466385131
Au 8.586489627799512 10.22989588517257 13.471035560536146
Au 10.632446876304803 15.241733090906372 8.837293077826775
Au 9.646583959824499 17.380744449031983 10.354532987393165
Au 9.325135897539347 11.917950638977745 11.10515127988844
Au 7.934686803511792 12.974022210134919 13.37863372139127
Au 8.525892523528388 15.349126685098865 12.031753957093803
Au 6.5351722043413725 11.060867062711358 11.793861651327529
Au 7.8917811866514125 15.57456067135696 9.286709891247177
Au 6.895528689748771 13.522243966450127 10.76334466616774
