7
Energy = -14.25772757 eV
Au 8.818737195824141 10.518243014845352 6.80519616503559
Au 7.195741391335156 11.055477700750641 8.879600369038787
Au 10.512158538035488 8.455596662839351 6.788191574660617
Au 8.919137789228861 8.935084442867597 8.936626800326069
Au 7.440432442404122 9.498370536293555 11.151938406980026
Au 10.640518241857286 6.796906901669489 8.9931933627046
Au 9.116303674070812 7.423744745870102 11.111149146441875
