9
Energy = -18.94043722 eV
Au 9.565533274016817 6.990454354579612 8.080813538801305
Au 11.974700624831252 8.474139018240864 8.353385475396305
Au 11.27051588124259 10.909386469712768 9.659459927583342
Au 9.575082315241318 9.761687031551274 7.758422125323252
Au 10.120739585819669 8.45766159811554 10.410610575473111
Au 8.626261863217513 10.914236059906298 10.198383320083527
Au 7.526114267103168 8.366723281357368 9.195464933682015
Au 7.064402689747789 10.766485173202774 7.9405429506735326
Au 7.890378895033694 8.861766499098382 11.87624612988067
