9
Energy = -19.13928719 eV
Au 10.44174171254665 11.211255756354674 8.104115887795793
Au 9.168328541369474 12.075868126305545 10.418844224523083
Au 11.47116577752174 10.201805494539222 10.44881980505968
Au 10.173403276247647 10.989943103270042 12.70356640825023
Au 7.7969785369545646 10.4779819200245 8.673048776904762
Au 8.832166761995557 9.353065354574662 11.004191650966456
Au 10.792669824828515 8.557137715217069 8.43096735940404
Au 8.145824621483323 7.810296613900308 8.929581915787912
Au 9.886928297934325 6.152397100713796 7.798023104390952
