  35  35   0   0
  0.3167507E+03  0.2229779E-08  0.2229779E-08  0.2229779E-08  0.1000000E-15
  1.000000000000000E-004
  CAR 
 unknown system                          
      1.77701388     -9.70934954  301     -3.49714132      1.00000000
     -9.709  0.0000E+00  0.0000E+00  0.0000E+00  0.0000E+00
     -9.671  0.0000E+00  0.0000E+00  0.0000E+00  0.0000E+00
     -9.633  0.0000E+00  0.0000E+00  0.0000E+00  0.0000E+00
     -9.594  0.0000E+00  0.0000E+00  0.0000E+00  0.0000E+00
     -9.556  0.0000E+00  0.0000E+00  0.0000E+00  0.0000E+00
     -9.518  0.0000E+00  0.0000E+00  0.0000E+00  0.0000E+00
     -9.480  0.0000E+00  0.0000E+00  0.0000E+00  0.0000E+00
     -9.441  0.0000E+00  0.0000E+00  0.0000E+00  0.0000E+00
     -9.403  0.0000E+00  0.0000E+00  0.0000E+00  0.0000E+00
     -9.365  0.0000E+00  0.0000E+00  0.0000E+00  0.0000E+00
     -9.326  0.0000E+00  0.0000E+00  0.0000E+00  0.0000E+00
     -9.288  0.0000E+00  0.0000E+00  0.0000E+00  0.0000E+00
     -9.250  0.0000E+00  0.0000E+00  0.0000E+00  0.0000E+00
     -9.212  0.0000E+00  0.0000E+00  0.0000E+00  0.0000E+00
     -9.173  0.0000E+00  0.7249E-17  0.1000E-02  0.2776E-18
     -9.135  0.0000E+00  0.0000E+00  0.1000E-02  0.1000E-02
     -9.097  0.0000E+00  0.0000E+00  0.1000E-02  0.1000E-02
     -9.058  0.0000E+00  0.0000E+00  0.1000E-02  0.1000E-02
     -9.020  0.0000E+00  0.0000E+00  0.2000E-02  0.2000E-02
     -8.982  0.0000E+00  0.0000E+00  0.2000E-02  0.2000E-02
     -8.944  0.0000E+00  0.0000E+00  0.2000E-02  0.2000E-02
     -8.905  0.0000E+00  0.0000E+00  0.3000E-02  0.3000E-02
     -8.867  0.2716E-13  0.0000E+00  0.3000E-02  0.3000E-02
     -8.829  0.0000E+00  0.0000E+00  0.5000E-02  0.5000E-02
     -8.790  0.0000E+00  0.0000E+00  0.6000E-02  0.6000E-02
     -8.752  0.2401E-01  0.0000E+00  0.8919E-02  0.8000E-02
     -8.714  0.0000E+00  0.0000E+00  0.9000E-02  0.9000E-02
     -8.676  0.0000E+00  0.2612E-01  0.1100E-01  0.1100E-01
     -8.637  0.0000E+00  0.0000E+00  0.1300E-01  0.1300E-01
     -8.599  0.0000E+00  0.0000E+00  0.1500E-01  0.1400E-01
     -8.561  0.0000E+00  0.0000E+00  0.1700E-01  0.1700E-01
     -8.522  0.0000E+00  0.0000E+00  0.1900E-01  0.1900E-01
     -8.484  0.0000E+00  0.0000E+00  0.2000E-01  0.2000E-01
     -8.446  0.0000E+00  0.0000E+00  0.2200E-01  0.2200E-01
     -8.408  0.0000E+00  0.0000E+00  0.2400E-01  0.2300E-01
     -8.369  0.2612E-01  0.0000E+00  0.2600E-01  0.2500E-01
     -8.331  0.0000E+00  0.0000E+00  0.2700E-01  0.2700E-01
     -8.293  0.0000E+00  0.0000E+00  0.3000E-01  0.2900E-01
     -8.254  0.0000E+00  0.0000E+00  0.3100E-01  0.3100E-01
     -8.216  0.0000E+00  0.0000E+00  0.3400E-01  0.3300E-01
     -8.178  0.0000E+00  0.0000E+00  0.3700E-01  0.3700E-01
     -8.140  0.0000E+00  0.0000E+00  0.3800E-01  0.3800E-01
     -8.101  0.0000E+00  0.0000E+00  0.4200E-01  0.4100E-01
     -8.063  0.0000E+00  0.0000E+00  0.4400E-01  0.4300E-01
     -8.025  0.0000E+00  0.0000E+00  0.4700E-01  0.4700E-01
     -7.986  0.0000E+00  0.0000E+00  0.4900E-01  0.4900E-01
     -7.948  0.0000E+00  0.0000E+00  0.5100E-01  0.5000E-01
     -7.910  0.0000E+00  0.0000E+00  0.5300E-01  0.5200E-01
     -7.872  0.0000E+00  0.2189E-01  0.5500E-01  0.5484E-01
     -7.833  0.0000E+00  0.0000E+00  0.5700E-01  0.5700E-01
     -7.795  0.0000E+00  0.6929E-03  0.6000E-01  0.5803E-01
     -7.757  0.0000E+00  0.0000E+00  0.6100E-01  0.6100E-01
     -7.718  0.0000E+00  0.0000E+00  0.6200E-01  0.6200E-01
     -7.680  0.0000E+00  0.0000E+00  0.6500E-01  0.6400E-01
     -7.642  0.0000E+00  0.2612E-01  0.6700E-01  0.6700E-01
     -7.604  0.0000E+00  0.0000E+00  0.6800E-01  0.6800E-01
     -7.565  0.0000E+00  0.2590E-01  0.7000E-01  0.6999E-01
     -7.527  0.0000E+00  0.0000E+00  0.7300E-01  0.7300E-01
     -7.489  0.0000E+00  0.0000E+00  0.7500E-01  0.7500E-01
     -7.450  0.0000E+00  0.0000E+00  0.7700E-01  0.7700E-01
     -7.412  0.2611E-01  0.0000E+00  0.8000E-01  0.7900E-01
     -7.374  0.0000E+00  0.0000E+00  0.8000E-01  0.8000E-01
     -7.336  0.0000E+00  0.0000E+00  0.8300E-01  0.8300E-01
     -7.297  0.0000E+00  0.0000E+00  0.8600E-01  0.8500E-01
     -7.259  0.0000E+00  0.0000E+00  0.8900E-01  0.8800E-01
     -7.221  0.0000E+00  0.0000E+00  0.9000E-01  0.8900E-01
     -7.182  0.0000E+00  0.0000E+00  0.9200E-01  0.9200E-01
     -7.144  0.0000E+00  0.0000E+00  0.9500E-01  0.9500E-01
     -7.106  0.0000E+00  0.0000E+00  0.9700E-01  0.9700E-01
     -7.067  0.0000E+00  0.0000E+00  0.1020E+00  0.1010E+00
     -7.029  0.0000E+00  0.0000E+00  0.1040E+00  0.1040E+00
     -6.991  0.0000E+00  0.0000E+00  0.1070E+00  0.1070E+00
     -6.953  0.0000E+00  0.0000E+00  0.1110E+00  0.1100E+00
     -6.914  0.2612E-01  0.0000E+00  0.1150E+00  0.1140E+00
     -6.876  0.0000E+00  0.0000E+00  0.1170E+00  0.1160E+00
     -6.838  0.0000E+00  0.0000E+00  0.1200E+00  0.1190E+00
     -6.799  0.0000E+00  0.0000E+00  0.1230E+00  0.1220E+00
     -6.761  0.0000E+00  0.0000E+00  0.1260E+00  0.1250E+00
     -6.723  0.0000E+00  0.0000E+00  0.1280E+00  0.1280E+00
     -6.685  0.0000E+00  0.0000E+00  0.1320E+00  0.1310E+00
     -6.646  0.0000E+00  0.0000E+00  0.1360E+00  0.1350E+00
     -6.608  0.0000E+00  0.2612E-01  0.1390E+00  0.1380E+00
     -6.570  0.0000E+00  0.0000E+00  0.1420E+00  0.1410E+00
     -6.531  0.0000E+00  0.0000E+00  0.1470E+00  0.1460E+00
     -6.493  0.0000E+00  0.0000E+00  0.1500E+00  0.1490E+00
     -6.455  0.0000E+00  0.0000E+00  0.1540E+00  0.1530E+00
     -6.417  0.0000E+00  0.0000E+00  0.1580E+00  0.1570E+00
     -6.378  0.2652E-05  0.0000E+00  0.1590E+00  0.1590E+00
     -6.340  0.0000E+00  0.0000E+00  0.1640E+00  0.1630E+00
     -6.302  0.0000E+00  0.0000E+00  0.1660E+00  0.1650E+00
     -6.263  0.0000E+00  0.2740E-11  0.1680E+00  0.1670E+00
     -6.225  0.0000E+00  0.0000E+00  0.1690E+00  0.1690E+00
     -6.187  0.0000E+00  0.0000E+00  0.1710E+00  0.1710E+00
     -6.149  0.0000E+00  0.0000E+00  0.1730E+00  0.1720E+00
     -6.110  0.0000E+00  0.0000E+00  0.1740E+00  0.1740E+00
     -6.072  0.0000E+00  0.0000E+00  0.1750E+00  0.1750E+00
     -6.034  0.2859E-05  0.0000E+00  0.1770E+00  0.1770E+00
     -5.995  0.0000E+00  0.0000E+00  0.1790E+00  0.1780E+00
     -5.957  0.0000E+00  0.0000E+00  0.1800E+00  0.1800E+00
     -5.919  0.0000E+00  0.0000E+00  0.1800E+00  0.1800E+00
     -5.881  0.0000E+00  0.0000E+00  0.1800E+00  0.1800E+00
     -5.842  0.0000E+00  0.0000E+00  0.1810E+00  0.1800E+00
     -5.804  0.0000E+00  0.0000E+00  0.1810E+00  0.1810E+00
     -5.766  0.0000E+00  0.0000E+00  0.1810E+00  0.1810E+00
     -5.727  0.0000E+00  0.0000E+00  0.1810E+00  0.1810E+00
     -5.689  0.0000E+00  0.0000E+00  0.1820E+00  0.1810E+00
     -5.651  0.0000E+00  0.0000E+00  0.1820E+00  0.1820E+00
     -5.613  0.0000E+00  0.0000E+00  0.1820E+00  0.1820E+00
     -5.574  0.0000E+00  0.0000E+00  0.1820E+00  0.1820E+00
     -5.536  0.0000E+00  0.0000E+00  0.1830E+00  0.1820E+00
     -5.498  0.0000E+00  0.0000E+00  0.1830E+00  0.1830E+00
     -5.459  0.0000E+00  0.0000E+00  0.1830E+00  0.1830E+00
     -5.421  0.0000E+00  0.0000E+00  0.1830E+00  0.1830E+00
     -5.383  0.0000E+00  0.0000E+00  0.1840E+00  0.1840E+00
     -5.345  0.0000E+00  0.0000E+00  0.1840E+00  0.1840E+00
     -5.306  0.0000E+00  0.0000E+00  0.1840E+00  0.1840E+00
     -5.268  0.0000E+00  0.0000E+00  0.1840E+00  0.1840E+00
     -5.230  0.0000E+00  0.0000E+00  0.1840E+00  0.1840E+00
     -5.191  0.0000E+00  0.0000E+00  0.1840E+00  0.1840E+00
     -5.153  0.0000E+00  0.0000E+00  0.1840E+00  0.1840E+00
     -5.115  0.0000E+00  0.0000E+00  0.1840E+00  0.1840E+00
     -5.077  0.0000E+00  0.0000E+00  0.1840E+00  0.1840E+00
     -5.038  0.0000E+00  0.0000E+00  0.1840E+00  0.1840E+00
     -5.000  0.0000E+00  0.0000E+00  0.1840E+00  0.1840E+00
     -4.962  0.0000E+00  0.0000E+00  0.1840E+00  0.1840E+00
     -4.923  0.0000E+00  0.0000E+00  0.1840E+00  0.1840E+00
     -4.885  0.0000E+00  0.0000E+00  0.1840E+00  0.1840E+00
     -4.847  0.0000E+00  0.0000E+00  0.1840E+00  0.1840E+00
     -4.809  0.0000E+00  0.0000E+00  0.1840E+00  0.1840E+00
     -4.770  0.0000E+00  0.0000E+00  0.1840E+00  0.1840E+00
     -4.732  0.0000E+00  0.0000E+00  0.1840E+00  0.1840E+00
     -4.694  0.0000E+00  0.0000E+00  0.1850E+00  0.1840E+00
     -4.655  0.0000E+00  0.0000E+00  0.1850E+00  0.1850E+00
     -4.617  0.0000E+00  0.0000E+00  0.1850E+00  0.1850E+00
     -4.579  0.0000E+00  0.0000E+00  0.1860E+00  0.1860E+00
     -4.540  0.0000E+00  0.0000E+00  0.1860E+00  0.1860E+00
     -4.502  0.0000E+00  0.0000E+00  0.1870E+00  0.1870E+00
     -4.464  0.0000E+00  0.0000E+00  0.1870E+00  0.1870E+00
     -4.426  0.0000E+00  0.0000E+00  0.1870E+00  0.1870E+00
     -4.387  0.0000E+00  0.0000E+00  0.1870E+00  0.1870E+00
     -4.349  0.0000E+00  0.0000E+00  0.1880E+00  0.1880E+00
     -4.311  0.0000E+00  0.0000E+00  0.1880E+00  0.1880E+00
     -4.272  0.0000E+00  0.0000E+00  0.1890E+00  0.1890E+00
     -4.234  0.0000E+00  0.0000E+00  0.1890E+00  0.1890E+00
     -4.196  0.0000E+00  0.0000E+00  0.1890E+00  0.1890E+00
     -4.158  0.0000E+00  0.0000E+00  0.1900E+00  0.1900E+00
     -4.119  0.0000E+00  0.0000E+00  0.1900E+00  0.1900E+00
     -4.081  0.0000E+00  0.0000E+00  0.1900E+00  0.1900E+00
     -4.043  0.0000E+00  0.0000E+00  0.1900E+00  0.1900E+00
     -4.004  0.0000E+00  0.0000E+00  0.1900E+00  0.1900E+00
     -3.966  0.0000E+00  0.0000E+00  0.1910E+00  0.1910E+00
     -3.928  0.0000E+00  0.0000E+00  0.1910E+00  0.1910E+00
     -3.890  0.0000E+00  0.0000E+00  0.1910E+00  0.1910E+00
     -3.851  0.0000E+00  0.0000E+00  0.1910E+00  0.1910E+00
     -3.813  0.0000E+00  0.0000E+00  0.1910E+00  0.1910E+00
     -3.775  0.0000E+00  0.0000E+00  0.1910E+00  0.1910E+00
     -3.736  0.0000E+00  0.0000E+00  0.1910E+00  0.1910E+00
     -3.698  0.0000E+00  0.0000E+00  0.1910E+00  0.1910E+00
     -3.660  0.0000E+00  0.0000E+00  0.1920E+00  0.1920E+00
     -3.622  0.0000E+00  0.0000E+00  0.1920E+00  0.1920E+00
     -3.583  0.0000E+00  0.0000E+00  0.1920E+00  0.1920E+00
     -3.545  0.0000E+00  0.0000E+00  0.1920E+00  0.1920E+00
     -3.507  0.0000E+00  0.0000E+00  0.1930E+00  0.1920E+00
     -3.468  0.0000E+00  0.0000E+00  0.1930E+00  0.1920E+00
     -3.430  0.0000E+00  0.0000E+00  0.1930E+00  0.1920E+00
     -3.392  0.0000E+00  0.0000E+00  0.1930E+00  0.1930E+00
     -3.354  0.0000E+00  0.0000E+00  0.1930E+00  0.1930E+00
     -3.315  0.0000E+00  0.0000E+00  0.1930E+00  0.1930E+00
     -3.277  0.0000E+00  0.0000E+00  0.1930E+00  0.1930E+00
     -3.239  0.0000E+00  0.0000E+00  0.1930E+00  0.1930E+00
     -3.200  0.0000E+00  0.0000E+00  0.1930E+00  0.1930E+00
     -3.162  0.0000E+00  0.0000E+00  0.1930E+00  0.1930E+00
     -3.124  0.0000E+00  0.0000E+00  0.1930E+00  0.1930E+00
     -3.086  0.0000E+00  0.0000E+00  0.1930E+00  0.1930E+00
     -3.047  0.0000E+00  0.0000E+00  0.1930E+00  0.1930E+00
     -3.009  0.0000E+00  0.0000E+00  0.1930E+00  0.1930E+00
     -2.971  0.0000E+00  0.0000E+00  0.1930E+00  0.1930E+00
     -2.932  0.0000E+00  0.0000E+00  0.1930E+00  0.1930E+00
     -2.894  0.0000E+00  0.0000E+00  0.1930E+00  0.1930E+00
     -2.856  0.0000E+00  0.0000E+00  0.1940E+00  0.1930E+00
     -2.818  0.0000E+00  0.0000E+00  0.1940E+00  0.1940E+00
     -2.779  0.0000E+00  0.0000E+00  0.1940E+00  0.1940E+00
     -2.741  0.0000E+00  0.0000E+00  0.1960E+00  0.1940E+00
     -2.703  0.0000E+00  0.0000E+00  0.1960E+00  0.1960E+00
     -2.664  0.0000E+00  0.0000E+00  0.1960E+00  0.1960E+00
     -2.626  0.0000E+00  0.0000E+00  0.1960E+00  0.1960E+00
     -2.588  0.0000E+00  0.0000E+00  0.1970E+00  0.1960E+00
     -2.550  0.0000E+00  0.0000E+00  0.1970E+00  0.1970E+00
     -2.511  0.0000E+00  0.0000E+00  0.1980E+00  0.1970E+00
     -2.473  0.0000E+00  0.0000E+00  0.1980E+00  0.1980E+00
     -2.435  0.0000E+00  0.0000E+00  0.1980E+00  0.1980E+00
     -2.396  0.0000E+00  0.0000E+00  0.1990E+00  0.1980E+00
     -2.358  0.0000E+00  0.0000E+00  0.1990E+00  0.1990E+00
     -2.320  0.0000E+00  0.0000E+00  0.2000E+00  0.1990E+00
     -2.282  0.0000E+00  0.0000E+00  0.2000E+00  0.2000E+00
     -2.243  0.0000E+00  0.0000E+00  0.2020E+00  0.2000E+00
     -2.205  0.0000E+00  0.0000E+00  0.2020E+00  0.2020E+00
     -2.167  0.0000E+00  0.0000E+00  0.2020E+00  0.2020E+00
     -2.128  0.0000E+00  0.0000E+00  0.2020E+00  0.2020E+00
     -2.090  0.0000E+00  0.0000E+00  0.2020E+00  0.2020E+00
     -2.052  0.0000E+00  0.0000E+00  0.2030E+00  0.2020E+00
     -2.013  0.0000E+00  0.0000E+00  0.2030E+00  0.2030E+00
     -1.975  0.0000E+00  0.0000E+00  0.2030E+00  0.2030E+00
     -1.937  0.0000E+00  0.0000E+00  0.2030E+00  0.2030E+00
     -1.899  0.0000E+00  0.0000E+00  0.2040E+00  0.2040E+00
     -1.860  0.0000E+00  0.0000E+00  0.2040E+00  0.2040E+00
     -1.822  0.0000E+00  0.0000E+00  0.2050E+00  0.2040E+00
     -1.784  0.0000E+00  0.0000E+00  0.2050E+00  0.2050E+00
     -1.745  0.0000E+00  0.0000E+00  0.2050E+00  0.2050E+00
     -1.707  0.0000E+00  0.0000E+00  0.2050E+00  0.2050E+00
     -1.669  0.0000E+00  0.0000E+00  0.2050E+00  0.2050E+00
     -1.631  0.0000E+00  0.0000E+00  0.2060E+00  0.2050E+00
     -1.592  0.0000E+00  0.0000E+00  0.2060E+00  0.2060E+00
     -1.554  0.0000E+00  0.0000E+00  0.2060E+00  0.2060E+00
     -1.516  0.0000E+00  0.0000E+00  0.2070E+00  0.2060E+00
     -1.477  0.0000E+00  0.0000E+00  0.2070E+00  0.2070E+00
     -1.439  0.0000E+00  0.0000E+00  0.2070E+00  0.2070E+00
     -1.401  0.0000E+00  0.0000E+00  0.2070E+00  0.2070E+00
     -1.363  0.0000E+00  0.0000E+00  0.2070E+00  0.2070E+00
     -1.324  0.0000E+00  0.0000E+00  0.2070E+00  0.2070E+00
     -1.286  0.0000E+00  0.0000E+00  0.2070E+00  0.2070E+00
     -1.248  0.0000E+00  0.0000E+00  0.2070E+00  0.2070E+00
     -1.209  0.0000E+00  0.0000E+00  0.2080E+00  0.2070E+00
     -1.171  0.0000E+00  0.0000E+00  0.2080E+00  0.2080E+00
     -1.133  0.0000E+00  0.0000E+00  0.2080E+00  0.2080E+00
     -1.095  0.0000E+00  0.0000E+00  0.2090E+00  0.2090E+00
     -1.056  0.0000E+00  0.0000E+00  0.2100E+00  0.2090E+00
     -1.018  0.0000E+00  0.0000E+00  0.2100E+00  0.2100E+00
     -0.980  0.0000E+00  0.0000E+00  0.2110E+00  0.2100E+00
     -0.941  0.0000E+00  0.9652E-08  0.2120E+00  0.2100E+00
     -0.903  0.0000E+00  0.0000E+00  0.2120E+00  0.2120E+00
     -0.865  0.0000E+00  0.0000E+00  0.2120E+00  0.2120E+00
     -0.827  0.0000E+00  0.0000E+00  0.2120E+00  0.2120E+00
     -0.788  0.0000E+00  0.0000E+00  0.2130E+00  0.2120E+00
     -0.750  0.0000E+00  0.0000E+00  0.2130E+00  0.2130E+00
     -0.712  0.0000E+00  0.0000E+00  0.2140E+00  0.2130E+00
     -0.673  0.0000E+00  0.2496E-11  0.2150E+00  0.2140E+00
     -0.635  0.0000E+00  0.0000E+00  0.2150E+00  0.2150E+00
     -0.597  0.0000E+00  0.0000E+00  0.2160E+00  0.2150E+00
     -0.559  0.0000E+00  0.0000E+00  0.2160E+00  0.2160E+00
     -0.520  0.0000E+00  0.0000E+00  0.2170E+00  0.2160E+00
     -0.482  0.0000E+00  0.0000E+00  0.2170E+00  0.2170E+00
     -0.444  0.0000E+00  0.0000E+00  0.2190E+00  0.2180E+00
     -0.405  0.0000E+00  0.0000E+00  0.2190E+00  0.2190E+00
     -0.367  0.0000E+00  0.0000E+00  0.2190E+00  0.2190E+00
     -0.329  0.0000E+00  0.0000E+00  0.2200E+00  0.2190E+00
     -0.291  0.0000E+00  0.0000E+00  0.2200E+00  0.2200E+00
     -0.252  0.0000E+00  0.0000E+00  0.2200E+00  0.2200E+00
     -0.214  0.0000E+00  0.0000E+00  0.2200E+00  0.2200E+00
     -0.176  0.0000E+00  0.0000E+00  0.2200E+00  0.2200E+00
     -0.137  0.0000E+00  0.0000E+00  0.2210E+00  0.2200E+00
     -0.099  0.0000E+00  0.0000E+00  0.2220E+00  0.2210E+00
     -0.061  0.0000E+00  0.0000E+00  0.2230E+00  0.2220E+00
     -0.023  0.0000E+00  0.0000E+00  0.2230E+00  0.2230E+00
      0.016  0.0000E+00  0.0000E+00  0.2240E+00  0.2230E+00
      0.054  0.0000E+00  0.1143E-01  0.2240E+00  0.2234E+00
      0.092  0.0000E+00  0.0000E+00  0.2250E+00  0.2240E+00
      0.131  0.0000E+00  0.0000E+00  0.2250E+00  0.2250E+00
      0.169  0.0000E+00  0.0000E+00  0.2250E+00  0.2250E+00
      0.207  0.0000E+00  0.0000E+00  0.2250E+00  0.2250E+00
      0.245  0.0000E+00  0.0000E+00  0.2250E+00  0.2250E+00
      0.284  0.0000E+00  0.0000E+00  0.2260E+00  0.2250E+00
      0.322  0.0000E+00  0.0000E+00  0.2260E+00  0.2260E+00
      0.360  0.0000E+00  0.0000E+00  0.2260E+00  0.2260E+00
      0.399  0.0000E+00  0.0000E+00  0.2260E+00  0.2260E+00
      0.437  0.0000E+00  0.0000E+00  0.2270E+00  0.2260E+00
      0.475  0.0000E+00  0.0000E+00  0.2270E+00  0.2270E+00
      0.514  0.0000E+00  0.0000E+00  0.2280E+00  0.2270E+00
      0.552  0.0000E+00  0.0000E+00  0.2280E+00  0.2280E+00
      0.590  0.0000E+00  0.0000E+00  0.2290E+00  0.2290E+00
      0.628  0.0000E+00  0.0000E+00  0.2290E+00  0.2290E+00
      0.667  0.0000E+00  0.0000E+00  0.2300E+00  0.2290E+00
      0.705  0.0000E+00  0.0000E+00  0.2300E+00  0.2300E+00
      0.743  0.0000E+00  0.0000E+00  0.2320E+00  0.2310E+00
      0.782  0.0000E+00  0.0000E+00  0.2330E+00  0.2330E+00
      0.820  0.0000E+00  0.0000E+00  0.2350E+00  0.2340E+00
      0.858  0.0000E+00  0.0000E+00  0.2350E+00  0.2350E+00
      0.896  0.0000E+00  0.0000E+00  0.2360E+00  0.2360E+00
      0.935  0.0000E+00  0.0000E+00  0.2380E+00  0.2380E+00
      0.973  0.0000E+00  0.0000E+00  0.2390E+00  0.2390E+00
      1.011  0.0000E+00  0.0000E+00  0.2400E+00  0.2400E+00
      1.050  0.0000E+00  0.0000E+00  0.2410E+00  0.2400E+00
      1.088  0.0000E+00  0.0000E+00  0.2440E+00  0.2430E+00
      1.126  0.0000E+00  0.0000E+00  0.2460E+00  0.2450E+00
      1.164  0.0000E+00  0.0000E+00  0.2480E+00  0.2470E+00
      1.203  0.0000E+00  0.0000E+00  0.2510E+00  0.2500E+00
      1.241  0.0000E+00  0.0000E+00  0.2510E+00  0.2510E+00
      1.279  0.0000E+00  0.0000E+00  0.2520E+00  0.2520E+00
      1.318  0.0000E+00  0.0000E+00  0.2520E+00  0.2520E+00
      1.356  0.0000E+00  0.0000E+00  0.2520E+00  0.2520E+00
      1.394  0.0000E+00  0.0000E+00  0.2520E+00  0.2520E+00
      1.432  0.0000E+00  0.0000E+00  0.2520E+00  0.2520E+00
      1.471  0.0000E+00  0.0000E+00  0.2520E+00  0.2520E+00
      1.509  0.0000E+00  0.0000E+00  0.2520E+00  0.2520E+00
      1.547  0.0000E+00  0.0000E+00  0.2520E+00  0.2520E+00
      1.586  0.0000E+00  0.0000E+00  0.2520E+00  0.2520E+00
      1.624  0.0000E+00  0.0000E+00  0.2520E+00  0.2520E+00
      1.662  0.0000E+00  0.0000E+00  0.2520E+00  0.2520E+00
      1.700  0.0000E+00  0.0000E+00  0.2520E+00  0.2520E+00
      1.739  0.0000E+00  0.0000E+00  0.2520E+00  0.2520E+00
      1.777  0.0000E+00  0.0000E+00  0.2520E+00  0.2520E+00
