       N       E                     dE             d eps       ncg     rms          rms(c)
DAV:   1     0.330577735238E+04    0.33058E+04   -0.74305E+04  1008   0.599E+02
DAV:   2     0.653775294868E+03   -0.26520E+04   -0.23712E+04  1680   0.152E+02
DAV:   3    -0.401347386857E+02   -0.69391E+03   -0.63336E+03  1296   0.859E+01
DAV:   4    -0.723697477242E+02   -0.32235E+02   -0.31927E+02  1104   0.202E+01
DAV:   5    -0.728252196938E+02   -0.45547E+00   -0.45468E+00  1120   0.279E+00    0.338E+01
DAV:   6    -0.155276981952E+02    0.57298E+02   -0.17875E+02  1036   0.183E+01    0.181E+01
DAV:   7    -0.470863486470E+01    0.10819E+02   -0.10206E+01  1080   0.452E+00    0.112E+01
DAV:   8    -0.120101738820E+02   -0.73015E+01   -0.25944E+00  1080   0.250E+00    0.686E+00
DAV:   9    -0.182785813849E+02   -0.62684E+01   -0.21666E+00  1072   0.257E+00    0.441E+00
DAV:  10    -0.315985978932E+02   -0.13320E+02   -0.50155E+00  1048   0.304E+00    0.337E+00
DAV:  11    -0.514813675177E+02   -0.19883E+02   -0.13563E+01  1040   0.428E+00    0.266E+00
DAV:  12    -0.548596386880E+02   -0.33783E+01   -0.10399E+00  1136   0.141E+00    0.212E+00
DAV:  13    -0.625306666752E+02   -0.76710E+01   -0.29543E+00  1048   0.199E+00    0.141E+00
DAV:  14    -0.663656538913E+02   -0.38350E+01   -0.85027E-01  1048   0.949E-01    0.912E-01
DAV:  15    -0.684746869183E+02   -0.21090E+01   -0.28113E-01  1064   0.559E-01    0.647E-01
DAV:  16    -0.707543408825E+02   -0.22797E+01   -0.29768E-01  1040   0.626E-01    0.354E-01
DAV:  17    -0.717739250380E+02   -0.10196E+01   -0.50237E-02  1048   0.258E-01    0.199E-01
DAV:  18    -0.722707460668E+02   -0.49682E+00   -0.19800E-02  1052   0.166E-01    0.104E-01
DAV:  19    -0.723986482063E+02   -0.12790E+00   -0.36492E-03  1044   0.849E-02    0.541E-02
DAV:  20    -0.724501495892E+02   -0.51501E-01   -0.14808E-03   928   0.491E-02    0.321E-02
DAV:  21    -0.724570838527E+02   -0.69343E-02   -0.66088E-04   760   0.331E-02    0.217E-02
DAV:  22    -0.724604356217E+02   -0.33518E-02   -0.29473E-04   720   0.190E-02    0.138E-02
DAV:  23    -0.724657327600E+02   -0.52971E-02   -0.21565E-04   720   0.138E-02    0.892E-03
DAV:  24    -0.724685429230E+02   -0.28102E-02   -0.58435E-05   744   0.825E-03    0.604E-03
DAV:  25    -0.724707018940E+02   -0.21590E-02   -0.25048E-05   688   0.674E-03    0.338E-03
DAV:  26    -0.724711807400E+02   -0.47885E-03   -0.96985E-06   684   0.442E-03    0.226E-03
DAV:  27    -0.724711610728E+02    0.19667E-04   -0.36614E-06   656   0.286E-03
   1 F= -.72471161E+02 E0= -.72471161E+02  d E =-.724712E+02  mag=     1.0012
       N       E                     dE             d eps       ncg     rms          rms(c)
DAV:   1    -0.724893400437E+02   -0.18159E-01   -0.12798E+00  1056   0.193E+00    0.802E-02
DAV:   2    -0.724899871415E+02   -0.64710E-03   -0.60791E-03  1048   0.188E-01    0.616E-02
DAV:   3    -0.724899941797E+02   -0.70382E-05   -0.98323E-05   632   0.276E-02
   2 F= -.72489994E+02 E0= -.72489994E+02  d E =-.188331E-01  mag=     1.0007
       N       E                     dE             d eps       ncg     rms          rms(c)
DAV:   1    -0.725362396103E+02   -0.46252E-01   -0.11542E+01  1032   0.579E+00    0.238E-01
DAV:   2    -0.725416183685E+02   -0.53788E-02   -0.54541E-02  1056   0.564E-01    0.186E-01
DAV:   3    -0.725414902109E+02    0.12816E-03   -0.94746E-04  1072   0.816E-02    0.122E-01
DAV:   4    -0.725413682117E+02    0.12200E-03   -0.56497E-04  1064   0.439E-02    0.238E-02
DAV:   5    -0.725413643339E+02    0.38778E-05   -0.13435E-05   664   0.939E-03
   3 F= -.72541364E+02 E0= -.72541364E+02  d E =-.702033E-01  mag=     1.0003
       N       E                     dE             d eps       ncg     rms          rms(c)
DAV:   1    -0.726031731163E+02   -0.61805E-01   -0.46105E+01  1016   0.116E+01    0.444E-01
DAV:   2    -0.726246389361E+02   -0.21466E-01   -0.21692E-01  1056   0.113E+00    0.366E-01
DAV:   3    -0.726242052964E+02    0.43364E-03   -0.36497E-03  1036   0.157E-01    0.250E-01
DAV:   4    -0.726236658536E+02    0.53944E-03   -0.23573E-03  1072   0.882E-02    0.584E-02
DAV:   5    -0.726236610940E+02    0.47596E-05   -0.60742E-05   648   0.207E-02
   4 F= -.72623661E+02 E0= -.72623661E+02  d E =-.152500E+00  mag=     1.0001
       N       E                     dE             d eps       ncg     rms          rms(c)
DAV:   1    -0.726303469247E+02   -0.66811E-02   -0.18503E+02  1008   0.233E+01    0.807E-01
DAV:   2    -0.727161017931E+02   -0.85755E-01   -0.86313E-01  1052   0.226E+00    0.722E-01
DAV:   3    -0.727149591439E+02    0.11426E-02   -0.13988E-02  1048   0.298E-01    0.520E-01
DAV:   4    -0.727125089154E+02    0.24502E-02   -0.84197E-03  1056   0.166E-01    0.171E-01
DAV:   5    -0.727125857042E+02   -0.76789E-04   -0.57599E-04  1048   0.541E-02
   5 F= -.72712586E+02 E0= -.72712586E+02  d E =-.241425E+00  mag=     1.0001
       N       E                     dE             d eps       ncg     rms          rms(c)
DAV:   1    -0.727071325942E+02    0.53763E-02   -0.32157E+01  1008   0.966E+00    0.338E-01
DAV:   2    -0.727222711172E+02   -0.15139E-01   -0.15352E-01  1072   0.945E-01    0.275E-01
DAV:   3    -0.727220654171E+02    0.20570E-03   -0.25446E-03  1044   0.130E-01    0.189E-01
DAV:   4    -0.727217608348E+02    0.30458E-03   -0.12419E-03  1040   0.645E-02    0.562E-02
DAV:   5    -0.727217863674E+02   -0.25533E-04   -0.63115E-05   640   0.195E-02
   6 F= -.72721786E+02 E0= -.72721786E+02  d E =-.250625E+00  mag=     1.0000
       N       E                     dE             d eps       ncg     rms          rms(c)
DAV:   1    -0.727324545473E+02   -0.10694E-01   -0.94611E+00  1008   0.524E+00    0.195E-01
DAV:   2    -0.727368536385E+02   -0.43991E-02   -0.46041E-02  1040   0.508E-01    0.154E-01
DAV:   3    -0.727367830637E+02    0.70575E-04   -0.79197E-04  1096   0.649E-02
   7 F= -.72736783E+02 E0= -.72736783E+02  d E =-.149967E-01  mag=     1.0000
       N       E                     dE             d eps       ncg     rms          rms(c)
DAV:   1    -0.727380531359E+02   -0.11995E-02   -0.93334E+00  1016   0.521E+00    0.209E-01
DAV:   2    -0.727423668116E+02   -0.43137E-02   -0.45541E-02  1040   0.502E-01    0.160E-01
DAV:   3    -0.727422904882E+02    0.76323E-04   -0.79474E-04  1088   0.635E-02
   8 F= -.72742290E+02 E0= -.72742290E+02  d E =-.205041E-01  mag=     1.0000
       N       E                     dE             d eps       ncg     rms          rms(c)
DAV:   1    -0.727461995342E+02   -0.38327E-02   -0.40988E+00  1016   0.345E+00    0.752E-02
DAV:   2    -0.727481790125E+02   -0.19795E-02   -0.19553E-02  1048   0.332E-01    0.725E-02
DAV:   3    -0.727481567465E+02    0.22266E-04   -0.25324E-04   688   0.385E-02
   9 F= -.72748157E+02 E0= -.72748157E+02  d E =-.586626E-02  mag=     1.0000
       N       E                     dE             d eps       ncg     rms          rms(c)
DAV:   1    -0.727503977803E+02   -0.22188E-02   -0.14028E+00  1028   0.202E+00    0.543E-02
DAV:   2    -0.727510450931E+02   -0.64731E-03   -0.64488E-03  1096   0.192E-01    0.504E-02
DAV:   3    -0.727510332179E+02    0.11875E-04   -0.81414E-05   632   0.217E-02
  10 F= -.72751033E+02 E0= -.72751033E+02  d E =-.874273E-02  mag=     1.0000
       N       E                     dE             d eps       ncg     rms          rms(c)
DAV:   1    -0.727531086627E+02   -0.20636E-02   -0.55780E+00  1020   0.402E+00    0.888E-02
DAV:   2    -0.727557681768E+02   -0.26595E-02   -0.26442E-02  1072   0.387E-01    0.851E-02
DAV:   3    -0.727557323779E+02    0.35799E-04   -0.36955E-04   952   0.451E-02
  11 F= -.72755732E+02 E0= -.72755732E+02  d E =-.134419E-01  mag=     1.0000
       N       E                     dE             d eps       ncg     rms          rms(c)
DAV:   1    -0.727502816042E+02    0.54866E-02   -0.22293E+01  1008   0.804E+00    0.182E-01
DAV:   2    -0.727608488505E+02   -0.10567E-01   -0.10528E-01  1056   0.774E-01    0.178E-01
DAV:   3    -0.727606762304E+02    0.17262E-03   -0.15145E-03  1112   0.894E-02    0.141E-01
DAV:   4    -0.727602797777E+02    0.39645E-03   -0.86542E-04  1048   0.526E-02    0.623E-02
DAV:   5    -0.727602924762E+02   -0.12699E-04   -0.32600E-04   864   0.352E-02
  12 F= -.72760292E+02 E0= -.72760292E+02  d E =-.180020E-01  mag=     1.0000
       N       E                     dE             d eps       ncg     rms          rms(c)
DAV:   1    -0.727635422661E+02   -0.32625E-02   -0.38668E+00  1036   0.333E+00    0.638E-02
DAV:   2    -0.727654648755E+02   -0.19226E-02   -0.18841E-02  1064   0.325E-01    0.636E-02
DAV:   3    -0.727654464899E+02    0.18386E-04   -0.23932E-04   696   0.369E-02
  13 F= -.72765446E+02 E0= -.72765446E+02  d E =-.515401E-02  mag=     1.0000
       N       E                     dE             d eps       ncg     rms          rms(c)
DAV:   1    -0.727648819382E+02    0.58294E-03   -0.23521E+01  1008   0.822E+00    0.163E-01
DAV:   2    -0.727763166511E+02   -0.11435E-01   -0.11258E-01  1044   0.798E-01    0.174E-01
DAV:   3    -0.727761664176E+02    0.15023E-03   -0.15722E-03  1120   0.896E-02    0.146E-01
DAV:   4    -0.727757119712E+02    0.45445E-03   -0.68491E-04  1040   0.466E-02    0.758E-02
DAV:   5    -0.727756788040E+02    0.33167E-04   -0.67410E-04  1072   0.475E-02
  14 F= -.72775679E+02 E0= -.72775679E+02  d E =-.153863E-01  mag=     1.0000
       N       E                     dE             d eps       ncg     rms          rms(c)
DAV:   1    -0.727424293895E+02    0.33283E-01   -0.94090E+01  1008   0.165E+01    0.326E-01
DAV:   2    -0.727890236092E+02   -0.46594E-01   -0.45866E-01  1040   0.161E+00    0.327E-01
DAV:   3    -0.727884234759E+02    0.60013E-03   -0.65339E-03  1096   0.185E-01    0.263E-01
DAV:   4    -0.727869088700E+02    0.15146E-02   -0.20788E-03  1048   0.816E-02    0.143E-01
DAV:   5    -0.727867108770E+02    0.19799E-03   -0.21952E-03  1052   0.853E-02    0.526E-02
DAV:   6    -0.727867168589E+02   -0.59819E-05   -0.61049E-05   648   0.152E-02
  15 F= -.72786717E+02 E0= -.72786717E+02  d E =-.264244E-01  mag=     1.0000
       N       E                     dE             d eps       ncg     rms          rms(c)
DAV:   1    -0.727788408111E+02    0.78701E-02   -0.18574E+01  1008   0.730E+00    0.139E-01
DAV:   2    -0.727879751432E+02   -0.91343E-02   -0.89895E-02  1036   0.711E-01    0.145E-01
DAV:   3    -0.727878676913E+02    0.10745E-03   -0.12623E-03  1116   0.808E-02    0.119E-01
DAV:   4    -0.727875637252E+02    0.30397E-03   -0.40792E-04   972   0.364E-02    0.659E-02
DAV:   5    -0.727875418156E+02    0.21910E-04   -0.52542E-04  1024   0.419E-02
  16 F= -.72787542E+02 E0= -.72787542E+02  d E =-.272493E-01  mag=     1.0000
       N       E                     dE             d eps       ncg     rms          rms(c)
DAV:   1    -0.727891867346E+02   -0.16230E-02   -0.62210E+00  1008   0.421E+00    0.766E-02
DAV:   2    -0.727922939470E+02   -0.31072E-02   -0.30417E-02  1052   0.413E-01    0.810E-02
DAV:   3    -0.727922704755E+02    0.23472E-04   -0.42305E-04   984   0.467E-02
  17 F= -.72792270E+02 E0= -.72792270E+02  d E =-.472866E-02  mag=     1.0000
       N       E                     dE             d eps       ncg     rms          rms(c)
DAV:   1    -0.727780887342E+02    0.14205E-01   -0.56204E+01  1008   0.127E+01    0.247E-01
DAV:   2    -0.728053747868E+02   -0.27286E-01   -0.27033E-01  1044   0.124E+00    0.270E-01
DAV:   3    -0.728049645576E+02    0.41023E-03   -0.38040E-03  1112   0.140E-01    0.230E-01
DAV:   4    -0.728038153653E+02    0.11492E-02   -0.14367E-03  1040   0.670E-02    0.128E-01
DAV:   5    -0.728036568868E+02    0.15848E-03   -0.19547E-03  1080   0.801E-02    0.518E-02
DAV:   6    -0.728036659021E+02   -0.90152E-05   -0.46840E-05   632   0.135E-02
  18 F= -.72803666E+02 E0= -.72803666E+02  d E =-.161241E-01  mag=     1.0000
       N       E                     dE             d eps       ncg     rms          rms(c)
DAV:   1    -0.727079548658E+02    0.95702E-01   -0.22612E+02  1008   0.255E+01    0.532E-01
DAV:   2    -0.728214273600E+02   -0.11347E+00   -0.11181E+00  1048   0.252E+00    0.514E-01
DAV:   3    -0.728197039937E+02    0.17234E-02   -0.16210E-02  1108   0.295E-01    0.406E-01
DAV:   4    -0.728161294227E+02    0.35746E-02   -0.47098E-03  1036   0.122E-01    0.224E-01
DAV:   5    -0.728154751715E+02    0.65425E-03   -0.46826E-03  1088   0.125E-01    0.712E-02
DAV:   6    -0.728155161756E+02   -0.41004E-04   -0.10256E-04   680   0.210E-02
  19 F= -.72815516E+02 E0= -.72815516E+02  d E =-.279744E-01  mag=     1.0000
       N       E                     dE             d eps       ncg     rms          rms(c)
DAV:   1    -0.723226684463E+02    0.49281E+00   -0.92845E+02  1008   0.523E+01    0.147E+00
DAV:   2    -0.728096731025E+02   -0.48700E+00   -0.48295E+00  1080   0.532E+00    0.111E+00
DAV:   3    -0.728020264573E+02    0.76466E-02   -0.74861E-02  1080   0.656E-01    0.784E-01
DAV:   4    -0.727902669712E+02    0.11759E-01   -0.17462E-02  1048   0.239E-01    0.441E-01
DAV:   5    -0.727881417763E+02    0.21252E-02   -0.10345E-02  1088   0.188E-01    0.128E-01
DAV:   6    -0.727883441541E+02   -0.20238E-03   -0.24589E-04   744   0.357E-02    0.696E-02
DAV:   7    -0.727884845053E+02   -0.14035E-03   -0.63924E-05   680   0.166E-02    0.307E-02
DAV:   8    -0.727885804004E+02   -0.95895E-04   -0.20017E-05   680   0.856E-03
  20 F= -.72788580E+02 E0= -.72788580E+02  d E =-.103858E-02  mag=     1.0000
       N       E                     dE             d eps       ncg     rms          rms(c)
DAV:   1    -0.725316819446E+02    0.25680E+00   -0.58911E+02  1008   0.414E+01    0.915E-01
DAV:   2    -0.728301083075E+02   -0.29843E+00   -0.29166E+00  1048   0.407E+00    0.850E-01
DAV:   3    -0.728262521144E+02    0.38562E-02   -0.41453E-02  1104   0.454E-01    0.667E-01
DAV:   4    -0.728175374994E+02    0.87146E-02   -0.11616E-02  1044   0.195E-01    0.371E-01
DAV:   5    -0.728158560799E+02    0.16814E-02   -0.97789E-03  1064   0.179E-01    0.106E-01
DAV:   6    -0.728159912637E+02   -0.13518E-03   -0.18459E-04   744   0.308E-02    0.615E-02
DAV:   7    -0.728160603408E+02   -0.69077E-04   -0.78131E-05   680   0.165E-02
  21 F= -.72816060E+02 E0= -.72816060E+02  d E =-.285185E-01  mag=     1.0000
       N       E                     dE             d eps       ncg     rms          rms(c)
DAV:   1    -0.728218546218E+02   -0.58634E-02   -0.19730E+01  1028   0.751E+00    0.164E-01
DAV:   2    -0.728315478380E+02   -0.96932E-02   -0.95761E-02  1064   0.730E-01    0.159E-01
DAV:   3    -0.728314199387E+02    0.12790E-03   -0.13592E-03  1104   0.819E-02    0.127E-01
DAV:   4    -0.728311044717E+02    0.31547E-03   -0.73232E-04  1048   0.482E-02    0.518E-02
DAV:   5    -0.728311169723E+02   -0.12501E-04   -0.23214E-04   736   0.308E-02
  22 F= -.72831117E+02 E0= -.72831117E+02  d E =-.150566E-01  mag=     1.0000
       N       E                     dE             d eps       ncg     rms          rms(c)
DAV:   1    -0.727602955162E+02    0.70809E-01   -0.17847E+02  1008   0.227E+01    0.552E-01
DAV:   2    -0.728490249404E+02   -0.88729E-01   -0.88206E-01  1048   0.222E+00    0.481E-01
DAV:   3    -0.728474528805E+02    0.15721E-02   -0.12917E-02  1104   0.257E-01    0.365E-01
DAV:   4    -0.728446953370E+02    0.27575E-02   -0.63134E-03  1040   0.141E-01    0.144E-01
DAV:   5    -0.728446817727E+02    0.13564E-04   -0.14658E-03  1104   0.765E-02    0.584E-02
DAV:   6    -0.728446655756E+02    0.16197E-04   -0.14652E-04   712   0.226E-02
  23 F= -.72844666E+02 E0= -.72844666E+02  d E =-.286052E-01  mag=     1.0000
       N       E                     dE             d eps       ncg     rms          rms(c)
DAV:   1    -0.728424835737E+02    0.21982E-02   -0.71306E+00  1016   0.452E+00    0.972E-02
DAV:   2    -0.728459967781E+02   -0.35132E-02   -0.34306E-02  1080   0.437E-01    0.963E-02
DAV:   3    -0.728459635920E+02    0.33186E-04   -0.48448E-04  1072   0.486E-02
  24 F= -.72845964E+02 E0= -.72845964E+02  d E =-.299033E-01  mag=     1.0000
       N       E                     dE             d eps       ncg     rms          rms(c)
DAV:   1    -0.728454299237E+02    0.56685E-03   -0.36614E+01  1008   0.103E+01    0.208E-01
DAV:   2    -0.728635031144E+02   -0.18073E-01   -0.17732E-01  1044   0.995E-01    0.197E-01
DAV:   3    -0.728632438021E+02    0.25931E-03   -0.24984E-03  1092   0.111E-01    0.160E-01
DAV:   4    -0.728626347468E+02    0.60906E-03   -0.11115E-03  1024   0.590E-02    0.695E-02
DAV:   5    -0.728626263672E+02    0.83796E-05   -0.53973E-04  1080   0.437E-02
  25 F= -.72862626E+02 E0= -.72862626E+02  d E =-.166628E-01  mag=     1.0000
       N       E                     dE             d eps       ncg     rms          rms(c)
DAV:   1    -0.728036987815E+02    0.58936E-01   -0.14683E+02  1008   0.206E+01    0.471E-01
DAV:   2    -0.728765824869E+02   -0.72884E-01   -0.71577E-01  1036   0.200E+00    0.415E-01
DAV:   3    -0.728753258630E+02    0.12566E-02   -0.10234E-02  1084   0.225E-01    0.321E-01
DAV:   4    -0.728729476807E+02    0.23782E-02   -0.54640E-03  1040   0.131E-01    0.121E-01
DAV:   5    -0.728729704895E+02   -0.22809E-04   -0.12728E-03  1092   0.702E-02    0.529E-02
DAV:   6    -0.728729647423E+02    0.57472E-05   -0.10803E-04   652   0.198E-02
  26 F= -.72872965E+02 E0= -.72872965E+02  d E =-.270012E-01  mag=     1.0000
       N       E                     dE             d eps       ncg     rms          rms(c)
DAV:   1    -0.728653197864E+02    0.76507E-02   -0.42442E+01  1008   0.110E+01    0.232E-01
DAV:   2    -0.728859493388E+02   -0.20630E-01   -0.20457E-01  1040   0.107E+00    0.219E-01
DAV:   3    -0.728855899691E+02    0.35937E-03   -0.29374E-03  1088   0.123E-01    0.174E-01
DAV:   4    -0.728848554352E+02    0.73453E-03   -0.13497E-03  1032   0.652E-02    0.766E-02
DAV:   5    -0.728848456705E+02    0.97647E-05   -0.64344E-04  1064   0.473E-02
  27 F= -.72884846E+02 E0= -.72884846E+02  d E =-.118809E-01  mag=     1.0000
       N       E                     dE             d eps       ncg     rms          rms(c)
DAV:   1    -0.728531650832E+02    0.31690E-01   -0.76674E+01  1008   0.149E+01    0.329E-01
DAV:   2    -0.728906819931E+02   -0.37517E-01   -0.37197E-01  1044   0.144E+00    0.295E-01
DAV:   3    -0.728900145670E+02    0.66743E-03   -0.54120E-03  1088   0.167E-01    0.228E-01
DAV:   4    -0.728887717530E+02    0.12428E-02   -0.24652E-03  1044   0.883E-02    0.954E-02
DAV:   5    -0.728887614063E+02    0.10347E-04   -0.91765E-04  1064   0.573E-02
  28 F= -.72888761E+02 E0= -.72888761E+02  d E =-.157967E-01  mag=     1.0000
       N       E                     dE             d eps       ncg     rms          rms(c)
DAV:   1    -0.728885703556E+02    0.20140E-03   -0.19820E+01  1008   0.755E+00    0.163E-01
DAV:   2    -0.728982303942E+02   -0.96600E-02   -0.95361E-02  1044   0.732E-01    0.161E-01
DAV:   3    -0.728981161064E+02    0.11429E-03   -0.13754E-03  1096   0.843E-02    0.126E-01
DAV:   4    -0.728978022685E+02    0.31384E-03   -0.58006E-04  1048   0.440E-02    0.638E-02
DAV:   5    -0.728978155042E+02   -0.13236E-04   -0.36213E-04   960   0.356E-02
  29 F= -.72897816E+02 E0= -.72897816E+02  d E =-.905410E-02  mag=     1.0000
       N       E                     dE             d eps       ncg     rms          rms(c)
DAV:   1    -0.728902716909E+02    0.75306E-02   -0.22566E+01  1008   0.806E+00    0.173E-01
DAV:   2    -0.729011534073E+02   -0.10882E-01   -0.10835E-01  1040   0.780E-01    0.171E-01
DAV:   3    -0.729010141528E+02    0.13925E-03   -0.15635E-03  1080   0.900E-02    0.133E-01
DAV:   4    -0.729006464251E+02    0.36773E-03   -0.64517E-04  1040   0.463E-02    0.672E-02
DAV:   5    -0.729006451759E+02    0.12493E-05   -0.40542E-04  1000   0.373E-02
  30 F= -.72900645E+02 E0= -.72900645E+02  d E =-.118838E-01  mag=     1.0000
       N       E                     dE             d eps       ncg     rms          rms(c)
DAV:   1    -0.729002041815E+02    0.44224E-03   -0.16389E+01  1008   0.687E+00    0.150E-01
DAV:   2    -0.729080926155E+02   -0.78884E-02   -0.77843E-02  1044   0.661E-01    0.142E-01
DAV:   3    -0.729079925876E+02    0.10003E-03   -0.11123E-03  1088   0.755E-02    0.110E-01
DAV:   4    -0.729077572789E+02    0.23531E-03   -0.51178E-04  1028   0.404E-02    0.501E-02
DAV:   5    -0.729077840017E+02   -0.26723E-04   -0.21957E-04   696   0.286E-02
  31 F= -.72907784E+02 E0= -.72907784E+02  d E =-.713883E-02  mag=     1.0000
       N       E                     dE             d eps       ncg     rms          rms(c)
DAV:   1    -0.728995413790E+02    0.82159E-02   -0.22482E+01  1008   0.805E+00    0.176E-01
DAV:   2    -0.729103333083E+02   -0.10792E-01   -0.10670E-01  1048   0.774E-01    0.166E-01
DAV:   3    -0.729101851304E+02    0.14818E-03   -0.15219E-03  1068   0.883E-02    0.128E-01
DAV:   4    -0.729098398422E+02    0.34529E-03   -0.70424E-04  1036   0.473E-02    0.578E-02
DAV:   5    -0.729098489461E+02   -0.91039E-05   -0.29836E-04   840   0.327E-02
  32 F= -.72909849E+02 E0= -.72909849E+02  d E =-.920377E-02  mag=     1.0000
       N       E                     dE             d eps       ncg     rms          rms(c)
DAV:   1    -0.729037213114E+02    0.61185E-02   -0.23898E+01  1008   0.828E+00    0.173E-01
DAV:   2    -0.729153324869E+02   -0.11611E-01   -0.11421E-01  1036   0.799E-01    0.169E-01
DAV:   3    -0.729151782417E+02    0.15425E-03   -0.16127E-03  1100   0.906E-02    0.134E-01
DAV:   4    -0.729147889076E+02    0.38933E-03   -0.70777E-04  1032   0.475E-02    0.646E-02
DAV:   5    -0.729147841127E+02    0.47949E-05   -0.42731E-04  1088   0.376E-02
  33 F= -.72914784E+02 E0= -.72914784E+02  d E =-.493517E-02  mag=     1.0000
       N       E                     dE             d eps       ncg     rms          rms(c)
DAV:   1    -0.729128525971E+02    0.19363E-02   -0.48657E+00  1008   0.373E+00    0.813E-02
DAV:   2    -0.729152424292E+02   -0.23898E-02   -0.23466E-02  1056   0.361E-01    0.747E-02
DAV:   3    -0.729152148917E+02    0.27538E-04   -0.31280E-04   824   0.410E-02
  34 F= -.72915215E+02 E0= -.72915215E+02  d E =-.536595E-02  mag=     1.0000
       N       E                     dE             d eps       ncg     rms          rms(c)
DAV:   1    -0.729095786615E+02    0.56638E-02   -0.24670E+01  1008   0.836E+00    0.170E-01
DAV:   2    -0.729215602730E+02   -0.11982E-01   -0.11727E-01  1056   0.808E-01    0.176E-01
DAV:   3    -0.729213744719E+02    0.18580E-03   -0.16386E-03  1096   0.905E-02    0.144E-01
DAV:   4    -0.729208976087E+02    0.47686E-03   -0.76851E-04  1036   0.489E-02    0.723E-02
DAV:   5    -0.729208608630E+02    0.36746E-04   -0.59714E-04  1064   0.437E-02
  35 F= -.72920861E+02 E0= -.72920861E+02  d E =-.564597E-02  mag=     1.0000
       N       E                     dE             d eps       ncg     rms          rms(c)
DAV:   1    -0.728885206302E+02    0.32377E-01   -0.70844E+01  1008   0.142E+01    0.293E-01
DAV:   2    -0.729229321962E+02   -0.34412E-01   -0.34136E-01  1048   0.138E+00    0.285E-01
DAV:   3    -0.729224240616E+02    0.50813E-03   -0.48554E-03  1064   0.157E-01    0.225E-01
DAV:   4    -0.729212172416E+02    0.12068E-02   -0.18044E-03  1044   0.754E-02    0.116E-01
DAV:   5    -0.729210633108E+02    0.15393E-03   -0.13563E-03  1072   0.658E-02    0.426E-02
DAV:   6    -0.729210898494E+02   -0.26539E-04   -0.30244E-05   640   0.110E-02
  36 F= -.72921090E+02 E0= -.72921090E+02  d E =-.587496E-02  mag=     1.0000
       N       E                     dE             d eps       ncg     rms          rms(c)
DAV:   1    -0.729172119543E+02    0.38514E-02   -0.11680E+01  1008   0.576E+00    0.112E-01
DAV:   2    -0.729228295436E+02   -0.56176E-02   -0.55196E-02  1064   0.553E-01    0.115E-01
DAV:   3    -0.729227653033E+02    0.64240E-04   -0.76985E-04  1104   0.624E-02
  37 F= -.72922765E+02 E0= -.72922765E+02  d E =-.755041E-02  mag=     1.0000
       N       E                     dE             d eps       ncg     rms          rms(c)
DAV:   1    -0.729204628215E+02    0.23667E-02   -0.14675E+01  1008   0.640E+00    0.123E-01
DAV:   2    -0.729277965168E+02   -0.73337E-02   -0.71231E-02  1064   0.623E-01    0.109E-01
DAV:   3    -0.729277149252E+02    0.81592E-04   -0.10034E-03  1056   0.716E-02    0.864E-02
DAV:   4    -0.729275389177E+02    0.17601E-03   -0.21487E-04   760   0.269E-02    0.477E-02
DAV:   5    -0.729275145743E+02    0.24343E-04   -0.31792E-04   956   0.332E-02
  38 F= -.72927515E+02 E0= -.72927515E+02  d E =-.474927E-02  mag=     1.0000
       N       E                     dE             d eps       ncg     rms          rms(c)
DAV:   1    -0.728678093695E+02    0.59730E-01   -0.13410E+02  1008   0.194E+01    0.429E-01
DAV:   2    -0.729338431340E+02   -0.66034E-01   -0.65611E-01  1064   0.189E+00    0.369E-01
DAV:   3    -0.729325341443E+02    0.13090E-02   -0.94089E-03  1088   0.214E-01    0.286E-01
DAV:   4    -0.729303739284E+02    0.21602E-02   -0.33997E-03  1052   0.103E-01    0.133E-01
DAV:   5    -0.729300887963E+02    0.28513E-03   -0.17018E-03  1088   0.746E-02    0.413E-02
DAV:   6    -0.729301411080E+02   -0.52312E-04   -0.30704E-05   636   0.124E-02
  39 F= -.72930141E+02 E0= -.72930141E+02  d E =-.737580E-02  mag=     1.0000
       N       E                     dE             d eps       ncg     rms          rms(c)
DAV:   1    -0.729276855469E+02    0.24032E-02   -0.12319E+01  1008   0.583E+00    0.107E-01
DAV:   2    -0.729337023093E+02   -0.60168E-02   -0.58523E-02  1072   0.562E-01    0.112E-01
DAV:   3    -0.729336314934E+02    0.70816E-04   -0.78543E-04  1088   0.613E-02
  40 F= -.72933631E+02 E0= -.72933631E+02  d E =-.349039E-02  mag=     1.0000
       N       E                     dE             d eps       ncg     rms          rms(c)
DAV:   1    -0.728859937007E+02    0.47709E-01   -0.11275E+02  1008   0.177E+01    0.395E-01
DAV:   2    -0.729417471129E+02   -0.55753E-01   -0.54551E-01  1056   0.173E+00    0.360E-01
DAV:   3    -0.729406174108E+02    0.11297E-02   -0.76787E-03  1092   0.191E-01    0.285E-01
DAV:   4    -0.729385090571E+02    0.21084E-02   -0.35314E-03  1048   0.106E-01    0.129E-01
DAV:   5    -0.729383273817E+02    0.18168E-03   -0.15543E-03  1072   0.723E-02    0.432E-02
DAV:   6    -0.729384089994E+02   -0.81618E-04   -0.30115E-05   652   0.121E-02
  41 F= -.72938409E+02 E0= -.72938409E+02  d E =-.826789E-02  mag=     1.0000
       N       E                     dE             d eps       ncg     rms          rms(c)
DAV:   1    -0.729417547452E+02   -0.34274E-02   -0.36903E+00  1032   0.325E+00    0.742E-02
DAV:   2    -0.729435361968E+02   -0.17815E-02   -0.17388E-02  1080   0.312E-01    0.682E-02
DAV:   3    -0.729435325333E+02    0.36635E-05   -0.23535E-04   728   0.367E-02
  42 F= -.72943533E+02 E0= -.72943533E+02  d E =-.512353E-02  mag=     1.0000
       N       E                     dE             d eps       ncg     rms          rms(c)
DAV:   1    -0.729449570305E+02   -0.14208E-02   -0.82700E-01  1024   0.154E+00    0.479E-02
DAV:   2    -0.729453472579E+02   -0.39023E-03   -0.37294E-03  1088   0.145E-01    0.415E-02
DAV:   3    -0.729453515628E+02   -0.43049E-05   -0.50081E-05   640   0.165E-02
  43 F= -.72945352E+02 E0= -.72945352E+02  d E =-.694256E-02  mag=     1.0000
       N       E                     dE             d eps       ncg     rms          rms(c)
DAV:   1    -0.729471167850E+02   -0.17695E-02   -0.10646E+00  1044   0.176E+00    0.382E-02
DAV:   2    -0.729476261215E+02   -0.50934E-03   -0.49368E-03  1088   0.167E-01    0.356E-02
DAV:   3    -0.729476281629E+02   -0.20414E-05   -0.64856E-05   648   0.198E-02
  44 F= -.72947628E+02 E0= -.72947628E+02  d E =-.227660E-02  mag=     1.0000
       N       E                     dE             d eps       ncg     rms          rms(c)
DAV:   1    -0.729476350115E+02   -0.88899E-05   -0.95752E+00  1008   0.528E+00    0.118E-01
DAV:   2    -0.729520579697E+02   -0.44230E-02   -0.44288E-02  1060   0.502E-01    0.110E-01
DAV:   3    -0.729519949345E+02    0.63035E-04   -0.65178E-04  1096   0.593E-02
  45 F= -.72951995E+02 E0= -.72951995E+02  d E =-.664337E-02  mag=     1.0000
       N       E                     dE             d eps       ncg     rms          rms(c)
DAV:   1    -0.729533372498E+02   -0.12793E-02   -0.11550E+00  1040   0.183E+00    0.554E-02
DAV:   2    -0.729538398044E+02   -0.50255E-03   -0.52378E-03  1080   0.172E-01    0.485E-02
DAV:   3    -0.729538219884E+02    0.17816E-04   -0.73502E-05   632   0.194E-02
  46 F= -.72953822E+02 E0= -.72953822E+02  d E =-.182705E-02  mag=     1.0000
       N       E                     dE             d eps       ncg     rms          rms(c)
DAV:   1    -0.729545272325E+02   -0.68743E-03   -0.26239E+00  1044   0.276E+00    0.673E-02
DAV:   2    -0.729557477802E+02   -0.12205E-02   -0.12354E-02  1072   0.263E-01    0.588E-02
DAV:   3    -0.729557298825E+02    0.17898E-04   -0.16256E-04   624   0.305E-02
  47 F= -.72955730E+02 E0= -.72955730E+02  d E =-.373495E-02  mag=     1.0000
       N       E                     dE             d eps       ncg     rms          rms(c)
DAV:   1    -0.729564575622E+02   -0.70978E-03   -0.61496E-01  1056   0.133E+00    0.280E-02
DAV:   2    -0.729567454663E+02   -0.28790E-03   -0.28409E-03  1088   0.126E-01    0.282E-02
DAV:   3    -0.729567425901E+02    0.28762E-05   -0.33587E-05   616   0.135E-02
  48 F= -.72956743E+02 E0= -.72956743E+02  d E =-.101271E-02  mag=     1.0000
       N       E                     dE             d eps       ncg     rms          rms(c)
DAV:   1    -0.729564697913E+02    0.27567E-03   -0.55076E+00  1008   0.397E+00    0.810E-02
DAV:   2    -0.729590781482E+02   -0.26084E-02   -0.25940E-02  1056   0.380E-01    0.797E-02
DAV:   3    -0.729590365483E+02    0.41600E-04   -0.33529E-04   832   0.416E-02
  49 F= -.72959037E+02 E0= -.72959037E+02  d E =-.330667E-02  mag=     1.0000
       N       E                     dE             d eps       ncg     rms          rms(c)
DAV:   1    -0.729593035120E+02   -0.22536E-03   -0.12914E+00  1040   0.192E+00    0.661E-02
DAV:   2    -0.729598642187E+02   -0.56071E-03   -0.59715E-03  1072   0.179E-01    0.500E-02
DAV:   3    -0.729598521359E+02    0.12083E-04   -0.94386E-05   656   0.213E-02
  50 F= -.72959852E+02 E0= -.72959852E+02  d E =-.815588E-03  mag=     1.0000
       N       E                     dE             d eps       ncg     rms          rms(c)
DAV:   1    -0.729598188267E+02    0.45392E-04   -0.24349E-02  1052   0.262E-01    0.704E-03
DAV:   2    -0.729598324284E+02   -0.13602E-04   -0.99796E-05   632   0.261E-02
  51 F= -.72959832E+02 E0= -.72959832E+02  d E =-.795880E-03  mag=     1.0000
