16
Energy = -38.70332406 eV
Ga 13.533605211766577 12.367991727573763 8.242606766745107
Ga 14.545492369065867 10.019440587330406 7.221153460447214
Ga 13.408290412415877 11.599709774915407 10.74747040428377
Ga 13.40057279575337 9.105100195455291 9.677554512487891
Ga 11.84844141000064 10.132014130657314 7.816260248945546
Ga 11.109115301766028 12.343572952030293 9.452068323790575
Ga 10.650297573527604 9.706616957942643 10.098475073999264
Ga 12.588949472068885 9.363592478817505 12.215839126002125
Ga 11.027639512934662 11.471044850356456 12.36752822553938
Ga 10.472180207824772 8.337963967348383 13.153671413236959
Ga 9.517001654633846 13.414543473757298 11.435963364360452
Ga 8.494228931666889 11.595376647575366 9.72455089878027
Ga 8.696326777635857 9.964951148536716 11.799135311694263
Ga 9.694450422661172 10.352474295802546 14.65935670885692
Ga 8.355055883817148 12.252078587600634 13.44470168420258
Ga 6.466646800857145 11.738671131589863 11.594005732552638
