16
Energy = -38.79520212 eV
Ga 13.767081155333411 7.440461792400678 10.717323561472709
Ga 13.256563433664281 12.151083120583221 10.240922347393367
Ga 11.737862569529412 7.82005169278657 9.026521928593162
Ga 12.575383261496969 10.246029357501657 8.569530857388594
Ga 12.616479497025766 9.75374449295062 11.421221496446568
Ga 11.574776286579052 13.934752374873023 11.012129376797036
Ga 12.021881619483764 7.400042295451259 12.664124501467239
Ga 11.180149348650014 11.62210058290247 12.454308329450857
Ga 9.991576754167271 8.544482045669998 10.720761417301137
Ga 8.588191246410961 10.48483220479442 12.187403175319256
Ga 10.366851851729256 9.226064212561647 13.539531572622302
Ga 9.992209412385616 13.421316753510183 8.866775303430366
Ga 9.428787657072732 13.734627358018596 12.556141097888437
Ga 10.394164320360229 11.023054150904215 9.909477101391088
Ga 8.154808705202038 12.503938337852452 10.575052729112912
Ga 9.290146139611794 15.573976823396594 10.460334394128537
