11
Energy = -25.65161951 eV
Ga 11.014741180566102 9.609673557517208 12.013542274821939
Ga 13.057051887678295 10.705051388196246 8.662199097101052
Ga 9.458913455339593 13.515846982428448 11.19148736486985
Ga 8.377408183932014 12.113978570583317 9.34697889734309
Ga 9.137377951646577 11.261337440289525 12.440867962041894
Ga 13.522468542043537 10.283960228020247 11.324302817937316
Ga 11.535053562209907 12.038025976036645 10.64583282145582
Ga 10.25412548946007 10.32551268630724 9.077515534058135
Ga 7.93271147446799 9.778819890718056 10.727450486128369
Ga 12.022236326750788 8.441040289772676 9.838353250975583
Ga 9.495931619489275 7.717798841774539 10.498314401383833
