16
Energy = -38.44544498 eV
Ga 9.70509249872363 15.08488110533547 11.553138331500326
Ga 10.654518104516262 13.70729347396923 13.746106368989025
Ga 12.746508383360942 11.655197283557944 10.32800836065381
Ga 12.220945716847142 14.187172977930992 11.580686711147065
Ga 14.700715816496666 13.295907806469453 11.448252391511412
Ga 8.010848838284836 14.51665929334897 13.74263203647647
Ga 10.193785107484091 12.658877488926057 10.467516243040519
Ga 15.763107705386087 11.801560776900835 13.283393627180088
Ga 13.243128853123812 12.595274076207422 13.669316084204793
Ga 16.27523901696005 9.196490330103467 12.030723465249256
Ga 7.582576805676627 13.575065309162014 10.61434542280966
Ga 15.22774211369637 10.901125283450506 10.408376288239705
Ga 11.119157807088586 11.213356017797683 12.60071311955189
Ga 8.645856894857758 12.047567234241264 12.722433869845705
Ga 15.508282684077349 9.3495411656985 14.57656519407224
Ga 13.561354472825927 10.169333446025345 12.5292136994381
