13
Energy = -31.16512582 eV
Ga 10.043907009672496 10.021823197208166 12.512263389025048
Ga 12.90357011490178 10.85470999906498 11.774721643138806
Ga 8.909982021629808 12.713661628449051 8.941106079781663
Ga 8.172461412614522 11.57252628399034 11.367228116268349
Ga 7.185605892940224 9.198720020447537 11.767793179174763
Ga 9.278176185475257 8.273731995334344 10.486195715408257
Ga 8.138504249589781 10.11413606815402 9.092668259064158
Ga 10.461933317533012 11.352588894489214 7.397276064319811
Ga 10.806982591442392 11.80293234792125 10.517037766547254
Ga 11.945701364994148 9.984480546890977 9.091421624175666
Ga 11.911606925200333 8.488353701245593 11.341498275639468
Ga 9.621512493414855 8.78138692952032 7.369980802274476
Ga 11.170460190724251 7.391215345042214 8.891144449127696
