17
Energy = -41.78209539 eV
Ga 6.550193159233026 11.06785687269914 6.1037124231615225
Ga 5.778842904261304 9.995101085576886 8.531025042005771
Ga 8.694426585771422 10.126326399994639 8.04523246061076
Ga 7.431745097152232 11.127467457732749 10.244252415294634
Ga 6.881542921192518 8.247917918572927 6.884861105070461
Ga 8.763180673710497 9.632080446775758 5.386005656613557
Ga 4.958442759048183 7.29313364492104 8.781033776834354
Ga 11.162834830971521 9.66812535907265 6.670510676043923
Ga 9.583373114815464 9.804738325607316 11.021828700841134
Ga 6.804790501758782 5.699613641527287 6.076031238985451
Ga 7.480602749191909 8.35189111775286 9.953997576266838
Ga 7.491281427997479 6.153015045373183 8.73091599580466
Ga 9.344497302915629 7.316466290601359 6.676993357128079
Ga 10.359397387320364 8.256911099326572 8.916923595175266
Ga 9.30268098580649 6.812797100487651 11.24732957996365
Ga 9.088706991216355 4.608298153522497 6.938497560113999
Ga 10.247846676247331 5.581568326190353 9.065937493203116
