14
Energy = -34.64575213 eV
Ga 11.730027362602936 10.664091275150156 7.88481793949676
Ga 11.413132932866041 8.092768911086182 10.847777356949184
Ga 12.481105243710699 10.565265007399487 10.45947792333256
Ga 11.112189409142507 8.026520389954548 8.228983336546428
Ga 9.863669163659733 10.084965310722884 9.698364287422184
Ga 10.31589983037071 12.782870941088342 8.86118820448523
Ga 9.213090147660868 6.374513020832168 11.225593929654897
Ga 9.364939437740281 9.727132278567462 6.957488032903901
Ga 7.520770993286916 10.741012900714935 8.38689761305014
Ga 9.511067568653923 9.162477071470574 12.25454392401499
Ga 8.500010606363379 7.846175458443734 9.049375807061997
Ga 8.267437747290352 12.003168989870415 10.64775318124789
Ga 10.591898110635203 11.654461623445231 11.868333127495912
Ga 7.312268112045327 9.456712037010867 10.810594986330182
