32
Energy = -82.74002006 eV
Ga 8.767661930961884 13.31649490451312 15.106472080127906
Ga 10.82229894896348 9.641771568651109 11.796262074451157
Ga 14.095365436027354 12.703964609336783 15.33372512446476
Ga 12.642085048927592 14.639346034811574 13.798865392162991
Ga 8.411224376656232 11.897357998123564 12.767616870991187
Ga 16.592465070177436 12.169173859657366 13.325433102431921
Ga 11.377492360129262 12.892102208810028 15.554942282924294
Ga 13.88244920191248 12.667950136211502 9.627004320742099
Ga 9.415438128451392 11.677717806513522 8.653483197057177
Ga 9.831791503167736 15.275312069543197 10.297849587819224
Ga 12.31857769053809 10.36162101192944 16.01117371010778
Ga 16.176993137372225 9.393575869076328 12.271548702463283
Ga 13.474697317415348 10.35524377929856 11.58528745024426
Ga 14.211372370441731 7.708839339110865 11.668810765676982
Ga 8.456951966393614 10.165562250580626 10.644933504693283
Ga 11.630679094019174 13.597204198540604 8.571388850430237
Ga 12.31063679182149 14.65755781887259 11.165581708169181
Ga 7.998778711349262 13.189903772166348 10.521660461808702
Ga 11.847833555433452 10.65284847642472 9.29030937151603
Ga 12.487953417472037 8.602240039826308 13.664812573061
Ga 15.569242426680109 14.651861295649367 14.03084994620549
Ga 9.881040372696093 10.258534384659988 14.42609495647462
Ga 10.641538506105038 12.426163027137578 11.052615290447935
Ga 10.440607439569979 15.616115324189643 15.108438437382807
Ga 14.29133760345149 9.496438488955153 9.149585926203429
Ga 15.968276480355822 11.33707516632325 10.479104216361037
Ga 9.720081550566066 14.461540680064598 12.791195581374003
Ga 11.937726116839873 11.718224612394996 13.309509081370432
Ga 9.093753266508331 14.26073135880135 7.955582537125843
Ga 15.029066056671851 14.892335198807336 11.16291714398432
Ga 14.559950488434104 10.298570222776572 14.209145486639764
Ga 14.166181476487722 12.712371871036478 12.429643351731416
