36
Energy = -93.80429601 eV
Ga 8.226413952034253 11.106301834043016 12.682697274578043
Ga 14.92470708771237 11.918598554708629 11.319485097656438
Ga 8.52506178995721 9.020131609432756 14.574871957619461
Ga 8.38708335562512 12.960001366399922 10.797722892610032
Ga 6.281390991461415 11.03876017704177 10.575002027835096
Ga 17.240146057769987 10.348323076962885 11.46015874608971
Ga 14.11835408611783 13.44561087995849 13.379731251559836
Ga 15.731560521200993 11.02407560862217 8.858962121839463
Ga 9.993193227385197 15.061218498991762 10.863270672312554
Ga 8.224102442304542 9.102028027557022 10.818316074945585
Ga 9.51949574994275 11.774711388944567 14.90570656280735
Ga 14.91063839457946 13.953670665321868 9.626896929231629
Ga 15.024972105444986 8.754087106538039 11.308151907995128
Ga 13.354107076973236 11.355769360056465 15.248976476729553
Ga 8.525776729276089 11.050169035126833 8.717287640241654
Ga 10.382774439810037 8.874233068611977 12.526676392107532
Ga 8.742065669036064 14.123034357125892 13.483029185461508
Ga 13.889046557852023 15.535019108711829 11.57046820215439
Ga 13.275514751884673 10.187350304074672 9.58456503190854
Ga 15.229931799018095 10.672607196698237 13.614610275467488
Ga 11.289586728525979 11.372003653213405 17.091412317984247
Ga 12.21836411127038 15.239652844795028 8.971247425208787
Ga 10.34449919404096 8.270804328245005 9.402133376835462
Ga 12.42975988159029 8.089812662732193 11.042716784040643
Ga 11.606828731699911 13.462067976115351 15.084808418400023
Ga 13.078213217437257 12.525440724034627 8.1167955515418
Ga 13.26493867288379 8.342786805109878 13.658719837688428
Ga 11.609729956872426 15.163017769997959 13.104537036679504
Ga 10.431476438283543 13.138460041011689 8.783861961995001
Ga 11.289066505862987 9.563026192078894 14.964623956778587
Ga 11.752072283892476 17.154384823123387 11.062911104154589
Ga 11.040827050431156 10.465756511777407 7.782654518169307
Ga 10.706143456664016 12.538637715079433 12.571221338680239
Ga 12.469238957480993 13.219882089733488 10.853005901479087
Ga 10.690068980116822 10.828546585758884 10.53541782837086
Ga 12.680243517734988 10.7274123856268 12.464740391017614
