38
Energy = -98.95186205 eV
Ga 9.708309700530238 10.643127882760616 3.406709917007844
Ga 8.440259279205893 8.679931728217065 4.709376518505232
Ga 8.402086059478698 12.30136539488034 5.245994700092667
Ga 12.024110284194535 11.088605310464816 4.875403654701395
Ga 6.54148242409033 7.257368148618077 6.282077478126975
Ga 9.174796898975519 5.789173099448272 5.657750272655468
Ga 7.140567557224158 10.280169672303867 6.7127376346016305
Ga 11.546820136246524 7.917780301504695 5.839230892634308
Ga 9.970137379902784 10.321236457995859 6.390171209328494
Ga 10.955243868470188 12.97766452940541 6.714466218091441
Ga 9.22705648294476 7.973240364480898 7.336616678574573
Ga 8.626286486782112 12.34137682337279 8.058757663754875
Ga 7.677787941837961 5.406618318477433 8.26931249009949
Ga 4.931607224408703 6.4200082656456 8.529843124921054
Ga 12.500580772572631 10.378756613945908 7.496136740972201
Ga 4.566115122387078 9.37800791893496 7.6268541055653145
Ga 10.742453964466337 5.580396209731571 8.059153925932538
Ga 6.988261432629975 8.360453470251594 8.687144244310925
Ga 12.02072915070074 7.910194545120247 8.832105777205635
Ga 9.800921139294207 10.039728393147916 9.114247242380545
Ga 11.440723442103932 12.228871987779394 9.265831365949323
Ga 6.302239524875083 11.055681937239488 9.35453721164726
Ga 9.388504356385837 7.3899905012001295 9.85444005089731
Ga 13.101961848302018 10.048480595373238 10.235072541428442
Ga 11.701070550714418 6.358255110617484 11.247682999186086
Ga 4.986340025974399 8.855543262076711 10.581071230213231
Ga 8.503357337317311 12.117815695881289 10.723660738829789
Ga 9.267292969107032 4.81404040654794 10.586287834782178
Ga 10.822928142455945 8.966474260558117 11.521909844530118
Ga 6.759977514564241 6.5363510829064735 10.737102447537927
Ga 7.866362260183821 9.326798451298773 10.998549841831197
Ga 10.966100358544628 11.687611783469244 11.79530800288677
Ga 6.255274364397634 11.233545512393189 12.290871561486869
Ga 8.7990580171889 7.062649994036683 12.54786678784634
Ga 11.256997730913088 10.164660815224607 13.904150684605819
Ga 8.626956321461565 9.755071196566046 13.512017891923765
Ga 6.213045333407302 8.185808729935827 13.126322389057107
Ga 10.992884566289026 7.403833198716453 14.109914056427886
