34
Energy = -122.4083602 eV
Ga 16.188792168292967 12.365139439481487 6.726776585208106
Ga 13.536064223780537 13.175972800697254 8.088904005408835
Ga 12.927398371443081 16.004483489844812 7.189608633184184
Ga 15.529796917161654 10.368199875950486 8.992137692770118
Ga 16.9164196206042 14.00098135989663 9.120054050076295
Ga 11.06231190142567 11.268474290908602 7.917061904439131
Ga 12.763866454673554 8.901680455421175 8.773896037192157
Ga 15.530074500400639 16.706252464073955 8.60525086427421
Ga 11.057604756747581 12.621309658830524 10.726618457527007
Ga 17.688833855248756 8.979390979569983 10.680754860117242
Ga 11.780683185197558 15.655911681940822 10.161017520800073
Ga 14.81029494764164 12.33303996397159 11.318877595526164
Ga 12.948718682441433 9.52923022473899 11.715318348306182
Ga 14.824676852827052 15.829979658105785 11.564868421200899
Ga 17.090469131929474 10.926023306336301 12.94202115825506
Ga 15.54604434239502 16.90425367842391 14.439466826727095
Ga 9.079570597618476 16.407431695845556 11.561469447130067
Ga 10.989456776489279 10.257435466508978 19.01452593521841
Ga 10.140960954092604 12.151482165249783 16.849042164443954
Ga 10.543167851655294 14.95174005710811 17.75439586552104
Ga 11.084595139020273 8.077406550604517 16.85103561290451
Ga 13.79971571938897 11.20148147651396 18.318145554057825
Ga 7.538818894660996 11.144287573444863 15.68829970381526
Ga 9.565086526567912 9.24334313604183 14.407496876221138
Ga 13.45017460545996 14.251358484841191 17.94175162799136
Ga 7.318715808846388 13.672816094985478 13.961167836669249
Ga 13.635337776133317 9.44398885163423 15.764980936005308
Ga 9.393791726011328 15.80805441352107 14.789951991619173
Ga 11.998246994174803 14.71290366544965 13.569128945574581
Ga 11.788090673361857 11.354445605824674 14.261210123886196
Ga 14.675064835368827 14.059668544609917 15.076854127355803
Ga 15.57444051874671 8.281101425332388 12.766965647099997
Ga 12.853859414738922 17.6026987500649 13.193445127810703
Ga 8.126063906215144 13.56524134498689 11.024708146424121
