32
Energy = -81.55628736 eV
Ga 10.58624465364462 11.26765979306284 11.939683624563239
Ga 10.748352956974452 12.791124778826331 9.648345222219989
Ga 11.055894227815383 18.4156074803441 13.494966432673762
Ga 15.57000014696383 10.840013286695573 13.892023017340255
Ga 17.03012864807549 15.821755880950068 14.877559324142846
Ga 11.273572328451548 14.827938815532077 16.070096762534714
Ga 16.047624506389468 13.436085315118 14.298987078358657
Ga 15.25684440042937 17.85818392109868 14.802040655876828
Ga 10.460759825798633 12.532431778458788 14.436399829919798
Ga 12.594130296810027 16.558376895436265 11.902571506004026
Ga 12.795281728764685 16.794578470077884 14.788672137588492
Ga 17.482034369009593 12.148758809208925 18.233630015486
Ga 12.997625783963995 13.127970915070486 8.27579301188833
Ga 12.915030801249458 11.366687545606972 13.506200924977259
Ga 13.213989008299237 14.395309133228894 10.710836258075764
Ga 12.842589126558696 14.08239583584149 13.60602929400604
Ga 17.46322094742197 11.184094972549568 15.5461561786362
Ga 11.878282067234391 9.053945247272773 12.59882284632822
Ga 12.666900221755753 12.361817195001075 15.966869053202833
Ga 14.125160450828227 14.936600504408153 16.05039044915245
Ga 15.100549076823901 12.019964719890403 16.681736592850555
Ga 16.046803179391027 14.341210985102386 17.741866224843687
Ga 10.550245473176643 14.026998684453464 11.946245323029933
Ga 18.55801585793317 15.874698582127376 17.425167467359145
Ga 14.50014450919451 9.686724729987509 11.765809475404382
Ga 13.103045511194793 11.543863845444067 10.540029021151128
Ga 14.91337290871806 12.82192086150437 12.043208862774062
Ga 10.352089886995604 15.848115247580285 13.724918709058182
Ga 15.056817632335857 15.653517726102324 12.94961832959435
Ga 15.947743470086873 16.902069681143626 17.18770293144672
Ga 13.768584270616282 18.861444305110304 12.866141069895555
Ga 18.20325499039362 13.71985484728074 15.931944778340956
