48
Energy = -127.81706319 eV
Ga 14.1188695053759 7.525301973317387 9.621516594897948
Ga 15.120576139906442 10.186641743024106 9.385700383314926
Ga 14.629357069111181 11.544902274160254 11.77034162067464
Ga 11.859364069398909 6.308388480603708 8.464906482026759
Ga 12.35253459299257 6.359138598920813 11.337859909936322
Ga 13.952686733170735 8.975344871466785 11.90090089562245
Ga 14.655057086326416 13.12770312267306 9.411631785948236
Ga 11.984766013517286 8.13452604471623 13.627130099342613
Ga 13.527247966840276 8.87036552664425 7.329958851512328
Ga 11.594746947467359 8.744114706718237 9.946630589297612
Ga 12.562283930625778 11.371179230992436 9.882969226898057
Ga 10.325580861353131 6.03260025712162 13.081223732969299
Ga 9.68371971637944 6.415411836169586 10.271942890418256
Ga 12.85041722534738 13.339738052181149 12.660569696816735
Ga 11.963176624097144 10.541789696258784 5.243164776403011
Ga 11.096894520727975 10.418842024799105 7.881208553792748
Ga 11.230199927939381 8.002037065998813 6.335226947349893
Ga 13.657347650230513 11.691336562166093 7.230284894862385
Ga 9.4485699452803 8.538459010663345 12.077449952392746
Ga 12.498534643454777 14.589164109821759 10.238113966283294
Ga 8.132539119415881 5.3716787561957515 14.502068477842736
Ga 11.361733832935894 10.51804821268181 12.083134711383535
Ga 10.402637944365582 9.997352234995367 14.737439597409727
Ga 13.241000654803937 10.712982375564486 14.190571898503533
Ga 8.523469982964082 8.019120472382681 14.651893440729735
Ga 10.364067394244131 15.032500451335517 12.469890986926242
Ga 9.041225069380586 9.200610328993045 9.134281770812086
Ga 11.685171719229782 13.450546491487817 7.735756947451277
Ga 7.445830451943111 6.517689418583728 12.164444000761454
Ga 10.812692651874485 12.566719783471614 14.150232224836827
Ga 9.047372920389396 6.812517029455693 7.577921114532692
Ga 9.902496373215326 12.354624476602654 6.040338858560734
Ga 10.497882380994646 12.751147093010696 10.999519482848733
Ga 9.151989485929175 11.976307470291935 8.791790600785266
Ga 7.697258249153925 10.509587970229413 13.879730726346603
Ga 9.136442227139332 9.584008321746763 5.88479724836062
Ga 8.553450032310728 10.99376651148767 11.178523186648695
Ga 6.99979878014511 7.25938458118015 9.633698593210985
Ga 9.985640654341239 15.015027824361614 9.370912319964683
Ga 6.518882382388348 9.080267689793015 11.90988856740039
Ga 6.979069445885512 8.660941284405393 7.2939398065650085
Ga 8.253390075127793 14.197275616476597 7.396836340185322
Ga 8.305109260929692 13.031883698104261 13.288105922594067
Ga 7.145932047877476 11.467599387062437 6.808256756192102
Ga 7.890547628597383 14.1839345701892 10.942353507335882
Ga 5.951507782221734 11.908886435747092 11.809947778298334
Ga 6.198468064771634 10.185324923520817 9.393969131682924
Ga 6.492225026622156 12.811607734911435 9.123931947695308
