4
Energy = -6.80926399 eV
Ga 9.551596325320707 8.00950900518544 9.945364295624488
Ga 7.145295368861036 8.656800271014708 9.384077018160758
Ga 9.63714659130119 8.131355924224167 7.404221595819768
Ga 7.240923897810914 8.777296982869537 6.841299273688606
