5
Energy = -9.35191527 eV
Ga 11.465882519503264 9.345823220841211 10.055929725937105
Ga 9.985192078774736 11.390128578359482 10.452386932036783
Ga 9.696129811440535 7.814968266357396 9.173851239080687
Ga 8.196711680139739 9.800041905589243 9.725105357351406
Ga 7.581554342835108 8.528777056589776 7.533838879044789
