54
Energy = -142.88109477 eV
Ga 14.936446675078825 10.430269840960936 12.392827325402648
Ga 11.826859646890455 13.756500133603568 7.8336038414095315
Ga 12.233996153574699 7.3788009878715375 7.178975117471979
Ga 8.90089609695837 13.922999459188826 7.64835325992462
Ga 5.175603232941143 8.099896643105733 9.06653460494858
Ga 10.312478200451112 12.302201226681136 5.990665696028487
Ga 10.635972661200205 8.457407825088815 11.311748589852975
Ga 13.201485944795278 14.544728629005277 14.007857939543596
Ga 11.630147138712184 5.823541850184111 11.70909211376665
Ga 5.577544479802186 9.505872052408348 11.508679243982959
Ga 5.654291085758575 7.750018704140464 13.668033313232488
Ga 6.39820373788881 6.626497064450616 11.151370023262704
Ga 13.881812380146464 12.458939996218486 9.374875675441032
Ga 6.808493975020804 13.315412685797419 9.374429596081026
Ga 9.81106257594342 15.301692951275005 9.847666884523488
Ga 8.985433634083524 5.785209149759532 11.11476500862615
Ga 9.443788834641293 7.34684241833992 6.398213635245232
Ga 13.327831367112392 7.967260037323528 12.620946750648354
Ga 10.944681878237706 12.543388075448812 14.567100604868328
Ga 7.986102775664048 11.218204227898092 11.100151556415469
Ga 11.493489669846493 11.01078580145363 8.53824616924141
Ga 5.839553226437418 10.834560120478235 9.134675893029335
Ga 7.706820679279268 6.395922994091656 8.594086823730999
Ga 8.322764434125007 12.514884533638186 13.810078358419108
Ga 10.680221849085424 5.998290821419304 8.904271279039245
Ga 10.4475155791566 10.995678119410531 12.165477118704034
Ga 9.783747558590825 9.913066220503813 14.613037006658319
Ga 15.575903774526152 12.856261054768146 13.359142821843465
Ga 13.06870477793455 7.297826701500842 9.889827511867857
Ga 15.533678307449627 8.04215734482731 10.971629871864918
Ga 10.208817493297675 8.725399897568044 8.695114770772125
Ga 13.647842778784021 12.097925938469071 15.179212590228342
Ga 14.643609813082188 14.746218342652378 11.62289279879498
Ga 8.41758977224969 7.6153600838141475 13.060593475733983
Ga 11.305601639558216 9.629276447063905 6.045710667689937
Ga 16.322620092465346 12.695618047618815 10.731007142311935
Ga 10.099521819184869 12.589016345908599 10.061421329134594
Ga 7.167225918154066 8.846048392897028 7.364892422070848
Ga 7.248960822776755 10.128198428148423 13.615625397210716
Ga 8.602793781439889 10.236069519792446 5.629323324682589
Ga 12.50240431618519 14.80282974446833 10.213764715816765
Ga 6.764712004104408 12.209140111655334 6.684245598412352
Ga 15.863397890532056 10.356180479766628 9.630836362087695
Ga 8.03787734779934 14.114203709196044 11.58802470609424
Ga 10.779648476201848 14.170679330028568 12.300378363143825
Ga 12.487639024481535 9.946575639514759 14.24332609876807
Ga 8.0562277711203 8.73064678387526 10.295230319503107
Ga 13.889396612407477 9.446793023052933 8.06502551785624
Ga 5.7076098199623875 12.405396895672904 11.996363887558973
Ga 12.945715515196243 12.34861797754957 12.189295542070374
Ga 8.727862944956641 10.961818847005992 8.378064803928337
Ga 10.929035596249332 7.401709750823408 13.900399899615064
Ga 12.830693242491545 10.063564078356762 10.659071427865198
Ga 13.07833242216783 11.728263760439267 6.39448444975626
