5
Energy = -9.32742191 eV
Ga 7.737770536347787 8.648421120429212 6.795533651032775
Ga 6.820269510857198 7.5518840586484455 8.861200219610305
Ga 8.622516203192855 5.828665702609432 8.610554877207983
Ga 5.630066175058503 9.890116356117488 7.9457003356963245
Ga 9.537674333030484 6.9375128034594535 6.518666383413788
