54
Energy = -142.59077644 eV
Ga 13.992507327443828 9.950297876514433 11.86788263344868
Ga 12.014259870426892 10.715461086017475 5.836746661290409
Ga 11.643612951932418 11.844079812944358 11.746867861401451
Ga 5.908919681681143 6.63279404073618 10.878847601242736
Ga 8.087566199321335 15.341188059074147 10.059327602351173
Ga 13.482817408858836 11.863086629067253 13.917857399175572
Ga 10.693072404999015 12.894978715045102 14.185316881612119
Ga 6.449780411209223 8.727063938727428 8.918396333232842
Ga 11.30417295448776 9.329752803654834 11.374497861746933
Ga 12.385139286719038 15.600630774951284 7.958003889301912
Ga 14.52359314221323 13.090154929589074 8.221158695618765
Ga 10.775747044137155 5.013630255167963 9.368715181832648
Ga 11.122663881133182 8.009861761136746 9.159820507715395
Ga 14.645935929648887 10.236072347096753 7.048076537305912
Ga 9.173165057761363 11.031600448330469 12.312807768047726
Ga 9.86498776852522 8.31941746508841 13.513026394347358
Ga 9.776355228072894 11.824671848866808 7.351893015438722
Ga 13.964508193305386 8.49891368979423 9.459911321642993
Ga 13.15408062050495 6.008672815260195 8.480999616933547
Ga 7.955754894731568 4.557160742027873 10.521040962619654
Ga 6.270432572011636 6.063822096208913 8.185491295536313
Ga 12.842779725767484 8.45701905676812 13.796373082121107
Ga 5.0016862936742585 9.139519103040781 11.464616683592608
Ga 9.308983494426073 12.522396268148613 9.962726031071217
Ga 12.670010456623631 14.388428415175438 12.598712409539122
Ga 9.176807720912738 9.838928812382875 9.1928722500911
Ga 7.735252815755111 7.78125313693679 6.5862521392523465
Ga 7.954639370380756 6.211579512899147 12.932262069903631
Ga 12.563589540055368 10.867807699160068 8.841213079452462
Ga 8.563288769498888 10.574203679532129 15.041001304891608
Ga 15.696793782842478 10.57908838488863 9.712916108208686
Ga 7.231523955755823 10.556231993850528 7.006863836018449
Ga 12.717876988872025 8.222513581400458 6.888168720003649
Ga 7.914907003743762 8.712617319580659 11.420194916844196
Ga 10.475439652267124 6.53984638506644 6.878653324947317
Ga 7.176684644254878 13.28275353917046 11.611257505424007
Ga 7.8509189015524115 13.168695765354967 14.36042620854621
Ga 12.869741911418123 6.851009931633293 11.444180588169147
Ga 9.680605808293329 14.253780916066777 12.158337631521112
Ga 6.399308514244906 10.974125436911073 12.955787220891507
Ga 8.639439401997715 6.989248128297202 9.325100992792118
Ga 10.233363188167687 6.345140374406382 11.550240836421338
Ga 8.543911252742454 4.594285020387879 7.61391662487723
Ga 11.215365702665814 10.296996174175833 14.84774130906297
Ga 14.03203143592711 15.23718943551178 10.24528053345098
Ga 7.093794098424871 13.24138427738348 8.25702082642409
Ga 14.266689635509882 12.578650596805074 10.946397119359638
Ga 6.9655076623832715 8.491455992636313 14.118114136471185
Ga 11.073996569291413 15.836528888313447 10.463838961596093
Ga 9.7921698225046 14.55676039634207 7.992755910599243
Ga 6.579697877148132 11.11050978290791 10.075666000725715
Ga 11.876122141224803 13.309060231893152 9.572347809774318
Ga 12.160250292455418 13.166124434872053 6.757427388313688
Ga 9.947770959430576 9.211577412138425 6.454672637136901
