52
Energy = -137.52884602 eV
Ga 12.106663594373126 13.84329216838553 13.629071063316367
Ga 14.282577104192395 13.35042808481648 11.801625143139528
Ga 10.715796400808886 16.172217850504094 13.792222311497621
Ga 11.057040778017733 14.74510608601225 16.089845133742106
Ga 11.397123623391066 15.993864217632556 8.678525992459683
Ga 10.181162823851611 17.054517078205354 11.290303943684826
Ga 15.380021476255894 10.697960041389035 11.792860216909935
Ga 15.152374385592141 12.268502077956464 9.378421609582947
Ga 11.938582428822848 14.859537835201289 11.164552093891764
Ga 12.97449011008139 13.69959913527703 8.87274723860849
Ga 13.354182278829809 11.476600012579004 13.588945516320987
Ga 13.028250370966099 11.059830730699105 7.977145330509346
Ga 15.157271050748225 9.561179478768768 9.135394699914281
Ga 10.642321460125064 11.938289037741328 12.210701148435563
Ga 15.623082649784752 7.669681703700805 11.341063828093482
Ga 12.658419476166172 11.348315757737147 10.694591487872229
Ga 11.067866701849109 12.620526931245577 6.822589724070409
Ga 9.252616388488025 14.485337302082156 7.316491014171117
Ga 9.293120763048694 13.339634430104134 14.616274055977502
Ga 11.604519789440353 12.124074385558123 15.869385683731492
Ga 9.300749614427907 14.317161722834367 12.042330195517355
Ga 8.668465233199802 15.569172855720781 9.684792059938705
Ga 13.729534784876174 8.900102207677476 12.98277706489828
Ga 13.693721489801069 8.552201397067646 6.955455200372239
Ga 10.251048064420551 13.013245902717166 9.64472099810979
Ga 12.530303514313323 8.877856336410346 10.074016895573525
Ga 7.177442785951223 13.31950227208979 10.35445090247822
Ga 12.242517284941508 6.927261021762259 14.554023989082408
Ga 11.080677645288079 9.203169132663245 12.620245851593044
Ga 8.082545797151742 12.150080440310408 7.986783764076144
Ga 12.162400058416697 9.583188730469605 15.258253823747127
Ga 13.980581426129255 6.735255627851669 9.137259520493474
Ga 11.611744331343283 9.919994330989159 5.8506490126172634
Ga 10.370712415729411 10.242981773110278 8.484684364154827
Ga 9.476768426594845 10.5896047906449 14.430455939958748
Ga 9.750476157773935 8.399592282032131 10.38106086947629
Ga 7.676702470599481 12.220563974205646 12.88248590131514
Ga 8.580205555113453 10.780410209995697 10.54537849917847
Ga 8.93770043122202 10.95004675374062 5.66297807057168
Ga 12.855314297490853 6.629969138099813 11.822922120788776
Ga 10.220383302909573 6.561066813349524 12.703474803523772
Ga 5.806742581933837 11.094911356837532 9.371794770886497
Ga 11.388073343763647 7.372779420831022 7.9335810336455275
Ga 8.159124674637837 8.612399740955539 12.902646652273171
Ga 6.21612419709289 10.264286859547944 12.027530551507233
Ga 9.650873587441467 7.9521929219725775 15.123818739712569
Ga 7.495316267643246 9.46831574144854 7.939070493233184
Ga 10.916575623866876 5.753479842208681 10.022935999526636
Ga 9.389917179815631 8.357955532682512 6.39918864506815
Ga 8.503852246758264 6.743817581478453 8.385646411391827
Ga 6.686639713928237 8.245040242756827 10.291877415836474
Ga 8.167260685056885 5.978632827207319 10.989132551616349
