54
Energy = -142.90930639 eV
Ga 15.099070279528673 9.934890435568867 12.113882927337418
Ga 13.374181110765083 11.927866557398556 10.743765738765738
Ga 13.355771791817595 11.502958493028933 16.42234328961045
Ga 7.33862432561508 12.495161734545869 10.213849474100611
Ga 14.407588391506302 13.860964148082783 15.400243656562813
Ga 15.00986325043725 9.718331486636329 14.814080898856469
Ga 11.824212557094029 13.915834693895537 12.381715253419024
Ga 12.258572809452462 9.438174947093898 14.970207655673812
Ga 10.475019617453343 15.749753107065773 14.048902002193984
Ga 16.419795654473464 12.07688001857102 10.992494497500745
Ga 8.231371413017177 10.653093305765642 14.811632823414296
Ga 9.948084397851034 8.73712552518159 13.38212388669269
Ga 9.095426967653543 13.884861440748798 11.924658086992267
Ga 12.129085946112447 13.151947521178057 8.564715589438773
Ga 16.4369615746013 14.804580663737456 10.51151491333475
Ga 8.602779911705252 10.438119315136925 8.958554751560067
Ga 12.041569211325866 9.936538450947841 9.199740284614347
Ga 9.298116245211254 13.343134391315731 8.343928620475104
Ga 13.27780904564694 11.74817672673157 13.591710236885225
Ga 15.048087707792464 13.075642909104564 8.663484291185494
Ga 10.62044407194413 11.302129794898457 7.108915877728904
Ga 10.518065702123595 11.917916041052694 10.518880052022899
Ga 8.972253403759364 13.483849546867054 14.965570342019397
Ga 6.9669184259958685 12.443863386830657 13.151132108506431
Ga 13.992154658455304 7.8780899849940145 10.698710975615635
Ga 14.574382642970017 13.942914773971586 12.515657607805062
Ga 16.209799205312805 12.04825913323246 13.706291714729922
Ga 13.21481816677492 16.075036907792306 14.421348231248844
Ga 8.43274139482396 10.53008954167288 11.830429991851497
Ga 14.939126439417485 16.736839165367712 12.15066373344052
Ga 7.756656157231894 15.588263511314898 13.606084592576126
Ga 13.530705998820709 14.987237959435966 10.218947612992903
Ga 16.620182478847262 14.830032619423157 14.086114834224144
Ga 11.732506924819454 13.647586070607252 15.230263564259552
Ga 7.977567234374623 15.369447395709537 9.747026619893782
Ga 13.59399201383383 11.236393140717336 7.213550643706679
Ga 10.595778912751781 11.379395364839763 16.344615388252418
Ga 12.13955024601185 16.79785741280737 11.881032646031938
Ga 14.133027702248953 7.529708106641061 13.453902551914618
Ga 10.022893719962475 8.664518851884909 10.588310420173244
Ga 15.140626053784613 10.122736692859288 9.324089265546544
Ga 10.763899349174064 15.038514110384664 10.019000541935952
Ga 9.327242773049077 16.954071820188155 11.68359806708285
Ga 10.5338982188492 11.604095063238418 13.362306886081898
Ga 12.249152004104019 9.699032504685192 12.044533299482417
Ga 13.716733093399398 8.14080793807618 7.97045858337508
Ga 9.78153690766115 8.769574225182637 16.24521215910957
Ga 10.1532367907052 8.427968338714583 7.763283068355957
Ga 11.713180388121659 6.671799023626619 9.286653264803132
Ga 11.67345851611184 6.799330726072884 14.823760893701738
Ga 11.675778801677657 6.878241307368365 12.064374619248596
Ga 12.166829823707925 9.285614022177604 5.933197199568777
Ga 6.00865989531289 14.543899406302552 11.685697505052126
Ga 16.163893848870863 11.883386800304713 16.498582954956323
