unknown system                          
           1
    22.101621    0.000000    0.000000
     0.000000   22.101621    0.000000
     0.000000    0.000000   22.101621
   Ag
  30
Direct configuration=     1
   0.63284465  0.59189037  0.77676878
   0.57726419  0.50505346  0.71970756
   0.56824816  0.63108994  0.68868449
   0.68811366  0.42285318  0.52242980
   0.63318058  0.45345916  0.62843218
   0.62175283  0.52729553  0.53554302
   0.63238542  0.63489180  0.48337618
   0.54724930  0.61386137  0.57024437
   0.46421177  0.67376156  0.64636335
   0.51152633  0.43315704  0.64455059
   0.61815290  0.37840133  0.42730895
   0.47733174  0.55018437  0.65934473
   0.65501420  0.49453903  0.41897677
   0.69447345  0.60373918  0.38604016
   0.56659563  0.39631832  0.53803084
   0.38715415  0.59750781  0.58638710
   0.58244833  0.57267660  0.34831423
   0.45420193  0.68426444  0.52188369
   0.40678340  0.47444322  0.59287595
   0.52169921  0.62484519  0.43802805
   0.49446676  0.49869040  0.50300837
   0.54073682  0.46275850  0.38255741
   0.45138371  0.36179973  0.56084545
   0.49226514  0.36667199  0.43951234
   0.39210186  0.42822840  0.47573481
   0.46084180  0.55148623  0.35684233
   0.40780970  0.58711241  0.46439068
   0.31656819  0.52183310  0.51785608
   0.43009526  0.42664462  0.34647508
   0.34888850  0.50633130  0.39527623
Direct configuration=     2
   0.63309336  0.59190220  0.77709534
   0.57719884  0.50502588  0.71982626
   0.56830509  0.63115649  0.68871187
   0.68827779  0.42289914  0.52231087
   0.63335762  0.45324767  0.62855560
   0.62178637  0.52710751  0.53549113
   0.63254510  0.63507525  0.48337516
   0.54698709  0.61400299  0.57012317
   0.46414268  0.67395427  0.64635780
   0.51150708  0.43308627  0.64462124
   0.61822126  0.37819039  0.42723394
   0.47728157  0.55017114  0.65944884
   0.65518766  0.49450169  0.41901919
   0.69468325  0.60382954  0.38593230
   0.56673397  0.39630555  0.53800787
   0.38706648  0.59756614  0.58643610
   0.58257111  0.57269003  0.34812057
   0.45417562  0.68446507  0.52193222
   0.40659039  0.47438916  0.59295170
   0.52161106  0.62483688  0.43811433
   0.49464471  0.49879568  0.50304599
   0.54084082  0.46273850  0.38247618
   0.45129752  0.36169274  0.56088354
   0.49234804  0.36654232  0.43952542
   0.39195233  0.42819885  0.47568755
   0.46071147  0.55150770  0.35674965
   0.40764117  0.58713630  0.46436146
   0.31641278  0.52180106  0.51780432
   0.42998033  0.42651507  0.34647379
   0.34863703  0.50645809  0.39511618
Direct configuration=     3
   0.63383948  0.59193772  0.77807501
   0.57700276  0.50494314  0.72018234
   0.56847587  0.63135616  0.68879401
   0.68877018  0.42303702  0.52195408
   0.63388872  0.45261318  0.62892588
   0.62188698  0.52654344  0.53533544
   0.63302416  0.63562563  0.48337212
   0.54620044  0.61442783  0.56975958
   0.46393542  0.67453241  0.64634112
   0.51144934  0.43287397  0.64483321
   0.61842633  0.37755758  0.42700890
   0.47713109  0.55013143  0.65976119
   0.65570803  0.49438967  0.41914644
   0.69531264  0.60410061  0.38560872
   0.56714901  0.39626726  0.53793896
   0.38680347  0.59774114  0.58658309
   0.58293944  0.57273034  0.34753959
   0.45409668  0.68506696  0.52207783
   0.40601136  0.47422696  0.59317894
   0.52134663  0.62481195  0.43837318
   0.49517855  0.49911152  0.50315885
   0.54115280  0.46267850  0.38223252
   0.45103894  0.36137179  0.56099781
   0.49259675  0.36615331  0.43956464
   0.39150374  0.42811018  0.47554575
   0.46032047  0.55157210  0.35647160
   0.40713557  0.58720796  0.46427378
   0.31594654  0.52170495  0.51764904
   0.42963553  0.42612641  0.34646993
   0.34788263  0.50683846  0.39463603
Direct configuration=     4
   0.63533174  0.59200874  0.78003435
   0.57661061  0.50477767  0.72089451
   0.56881745  0.63175550  0.68895830
   0.68975494  0.42331278  0.52124050
   0.63495092  0.45134422  0.62966643
   0.62208822  0.52541530  0.53502407
   0.63398228  0.63672638  0.48336602
   0.54462714  0.61527752  0.56903240
   0.46352091  0.67568868  0.64630778
   0.51133384  0.43244937  0.64525716
   0.61883646  0.37629195  0.42655883
   0.47683012  0.55005203  0.66038587
   0.65674876  0.49416562  0.41940093
   0.69657143  0.60464275  0.38496155
   0.56797910  0.39619066  0.53780113
   0.38627744  0.59809112  0.58687709
   0.58367611  0.57281095  0.34637763
   0.45393881  0.68627075  0.52236903
   0.40485329  0.47390258  0.59363342
   0.52081776  0.62476209  0.43889089
   0.49624625  0.49974320  0.50338457
   0.54177677  0.46255850  0.38174518
   0.45052179  0.36072989  0.56122634
   0.49309416  0.36537531  0.43964310
   0.39060655  0.42793285  0.47526215
   0.45953848  0.55170089  0.35591550
   0.40612436  0.58735128  0.46409843
   0.31501407  0.52151273  0.51733847
   0.42894595  0.42534909  0.34646221
   0.34637384  0.50759918  0.39367573
Direct configuration=     5
   0.63831626  0.59215078  0.78395303
   0.57582630  0.50444671  0.72231885
   0.56950060  0.63255418  0.68928687
   0.69172448  0.42386430  0.51981335
   0.63707533  0.44880628  0.63114753
   0.62249068  0.52315901  0.53440133
   0.63589852  0.63892788  0.48335384
   0.54148055  0.61697690  0.56757804
   0.46269188  0.67800123  0.64624109
   0.51110284  0.43160017  0.64610504
   0.61965674  0.37376070  0.42565868
   0.47622818  0.54989322  0.66163525
   0.65883023  0.49371754  0.41990992
   0.69908902  0.60572703  0.38366720
   0.56963927  0.39603748  0.53752549
   0.38522539  0.59879108  0.58746507
   0.58514944  0.57297217  0.34405372
   0.45362306  0.68867832  0.52295143
   0.40253717  0.47325380  0.59454239
   0.51976002  0.62466238  0.43992631
   0.49838163  0.50100656  0.50383601
   0.54302472  0.46231850  0.38077051
   0.44948748  0.35944609  0.56168341
   0.49408899  0.36381929  0.43980000
   0.38881219  0.42757819  0.47469495
   0.45797449  0.55195849  0.35480330
   0.40410195  0.58763793  0.46374774
   0.31314913  0.52112828  0.51671733
   0.42756679  0.42379445  0.34644677
   0.34335626  0.50912064  0.39175513
Direct configuration=     6
   0.63834455  0.59190513  0.78408783
   0.57621573  0.50494087  0.72288441
   0.56990534  0.63214676  0.68987369
   0.69271213  0.42363481  0.51938194
   0.63744810  0.44797284  0.63164528
   0.62181678  0.52376745  0.53478367
   0.63591097  0.63886347  0.48337269
   0.54145208  0.61666079  0.56711172
   0.46272802  0.67839932  0.64655721
   0.51109938  0.43147981  0.64592825
   0.62003034  0.37328610  0.42537740
   0.47592017  0.55011398  0.66182258
   0.65955955  0.49375107  0.41938680
   0.69944101  0.60584013  0.38345624
   0.56979025  0.39598064  0.53758151
   0.38502180  0.59882294  0.58746786
   0.58531909  0.57301423  0.34409483
   0.45274566  0.68957165  0.52261870
   0.40211196  0.47301862  0.59466981
   0.52004674  0.62406205  0.43976744
   0.49858897  0.50125907  0.50407984
   0.54299829  0.46222783  0.38051313
   0.44942058  0.35965108  0.56154676
   0.49419703  0.36391986  0.43996085
   0.38878179  0.42771382  0.47432941
   0.45797190  0.55176137  0.35475977
   0.40352651  0.58789180  0.46379702
   0.31272305  0.52113785  0.51652144
   0.42731150  0.42357768  0.34715974
   0.34265029  0.50941657  0.39125175
Direct configuration=     7
   0.63839592  0.59145909  0.78433258
   0.57692281  0.50583812  0.72391130
   0.57064023  0.63140701  0.69093918
   0.69450542  0.42321810  0.51859863
   0.63812494  0.44645956  0.63254905
   0.62059319  0.52487219  0.53547788
   0.63593356  0.63874650  0.48340692
   0.54140038  0.61608684  0.56626504
   0.46279363  0.67912213  0.64713118
   0.51109310  0.43126127  0.64560726
   0.62070868  0.37242436  0.42486669
   0.47536092  0.55051481  0.66216272
   0.66088377  0.49381196  0.41843698
   0.70008012  0.60604547  0.38307319
   0.57006440  0.39587745  0.53768322
   0.38465215  0.59888080  0.58747292
   0.58562714  0.57309058  0.34416946
   0.45115256  0.69119368  0.52201456
   0.40133992  0.47259162  0.59490118
   0.52056733  0.62297202  0.43947897
   0.49896545  0.50171757  0.50452257
   0.54295030  0.46206320  0.38004580
   0.44929912  0.36002328  0.56129865
   0.49439320  0.36410246  0.44025290
   0.38872658  0.42796010  0.47366570
   0.45796720  0.55140344  0.35468072
   0.40248168  0.58835275  0.46388652
   0.31194943  0.52115524  0.51616577
   0.42684796  0.42318408  0.34845428
   0.34136847  0.50995388  0.39033776
Direct configuration=     8
   0.63841885  0.59119828  0.78444952
   0.57717252  0.50602263  0.72387904
   0.57060893  0.63088574  0.69101114
   0.69497231  0.42347464  0.51819747
   0.63840381  0.44571637  0.63256678
   0.62035123  0.52454461  0.53605042
   0.63537946  0.63835588  0.48345813
   0.54103349  0.61624407  0.56618840
   0.46339995  0.67895664  0.64732609
   0.51117033  0.43182670  0.64527397
   0.62125489  0.37216573  0.42459401
   0.47554267  0.55067283  0.66214325
   0.66187413  0.49396885  0.41846866
   0.70063340  0.60578467  0.38274880
   0.57043831  0.39643770  0.53761102
   0.38457079  0.59900521  0.58701215
   0.58555331  0.57331767  0.34436652
   0.45030630  0.69116284  0.52143216
   0.40076097  0.47217245  0.59478489
   0.52059565  0.62224879  0.43969453
   0.49864956  0.50164676  0.50482275
   0.54246305  0.46177374  0.38006492
   0.44922896  0.36065718  0.56103785
   0.49451947  0.36489210  0.44040620
   0.38899937  0.42867361  0.47349144
   0.45834724  0.55095897  0.35505818
   0.40212167  0.58855887  0.46381689
   0.31143980  0.52094543  0.51630303
   0.42665735  0.42315258  0.34955137
   0.34092181  0.51036805  0.38997998
Direct configuration=     9
   0.63847244  0.59058862  0.78472288
   0.57775621  0.50645394  0.72380362
   0.57053578  0.62966723  0.69117937
   0.69606370  0.42407430  0.51725974
   0.63905567  0.44397911  0.63260821
   0.61978563  0.52377886  0.53738876
   0.63408424  0.63744278  0.48357784
   0.54017585  0.61661161  0.56600924
   0.46481725  0.67856982  0.64778171
   0.51135087  0.43314844  0.64449489
   0.62253167  0.37156116  0.42395662
   0.47596752  0.55104220  0.66209775
   0.66418914  0.49433557  0.41854273
   0.70192670  0.60517503  0.38199050
   0.57131234  0.39774731  0.53744223
   0.38438060  0.59929602  0.58593506
   0.58538071  0.57384849  0.34482716
   0.44832811  0.69109076  0.52007075
   0.39940765  0.47119261  0.59451306
   0.52066185  0.62055819  0.44019840
   0.49791115  0.50148125  0.50552442
   0.54132409  0.46109712  0.38010962
   0.44906497  0.36213895  0.56042822
   0.49481461  0.36673793  0.44076457
   0.38963703  0.43034148  0.47308412
   0.45923561  0.54991998  0.35594051
   0.40128010  0.58904071  0.46365414
   0.31024853  0.52045498  0.51662390
   0.42621179  0.42307895  0.35211589
   0.33987773  0.51133618  0.38914364
Direct configuration=    10
   0.63876963  0.59048305  0.78512998
   0.57786520  0.50572016  0.72299409
   0.57066037  0.62927322  0.69101663
   0.69632013  0.42456639  0.51691774
   0.63952994  0.44318843  0.63263191
   0.61967554  0.52287273  0.53803473
   0.63373404  0.63648281  0.48322983
   0.53940114  0.61709972  0.56614922
   0.46541540  0.67821453  0.64740049
   0.51157652  0.43425717  0.64391221
   0.62299108  0.37192541  0.42373370
   0.47586543  0.55086646  0.66154157
   0.66492252  0.49442909  0.41898419
   0.70238025  0.60472728  0.38173653
   0.57190599  0.39861228  0.53676919
   0.38457558  0.59932340  0.58548947
   0.58558266  0.57387645  0.34534414
   0.44763043  0.69055279  0.51958522
   0.39853127  0.47147963  0.59476632
   0.51999851  0.61979969  0.44088101
   0.49720972  0.50122060  0.50611624
   0.54242798  0.46127316  0.38029167
   0.44936128  0.36284602  0.56005701
   0.49544767  0.36721110  0.44170411
   0.38954703  0.43196257  0.47307166
   0.45928851  0.54951974  0.35651329
   0.40059400  0.58866251  0.46302100
   0.30976209  0.52024256  0.51689404
   0.42532507  0.42308923  0.35282332
   0.33949456  0.51201139  0.38904907
Direct configuration=    11
   0.63922020  0.59032300  0.78574717
   0.57803044  0.50460771  0.72176678
   0.57084925  0.62867587  0.69076989
   0.69670888  0.42531242  0.51639925
   0.64024895  0.44198970  0.63266784
   0.61950865  0.52149899  0.53901405
   0.63320313  0.63502744  0.48270224
   0.53822664  0.61783973  0.56636144
   0.46632223  0.67767589  0.64682254
   0.51191860  0.43593806  0.64302882
   0.62368758  0.37247763  0.42339574
   0.47571066  0.55060002  0.66069836
   0.66603436  0.49457087  0.41965347
   0.70306785  0.60404846  0.38135148
   0.57280600  0.39992363  0.53574883
   0.38487118  0.59936490  0.58481392
   0.58588882  0.57391884  0.34612790
   0.44657273  0.68973721  0.51884913
   0.39720264  0.47191475  0.59515029
   0.51899286  0.61864977  0.44191590
   0.49614631  0.50082545  0.50701347
   0.54410155  0.46154005  0.38056768
   0.44981049  0.36391799  0.55949424
   0.49640742  0.36792845  0.44312851
   0.38941059  0.43442023  0.47305277
   0.45936870  0.54891296  0.35738165
   0.39955383  0.58808915  0.46206112
   0.30902461  0.51992053  0.51730358
   0.42398075  0.42310482  0.35389583
   0.33891367  0.51303505  0.38890568
Direct configuration=    12
   0.63909054  0.58980423  0.78561211
   0.57876375  0.50425661  0.72125927
   0.57159009  0.62807459  0.69090626
   0.69757054  0.42537378  0.51659500
   0.64114453  0.44089975  0.63290508
   0.61875722  0.52161027  0.53971910
   0.63299701  0.63305827  0.48195768
   0.53840764  0.61768466  0.56599596
   0.46618015  0.67786957  0.64633596
   0.51209266  0.43626656  0.64137129
   0.62435440  0.37311403  0.42300443
   0.47526912  0.55079322  0.66003870
   0.66635745  0.49497520  0.42014811
   0.70360039  0.60369274  0.38115998
   0.57354192  0.40068640  0.53514912
   0.38512629  0.59926007  0.58434506
   0.58630250  0.57408764  0.34711279
   0.44582204  0.68928310  0.51834361
   0.39625335  0.47239468  0.59595379
   0.51804572  0.61780769  0.44269267
   0.49546188  0.50063172  0.50813686
   0.54536137  0.46176970  0.38085662
   0.45024058  0.36508677  0.55938411
   0.49679494  0.36863480  0.44354984
   0.38926468  0.43602013  0.47337676
   0.45937337  0.54816230  0.35773234
   0.39851173  0.58771520  0.46165250
   0.30806996  0.52013675  0.51769032
   0.42363388  0.42308842  0.35441189
   0.33780985  0.51355071  0.38839235
Direct configuration=    13
   0.63877136  0.58852728  0.78527964
   0.58056882  0.50339239  0.72001001
   0.57341367  0.62659453  0.69124194
   0.69969154  0.42552484  0.51707684
   0.64334902  0.43821682  0.63348905
   0.61690758  0.52188420  0.54145460
   0.63248962  0.62821113  0.48012494
   0.53885317  0.61730296  0.56509635
   0.46583040  0.67834630  0.64513825
   0.51252111  0.43707515  0.63729124
   0.62599581  0.37468054  0.42204121
   0.47418227  0.55126877  0.65841494
   0.66715273  0.49597047  0.42136565
   0.70491127  0.60281713  0.38068858
   0.57535339  0.40256395  0.53367292
   0.38575424  0.59900203  0.58319095
   0.58732077  0.57450314  0.34953711
   0.44397420  0.68816532  0.51709926
   0.39391667  0.47357603  0.59793164
   0.51571433  0.61573489  0.44460471
   0.49377716  0.50015484  0.51090209
   0.54846245  0.46233499  0.38156788
   0.45129925  0.36796375  0.55911302
   0.49774883  0.37037351  0.44458697
   0.38890551  0.43995831  0.47417427
   0.45938487  0.54631453  0.35859558
   0.39594660  0.58679473  0.46064668
   0.30572008  0.52066898  0.51864228
   0.42278005  0.42304804  0.35568218
   0.33509279  0.51482000  0.38712878
Direct configuration=    14
   0.63889794  0.58903368  0.78541149
   0.57985298  0.50373511  0.72050543
   0.57269049  0.62718148  0.69110882
   0.69885042  0.42546494  0.51688576
   0.64247479  0.43928079  0.63325746
   0.61764109  0.52177557  0.54076636
   0.63269084  0.63013337  0.48085175
   0.53867649  0.61745433  0.56545311
   0.46596910  0.67815724  0.64561323
   0.51235120  0.43675448  0.63890927
   0.62534488  0.37405931  0.42242319
   0.47461328  0.55108018  0.65905888
   0.66683734  0.49557578  0.42088281
   0.70439141  0.60316437  0.38087552
   0.57463502  0.40181937  0.53425834
   0.38550522  0.59910436  0.58364864
   0.58691695  0.57433837  0.34857569
   0.44470700  0.68860860  0.51759273
   0.39484333  0.47310754  0.59714728
   0.51663889  0.61655690  0.44384645
   0.49444527  0.50034395  0.50980548
   0.54723265  0.46211081  0.38128582
   0.45087941  0.36682282  0.55922053
   0.49737054  0.36968399  0.44417568
   0.38904795  0.43839655  0.47385800
   0.45938031  0.54704730  0.35825324
   0.39696386  0.58715977  0.46104556
   0.30665197  0.52045792  0.51826476
   0.42311866  0.42306405  0.35517842
   0.33617030  0.51431664  0.38762987
Direct configuration=    15
   0.63878744  0.58825451  0.78532544
   0.58036483  0.50334831  0.71967111
   0.57267520  0.62691671  0.69048312
   0.69993867  0.42546529  0.51766198
   0.64341473  0.43816742  0.63327288
   0.61707742  0.52166895  0.54204873
   0.63285932  0.62785618  0.47929781
   0.53931980  0.61740559  0.56572526
   0.46597287  0.67848227  0.64527593
   0.51325635  0.43742942  0.63757141
   0.62651452  0.37446623  0.42203276
   0.47490783  0.55151724  0.65894768
   0.66679546  0.49607044  0.42185998
   0.70551877  0.60327089  0.38050517
   0.57590772  0.40197663  0.53389662
   0.38535506  0.59900483  0.58328772
   0.58712442  0.57505750  0.34996931
   0.44423053  0.68862106  0.51720409
   0.39372182  0.47317976  0.59826188
   0.51573147  0.61565014  0.44379306
   0.49403950  0.50033419  0.51148987
   0.54728979  0.46228097  0.38153308
   0.45069544  0.36786440  0.55894006
   0.49708568  0.37071340  0.44331796
   0.38879614  0.43946812  0.47410209
   0.45943117  0.54589789  0.35834454
   0.39570791  0.58697933  0.46098105
   0.30512748  0.52120336  0.51864266
   0.42366775  0.42309590  0.35565039
   0.33447448  0.51414264  0.38669589
Direct configuration=    16
   0.63856030  0.58665276  0.78514854
   0.58141705  0.50255316  0.71795599
   0.57264377  0.62637241  0.68919686
   0.70217582  0.42546601  0.51925768
   0.64534699  0.43587864  0.63330458
   0.61591866  0.52144977  0.54468493
   0.63320567  0.62317494  0.47610335
   0.54064228  0.61730539  0.56628474
   0.46598062  0.67915044  0.64458253
   0.51511709  0.43881689  0.63482116
   0.62891898  0.37530275  0.42123014
   0.47551333  0.55241570  0.65871909
   0.66670937  0.49708732  0.42386876
   0.70783630  0.60348987  0.37974384
   0.57852403  0.40229991  0.53315305
   0.38504636  0.59880021  0.58254577
   0.58755092  0.57653585  0.35283420
   0.44325105  0.68864668  0.51640516
   0.39141631  0.47332821  0.60055318
   0.51386607  0.61378610  0.44368331
   0.49320536  0.50031411  0.51495250
   0.54740726  0.46263077  0.38204139
   0.45031723  0.37000558  0.55836350
   0.49650008  0.37282959  0.44155472
   0.38827848  0.44167097  0.47460387
   0.45953571  0.54353503  0.35853223
   0.39312603  0.58660839  0.46084845
   0.30199355  0.52273580  0.51941951
   0.42479654  0.42316137  0.35662064
   0.33098836  0.51378496  0.38477589
Direct configuration=    17
   0.63861043  0.58700625  0.78518758
   0.58118484  0.50272865  0.71833450
   0.57265070  0.62649253  0.68948073
   0.70168210  0.42546585  0.51890553
   0.64492056  0.43638375  0.63329759
   0.61617439  0.52149814  0.54410315
   0.63312923  0.62420805  0.47680834
   0.54035042  0.61732751  0.56616127
   0.46597891  0.67900298  0.64473556
   0.51470644  0.43851068  0.63542812
   0.62838833  0.37511813  0.42140727
   0.47537970  0.55221742  0.65876954
   0.66672837  0.49686290  0.42342544
   0.70732484  0.60344154  0.37991186
   0.57794663  0.40222856  0.53331715
   0.38511449  0.59884537  0.58270951
   0.58745679  0.57620959  0.35220194
   0.44346721  0.68864103  0.51658148
   0.39192511  0.47329545  0.60004751
   0.51427775  0.61419748  0.44370753
   0.49338945  0.50031854  0.51418833
   0.54738134  0.46255357  0.38192921
   0.45040070  0.36953304  0.55849074
   0.49662932  0.37236256  0.44194385
   0.38839273  0.44118482  0.47449313
   0.45951264  0.54405649  0.35849081
   0.39369583  0.58669025  0.46087771
   0.30268518  0.52239760  0.51924807
   0.42454743  0.42314692  0.35640651
   0.33175772  0.51386390  0.38519962
Direct configuration=    18
   0.63830177  0.58629955  0.78483802
   0.58157716  0.50243365  0.71727750
   0.57259642  0.62665429  0.68902232
   0.70278480  0.42570462  0.51972814
   0.64593354  0.43524040  0.63341806
   0.61638600  0.52067546  0.54622925
   0.63298118  0.62169437  0.47477617
   0.54083710  0.61824307  0.56581474
   0.46609362  0.67932664  0.64436901
   0.51597894  0.43974113  0.63447088
   0.62969972  0.37556629  0.42116259
   0.47572597  0.55236059  0.65889847
   0.66643392  0.49763141  0.42498171
   0.70905476  0.60349785  0.37910500
   0.57867240  0.40127639  0.53214227
   0.38473694  0.59873116  0.58286100
   0.58785127  0.57716839  0.35359959
   0.44370094  0.68852712  0.51629956
   0.39078725  0.47325314  0.60104174
   0.51317303  0.61365951  0.44420782
   0.49320906  0.50034432  0.51633657
   0.54772926  0.46306739  0.38194936
   0.44999134  0.37034954  0.55758429
   0.49660890  0.37262998  0.44210863
   0.38747114  0.44261145  0.47449668
   0.45870326  0.54351444  0.35852186
   0.39228065  0.58604833  0.46022692
   0.30126609  0.52307968  0.51945214
   0.42461676  0.42327751  0.35608824
   0.33060637  0.51318189  0.38478107
Direct configuration=    19
   0.63783315  0.58522658  0.78430730
   0.58217282  0.50198577  0.71567271
   0.57251400  0.62689989  0.68832634
   0.70445898  0.42606713  0.52097707
   0.64747151  0.43350449  0.63360096
   0.61670727  0.51942641  0.54945724
   0.63275639  0.61787794  0.47169078
   0.54157602  0.61963314  0.56528862
   0.46626778  0.67981804  0.64381249
   0.51791092  0.44160927  0.63301753
   0.63169076  0.37624672  0.42079111
   0.47625171  0.55257796  0.65909421
   0.66598685  0.49879821  0.42734455
   0.71168124  0.60358333  0.37787997
   0.57977431  0.39983074  0.53035849
   0.38416372  0.59855776  0.58309099
   0.58845020  0.57862411  0.35572158
   0.44405581  0.68835418  0.51587153
   0.38905967  0.47318890  0.60255125
   0.51149579  0.61284274  0.44496740
   0.49293518  0.50038347  0.51959816
   0.54825749  0.46384751  0.38197994
   0.44936982  0.37158921  0.55620806
   0.49657791  0.37303600  0.44235880
   0.38607192  0.44477744  0.47450207
   0.45747442  0.54269146  0.35856900
   0.39013204  0.58507373  0.45923883
   0.29911153  0.52411525  0.51976198
   0.42472203  0.42347577  0.35560501
   0.32885833  0.51214642  0.38414560
Direct configuration=    20
   0.63800565  0.58562153  0.78450266
   0.58195356  0.50215063  0.71626343
   0.57254434  0.62680949  0.68858253
   0.70384272  0.42593369  0.52051734
   0.64690539  0.43414347  0.63353363
   0.61658901  0.51988618  0.54826902
   0.63283914  0.61928276  0.47282651
   0.54130402  0.61912146  0.56548228
   0.46620368  0.67963716  0.64401734
   0.51719976  0.44092161  0.63355250
   0.63095786  0.37599626  0.42092785
   0.47605819  0.55249795  0.65902216
   0.66615142  0.49836871  0.42647479
   0.71071444  0.60355186  0.37833090
   0.57936870  0.40036288  0.53101509
   0.38437472  0.59862159  0.58300633
   0.58822974  0.57808827  0.35494048
   0.44392518  0.68841784  0.51602909
   0.38969559  0.47321254  0.60199560
   0.51211318  0.61314339  0.44468780
   0.49303600  0.50036906  0.51839758
   0.54806305  0.46356035  0.38196868
   0.44959860  0.37113289  0.55671464
   0.49658931  0.37288654  0.44226672
   0.38658697  0.44398014  0.47450009
   0.45792675  0.54299440  0.35855165
   0.39092294  0.58543248  0.45960254
   0.29990462  0.52373406  0.51964793
   0.42468328  0.42340279  0.35578289
   0.32950178  0.51252757  0.38437952
Direct configuration=    21
   0.63768183  0.58571252  0.78404945
   0.58248042  0.50264870  0.71629812
   0.57282080  0.62736706  0.68906323
   0.70403536  0.42614880  0.52045579
   0.64714871  0.43330240  0.63382568
   0.61695835  0.51971396  0.54962038
   0.63223907  0.61840069  0.47261833
   0.54172158  0.61992707  0.56456308
   0.46620955  0.67958941  0.64394419
   0.51726750  0.44039180  0.63254141
   0.63139803  0.37634982  0.42069417
   0.47559248  0.55264874  0.65891814
   0.66611447  0.49897872  0.42734127
   0.71147127  0.60294959  0.37782163
   0.57902606  0.39959672  0.53086441
   0.38433316  0.59863669  0.58309540
   0.58839353  0.57832085  0.35478836
   0.44421592  0.68791574  0.51617850
   0.38973336  0.47312800  0.60170098
   0.51141382  0.61303184  0.44499445
   0.49310223  0.50043279  0.51912296
   0.54832303  0.46377206  0.38198453
   0.44948217  0.37174333  0.55661586
   0.49683825  0.37257938  0.44248747
   0.38618901  0.44471084  0.47423484
   0.45721279  0.54401925  0.35867307
   0.39083586  0.58538844  0.45967005
   0.29984354  0.52358406  0.51967884
   0.42410263  0.42310378  0.35538212
   0.32960478  0.51169648  0.38456286
Direct configuration=    22
   0.63758575  0.58573952  0.78391498
   0.58263674  0.50279648  0.71630841
   0.57290283  0.62753250  0.68920586
   0.70409252  0.42621263  0.52043753
   0.64722091  0.43305285  0.63391234
   0.61706793  0.51966286  0.55002134
   0.63206102  0.61813897  0.47255656
   0.54184547  0.62016610  0.56429035
   0.46621130  0.67957524  0.64392248
   0.51728760  0.44023460  0.63224141
   0.63152863  0.37645473  0.42062484
   0.47545429  0.55269348  0.65888728
   0.66610351  0.49915971  0.42759836
   0.71169583  0.60277089  0.37767053
   0.57892440  0.39936940  0.53081971
   0.38432083  0.59864117  0.58312183
   0.58844213  0.57838987  0.35474322
   0.44430219  0.68776676  0.51622283
   0.38974457  0.47310292  0.60161356
   0.51120631  0.61299875  0.44508544
   0.49312188  0.50045170  0.51933819
   0.54840017  0.46383487  0.38198923
   0.44944762  0.37192445  0.55658655
   0.49691211  0.37248824  0.44255297
   0.38607093  0.44492765  0.47415614
   0.45700095  0.54432334  0.35870909
   0.39081003  0.58537537  0.45969008
   0.29982542  0.52353956  0.51968801
   0.42393035  0.42301506  0.35526321
   0.32963534  0.51144989  0.38461726
Direct configuration=    23
   0.63767529  0.58636257  0.78400437
   0.58263270  0.50282965  0.71552676
   0.57263147  0.62833550  0.68925908
   0.70387878  0.42634034  0.52028525
   0.64711468  0.43210655  0.63428566
   0.61728902  0.51952454  0.55141874
   0.63165689  0.61759802  0.47249105
   0.54246807  0.62091112  0.56420853
   0.46637494  0.67935767  0.64396437
   0.51757929  0.44019377  0.63245873
   0.63180170  0.37694896  0.42042524
   0.47546347  0.55255195  0.65862936
   0.66606066  0.49967981  0.42830817
   0.71193965  0.60190608  0.37746640
   0.57899755  0.39886705  0.53097816
   0.38418730  0.59866592  0.58316617
   0.58833400  0.57847976  0.35432943
   0.44434185  0.68757480  0.51662310
   0.38997322  0.47313770  0.60102506
   0.51114147  0.61277346  0.44456370
   0.49336743  0.50065845  0.51957679
   0.54794937  0.46418544  0.38205514
   0.44900963  0.37213825  0.55631636
   0.49693648  0.37237790  0.44207042
   0.38633801  0.44505604  0.47387143
   0.45656034  0.54498447  0.35865072
   0.39059907  0.58541483  0.46007126
   0.29997350  0.52324833  0.51974612
   0.42361841  0.42280907  0.35522999
   0.32989534  0.51077157  0.38478402
Direct configuration=    24
   0.63776460  0.58698402  0.78409352
   0.58262868  0.50286273  0.71474712
   0.57236081  0.62913644  0.68931216
   0.70366558  0.42646772  0.52013337
   0.64700871  0.43116268  0.63465801
   0.61750953  0.51938657  0.55281255
   0.63125381  0.61705845  0.47242570
   0.54308908  0.62165422  0.56412693
   0.46653817  0.67914067  0.64400615
   0.51787023  0.44015304  0.63267550
   0.63207407  0.37744193  0.42022615
   0.47547262  0.55241077  0.65837210
   0.66601791  0.50019856  0.42901615
   0.71218284  0.60104350  0.37726279
   0.57907051  0.39836599  0.53113620
   0.38405410  0.59869060  0.58321040
   0.58822614  0.57856943  0.35391669
   0.44438140  0.68738333  0.51702235
   0.39020128  0.47317238  0.60043807
   0.51107679  0.61254875  0.44404330
   0.49361234  0.50086467  0.51981477
   0.54749974  0.46453510  0.38212089
   0.44857277  0.37235150  0.55604687
   0.49696080  0.37226784  0.44158911
   0.38660440  0.44518411  0.47358746
   0.45612087  0.54564390  0.35859250
   0.39038865  0.58545419  0.46045146
   0.30012119  0.52295786  0.51980408
   0.42330727  0.42260362  0.35519686
   0.33015468  0.51009499  0.38495036
Direct configuration=    25
   0.63758147  0.58753077  0.78381446
   0.58301963  0.50380492  0.71426863
   0.57210524  0.62965469  0.68951998
   0.70331684  0.42638786  0.52027330
   0.64703048  0.42987210  0.63497986
   0.61746440  0.51937297  0.55426264
   0.63126755  0.61660047  0.47232473
   0.54377553  0.62217318  0.56418865
   0.46645068  0.67902920  0.64410714
   0.51771556  0.43974814  0.63279013
   0.63208284  0.37815206  0.42006237
   0.47584793  0.55232102  0.65794477
   0.66560083  0.50030429  0.42966587
   0.71210841  0.60028737  0.37719847
   0.57907740  0.39810990  0.53118538
   0.38375147  0.59873197  0.58352277
   0.58818509  0.57852380  0.35330493
   0.44450933  0.68724748  0.51723175
   0.39044237  0.47341672  0.59998139
   0.51109544  0.61270676  0.44400975
   0.49422372  0.50113422  0.51986311
   0.54673336  0.46517349  0.38232507
   0.44851022  0.37231228  0.55566789
   0.49708229  0.37219835  0.44116083
   0.38738917  0.44484905  0.47343711
   0.45555023  0.54552857  0.35811925
   0.39014888  0.58551450  0.46063012
   0.30016193  0.52253588  0.51987112
   0.42327196  0.42265746  0.35509799
   0.33028929  0.50991009  0.38498012
Direct configuration=    26
   0.63719040  0.58869839  0.78321851
   0.58385456  0.50581706  0.71324677
   0.57155944  0.63076146  0.68996379
   0.70257208  0.42621731  0.52057213
   0.64707696  0.42711593  0.63566719
   0.61736801  0.51934393  0.55735943
   0.63129690  0.61562241  0.47210908
   0.54524153  0.62328147  0.56432047
   0.46626384  0.67879115  0.64432282
   0.51738525  0.43888344  0.63303493
   0.63210158  0.37966863  0.41971262
   0.47664945  0.55212934  0.65703216
   0.66471011  0.50053008  0.43105341
   0.71194947  0.59867257  0.37706111
   0.57909212  0.39756301  0.53129041