  32  32   0   0
  0.3351067E+03  0.2205182E-08  0.2205182E-08  0.2205182E-08  0.1000000E-15
  1.000000000000000E-004
  CAR 
 unknown system                          
      1.65917076    -10.09524189  301     -3.34624996      1.00000000
    -10.095  0.0000E+00  0.0000E+00  0.0000E+00  0.0000E+00
    -10.056  0.0000E+00  0.0000E+00  0.0000E+00  0.0000E+00
    -10.017  0.0000E+00  0.0000E+00  0.0000E+00  0.0000E+00
     -9.978  0.0000E+00  0.0000E+00  0.0000E+00  0.0000E+00
     -9.939  0.0000E+00  0.0000E+00  0.0000E+00  0.0000E+00
     -9.899  0.0000E+00  0.0000E+00  0.0000E+00  0.0000E+00
     -9.860  0.0000E+00  0.0000E+00  0.0000E+00  0.0000E+00
     -9.821  0.0000E+00  0.0000E+00  0.0000E+00  0.0000E+00
     -9.782  0.0000E+00  0.0000E+00  0.0000E+00  0.0000E+00
     -9.743  0.0000E+00  0.0000E+00  0.0000E+00  0.0000E+00
     -9.703  0.0000E+00  0.0000E+00  0.0000E+00  0.0000E+00
     -9.664  0.0000E+00  0.0000E+00  0.0000E+00  0.0000E+00
     -9.625  0.0000E+00  0.0000E+00  0.0000E+00  0.0000E+00
     -9.586  0.0000E+00  0.0000E+00  0.0000E+00  0.0000E+00
     -9.547  0.0000E+00  0.0000E+00  0.1000E-02  0.1000E-02
     -9.508  0.0000E+00  0.0000E+00  0.1000E-02  0.1000E-02
     -9.468  0.0000E+00  0.0000E+00  0.1000E-02  0.1000E-02
     -9.429  0.0000E+00  0.0000E+00  0.1000E-02  0.1000E-02
     -9.390  0.0000E+00  0.0000E+00  0.1000E-02  0.1000E-02
     -9.351  0.0000E+00  0.0000E+00  0.1000E-02  0.1000E-02
     -9.312  0.0000E+00  0.0000E+00  0.1000E-02  0.1000E-02
     -9.272  0.0000E+00  0.0000E+00  0.1000E-02  0.1000E-02
     -9.233  0.0000E+00  0.0000E+00  0.1000E-02  0.1000E-02
     -9.194  0.0000E+00  0.0000E+00  0.2000E-02  0.2000E-02
     -9.155  0.0000E+00  0.0000E+00  0.2000E-02  0.2000E-02
     -9.116  0.0000E+00  0.0000E+00  0.2000E-02  0.2000E-02
     -9.077  0.0000E+00  0.0000E+00  0.2000E-02  0.2000E-02
     -9.037  0.0000E+00  0.0000E+00  0.4000E-02  0.4000E-02
     -8.998  0.0000E+00  0.0000E+00  0.5000E-02  0.5000E-02
     -8.959  0.0000E+00  0.0000E+00  0.7000E-02  0.7000E-02
     -8.920  0.0000E+00  0.0000E+00  0.8000E-02  0.8000E-02
     -8.881  0.0000E+00  0.0000E+00  0.9000E-02  0.9000E-02
     -8.841  0.0000E+00  0.0000E+00  0.1100E-01  0.1100E-01
     -8.802  0.0000E+00  0.0000E+00  0.1200E-01  0.1200E-01
     -8.763  0.0000E+00  0.0000E+00  0.1300E-01  0.1300E-01
     -8.724  0.0000E+00  0.0000E+00  0.1500E-01  0.1500E-01
     -8.685  0.0000E+00  0.0000E+00  0.1600E-01  0.1600E-01
     -8.646  0.0000E+00  0.0000E+00  0.1700E-01  0.1700E-01
     -8.606  0.0000E+00  0.0000E+00  0.1900E-01  0.1900E-01
     -8.567  0.0000E+00  0.0000E+00  0.2200E-01  0.2200E-01
     -8.528  0.0000E+00  0.0000E+00  0.2300E-01  0.2300E-01
     -8.489  0.0000E+00  0.0000E+00  0.2400E-01  0.2400E-01
     -8.450  0.0000E+00  0.0000E+00  0.2600E-01  0.2600E-01
     -8.410  0.0000E+00  0.0000E+00  0.2800E-01  0.2800E-01
     -8.371  0.0000E+00  0.0000E+00  0.3000E-01  0.3000E-01
     -8.332  0.0000E+00  0.0000E+00  0.3200E-01  0.3200E-01
     -8.293  0.0000E+00  0.0000E+00  0.3300E-01  0.3300E-01
     -8.254  0.0000E+00  0.0000E+00  0.3400E-01  0.3400E-01
     -8.215  0.0000E+00  0.0000E+00  0.3500E-01  0.3500E-01
     -8.175  0.3004E-08  0.3005E-08  0.3700E-01  0.3700E-01
     -8.136  0.0000E+00  0.0000E+00  0.3900E-01  0.3900E-01
     -8.097  0.0000E+00  0.0000E+00  0.4100E-01  0.4100E-01
     -8.058  0.0000E+00  0.0000E+00  0.4300E-01  0.4300E-01
     -8.019  0.0000E+00  0.0000E+00  0.4500E-01  0.4500E-01
     -7.979  0.0000E+00  0.0000E+00  0.4600E-01  0.4600E-01
     -7.940  0.2552E-01  0.2552E-01  0.4900E-01  0.4900E-01
     -7.901  0.1420E-01  0.1420E-01  0.5056E-01  0.5056E-01
     -7.862  0.0000E+00  0.0000E+00  0.5200E-01  0.5200E-01
     -7.823  0.0000E+00  0.0000E+00  0.5400E-01  0.5400E-01
     -7.784  0.0000E+00  0.0000E+00  0.5700E-01  0.5700E-01
     -7.744  0.0000E+00  0.0000E+00  0.6000E-01  0.6000E-01
     -7.705  0.0000E+00  0.0000E+00  0.6100E-01  0.6100E-01
     -7.666  0.0000E+00  0.0000E+00  0.6300E-01  0.6300E-01
     -7.627  0.0000E+00  0.0000E+00  0.6600E-01  0.6600E-01
     -7.588  0.0000E+00  0.0000E+00  0.6700E-01  0.6700E-01
     -7.548  0.0000E+00  0.0000E+00  0.6900E-01  0.6900E-01
     -7.509  0.0000E+00  0.0000E+00  0.7100E-01  0.7100E-01
     -7.470  0.0000E+00  0.0000E+00  0.7400E-01  0.7400E-01
     -7.431  0.0000E+00  0.0000E+00  0.7500E-01  0.7500E-01
     -7.392  0.0000E+00  0.0000E+00  0.7700E-01  0.7700E-01
     -7.353  0.0000E+00  0.0000E+00  0.8000E-01  0.8000E-01
     -7.313  0.0000E+00  0.0000E+00  0.8200E-01  0.8200E-01
     -7.274  0.0000E+00  0.0000E+00  0.8400E-01  0.8400E-01
     -7.235  0.0000E+00  0.0000E+00  0.8600E-01  0.8600E-01
     -7.196  0.0000E+00  0.0000E+00  0.8900E-01  0.8900E-01
     -7.157  0.0000E+00  0.0000E+00  0.9100E-01  0.9100E-01
     -7.117  0.0000E+00  0.0000E+00  0.9300E-01  0.9300E-01
     -7.078  0.0000E+00  0.0000E+00  0.9600E-01  0.9600E-01
     -7.039  0.0000E+00  0.0000E+00  0.9800E-01  0.9800E-01
     -7.000  0.0000E+00  0.0000E+00  0.1010E+00  0.1010E+00
     -6.961  0.0000E+00  0.0000E+00  0.1040E+00  0.1040E+00
     -6.922  0.0000E+00  0.0000E+00  0.1080E+00  0.1080E+00
     -6.882  0.0000E+00  0.0000E+00  0.1100E+00  0.1100E+00
     -6.843  0.0000E+00  0.0000E+00  0.1140E+00  0.1140E+00
     -6.804  0.0000E+00  0.0000E+00  0.1180E+00  0.1180E+00
     -6.765  0.0000E+00  0.0000E+00  0.1210E+00  0.1210E+00
     -6.726  0.0000E+00  0.0000E+00  0.1240E+00  0.1240E+00
     -6.686  0.0000E+00  0.0000E+00  0.1260E+00  0.1260E+00
     -6.647  0.0000E+00  0.0000E+00  0.1290E+00  0.1290E+00
     -6.608  0.0000E+00  0.0000E+00  0.1320E+00  0.1320E+00
     -6.569  0.0000E+00  0.0000E+00  0.1350E+00  0.1350E+00
     -6.530  0.0000E+00  0.0000E+00  0.1370E+00  0.1370E+00
     -6.491  0.0000E+00  0.0000E+00  0.1410E+00  0.1410E+00
     -6.451  0.0000E+00  0.0000E+00  0.1430E+00  0.1430E+00
     -6.412  0.0000E+00  0.0000E+00  0.1470E+00  0.1470E+00
     -6.373  0.0000E+00  0.0000E+00  0.1500E+00  0.1500E+00
     -6.334  0.0000E+00  0.0000E+00  0.1540E+00  0.1540E+00
     -6.295  0.0000E+00  0.0000E+00  0.1560E+00  0.1560E+00
     -6.255  0.5410E-02  0.5411E-02  0.1572E+00  0.1572E+00
     -6.216  0.0000E+00  0.0000E+00  0.1600E+00  0.1600E+00
     -6.177  0.0000E+00  0.0000E+00  0.1620E+00  0.1620E+00
     -6.138  0.0000E+00  0.0000E+00  0.1630E+00  0.1630E+00
     -6.099  0.0000E+00  0.0000E+00  0.1640E+00  0.1640E+00
     -6.060  0.0000E+00  0.0000E+00  0.1640E+00  0.1640E+00
     -6.020  0.0000E+00  0.0000E+00  0.1640E+00  0.1640E+00
     -5.981  0.0000E+00  0.0000E+00  0.1640E+00  0.1640E+00
     -5.942  0.0000E+00  0.0000E+00  0.1640E+00  0.1640E+00
     -5.903  0.0000E+00  0.0000E+00  0.1640E+00  0.1640E+00
     -5.864  0.0000E+00  0.0000E+00  0.1640E+00  0.1640E+00
     -5.824  0.0000E+00  0.0000E+00  0.1650E+00  0.1650E+00
     -5.785  0.0000E+00  0.0000E+00  0.1650E+00  0.1650E+00
     -5.746  0.0000E+00  0.0000E+00  0.1660E+00  0.1660E+00
     -5.707  0.0000E+00  0.0000E+00  0.1660E+00  0.1660E+00
     -5.668  0.0000E+00  0.0000E+00  0.1660E+00  0.1660E+00
     -5.629  0.0000E+00  0.0000E+00  0.1660E+00  0.1660E+00
     -5.589  0.0000E+00  0.0000E+00  0.1670E+00  0.1670E+00
     -5.550  0.0000E+00  0.0000E+00  0.1670E+00  0.1670E+00
     -5.511  0.0000E+00  0.0000E+00  0.1670E+00  0.1670E+00
     -5.472  0.0000E+00  0.0000E+00  0.1670E+00  0.1670E+00
     -5.433  0.0000E+00  0.0000E+00  0.1670E+00  0.1670E+00
     -5.393  0.0000E+00  0.0000E+00  0.1670E+00  0.1670E+00
     -5.354  0.0000E+00  0.0000E+00  0.1670E+00  0.1670E+00
     -5.315  0.0000E+00  0.0000E+00  0.1670E+00  0.1670E+00
     -5.276  0.0000E+00  0.0000E+00  0.1670E+00  0.1670E+00
     -5.237  0.0000E+00  0.0000E+00  0.1670E+00  0.1670E+00
     -5.198  0.0000E+00  0.0000E+00  0.1670E+00  0.1670E+00
     -5.158  0.0000E+00  0.0000E+00  0.1670E+00  0.1670E+00
     -5.119  0.0000E+00  0.0000E+00  0.1670E+00  0.1670E+00
     -5.080  0.0000E+00  0.0000E+00  0.1680E+00  0.1680E+00
     -5.041  0.0000E+00  0.0000E+00  0.1680E+00  0.1680E+00
     -5.002  0.0000E+00  0.0000E+00  0.1680E+00  0.1680E+00
     -4.962  0.0000E+00  0.0000E+00  0.1680E+00  0.1680E+00
     -4.923  0.0000E+00  0.0000E+00  0.1690E+00  0.1690E+00
     -4.884  0.0000E+00  0.0000E+00  0.1690E+00  0.1690E+00
     -4.845  0.0000E+00  0.0000E+00  0.1690E+00  0.1690E+00
     -4.806  0.0000E+00  0.0000E+00  0.1700E+00  0.1700E+00
     -4.767  0.0000E+00  0.0000E+00  0.1700E+00  0.1700E+00
     -4.727  0.0000E+00  0.0000E+00  0.1700E+00  0.1700E+00
     -4.688  0.0000E+00  0.0000E+00  0.1700E+00  0.1700E+00
     -4.649  0.0000E+00  0.0000E+00  0.1700E+00  0.1700E+00
     -4.610  0.0000E+00  0.0000E+00  0.1700E+00  0.1700E+00
     -4.571  0.0000E+00  0.0000E+00  0.1700E+00  0.1700E+00
     -4.531  0.0000E+00  0.0000E+00  0.1700E+00  0.1700E+00
     -4.492  0.0000E+00  0.0000E+00  0.1700E+00  0.1700E+00
     -4.453  0.0000E+00  0.0000E+00  0.1700E+00  0.1700E+00
     -4.414  0.0000E+00  0.0000E+00  0.1700E+00  0.1700E+00
     -4.375  0.0000E+00  0.0000E+00  0.1710E+00  0.1710E+00
     -4.336  0.0000E+00  0.0000E+00  0.1720E+00  0.1720E+00
     -4.296  0.0000E+00  0.0000E+00  0.1720E+00  0.1720E+00
     -4.257  0.0000E+00  0.0000E+00  0.1720E+00  0.1720E+00
     -4.218  0.0000E+00  0.0000E+00  0.1730E+00  0.1730E+00
     -4.179  0.0000E+00  0.0000E+00  0.1730E+00  0.1730E+00
     -4.140  0.0000E+00  0.0000E+00  0.1730E+00  0.1730E+00
     -4.100  0.0000E+00  0.0000E+00  0.1730E+00  0.1730E+00
     -4.061  0.0000E+00  0.0000E+00  0.1730E+00  0.1730E+00
     -4.022  0.0000E+00  0.0000E+00  0.1730E+00  0.1730E+00
     -3.983  0.0000E+00  0.0000E+00  0.1730E+00  0.1730E+00
     -3.944  0.0000E+00  0.0000E+00  0.1730E+00  0.1730E+00
     -3.905  0.0000E+00  0.0000E+00  0.1740E+00  0.1740E+00
     -3.865  0.0000E+00  0.0000E+00  0.1740E+00  0.1740E+00
     -3.826  0.0000E+00  0.0000E+00  0.1740E+00  0.1740E+00
     -3.787  0.0000E+00  0.0000E+00  0.1750E+00  0.1750E+00
     -3.748  0.0000E+00  0.0000E+00  0.1750E+00  0.1750E+00
     -3.709  0.0000E+00  0.0000E+00  0.1750E+00  0.1750E+00
     -3.669  0.0000E+00  0.0000E+00  0.1750E+00  0.1750E+00
     -3.630  0.0000E+00  0.0000E+00  0.1750E+00  0.1750E+00
     -3.591  0.0000E+00  0.0000E+00  0.1750E+00  0.1750E+00
     -3.552  0.0000E+00  0.0000E+00  0.1750E+00  0.1750E+00
     -3.513  0.0000E+00  0.0000E+00  0.1750E+00  0.1750E+00
     -3.474  0.0000E+00  0.0000E+00  0.1750E+00  0.1750E+00
     -3.434  0.0000E+00  0.0000E+00  0.1750E+00  0.1750E+00
     -3.395  0.0000E+00  0.0000E+00  0.1750E+00  0.1750E+00
     -3.356  0.0000E+00  0.0000E+00  0.1760E+00  0.1760E+00
     -3.317  0.0000E+00  0.0000E+00  0.1760E+00  0.1760E+00
     -3.278  0.0000E+00  0.0000E+00  0.1760E+00  0.1760E+00
     -3.239  0.0000E+00  0.0000E+00  0.1760E+00  0.1760E+00
     -3.199  0.0000E+00  0.0000E+00  0.1760E+00  0.1760E+00
     -3.160  0.0000E+00  0.0000E+00  0.1760E+00  0.1760E+00
     -3.121  0.0000E+00  0.0000E+00  0.1760E+00  0.1760E+00
     -3.082  0.0000E+00  0.0000E+00  0.1760E+00  0.1760E+00
     -3.043  0.0000E+00  0.0000E+00  0.1760E+00  0.1760E+00
     -3.003  0.0000E+00  0.0000E+00  0.1770E+00  0.1770E+00
     -2.964  0.0000E+00  0.0000E+00  0.1770E+00  0.1770E+00
     -2.925  0.9726E-02  0.9711E-02  0.1774E+00  0.1774E+00
     -2.886  0.0000E+00  0.0000E+00  0.1780E+00  0.1780E+00
     -2.847  0.0000E+00  0.0000E+00  0.1780E+00  0.1780E+00
     -2.808  0.0000E+00  0.0000E+00  0.1780E+00  0.1780E+00
     -2.768  0.0000E+00  0.0000E+00  0.1790E+00  0.1790E+00
     -2.729  0.0000E+00  0.0000E+00  0.1790E+00  0.1790E+00
     -2.690  0.0000E+00  0.0000E+00  0.1800E+00  0.1800E+00
     -2.651  0.0000E+00  0.0000E+00  0.1800E+00  0.1800E+00
     -2.612  0.0000E+00  0.0000E+00  0.1800E+00  0.1800E+00
     -2.572  0.0000E+00  0.0000E+00  0.1800E+00  0.1800E+00
     -2.533  0.0000E+00  0.0000E+00  0.1810E+00  0.1810E+00
     -2.494  0.0000E+00  0.0000E+00  0.1810E+00  0.1810E+00
     -2.455  0.0000E+00  0.0000E+00  0.1810E+00  0.1810E+00
     -2.416  0.0000E+00  0.0000E+00  0.1810E+00  0.1810E+00
     -2.377  0.0000E+00  0.0000E+00  0.1820E+00  0.1820E+00
     -2.337  0.0000E+00  0.0000E+00  0.1820E+00  0.1820E+00
     -2.298  0.0000E+00  0.0000E+00  0.1820E+00  0.1820E+00
     -2.259  0.0000E+00  0.0000E+00  0.1830E+00  0.1830E+00
     -2.220  0.0000E+00  0.0000E+00  0.1840E+00  0.1840E+00
     -2.181  0.0000E+00  0.0000E+00  0.1840E+00  0.1840E+00
     -2.141  0.0000E+00  0.0000E+00  0.1850E+00  0.1850E+00
     -2.102  0.0000E+00  0.0000E+00  0.1850E+00  0.1850E+00
     -2.063  0.0000E+00  0.0000E+00  0.1850E+00  0.1850E+00
     -2.024  0.0000E+00  0.0000E+00  0.1850E+00  0.1850E+00
     -1.985  0.0000E+00  0.0000E+00  0.1850E+00  0.1850E+00
     -1.946  0.0000E+00  0.0000E+00  0.1850E+00  0.1850E+00
     -1.906  0.0000E+00  0.0000E+00  0.1850E+00  0.1850E+00
     -1.867  0.0000E+00  0.0000E+00  0.1860E+00  0.1860E+00
     -1.828  0.0000E+00  0.0000E+00  0.1860E+00  0.1860E+00
     -1.789  0.0000E+00  0.0000E+00  0.1860E+00  0.1860E+00
     -1.750  0.0000E+00  0.0000E+00  0.1870E+00  0.1870E+00
     -1.710  0.0000E+00  0.0000E+00  0.1870E+00  0.1870E+00
     -1.671  0.0000E+00  0.0000E+00  0.1880E+00  0.1880E+00
     -1.632  0.0000E+00  0.0000E+00  0.1880E+00  0.1880E+00
     -1.593  0.0000E+00  0.0000E+00  0.1880E+00  0.1880E+00
     -1.554  0.0000E+00  0.0000E+00  0.1880E+00  0.1880E+00
     -1.515  0.0000E+00  0.0000E+00  0.1880E+00  0.1880E+00
     -1.475  0.0000E+00  0.0000E+00  0.1890E+00  0.1890E+00
     -1.436  0.0000E+00  0.0000E+00  0.1890E+00  0.1890E+00
     -1.397  0.0000E+00  0.0000E+00  0.1890E+00  0.1890E+00
     -1.358  0.0000E+00  0.0000E+00  0.1900E+00  0.1900E+00
     -1.319  0.0000E+00  0.0000E+00  0.1900E+00  0.1900E+00
     -1.279  0.0000E+00  0.0000E+00  0.1900E+00  0.1900E+00
     -1.240  0.0000E+00  0.0000E+00  0.1900E+00  0.1900E+00
     -1.201  0.0000E+00  0.0000E+00  0.1910E+00  0.1910E+00
     -1.162  0.0000E+00  0.0000E+00  0.1920E+00  0.1920E+00
     -1.123  0.0000E+00  0.0000E+00  0.1920E+00  0.1920E+00
     -1.084  0.0000E+00  0.0000E+00  0.1920E+00  0.1920E+00
     -1.044  0.0000E+00  0.0000E+00  0.1920E+00  0.1920E+00
     -1.005  0.0000E+00  0.0000E+00  0.1930E+00  0.1930E+00
     -0.966  0.0000E+00  0.0000E+00  0.1930E+00  0.1930E+00
     -0.927  0.0000E+00  0.0000E+00  0.1940E+00  0.1940E+00
     -0.888  0.0000E+00  0.0000E+00  0.1950E+00  0.1950E+00
     -0.848  0.0000E+00  0.0000E+00  0.1950E+00  0.1950E+00
     -0.809  0.0000E+00  0.0000E+00  0.1950E+00  0.1950E+00
     -0.770  0.0000E+00  0.0000E+00  0.1950E+00  0.1950E+00
     -0.731  0.0000E+00  0.0000E+00  0.1960E+00  0.1960E+00
     -0.692  0.0000E+00  0.0000E+00  0.1980E+00  0.1980E+00
     -0.653  0.0000E+00  0.0000E+00  0.1980E+00  0.1980E+00
     -0.613  0.0000E+00  0.0000E+00  0.1980E+00  0.1980E+00
     -0.574  0.0000E+00  0.0000E+00  0.1980E+00  0.1980E+00
     -0.535  0.0000E+00  0.0000E+00  0.1990E+00  0.1990E+00
     -0.496  0.0000E+00  0.0000E+00  0.1990E+00  0.1990E+00
     -0.457  0.0000E+00  0.0000E+00  0.2000E+00  0.2000E+00
     -0.417  0.0000E+00  0.0000E+00  0.2010E+00  0.2010E+00
     -0.378  0.0000E+00  0.0000E+00  0.2010E+00  0.2010E+00
     -0.339  0.0000E+00  0.0000E+00  0.2010E+00  0.2010E+00
     -0.300  0.0000E+00  0.0000E+00  0.2020E+00  0.2020E+00
     -0.261  0.0000E+00  0.0000E+00  0.2020E+00  0.2020E+00
     -0.222  0.0000E+00  0.0000E+00  0.2020E+00  0.2020E+00
     -0.182  0.0000E+00  0.0000E+00  0.2030E+00  0.2030E+00
     -0.143  0.0000E+00  0.0000E+00  0.2030E+00  0.2030E+00
     -0.104  0.0000E+00  0.0000E+00  0.2030E+00  0.2030E+00
     -0.065  0.0000E+00  0.0000E+00  0.2030E+00  0.2030E+00
     -0.026  0.0000E+00  0.0000E+00  0.2040E+00  0.2040E+00
      0.014  0.0000E+00  0.0000E+00  0.2040E+00  0.2040E+00
      0.053  0.0000E+00  0.0000E+00  0.2050E+00  0.2050E+00
      0.092  0.0000E+00  0.0000E+00  0.2050E+00  0.2050E+00
      0.131  0.0000E+00  0.0000E+00  0.2060E+00  0.2060E+00
      0.170  0.0000E+00  0.0000E+00  0.2060E+00  0.2060E+00
      0.209  0.0000E+00  0.0000E+00  0.2060E+00  0.2060E+00
      0.249  0.0000E+00  0.0000E+00  0.2060E+00  0.2060E+00
      0.288  0.0000E+00  0.0000E+00  0.2070E+00  0.2070E+00
      0.327  0.0000E+00  0.0000E+00  0.2070E+00  0.2070E+00
      0.366  0.0000E+00  0.0000E+00  0.2070E+00  0.2070E+00
      0.405  0.0000E+00  0.0000E+00  0.2070E+00  0.2070E+00
      0.445  0.0000E+00  0.0000E+00  0.2080E+00  0.2080E+00
      0.484  0.0000E+00  0.0000E+00  0.2080E+00  0.2080E+00
      0.523  0.0000E+00  0.0000E+00  0.2090E+00  0.2090E+00
      0.562  0.0000E+00  0.0000E+00  0.2090E+00  0.2090E+00
      0.601  0.0000E+00  0.0000E+00  0.2090E+00  0.2090E+00
      0.640  0.0000E+00  0.0000E+00  0.2090E+00  0.2090E+00
      0.680  0.7361E-09  0.2582E-09  0.2100E+00  0.2100E+00
      0.719  0.1379E-03  0.1039E-03  0.2120E+00  0.2120E+00
      0.758  0.0000E+00  0.0000E+00  0.2140E+00  0.2140E+00
      0.797  0.0000E+00  0.0000E+00  0.2150E+00  0.2150E+00
      0.836  0.0000E+00  0.0000E+00  0.2160E+00  0.2160E+00
      0.876  0.0000E+00  0.0000E+00  0.2170E+00  0.2170E+00
      0.915  0.0000E+00  0.0000E+00  0.2170E+00  0.2170E+00
      0.954  0.0000E+00  0.0000E+00  0.2180E+00  0.2180E+00
      0.993  0.0000E+00  0.0000E+00  0.2190E+00  0.2190E+00
      1.032  0.0000E+00  0.0000E+00  0.2220E+00  0.2220E+00
      1.071  0.0000E+00  0.0000E+00  0.2250E+00  0.2250E+00
      1.111  0.0000E+00  0.0000E+00  0.2260E+00  0.2260E+00
      1.150  0.0000E+00  0.0000E+00  0.2280E+00  0.2280E+00
      1.189  0.0000E+00  0.0000E+00  0.2280E+00  0.2280E+00
      1.228  0.0000E+00  0.0000E+00  0.2280E+00  0.2280E+00
      1.267  0.0000E+00  0.0000E+00  0.2280E+00  0.2280E+00
      1.307  0.0000E+00  0.0000E+00  0.2280E+00  0.2280E+00
      1.346  0.0000E+00  0.0000E+00  0.2280E+00  0.2280E+00
      1.385  0.0000E+00  0.0000E+00  0.2280E+00  0.2280E+00
      1.424  0.0000E+00  0.0000E+00  0.2280E+00  0.2280E+00
      1.463  0.0000E+00  0.0000E+00  0.2280E+00  0.2280E+00
      1.502  0.0000E+00  0.0000E+00  0.2280E+00  0.2280E+00
      1.542  0.0000E+00  0.0000E+00  0.2280E+00  0.2280E+00
      1.581  0.0000E+00  0.0000E+00  0.2280E+00  0.2280E+00
      1.620  0.0000E+00  0.0000E+00  0.2280E+00  0.2280E+00
      1.659  0.0000E+00  0.0000E+00  0.2280E+00  0.2280E+00
