  32  32   0   0
  0.3266310E+03  0.2186431E-08  0.2186431E-08  0.2186431E-08  0.1000000E-15
  1.000000000000000E-004
  CAR 
 unknown system                          
      1.71168655    -10.10511127  301     -3.58617781      1.00000000
    -10.105  0.0000E+00  0.0000E+00  0.0000E+00  0.0000E+00
    -10.066  0.0000E+00  0.0000E+00  0.0000E+00  0.0000E+00
    -10.026  0.0000E+00  0.0000E+00  0.0000E+00  0.0000E+00
     -9.987  0.0000E+00  0.0000E+00  0.0000E+00  0.0000E+00
     -9.948  0.0000E+00  0.0000E+00  0.0000E+00  0.0000E+00
     -9.908  0.0000E+00  0.0000E+00  0.0000E+00  0.0000E+00
     -9.869  0.0000E+00  0.0000E+00  0.0000E+00  0.0000E+00
     -9.829  0.0000E+00  0.0000E+00  0.0000E+00  0.0000E+00
     -9.790  0.0000E+00  0.0000E+00  0.0000E+00  0.0000E+00
     -9.751  0.0000E+00  0.0000E+00  0.0000E+00  0.0000E+00
     -9.711  0.0000E+00  0.0000E+00  0.0000E+00  0.0000E+00
     -9.672  0.0000E+00  0.0000E+00  0.0000E+00  0.0000E+00
     -9.632  0.0000E+00  0.0000E+00  0.0000E+00  0.0000E+00
     -9.593  0.0000E+00  0.0000E+00  0.0000E+00  0.0000E+00
     -9.554  0.0000E+00  0.0000E+00  0.1000E-02  0.1000E-02
     -9.514  0.0000E+00  0.0000E+00  0.1000E-02  0.1000E-02
     -9.475  0.0000E+00  0.0000E+00  0.1000E-02  0.1000E-02
     -9.435  0.0000E+00  0.0000E+00  0.1000E-02  0.1000E-02
     -9.396  0.0000E+00  0.0000E+00  0.1000E-02  0.1000E-02
     -9.357  0.0000E+00  0.0000E+00  0.1000E-02  0.1000E-02
     -9.317  0.0000E+00  0.0000E+00  0.1000E-02  0.1000E-02
     -9.278  0.0000E+00  0.0000E+00  0.1000E-02  0.1000E-02
     -9.239  0.0000E+00  0.0000E+00  0.1000E-02  0.1000E-02
     -9.199  0.0000E+00  0.0000E+00  0.1000E-02  0.1000E-02
     -9.160  0.0000E+00  0.0000E+00  0.1000E-02  0.1000E-02
     -9.120  0.0000E+00  0.0000E+00  0.1000E-02  0.1000E-02
     -9.081  0.0000E+00  0.0000E+00  0.3000E-02  0.3000E-02
     -9.042  0.0000E+00  0.0000E+00  0.3000E-02  0.3000E-02
     -9.002  0.0000E+00  0.0000E+00  0.4000E-02  0.4000E-02
     -8.963  0.0000E+00  0.0000E+00  0.5000E-02  0.5000E-02
     -8.923  0.0000E+00  0.0000E+00  0.7000E-02  0.7000E-02
     -8.884  0.0000E+00  0.0000E+00  0.8000E-02  0.8000E-02
     -8.845  0.0000E+00  0.0000E+00  0.1000E-01  0.1000E-01
     -8.805  0.0000E+00  0.0000E+00  0.1100E-01  0.1100E-01
     -8.766  0.0000E+00  0.0000E+00  0.1300E-01  0.1300E-01
     -8.726  0.0000E+00  0.0000E+00  0.1400E-01  0.1400E-01
     -8.687  0.0000E+00  0.0000E+00  0.1800E-01  0.1800E-01
     -8.648  0.0000E+00  0.0000E+00  0.1800E-01  0.1800E-01
     -8.608  0.0000E+00  0.0000E+00  0.2000E-01  0.2000E-01
     -8.569  0.0000E+00  0.0000E+00  0.2200E-01  0.2200E-01
     -8.530  0.0000E+00  0.0000E+00  0.2400E-01  0.2400E-01
     -8.490  0.0000E+00  0.0000E+00  0.2600E-01  0.2600E-01
     -8.451  0.0000E+00  0.0000E+00  0.2700E-01  0.2700E-01
     -8.411  0.0000E+00  0.0000E+00  0.3000E-01  0.3000E-01
     -8.372  0.3105E-02  0.3103E-02  0.3112E-01  0.3112E-01
     -8.333  0.0000E+00  0.0000E+00  0.3300E-01  0.3300E-01
     -8.293  0.0000E+00  0.0000E+00  0.3500E-01  0.3500E-01
     -8.254  0.0000E+00  0.0000E+00  0.3700E-01  0.3700E-01
     -8.214  0.0000E+00  0.0000E+00  0.3900E-01  0.3900E-01
     -8.175  0.0000E+00  0.0000E+00  0.4100E-01  0.4100E-01
     -8.136  0.0000E+00  0.0000E+00  0.4200E-01  0.4200E-01
     -8.096  0.0000E+00  0.0000E+00  0.4300E-01  0.4300E-01
     -8.057  0.0000E+00  0.0000E+00  0.4600E-01  0.4600E-01
     -8.017  0.0000E+00  0.0000E+00  0.4900E-01  0.4900E-01
     -7.978  0.0000E+00  0.0000E+00  0.5100E-01  0.5100E-01
     -7.939  0.0000E+00  0.0000E+00  0.5400E-01  0.5400E-01
     -7.899  0.0000E+00  0.0000E+00  0.5500E-01  0.5500E-01
     -7.860  0.0000E+00  0.0000E+00  0.5800E-01  0.5800E-01
     -7.821  0.0000E+00  0.0000E+00  0.5900E-01  0.5900E-01
     -7.781  0.0000E+00  0.0000E+00  0.6000E-01  0.6000E-01
     -7.742  0.0000E+00  0.0000E+00  0.6300E-01  0.6300E-01
     -7.702  0.0000E+00  0.0000E+00  0.6400E-01  0.6400E-01
     -7.663  0.7134E-03  0.7127E-03  0.6503E-01  0.6503E-01
     -7.624  0.0000E+00  0.0000E+00  0.6900E-01  0.6900E-01
     -7.584  0.0000E+00  0.0000E+00  0.7100E-01  0.7100E-01
     -7.545  0.0000E+00  0.0000E+00  0.7200E-01  0.7200E-01
     -7.505  0.0000E+00  0.0000E+00  0.7400E-01  0.7400E-01
     -7.466  0.0000E+00  0.0000E+00  0.7600E-01  0.7600E-01
     -7.427  0.0000E+00  0.0000E+00  0.7800E-01  0.7800E-01
     -7.387  0.0000E+00  0.0000E+00  0.8000E-01  0.8000E-01
     -7.348  0.0000E+00  0.0000E+00  0.8100E-01  0.8100E-01
     -7.308  0.0000E+00  0.0000E+00  0.8200E-01  0.8200E-01
     -7.269  0.0000E+00  0.0000E+00  0.8500E-01  0.8500E-01
     -7.230  0.0000E+00  0.0000E+00  0.8800E-01  0.8800E-01
     -7.190  0.0000E+00  0.0000E+00  0.8900E-01  0.8900E-01
     -7.151  0.0000E+00  0.0000E+00  0.9300E-01  0.9300E-01
     -7.112  0.0000E+00  0.0000E+00  0.9600E-01  0.9600E-01
     -7.072  0.0000E+00  0.0000E+00  0.9800E-01  0.9800E-01
     -7.033  0.0000E+00  0.0000E+00  0.1010E+00  0.1010E+00
     -6.993  0.0000E+00  0.0000E+00  0.1040E+00  0.1040E+00
     -6.954  0.0000E+00  0.0000E+00  0.1080E+00  0.1080E+00
     -6.915  0.0000E+00  0.0000E+00  0.1110E+00  0.1110E+00
     -6.875  0.0000E+00  0.0000E+00  0.1140E+00  0.1140E+00
     -6.836  0.0000E+00  0.0000E+00  0.1180E+00  0.1180E+00
     -6.796  0.0000E+00  0.0000E+00  0.1200E+00  0.1200E+00
     -6.757  0.0000E+00  0.0000E+00  0.1230E+00  0.1230E+00
     -6.718  0.0000E+00  0.0000E+00  0.1260E+00  0.1260E+00
     -6.678  0.0000E+00  0.0000E+00  0.1300E+00  0.1300E+00
     -6.639  0.0000E+00  0.0000E+00  0.1330E+00  0.1330E+00
     -6.599  0.2184E-04  0.2181E-04  0.1350E+00  0.1350E+00
     -6.560  0.0000E+00  0.0000E+00  0.1380E+00  0.1380E+00
     -6.521  0.0000E+00  0.0000E+00  0.1400E+00  0.1400E+00
     -6.481  0.0000E+00  0.0000E+00  0.1430E+00  0.1430E+00
     -6.442  0.0000E+00  0.0000E+00  0.1450E+00  0.1450E+00
     -6.403  0.2539E-01  0.2539E-01  0.1500E+00  0.1500E+00
     -6.363  0.0000E+00  0.0000E+00  0.1510E+00  0.1510E+00
     -6.324  0.0000E+00  0.0000E+00  0.1550E+00  0.1550E+00
     -6.284  0.0000E+00  0.0000E+00  0.1570E+00  0.1570E+00
     -6.245  0.0000E+00  0.0000E+00  0.1590E+00  0.1590E+00
     -6.206  0.0000E+00  0.0000E+00  0.1620E+00  0.1620E+00
     -6.166  0.0000E+00  0.0000E+00  0.1640E+00  0.1640E+00
     -6.127  0.0000E+00  0.0000E+00  0.1640E+00  0.1640E+00
     -6.087  0.0000E+00  0.0000E+00  0.1640E+00  0.1640E+00
     -6.048  0.0000E+00  0.0000E+00  0.1640E+00  0.1640E+00
     -6.009  0.0000E+00  0.0000E+00  0.1640E+00  0.1640E+00
     -5.969  0.0000E+00  0.0000E+00  0.1640E+00  0.1640E+00
     -5.930  0.0000E+00  0.0000E+00  0.1640E+00  0.1640E+00
     -5.890  0.0000E+00  0.0000E+00  0.1640E+00  0.1640E+00
     -5.851  0.0000E+00  0.0000E+00  0.1650E+00  0.1650E+00
     -5.812  0.0000E+00  0.0000E+00  0.1660E+00  0.1660E+00
     -5.772  0.0000E+00  0.0000E+00  0.1660E+00  0.1660E+00
     -5.733  0.0000E+00  0.0000E+00  0.1660E+00  0.1660E+00
     -5.694  0.0000E+00  0.0000E+00  0.1660E+00  0.1660E+00
     -5.654  0.0000E+00  0.0000E+00  0.1660E+00  0.1660E+00
     -5.615  0.0000E+00  0.0000E+00  0.1660E+00  0.1660E+00
     -5.575  0.0000E+00  0.0000E+00  0.1660E+00  0.1660E+00
     -5.536  0.0000E+00  0.0000E+00  0.1660E+00  0.1660E+00
     -5.497  0.0000E+00  0.0000E+00  0.1670E+00  0.1670E+00
     -5.457  0.0000E+00  0.0000E+00  0.1670E+00  0.1670E+00
     -5.418  0.0000E+00  0.0000E+00  0.1670E+00  0.1670E+00
     -5.378  0.0000E+00  0.0000E+00  0.1670E+00  0.1670E+00
     -5.339  0.0000E+00  0.0000E+00  0.1670E+00  0.1670E+00
     -5.300  0.0000E+00  0.0000E+00  0.1680E+00  0.1680E+00
     -5.260  0.0000E+00  0.0000E+00  0.1680E+00  0.1680E+00
     -5.221  0.0000E+00  0.0000E+00  0.1680E+00  0.1680E+00
     -5.181  0.0000E+00  0.0000E+00  0.1680E+00  0.1680E+00
     -5.142  0.0000E+00  0.0000E+00  0.1680E+00  0.1680E+00
     -5.103  0.0000E+00  0.0000E+00  0.1690E+00  0.1690E+00
     -5.063  0.0000E+00  0.0000E+00  0.1690E+00  0.1690E+00
     -5.024  0.0000E+00  0.0000E+00  0.1690E+00  0.1690E+00
     -4.984  0.0000E+00  0.0000E+00  0.1690E+00  0.1690E+00
     -4.945  0.0000E+00  0.0000E+00  0.1690E+00  0.1690E+00
     -4.906  0.0000E+00  0.0000E+00  0.1690E+00  0.1690E+00
     -4.866  0.0000E+00  0.0000E+00  0.1690E+00  0.1690E+00
     -4.827  0.0000E+00  0.0000E+00  0.1690E+00  0.1690E+00
     -4.788  0.0000E+00  0.0000E+00  0.1690E+00  0.1690E+00
     -4.748  0.0000E+00  0.0000E+00  0.1690E+00  0.1690E+00
     -4.709  0.0000E+00  0.0000E+00  0.1690E+00  0.1690E+00
     -4.669  0.0000E+00  0.0000E+00  0.1690E+00  0.1690E+00
     -4.630  0.0000E+00  0.0000E+00  0.1690E+00  0.1690E+00
     -4.591  0.0000E+00  0.0000E+00  0.1690E+00  0.1690E+00
     -4.551  0.0000E+00  0.0000E+00  0.1700E+00  0.1700E+00
     -4.512  0.0000E+00  0.0000E+00  0.1700E+00  0.1700E+00
     -4.472  0.0000E+00  0.0000E+00  0.1700E+00  0.1700E+00
     -4.433  0.0000E+00  0.0000E+00  0.1700E+00  0.1700E+00
     -4.394  0.0000E+00  0.0000E+00  0.1700E+00  0.1700E+00
     -4.354  0.0000E+00  0.0000E+00  0.1710E+00  0.1710E+00
     -4.315  0.0000E+00  0.0000E+00  0.1710E+00  0.1710E+00
     -4.275  0.0000E+00  0.0000E+00  0.1710E+00  0.1710E+00
     -4.236  0.0000E+00  0.0000E+00  0.1710E+00  0.1710E+00
     -4.197  0.0000E+00  0.0000E+00  0.1720E+00  0.1720E+00
     -4.157  0.0000E+00  0.0000E+00  0.1720E+00  0.1720E+00
     -4.118  0.0000E+00  0.0000E+00  0.1720E+00  0.1720E+00
     -4.079  0.0000E+00  0.0000E+00  0.1720E+00  0.1720E+00
     -4.039  0.0000E+00  0.0000E+00  0.1740E+00  0.1740E+00
     -4.000  0.0000E+00  0.0000E+00  0.1740E+00  0.1740E+00
     -3.960  0.0000E+00  0.0000E+00  0.1740E+00  0.1740E+00
     -3.921  0.0000E+00  0.0000E+00  0.1740E+00  0.1740E+00
     -3.882  0.0000E+00  0.0000E+00  0.1740E+00  0.1740E+00
     -3.842  0.0000E+00  0.0000E+00  0.1740E+00  0.1740E+00
     -3.803  0.0000E+00  0.0000E+00  0.1740E+00  0.1740E+00
     -3.763  0.0000E+00  0.0000E+00  0.1740E+00  0.1740E+00
     -3.724  0.0000E+00  0.0000E+00  0.1740E+00  0.1740E+00
     -3.685  0.0000E+00  0.0000E+00  0.1750E+00  0.1750E+00
     -3.645  0.0000E+00  0.0000E+00  0.1750E+00  0.1750E+00
     -3.606  0.0000E+00  0.0000E+00  0.1750E+00  0.1750E+00
     -3.566  0.0000E+00  0.0000E+00  0.1760E+00  0.1760E+00
     -3.527  0.0000E+00  0.0000E+00  0.1760E+00  0.1760E+00
     -3.488  0.0000E+00  0.0000E+00  0.1760E+00  0.1760E+00
     -3.448  0.0000E+00  0.0000E+00  0.1760E+00  0.1760E+00
     -3.409  0.0000E+00  0.0000E+00  0.1760E+00  0.1760E+00
     -3.370  0.0000E+00  0.0000E+00  0.1760E+00  0.1760E+00
     -3.330  0.0000E+00  0.0000E+00  0.1760E+00  0.1760E+00
     -3.291  0.0000E+00  0.0000E+00  0.1760E+00  0.1760E+00
     -3.251  0.0000E+00  0.0000E+00  0.1760E+00  0.1760E+00
     -3.212  0.0000E+00  0.0000E+00  0.1770E+00  0.1770E+00
     -3.173  0.0000E+00  0.0000E+00  0.1770E+00  0.1770E+00
     -3.133  0.0000E+00  0.0000E+00  0.1770E+00  0.1770E+00
     -3.094  0.0000E+00  0.0000E+00  0.1780E+00  0.1780E+00
     -3.054  0.0000E+00  0.0000E+00  0.1780E+00  0.1780E+00
     -3.015  0.0000E+00  0.0000E+00  0.1780E+00  0.1780E+00
     -2.976  0.0000E+00  0.0000E+00  0.1780E+00  0.1780E+00
     -2.936  0.0000E+00  0.0000E+00  0.1780E+00  0.1780E+00
     -2.897  0.0000E+00  0.0000E+00  0.1780E+00  0.1780E+00
     -2.857  0.0000E+00  0.0000E+00  0.1790E+00  0.1790E+00
     -2.818  0.0000E+00  0.0000E+00  0.1790E+00  0.1790E+00
     -2.779  0.0000E+00  0.0000E+00  0.1790E+00  0.1790E+00
     -2.739  0.0000E+00  0.0000E+00  0.1790E+00  0.1790E+00
     -2.700  0.0000E+00  0.0000E+00  0.1790E+00  0.1790E+00
     -2.661  0.0000E+00  0.0000E+00  0.1790E+00  0.1790E+00
     -2.621  0.0000E+00  0.0000E+00  0.1800E+00  0.1800E+00
     -2.582  0.0000E+00  0.0000E+00  0.1800E+00  0.1800E+00
     -2.542  0.0000E+00  0.0000E+00  0.1800E+00  0.1800E+00
     -2.503  0.0000E+00  0.0000E+00  0.1800E+00  0.1800E+00
     -2.464  0.0000E+00  0.0000E+00  0.1810E+00  0.1810E+00
     -2.424  0.0000E+00  0.0000E+00  0.1820E+00  0.1820E+00
     -2.385  0.0000E+00  0.0000E+00  0.1820E+00  0.1820E+00
     -2.345  0.0000E+00  0.0000E+00  0.1820E+00  0.1820E+00
     -2.306  0.0000E+00  0.0000E+00  0.1830E+00  0.1830E+00
     -2.267  0.0000E+00  0.0000E+00  0.1830E+00  0.1830E+00
     -2.227  0.0000E+00  0.0000E+00  0.1830E+00  0.1830E+00
     -2.188  0.0000E+00  0.0000E+00  0.1840E+00  0.1840E+00
     -2.148  0.0000E+00  0.0000E+00  0.1840E+00  0.1840E+00
     -2.109  0.0000E+00  0.0000E+00  0.1840E+00  0.1840E+00
     -2.070  0.0000E+00  0.0000E+00  0.1840E+00  0.1840E+00
     -2.030  0.0000E+00  0.0000E+00  0.1850E+00  0.1850E+00
     -1.991  0.0000E+00  0.0000E+00  0.1850E+00  0.1850E+00
     -1.952  0.0000E+00  0.0000E+00  0.1860E+00  0.1860E+00
     -1.912  0.0000E+00  0.0000E+00  0.1860E+00  0.1860E+00
     -1.873  0.0000E+00  0.0000E+00  0.1860E+00  0.1860E+00
     -1.833  0.0000E+00  0.0000E+00  0.1870E+00  0.1870E+00
     -1.794  0.0000E+00  0.0000E+00  0.1870E+00  0.1870E+00
     -1.755  0.0000E+00  0.0000E+00  0.1880E+00  0.1880E+00
     -1.715  0.0000E+00  0.0000E+00  0.1880E+00  0.1880E+00
     -1.676  0.0000E+00  0.0000E+00  0.1880E+00  0.1880E+00
     -1.636  0.0000E+00  0.0000E+00  0.1880E+00  0.1880E+00
     -1.597  0.0000E+00  0.0000E+00  0.1880E+00  0.1880E+00
     -1.558  0.0000E+00  0.0000E+00  0.1890E+00  0.1890E+00
     -1.518  0.0000E+00  0.0000E+00  0.1890E+00  0.1890E+00
     -1.479  0.0000E+00  0.0000E+00  0.1890E+00  0.1890E+00
     -1.439  0.0000E+00  0.0000E+00  0.1890E+00  0.1890E+00
     -1.400  0.0000E+00  0.0000E+00  0.1900E+00  0.1900E+00
     -1.361  0.0000E+00  0.0000E+00  0.1900E+00  0.1900E+00
     -1.321  0.0000E+00  0.0000E+00  0.1900E+00  0.1900E+00
     -1.282  0.0000E+00  0.0000E+00  0.1910E+00  0.1910E+00
     -1.243  0.0000E+00  0.0000E+00  0.1910E+00  0.1910E+00
     -1.203  0.0000E+00  0.0000E+00  0.1910E+00  0.1910E+00
     -1.164  0.0000E+00  0.0000E+00  0.1910E+00  0.1910E+00
     -1.124  0.0000E+00  0.0000E+00  0.1910E+00  0.1910E+00
     -1.085  0.0000E+00  0.0000E+00  0.1920E+00  0.1920E+00
     -1.046  0.0000E+00  0.0000E+00  0.1920E+00  0.1920E+00
     -1.006  0.0000E+00  0.0000E+00  0.1920E+00  0.1920E+00
     -0.967  0.0000E+00  0.0000E+00  0.1930E+00  0.1930E+00
     -0.927  0.0000E+00  0.0000E+00  0.1940E+00  0.1940E+00
     -0.888  0.0000E+00  0.0000E+00  0.1940E+00  0.1940E+00
     -0.849  0.0000E+00  0.0000E+00  0.1950E+00  0.1950E+00
     -0.809  0.0000E+00  0.0000E+00  0.1950E+00  0.1950E+00
     -0.770  0.0000E+00  0.0000E+00  0.1950E+00  0.1950E+00
     -0.730  0.0000E+00  0.0000E+00  0.1960E+00  0.1960E+00
     -0.691  0.0000E+00  0.0000E+00  0.1960E+00  0.1960E+00
     -0.652  0.0000E+00  0.0000E+00  0.1970E+00  0.1970E+00
     -0.612  0.0000E+00  0.0000E+00  0.1970E+00  0.1970E+00
     -0.573  0.0000E+00  0.0000E+00  0.1980E+00  0.1980E+00
     -0.534  0.0000E+00  0.0000E+00  0.1980E+00  0.1980E+00
     -0.494  0.0000E+00  0.0000E+00  0.1980E+00  0.1980E+00
     -0.455  0.0000E+00  0.0000E+00  0.1990E+00  0.1990E+00
     -0.415  0.0000E+00  0.0000E+00  0.2000E+00  0.2000E+00
     -0.376  0.0000E+00  0.0000E+00  0.2000E+00  0.2000E+00
     -0.337  0.0000E+00  0.0000E+00  0.2010E+00  0.2010E+00
     -0.297  0.0000E+00  0.0000E+00  0.2010E+00  0.2010E+00
     -0.258  0.0000E+00  0.0000E+00  0.2020E+00  0.2020E+00
     -0.218  0.0000E+00  0.0000E+00  0.2020E+00  0.2020E+00
     -0.179  0.0000E+00  0.0000E+00  0.2030E+00  0.2030E+00
     -0.140  0.0000E+00  0.0000E+00  0.2030E+00  0.2030E+00
     -0.100  0.0000E+00  0.0000E+00  0.2030E+00  0.2030E+00
     -0.061  0.0000E+00  0.0000E+00  0.2030E+00  0.2030E+00
     -0.021  0.0000E+00  0.0000E+00  0.2040E+00  0.2040E+00
      0.018  0.0000E+00  0.0000E+00  0.2040E+00  0.2040E+00
      0.057  0.0000E+00  0.0000E+00  0.2050E+00  0.2050E+00
      0.097  0.0000E+00  0.0000E+00  0.2050E+00  0.2050E+00
      0.136  0.0000E+00  0.0000E+00  0.2060E+00  0.2060E+00
      0.176  0.0000E+00  0.0000E+00  0.2060E+00  0.2060E+00
      0.215  0.0000E+00  0.0000E+00  0.2060E+00  0.2060E+00
      0.254  0.0000E+00  0.0000E+00  0.2060E+00  0.2060E+00
      0.294  0.0000E+00  0.0000E+00  0.2060E+00  0.2060E+00
      0.333  0.0000E+00  0.0000E+00  0.2060E+00  0.2060E+00
      0.372  0.0000E+00  0.0000E+00  0.2060E+00  0.2060E+00
      0.412  0.0000E+00  0.0000E+00  0.2070E+00  0.2070E+00
      0.451  0.0000E+00  0.0000E+00  0.2070E+00  0.2070E+00
      0.491  0.0000E+00  0.0000E+00  0.2080E+00  0.2080E+00
      0.530  0.0000E+00  0.0000E+00  0.2090E+00  0.2090E+00
      0.569  0.0000E+00  0.0000E+00  0.2090E+00  0.2090E+00
      0.609  0.0000E+00  0.0000E+00  0.2090E+00  0.2090E+00
      0.648  0.0000E+00  0.0000E+00  0.2090E+00  0.2090E+00
      0.688  0.0000E+00  0.0000E+00  0.2100E+00  0.2100E+00
      0.727  0.0000E+00  0.0000E+00  0.2120E+00  0.2120E+00
      0.766  0.0000E+00  0.0000E+00  0.2130E+00  0.2130E+00
      0.806  0.0000E+00  0.0000E+00  0.2140E+00  0.2140E+00
      0.845  0.0000E+00  0.0000E+00  0.2150E+00  0.2150E+00
      0.885  0.0000E+00  0.0000E+00  0.2160E+00  0.2160E+00
      0.924  0.0000E+00  0.0000E+00  0.2170E+00  0.2170E+00
      0.963  0.1798E-01  0.1938E-01  0.2187E+00  0.2188E+00
      1.003  0.0000E+00  0.0000E+00  0.2200E+00  0.2200E+00
      1.042  0.0000E+00  0.0000E+00  0.2210E+00  0.2210E+00
      1.081  0.0000E+00  0.0000E+00  0.2240E+00  0.2240E+00
      1.121  0.0000E+00  0.0000E+00  0.2260E+00  0.2260E+00
      1.160  0.0000E+00  0.0000E+00  0.2270E+00  0.2270E+00
      1.200  0.0000E+00  0.0000E+00  0.2280E+00  0.2280E+00
      1.239  0.0000E+00  0.0000E+00  0.2280E+00  0.2280E+00
      1.278  0.0000E+00  0.0000E+00  0.2280E+00  0.2280E+00
      1.318  0.0000E+00  0.0000E+00  0.2280E+00  0.2280E+00
      1.357  0.0000E+00  0.0000E+00  0.2280E+00  0.2280E+00
      1.397  0.0000E+00  0.0000E+00  0.2280E+00  0.2280E+00
      1.436  0.0000E+00  0.0000E+00  0.2280E+00  0.2280E+00
      1.475  0.0000E+00  0.0000E+00  0.2280E+00  0.2280E+00
      1.515  0.0000E+00  0.0000E+00  0.2280E+00  0.2280E+00
      1.554  0.0000E+00  0.0000E+00  0.2280E+00  0.2280E+00
      1.594  0.0000E+00  0.0000E+00  0.2280E+00  0.2280E+00
      1.633  0.0000E+00  0.0000E+00  0.2280E+00  0.2280E+00
      1.672  0.0000E+00  0.0000E+00  0.2280E+00  0.2280E+00
      1.712  0.0000E+00  0.0000E+00  0.2280E+00  0.2280E+00
