   41   41 1000    2
  0.2706670E+03  0.2230521E-08  0.2230521E-08  0.2230521E-08  0.1000000E-15
  1.000000000000000E-004
  CAR 
 unknown system                          
    451      1    292
 
  0.0000000E+00  0.0000000E+00  0.0000000E+00  0.1000000E+01
    1       -9.771650     -9.749416
    2       -9.256843     -9.241764
    3       -9.192862     -9.185486
    4       -9.152504     -9.139742
    5       -9.068793     -9.053289
    6       -9.031268     -9.020322
    7       -9.005342     -8.995051
    8       -9.002258     -8.989475
    9       -8.961807     -8.951802
   10       -8.952830     -8.940389
   11       -8.927238     -8.913850
   12       -8.896483     -8.885499
   13       -8.872124     -8.860003
   14       -8.812432     -8.803912
   15       -8.790001     -8.781629
   16       -8.770072     -8.760437
   17       -8.752910     -8.743777
   18       -8.726158     -8.719465
   19       -8.696263     -8.688347
   20       -8.669919     -8.661519
   21       -8.657301     -8.646342
   22       -8.642452     -8.632160
   23       -8.637153     -8.628812
   24       -8.597313     -8.588640
   25       -8.586566     -8.579240
   26       -8.572255     -8.564867
   27       -8.558614     -8.551331
   28       -8.549913     -8.539520
   29       -8.529369     -8.521551
   30       -8.521711     -8.514059
   31       -8.514761     -8.505188
   32       -8.501386     -8.493376
   33       -8.480812     -8.474859
   34       -8.435340     -8.428112
   35       -8.413831     -8.404164
   36       -8.409337     -8.401456
   37       -8.386332     -8.379424
   38       -8.356071     -8.348536
   39       -8.349195     -8.343373
   40       -8.333570     -8.326711
   41       -8.317357     -8.310282
   42       -8.295985     -8.287941
   43       -8.278549     -8.269659
   44       -8.270851     -8.262614
   45       -8.247878     -8.239771
   46       -8.223044     -8.216207
   47       -8.212573     -8.204902
   48       -8.204052     -8.195465
   49       -8.190009     -8.181541
   50       -8.172770     -8.165471
   51       -8.169640     -8.161612
   52       -8.146496     -8.139292
   53       -8.125858     -8.118696
   54       -8.122168     -8.112477
   55       -8.111160     -8.102311
   56       -8.099702     -8.091510
   57       -8.075127     -8.066522
   58       -8.063509     -8.055890
   59       -8.046165     -8.038917
   60       -8.033865     -8.024779
   61       -7.993080     -7.983673
   62       -7.984526     -7.977981
   63       -7.977661     -7.969813
   64       -7.965097     -7.959090
   65       -7.933818     -7.927087
   66       -7.927296     -7.920984
   67       -7.907839     -7.901795
   68       -7.890294     -7.883354
   69       -7.872394     -7.865257
   70       -7.863310     -7.855921
   71       -7.854760     -7.846778
   72       -7.835737     -7.829163
   73       -7.822399     -7.815943
   74       -7.801088     -7.794476
   75       -7.777667     -7.771619
   76       -7.765311     -7.759567
   77       -7.743397     -7.736966
   78       -7.721864     -7.715723
   79       -7.713582     -7.707774
   80       -7.684734     -7.678295
   81       -7.676498     -7.669456
   82       -7.662245     -7.655711
   83       -7.656916     -7.649562
   84       -7.641812     -7.635687
   85       -7.634723     -7.628460
   86       -7.611861     -7.604258
   87       -7.591660     -7.584735
   88       -7.584778     -7.578665
   89       -7.563575     -7.557754
   90       -7.541460     -7.533660
   91       -7.534937     -7.527672
   92       -7.515552     -7.507934
   93       -7.512634     -7.502841
   94       -7.502364     -7.496422
   95       -7.485161     -7.477933
   96       -7.461052     -7.453725
   97       -7.452131     -7.445172
   98       -7.426671     -7.420791
   99       -7.408278     -7.401989
  100       -7.395534     -7.389714
  101       -7.384275     -7.377170
  102       -7.380870     -7.373216
  103       -7.348215     -7.343252
  104       -7.337436     -7.330017
  105       -7.305870     -7.298399
  106       -7.296851     -7.291504
  107       -7.282637     -7.275605
  108       -7.268852     -7.263045
  109       -7.260752     -7.253600
  110       -7.223723     -7.216418
  111       -7.220187     -7.214073
  112       -7.206560     -7.200231
  113       -7.192767     -7.187047
  114       -7.175673     -7.170500
  115       -7.165946     -7.159000
  116       -7.149406     -7.142755
  117       -7.134267     -7.125921
  118       -7.119775     -7.112763
  119       -7.109945     -7.104061
  120       -7.098190     -7.090324
  121       -7.090706     -7.085401
  122       -7.081209     -7.074392
  123       -7.059182     -7.052326
  124       -7.054458     -7.047502
  125       -7.032904     -7.026351
  126       -7.011199     -7.004360
  127       -7.002924     -6.996055
  128       -6.990987     -6.983955
  129       -6.965888     -6.959016
  130       -6.958691     -6.952209
  131       -6.945148     -6.938329
  132       -6.923483     -6.918625
  133       -6.911565     -6.904750
  134       -6.897967     -6.892306
  135       -6.884079     -6.877378
  136       -6.878715     -6.872180
  137       -6.860410     -6.853831
  138       -6.853101     -6.846710
  139       -6.842564     -6.835553
  140       -6.838802     -6.832885
  141       -6.829976     -6.825012
  142       -6.818850     -6.813023
  143       -6.816574     -6.811324
  144       -6.808846     -6.801646
  145       -6.796759     -6.789776
  146       -6.795240     -6.787694
  147       -6.772337     -6.766723
  148       -6.763591     -6.758725
  149       -6.761803     -6.755742
  150       -6.739666     -6.733921
  151       -6.738792     -6.730827
  152       -6.725370     -6.718605
  153       -6.711568     -6.706754
  154       -6.708816     -6.701860
  155       -6.693916     -6.688408
  156       -6.686973     -6.679599
  157       -6.675452     -6.669273
  158       -6.663004     -6.656299
  159       -6.656514     -6.649533
  160       -6.651878     -6.645281
  161       -6.633791     -6.627728
  162       -6.629127     -6.622680
  163       -6.623137     -6.614247
  164       -6.617966     -6.611019
  165       -6.606741     -6.598990
  166       -6.596983     -6.590657
  167       -6.590175     -6.583945
  168       -6.582655     -6.576168
  169       -6.575081     -6.566945
  170       -6.563407     -6.557055
  171       -6.553361     -6.545068
  172       -6.540265     -6.533321
  173       -6.528079     -6.520421
  174       -6.525788     -6.519039
  175       -6.508863     -6.500285
  176       -6.494379     -6.487353
  177       -6.485818     -6.479703
  178       -6.476016     -6.470973
  179       -6.465328     -6.458724
  180       -6.456413     -6.449409
  181       -6.451137     -6.445732
  182       -6.431164     -6.424671
  183       -6.424739     -6.417740
  184       -6.419816     -6.413382
  185       -6.399862     -6.394426
  186       -6.392335     -6.384621
  187       -6.379631     -6.373212
  188       -6.374251     -6.365068
  189       -6.367837     -6.361762
  190       -6.360017     -6.353270
  191       -6.344735     -6.339386
  192       -6.324810     -6.319029
  193       -6.318350     -6.312845
  194       -6.307537     -6.302239
  195       -6.302383     -6.294104
  196       -6.289470     -6.283455
  197       -6.280885     -6.274912
  198       -6.267911     -6.260745
  199       -6.251359     -6.243931
  200       -6.239827     -6.233718
  201       -6.231322     -6.225219
  202       -6.216240     -6.211775
  203       -6.193749     -6.187011
  204       -6.186271     -6.181507
  205       -6.166736     -6.162770
  206       -6.157788     -6.148971
  207       -6.136236     -6.131200
  208       -6.125346     -6.119786
  209       -6.113360     -6.108056
  210       -6.076762     -6.069568
  211       -5.819379     -5.806861
  212       -5.796924     -5.785711
  213       -5.677212     -5.656650
  214       -5.608702     -5.593022
  215       -5.277014     -5.253709
  216       -5.069544     -5.048142
  217       -4.582903     -4.559803
  218       -4.566108     -4.548075
  219       -4.428560     -4.410972
  220       -4.339167     -4.319593
  221       -4.178275     -4.160185
  222       -4.067305     -4.047098
  223       -3.817676     -3.801987
  224       -3.642234     -3.621517
  225       -3.413256     -3.393636
  226       -3.304029     -3.214345
  227       -2.958493     -2.943950
  228       -2.836946     -2.811970
  229       -2.663312     -2.643616
  230       -2.638857     -2.624029
  231       -2.595750     -2.574278
  232       -2.482824     -2.465913
  233       -2.421168     -2.396928
  234       -2.380902     -2.351218
  235       -2.232189     -2.216181
  236       -2.089374     -2.071700
  237       -1.909218     -1.886867
  238       -1.810818     -1.779618
  239       -1.785553     -1.742544
  240       -1.738783     -1.697701
  241       -1.696932     -1.641576
  242       -1.318839     -1.292992
  243       -1.249443     -1.232788
  244       -1.136762     -1.114379
  245       -1.062166     -1.041926
  246       -0.982250     -0.966990
  247       -0.802832     -0.783816
  248       -0.783782     -0.768804
  249       -0.755999     -0.731699
  250       -0.656556     -0.631681
  251       -0.638364     -0.607695
  252       -0.545861     -0.519532
  253       -0.485302     -0.447655
  254       -0.412759     -0.388405
  255       -0.357024     -0.333670
  256       -0.240546     -0.215086
  257       -0.140336     -0.118370
  258       -0.079506     -0.058143
  259        0.048657      0.091808
  260        0.107789      0.130234
  261        0.146004      0.163230
  262        0.203560      0.246668
  263        0.319836      0.362622
  264        0.457338      0.517837
  265        0.612771      0.626810
  266        0.631077      0.642935
  267        0.750361      0.775689
  268        0.782322      0.802948
  269        0.802058      0.825397
  270        0.818366      0.837575
  271        0.864988      0.892749
  272        0.941914      0.953324
  273        0.949895      0.974527
  274        0.982974      0.994835
  275        1.023267      1.042024
  276        1.061840      1.091165
  277        1.077185      1.101249
  278        1.105926      1.121980
  279        1.131054      1.134476
  280        1.140977      1.149702
  281        1.167185      1.184414
  282        1.179722      1.187549
  283        1.188387      1.214460
  284        1.202455      1.217337
  285        1.228191      1.238476
  286        1.250629      1.272512
  287        1.274145      1.293528
  288        1.330876      1.352771
  289        1.337062      1.359035
  290        1.380392      1.398896
  291        1.399855      1.420226
  292        1.429091      1.429170
