  51  51   0   0
  0.3302525E+03  0.2563335E-08  0.2563335E-08  0.2563335E-08  0.1000000E-15
  1.000000000000000E-004
  CAR 
 unknown system                          
      1.85144234    -10.54267567  301     -3.46769997      1.00000000
    -10.543  0.0000E+00  0.0000E+00  0.0000E+00  0.0000E+00
    -10.501  0.0000E+00  0.0000E+00  0.0000E+00  0.0000E+00
    -10.460  0.0000E+00  0.0000E+00  0.0000E+00  0.0000E+00
    -10.419  0.0000E+00  0.0000E+00  0.0000E+00  0.0000E+00
    -10.377  0.0000E+00  0.0000E+00  0.0000E+00  0.0000E+00
    -10.336  0.0000E+00  0.0000E+00  0.0000E+00  0.0000E+00
    -10.295  0.0000E+00  0.0000E+00  0.0000E+00  0.0000E+00
    -10.253  0.0000E+00  0.0000E+00  0.0000E+00  0.0000E+00
    -10.212  0.0000E+00  0.0000E+00  0.0000E+00  0.0000E+00
    -10.171  0.0000E+00  0.0000E+00  0.0000E+00  0.0000E+00
    -10.130  0.0000E+00  0.0000E+00  0.0000E+00  0.0000E+00
    -10.088  0.0000E+00  0.0000E+00  0.0000E+00  0.0000E+00
    -10.047  0.0000E+00  0.0000E+00  0.0000E+00  0.0000E+00
    -10.006  0.0000E+00  0.0000E+00  0.0000E+00  0.0000E+00
     -9.964  0.0000E+00  0.0000E+00  0.1000E-02  0.1000E-02
     -9.923  0.0000E+00  0.0000E+00  0.1000E-02  0.1000E-02
     -9.882  0.0000E+00  0.0000E+00  0.1000E-02  0.1000E-02
     -9.840  0.0000E+00  0.0000E+00  0.1000E-02  0.1000E-02
     -9.799  0.0000E+00  0.0000E+00  0.1000E-02  0.1000E-02
     -9.758  0.0000E+00  0.0000E+00  0.1000E-02  0.1000E-02
     -9.716  0.0000E+00  0.0000E+00  0.1000E-02  0.1000E-02
     -9.675  0.0000E+00  0.0000E+00  0.1000E-02  0.1000E-02
     -9.634  0.0000E+00  0.0000E+00  0.1000E-02  0.1000E-02
     -9.592  0.0000E+00  0.0000E+00  0.1000E-02  0.1000E-02
     -9.551  0.0000E+00  0.0000E+00  0.1000E-02  0.1000E-02
     -9.510  0.0000E+00  0.0000E+00  0.1000E-02  0.1000E-02
     -9.469  0.0000E+00  0.0000E+00  0.1000E-02  0.1000E-02
     -9.427  0.0000E+00  0.0000E+00  0.1000E-02  0.1000E-02
     -9.386  0.0000E+00  0.0000E+00  0.2000E-02  0.2000E-02
     -9.345  0.0000E+00  0.0000E+00  0.3000E-02  0.3000E-02
     -9.303  0.0000E+00  0.0000E+00  0.4000E-02  0.4000E-02
     -9.262  0.0000E+00  0.0000E+00  0.4000E-02  0.4000E-02
     -9.221  0.0000E+00  0.0000E+00  0.5000E-02  0.5000E-02
     -9.179  0.0000E+00  0.0000E+00  0.8000E-02  0.8000E-02
     -9.138  0.0000E+00  0.0000E+00  0.1000E-01  0.1000E-01
     -9.097  0.0000E+00  0.0000E+00  0.1200E-01  0.1100E-01
     -9.055  0.0000E+00  0.0000E+00  0.1300E-01  0.1300E-01
     -9.014  0.0000E+00  0.0000E+00  0.1500E-01  0.1400E-01
     -8.973  0.0000E+00  0.0000E+00  0.1700E-01  0.1600E-01
     -8.931  0.0000E+00  0.0000E+00  0.2000E-01  0.1900E-01
     -8.890  0.0000E+00  0.0000E+00  0.2400E-01  0.2300E-01
     -8.849  0.0000E+00  0.0000E+00  0.2700E-01  0.2700E-01
     -8.807  0.0000E+00  0.0000E+00  0.3000E-01  0.3000E-01
     -8.766  0.2421E-01  0.0000E+00  0.3300E-01  0.3200E-01
     -8.725  0.0000E+00  0.0000E+00  0.3500E-01  0.3400E-01
     -8.684  0.2026E-03  0.0000E+00  0.3701E-01  0.3700E-01
     -8.642  0.0000E+00  0.2415E-01  0.4100E-01  0.4100E-01
     -8.601  0.0000E+00  0.0000E+00  0.4200E-01  0.4200E-01
     -8.560  0.0000E+00  0.0000E+00  0.4700E-01  0.4600E-01
     -8.518  0.0000E+00  0.0000E+00  0.4900E-01  0.4900E-01
     -8.477  0.0000E+00  0.0000E+00  0.5300E-01  0.5200E-01
     -8.436  0.0000E+00  0.0000E+00  0.5600E-01  0.5600E-01
     -8.394  0.0000E+00  0.0000E+00  0.5800E-01  0.5800E-01
     -8.353  0.0000E+00  0.0000E+00  0.6100E-01  0.6100E-01
     -8.312  0.0000E+00  0.2421E-01  0.6500E-01  0.6500E-01
     -8.270  0.0000E+00  0.2420E-01  0.6900E-01  0.6900E-01
     -8.229  0.0000E+00  0.0000E+00  0.7200E-01  0.7200E-01
     -8.188  0.2421E-01  0.0000E+00  0.7600E-01  0.7500E-01
     -8.146  0.0000E+00  0.0000E+00  0.7800E-01  0.7800E-01
     -8.105  0.0000E+00  0.0000E+00  0.8200E-01  0.8100E-01
     -8.064  0.0000E+00  0.2421E-01  0.8700E-01  0.8700E-01
     -8.023  0.0000E+00  0.0000E+00  0.8900E-01  0.8900E-01
     -7.981  0.0000E+00  0.0000E+00  0.9300E-01  0.9200E-01
     -7.940  0.0000E+00  0.0000E+00  0.9500E-01  0.9400E-01
     -7.899  0.0000E+00  0.0000E+00  0.9800E-01  0.9700E-01
     -7.857  0.0000E+00  0.0000E+00  0.1020E+00  0.1020E+00
     -7.816  0.0000E+00  0.0000E+00  0.1060E+00  0.1050E+00
     -7.775  0.0000E+00  0.0000E+00  0.1090E+00  0.1080E+00
     -7.733  0.0000E+00  0.0000E+00  0.1120E+00  0.1120E+00
     -7.692  0.0000E+00  0.0000E+00  0.1160E+00  0.1150E+00
     -7.651  0.0000E+00  0.0000E+00  0.1200E+00  0.1190E+00
     -7.609  0.0000E+00  0.0000E+00  0.1240E+00  0.1240E+00
     -7.568  0.0000E+00  0.0000E+00  0.1280E+00  0.1270E+00
     -7.527  0.0000E+00  0.0000E+00  0.1300E+00  0.1300E+00
     -7.485  0.0000E+00  0.0000E+00  0.1340E+00  0.1330E+00
     -7.444  0.0000E+00  0.0000E+00  0.1360E+00  0.1360E+00
     -7.403  0.0000E+00  0.0000E+00  0.1390E+00  0.1390E+00
     -7.362  0.9058E-03  0.0000E+00  0.1430E+00  0.1430E+00
     -7.320  0.0000E+00  0.0000E+00  0.1460E+00  0.1460E+00
     -7.279  0.2421E-01  0.0000E+00  0.1510E+00  0.1500E+00
     -7.238  0.0000E+00  0.0000E+00  0.1530E+00  0.1530E+00
     -7.196  0.0000E+00  0.2421E-01  0.1580E+00  0.1580E+00
     -7.155  0.0000E+00  0.0000E+00  0.1620E+00  0.1620E+00
     -7.114  0.0000E+00  0.0000E+00  0.1660E+00  0.1660E+00
     -7.072  0.0000E+00  0.0000E+00  0.1710E+00  0.1710E+00
     -7.031  0.0000E+00  0.0000E+00  0.1740E+00  0.1730E+00
     -6.990  0.0000E+00  0.0000E+00  0.1800E+00  0.1800E+00
     -6.948  0.0000E+00  0.0000E+00  0.1850E+00  0.1850E+00
     -6.907  0.5006E-06  0.0000E+00  0.1880E+00  0.1880E+00
     -6.866  0.2415E-01  0.3871E-05  0.1950E+00  0.1930E+00
     -6.824  0.2048E-04  0.0000E+00  0.1990E+00  0.1990E+00
     -6.783  0.0000E+00  0.0000E+00  0.2040E+00  0.2040E+00
     -6.742  0.0000E+00  0.2384E-01  0.2090E+00  0.2090E+00
     -6.700  0.0000E+00  0.0000E+00  0.2150E+00  0.2140E+00
     -6.659  0.0000E+00  0.0000E+00  0.2190E+00  0.2190E+00
     -6.618  0.0000E+00  0.2421E-01  0.2240E+00  0.2240E+00
     -6.577  0.0000E+00  0.0000E+00  0.2300E+00  0.2300E+00
     -6.535  0.2424E-01  0.0000E+00  0.2340E+00  0.2330E+00
     -6.494  0.0000E+00  0.0000E+00  0.2400E+00  0.2400E+00
     -6.453  0.0000E+00  0.0000E+00  0.2450E+00  0.2440E+00
     -6.411  0.0000E+00  0.0000E+00  0.2490E+00  0.2480E+00
     -6.370  0.0000E+00  0.0000E+00  0.2520E+00  0.2510E+00
     -6.329  0.0000E+00  0.0000E+00  0.2550E+00  0.2550E+00
     -6.287  0.0000E+00  0.0000E+00  0.2590E+00  0.2580E+00
     -6.246  0.0000E+00  0.0000E+00  0.2610E+00  0.2610E+00
     -6.205  0.0000E+00  0.0000E+00  0.2610E+00  0.2610E+00
     -6.163  0.0000E+00  0.0000E+00  0.2620E+00  0.2620E+00
     -6.122  0.0000E+00  0.0000E+00  0.2620E+00  0.2620E+00
     -6.081  0.0000E+00  0.0000E+00  0.2620E+00  0.2620E+00
     -6.039  0.0000E+00  0.0000E+00  0.2630E+00  0.2630E+00
     -5.998  0.0000E+00  0.0000E+00  0.2640E+00  0.2640E+00
     -5.957  0.0000E+00  0.0000E+00  0.2640E+00  0.2640E+00
     -5.916  0.0000E+00  0.0000E+00  0.2640E+00  0.2640E+00
     -5.874  0.0000E+00  0.0000E+00  0.2640E+00  0.2640E+00
     -5.833  0.0000E+00  0.0000E+00  0.2640E+00  0.2640E+00
     -5.792  0.0000E+00  0.0000E+00  0.2650E+00  0.2650E+00
     -5.750  0.0000E+00  0.0000E+00  0.2650E+00  0.2650E+00
     -5.709  0.0000E+00  0.0000E+00  0.2650E+00  0.2650E+00
     -5.668  0.0000E+00  0.0000E+00  0.2650E+00  0.2650E+00
     -5.626  0.0000E+00  0.0000E+00  0.2660E+00  0.2650E+00
     -5.585  0.0000E+00  0.0000E+00  0.2660E+00  0.2660E+00
     -5.544  0.0000E+00  0.0000E+00  0.2660E+00  0.2660E+00
     -5.502  0.0000E+00  0.0000E+00  0.2670E+00  0.2660E+00
     -5.461  0.0000E+00  0.0000E+00  0.2670E+00  0.2670E+00
     -5.420  0.0000E+00  0.0000E+00  0.2670E+00  0.2670E+00
     -5.378  0.0000E+00  0.0000E+00  0.2670E+00  0.2670E+00
     -5.337  0.0000E+00  0.0000E+00  0.2670E+00  0.2670E+00
     -5.296  0.0000E+00  0.0000E+00  0.2670E+00  0.2670E+00
     -5.255  0.0000E+00  0.0000E+00  0.2670E+00  0.2670E+00
     -5.213  0.0000E+00  0.0000E+00  0.2680E+00  0.2680E+00
     -5.172  0.0000E+00  0.0000E+00  0.2680E+00  0.2680E+00
     -5.131  0.0000E+00  0.0000E+00  0.2680E+00  0.2680E+00
     -5.089  0.0000E+00  0.0000E+00  0.2690E+00  0.2680E+00
     -5.048  0.0000E+00  0.0000E+00  0.2690E+00  0.2690E+00
     -5.007  0.0000E+00  0.0000E+00  0.2690E+00  0.2690E+00
     -4.965  0.0000E+00  0.0000E+00  0.2700E+00  0.2700E+00
     -4.924  0.0000E+00  0.0000E+00  0.2700E+00  0.2700E+00
     -4.883  0.0000E+00  0.0000E+00  0.2710E+00  0.2710E+00
     -4.841  0.0000E+00  0.0000E+00  0.2710E+00  0.2710E+00
     -4.800  0.0000E+00  0.0000E+00  0.2710E+00  0.2710E+00
     -4.759  0.0000E+00  0.1496E-11  0.2720E+00  0.2710E+00
     -4.717  0.0000E+00  0.0000E+00  0.2720E+00  0.2720E+00
     -4.676  0.0000E+00  0.0000E+00  0.2720E+00  0.2720E+00
     -4.635  0.0000E+00  0.0000E+00  0.2720E+00  0.2720E+00
     -4.593  0.0000E+00  0.0000E+00  0.2730E+00  0.2720E+00
     -4.552  0.0000E+00  0.0000E+00  0.2730E+00  0.2730E+00
     -4.511  0.0000E+00  0.0000E+00  0.2730E+00  0.2730E+00
     -4.470  0.0000E+00  0.0000E+00  0.2730E+00  0.2730E+00
     -4.428  0.0000E+00  0.0000E+00  0.2740E+00  0.2740E+00
     -4.387  0.0000E+00  0.0000E+00  0.2740E+00  0.2740E+00
     -4.346  0.0000E+00  0.0000E+00  0.2740E+00  0.2740E+00
     -4.304  0.0000E+00  0.0000E+00  0.2740E+00  0.2740E+00
     -4.263  0.0000E+00  0.0000E+00  0.2740E+00  0.2740E+00
     -4.222  0.0000E+00  0.0000E+00  0.2750E+00  0.2750E+00
     -4.180  0.0000E+00  0.0000E+00  0.2750E+00  0.2750E+00
     -4.139  0.0000E+00  0.0000E+00  0.2750E+00  0.2750E+00
     -4.098  0.0000E+00  0.0000E+00  0.2750E+00  0.2750E+00
     -4.056  0.0000E+00  0.0000E+00  0.2750E+00  0.2750E+00
     -4.015  0.0000E+00  0.0000E+00  0.2750E+00  0.2750E+00
     -3.974  0.0000E+00  0.0000E+00  0.2750E+00  0.2750E+00
     -3.932  0.0000E+00  0.0000E+00  0.2750E+00  0.2750E+00
     -3.891  0.0000E+00  0.0000E+00  0.2750E+00  0.2750E+00
     -3.850  0.0000E+00  0.0000E+00  0.2760E+00  0.2760E+00
     -3.809  0.0000E+00  0.0000E+00  0.2770E+00  0.2760E+00
     -3.767  0.0000E+00  0.0000E+00  0.2770E+00  0.2770E+00
     -3.726  0.0000E+00  0.0000E+00  0.2780E+00  0.2780E+00
     -3.685  0.0000E+00  0.0000E+00  0.2790E+00  0.2780E+00
     -3.643  0.0000E+00  0.0000E+00  0.2790E+00  0.2790E+00
     -3.602  0.0000E+00  0.0000E+00  0.2790E+00  0.2790E+00
     -3.561  0.0000E+00  0.0000E+00  0.2790E+00  0.2790E+00
     -3.519  0.0000E+00  0.0000E+00  0.2800E+00  0.2800E+00
     -3.478  0.0000E+00  0.0000E+00  0.2810E+00  0.2800E+00
     -3.437  0.0000E+00  0.0000E+00  0.2810E+00  0.2800E+00
     -3.395  0.0000E+00  0.0000E+00  0.2810E+00  0.2810E+00
     -3.354  0.0000E+00  0.0000E+00  0.2820E+00  0.2820E+00
     -3.313  0.0000E+00  0.0000E+00  0.2820E+00  0.2820E+00
     -3.271  0.0000E+00  0.0000E+00  0.2820E+00  0.2820E+00
     -3.230  0.0000E+00  0.0000E+00  0.2830E+00  0.2820E+00
     -3.189  0.0000E+00  0.0000E+00  0.2840E+00  0.2830E+00
     -3.148  0.0000E+00  0.0000E+00  0.2850E+00  0.2850E+00
     -3.106  0.0000E+00  0.0000E+00  0.2850E+00  0.2850E+00
     -3.065  0.0000E+00  0.0000E+00  0.2850E+00  0.2850E+00
     -3.024  0.0000E+00  0.0000E+00  0.2850E+00  0.2850E+00
     -2.982  0.0000E+00  0.0000E+00  0.2850E+00  0.2850E+00
     -2.941  0.0000E+00  0.0000E+00  0.2850E+00  0.2850E+00
     -2.900  0.0000E+00  0.0000E+00  0.2850E+00  0.2850E+00
     -2.858  0.0000E+00  0.0000E+00  0.2860E+00  0.2860E+00
     -2.817  0.0000E+00  0.0000E+00  0.2870E+00  0.2870E+00
     -2.776  0.0000E+00  0.0000E+00  0.2870E+00  0.2870E+00
     -2.734  0.0000E+00  0.0000E+00  0.2870E+00  0.2870E+00
     -2.693  0.0000E+00  0.0000E+00  0.2870E+00  0.2870E+00
     -2.652  0.0000E+00  0.0000E+00  0.2880E+00  0.2870E+00
     -2.610  0.0000E+00  0.0000E+00  0.2880E+00  0.2880E+00
     -2.569  0.0000E+00  0.0000E+00  0.2880E+00  0.2880E+00
     -2.528  0.0000E+00  0.0000E+00  0.2890E+00  0.2880E+00
     -2.486  0.1312E-10  0.0000E+00  0.2890E+00  0.2890E+00
     -2.445  0.0000E+00  0.0000E+00  0.2900E+00  0.2900E+00
     -2.404  0.0000E+00  0.0000E+00  0.2900E+00  0.2900E+00
     -2.363  0.0000E+00  0.0000E+00  0.2900E+00  0.2900E+00
     -2.321  0.0000E+00  0.0000E+00  0.2910E+00  0.2900E+00
     -2.280  0.0000E+00  0.0000E+00  0.2920E+00  0.2910E+00
     -2.239  0.0000E+00  0.0000E+00  0.2920E+00  0.2920E+00
     -2.197  0.0000E+00  0.0000E+00  0.2920E+00  0.2920E+00
     -2.156  0.0000E+00  0.0000E+00  0.2920E+00  0.2920E+00
     -2.115  0.0000E+00  0.0000E+00  0.2930E+00  0.2930E+00
     -2.073  0.0000E+00  0.0000E+00  0.2930E+00  0.2930E+00
     -2.032  0.3812E-06  0.0000E+00  0.2940E+00  0.2940E+00
     -1.991  0.0000E+00  0.2421E-01  0.2960E+00  0.2960E+00
     -1.949  0.0000E+00  0.0000E+00  0.2960E+00  0.2960E+00
     -1.908  0.0000E+00  0.0000E+00  0.2960E+00  0.2960E+00
     -1.867  0.0000E+00  0.0000E+00  0.2960E+00  0.2960E+00
     -1.825  0.0000E+00  0.0000E+00  0.2970E+00  0.2970E+00
     -1.784  0.0000E+00  0.0000E+00  0.2980E+00  0.2980E+00
     -1.743  0.0000E+00  0.0000E+00  0.2990E+00  0.2990E+00
     -1.702  0.0000E+00  0.0000E+00  0.2990E+00  0.2990E+00
     -1.660  0.0000E+00  0.0000E+00  0.3000E+00  0.2990E+00
     -1.619  0.0000E+00  0.0000E+00  0.3000E+00  0.3000E+00
     -1.578  0.0000E+00  0.0000E+00  0.3010E+00  0.3000E+00
     -1.536  0.0000E+00  0.0000E+00  0.3010E+00  0.3010E+00
     -1.495  0.0000E+00  0.0000E+00  0.3020E+00  0.3010E+00
     -1.454  0.0000E+00  0.0000E+00  0.3020E+00  0.3020E+00
     -1.412  0.0000E+00  0.0000E+00  0.3030E+00  0.3030E+00
     -1.371  0.0000E+00  0.0000E+00  0.3040E+00  0.3030E+00
     -1.330  0.0000E+00  0.0000E+00  0.3040E+00  0.3040E+00
     -1.288  0.0000E+00  0.0000E+00  0.3040E+00  0.3040E+00
     -1.247  0.0000E+00  0.0000E+00  0.3050E+00  0.3050E+00
     -1.206  0.0000E+00  0.0000E+00  0.3050E+00  0.3050E+00
     -1.164  0.0000E+00  0.0000E+00  0.3060E+00  0.3060E+00
     -1.123  0.0000E+00  0.0000E+00  0.3060E+00  0.3060E+00
     -1.082  0.0000E+00  0.0000E+00  0.3070E+00  0.3060E+00
     -1.041  0.0000E+00  0.0000E+00  0.3070E+00  0.3070E+00
     -0.999  0.0000E+00  0.0000E+00  0.3070E+00  0.3070E+00
     -0.958  0.0000E+00  0.0000E+00  0.3070E+00  0.3070E+00
     -0.917  0.0000E+00  0.0000E+00  0.3080E+00  0.3080E+00
     -0.875  0.0000E+00  0.0000E+00  0.3090E+00  0.3080E+00
     -0.834  0.0000E+00  0.0000E+00  0.3100E+00  0.3090E+00
     -0.793  0.0000E+00  0.0000E+00  0.3100E+00  0.3100E+00
     -0.751  0.0000E+00  0.0000E+00  0.3100E+00  0.3100E+00
     -0.710  0.0000E+00  0.0000E+00  0.3110E+00  0.3100E+00
     -0.669  0.0000E+00  0.0000E+00  0.3120E+00  0.3110E+00
     -0.627  0.0000E+00  0.0000E+00  0.3120E+00  0.3120E+00
     -0.586  0.0000E+00  0.0000E+00  0.3130E+00  0.3130E+00
     -0.545  0.0000E+00  0.0000E+00  0.3140E+00  0.3130E+00
     -0.503  0.0000E+00  0.0000E+00  0.3140E+00  0.3140E+00
     -0.462  0.0000E+00  0.0000E+00  0.3140E+00  0.3140E+00
     -0.421  0.0000E+00  0.0000E+00  0.3150E+00  0.3150E+00
     -0.379  0.0000E+00  0.0000E+00  0.3170E+00  0.3160E+00
     -0.338  0.0000E+00  0.0000E+00  0.3170E+00  0.3170E+00
     -0.297  0.0000E+00  0.0000E+00  0.3170E+00  0.3170E+00
     -0.256  0.0000E+00  0.0000E+00  0.3180E+00  0.3180E+00
     -0.214  0.0000E+00  0.0000E+00  0.3190E+00  0.3180E+00
     -0.173  0.0000E+00  0.0000E+00  0.3200E+00  0.3200E+00
     -0.132  0.0000E+00  0.0000E+00  0.3200E+00  0.3200E+00
     -0.090  0.0000E+00  0.0000E+00  0.3200E+00  0.3200E+00
     -0.049  0.0000E+00  0.0000E+00  0.3210E+00  0.3200E+00
     -0.008  0.0000E+00  0.0000E+00  0.3220E+00  0.3210E+00
      0.034  0.0000E+00  0.0000E+00  0.3230E+00  0.3220E+00
      0.075  0.0000E+00  0.0000E+00  0.3230E+00  0.3230E+00
      0.116  0.0000E+00  0.0000E+00  0.3240E+00  0.3240E+00
      0.158  0.0000E+00  0.0000E+00  0.3250E+00  0.3250E+00
      0.199  0.0000E+00  0.0000E+00  0.3250E+00  0.3250E+00
      0.240  0.0000E+00  0.0000E+00  0.3250E+00  0.3250E+00
      0.282  0.0000E+00  0.0000E+00  0.3250E+00  0.3250E+00
      0.323  0.0000E+00  0.0000E+00  0.3260E+00  0.3250E+00
      0.364  0.0000E+00  0.0000E+00  0.3260E+00  0.3260E+00
      0.405  0.0000E+00  0.0000E+00  0.3270E+00  0.3260E+00
      0.447  0.0000E+00  0.0000E+00  0.3270E+00  0.3270E+00
      0.488  0.0000E+00  0.0000E+00  0.3280E+00  0.3280E+00
      0.529  0.0000E+00  0.0000E+00  0.3290E+00  0.3290E+00
      0.571  0.0000E+00  0.0000E+00  0.3300E+00  0.3300E+00
      0.612  0.0000E+00  0.0000E+00  0.3310E+00  0.3310E+00
      0.653  0.0000E+00  0.0000E+00  0.3320E+00  0.3320E+00
      0.695  0.0000E+00  0.0000E+00  0.3340E+00  0.3330E+00
      0.736  0.0000E+00  0.0000E+00  0.3350E+00  0.3350E+00
      0.777  0.0000E+00  0.0000E+00  0.3370E+00  0.3370E+00
      0.819  0.0000E+00  0.0000E+00  0.3390E+00  0.3390E+00
      0.860  0.0000E+00  0.0000E+00  0.3400E+00  0.3410E+00
      0.901  0.0000E+00  0.0000E+00  0.3430E+00  0.3430E+00
      0.943  0.0000E+00  0.0000E+00  0.3450E+00  0.3460E+00
      0.984  0.0000E+00  0.0000E+00  0.3480E+00  0.3470E+00
      1.025  0.0000E+00  0.0000E+00  0.3500E+00  0.3490E+00
      1.066  0.0000E+00  0.0000E+00  0.3510E+00  0.3510E+00
      1.108  0.0000E+00  0.0000E+00  0.3540E+00  0.3540E+00
      1.149  0.0000E+00  0.1096E-06  0.3560E+00  0.3560E+00
      1.190  0.0000E+00  0.0000E+00  0.3600E+00  0.3600E+00
      1.232  0.0000E+00  0.0000E+00  0.3620E+00  0.3620E+00
      1.273  0.0000E+00  0.0000E+00  0.3630E+00  0.3630E+00
      1.314  0.0000E+00  0.0000E+00  0.3640E+00  0.3640E+00
      1.356  0.0000E+00  0.0000E+00  0.3640E+00  0.3640E+00
      1.397  0.0000E+00  0.0000E+00  0.3640E+00  0.3640E+00
      1.438  0.0000E+00  0.0000E+00  0.3640E+00  0.3640E+00
      1.480  0.0000E+00  0.0000E+00  0.3640E+00  0.3640E+00
      1.521  0.0000E+00  0.0000E+00  0.3640E+00  0.3640E+00
      1.562  0.0000E+00  0.0000E+00  0.3640E+00  0.3640E+00
      1.604  0.0000E+00  0.0000E+00  0.3640E+00  0.3640E+00
      1.645  0.0000E+00  0.0000E+00  0.3640E+00  0.3640E+00
      1.686  0.0000E+00  0.0000E+00  0.3640E+00  0.3640E+00
      1.728  0.0000E+00  0.0000E+00  0.3640E+00  0.3640E+00
      1.769  0.0000E+00  0.0000E+00  0.3640E+00  0.3640E+00
      1.810  0.0000E+00  0.0000E+00  0.3640E+00  0.3640E+00
      1.851  0.0000E+00  0.0000E+00  0.3640E+00  0.3640E+00
