  15  15   0   0
  0.5119750E+03  0.1972938E-08  0.1972938E-08  0.1972938E-08  0.1000000E-15
  1.000000000000000E-004
  CAR 
 unknown system                          
      1.27697430    -10.04109441  301     -3.76899800      1.00000000
    -10.041  0.0000E+00  0.0000E+00  0.0000E+00  0.0000E+00
    -10.003  0.0000E+00  0.0000E+00  0.0000E+00  0.0000E+00
     -9.966  0.0000E+00  0.0000E+00  0.0000E+00  0.0000E+00
     -9.928  0.0000E+00  0.0000E+00  0.0000E+00  0.0000E+00
     -9.890  0.0000E+00  0.0000E+00  0.0000E+00  0.0000E+00
     -9.852  0.0000E+00  0.0000E+00  0.0000E+00  0.0000E+00
     -9.815  0.0000E+00  0.0000E+00  0.0000E+00  0.0000E+00
     -9.777  0.0000E+00  0.0000E+00  0.0000E+00  0.0000E+00
     -9.739  0.0000E+00  0.0000E+00  0.0000E+00  0.0000E+00
     -9.702  0.0000E+00  0.0000E+00  0.0000E+00  0.0000E+00
     -9.664  0.0000E+00  0.0000E+00  0.0000E+00  0.0000E+00
     -9.626  0.0000E+00  0.0000E+00  0.0000E+00  0.0000E+00
     -9.588  0.0000E+00  0.0000E+00  0.0000E+00  0.0000E+00
     -9.551  0.0000E+00  0.0000E+00  0.0000E+00  0.0000E+00
     -9.513  0.0000E+00  0.0000E+00  0.1000E-02  0.1000E-02
     -9.475  0.0000E+00  0.0000E+00  0.1000E-02  0.1000E-02
     -9.437  0.0000E+00  0.0000E+00  0.1000E-02  0.1000E-02
     -9.400  0.0000E+00  0.0000E+00  0.1000E-02  0.1000E-02
     -9.362  0.0000E+00  0.0000E+00  0.1000E-02  0.1000E-02
     -9.324  0.0000E+00  0.0000E+00  0.1000E-02  0.1000E-02
     -9.287  0.0000E+00  0.0000E+00  0.1000E-02  0.1000E-02
     -9.249  0.0000E+00  0.0000E+00  0.1000E-02  0.1000E-02
     -9.211  0.0000E+00  0.0000E+00  0.2000E-02  0.1000E-02
     -9.173  0.0000E+00  0.0000E+00  0.2000E-02  0.2000E-02
     -9.136  0.9834E-09  0.0000E+00  0.4000E-02  0.4000E-02
     -9.098  0.0000E+00  0.0000E+00  0.6000E-02  0.5000E-02
     -9.060  0.0000E+00  0.0000E+00  0.6000E-02  0.6000E-02
     -9.022  0.0000E+00  0.0000E+00  0.6000E-02  0.6000E-02
     -8.985  0.0000E+00  0.0000E+00  0.6000E-02  0.6000E-02
     -8.947  0.0000E+00  0.0000E+00  0.6000E-02  0.6000E-02
     -8.909  0.0000E+00  0.0000E+00  0.6000E-02  0.6000E-02
     -8.872  0.0000E+00  0.0000E+00  0.6000E-02  0.6000E-02
     -8.834  0.0000E+00  0.0000E+00  0.6000E-02  0.6000E-02
     -8.796  0.0000E+00  0.0000E+00  0.6000E-02  0.6000E-02
     -8.758  0.0000E+00  0.0000E+00  0.6000E-02  0.6000E-02
     -8.721  0.0000E+00  0.0000E+00  0.7000E-02  0.7000E-02
     -8.683  0.0000E+00  0.0000E+00  0.7000E-02  0.7000E-02
     -8.645  0.0000E+00  0.0000E+00  0.7000E-02  0.7000E-02
     -8.607  0.0000E+00  0.0000E+00  0.7000E-02  0.7000E-02
     -8.570  0.0000E+00  0.0000E+00  0.7000E-02  0.7000E-02
     -8.532  0.0000E+00  0.0000E+00  0.8000E-02  0.7000E-02
     -8.494  0.6317E-05  0.0000E+00  0.9000E-02  0.8000E-02
     -8.457  0.0000E+00  0.0000E+00  0.1100E-01  0.1100E-01
     -8.419  0.5043E-08  0.0000E+00  0.1300E-01  0.1300E-01
     -8.381  0.0000E+00  0.0000E+00  0.1500E-01  0.1400E-01
     -8.343  0.5845E-11  0.0000E+00  0.1500E-01  0.1500E-01
     -8.306  0.2651E-01  0.0000E+00  0.1800E-01  0.1600E-01
     -8.268  0.0000E+00  0.0000E+00  0.2100E-01  0.2100E-01
     -8.230  0.0000E+00  0.0000E+00  0.2100E-01  0.2100E-01
     -8.192  0.0000E+00  0.0000E+00  0.2100E-01  0.2100E-01
     -8.155  0.0000E+00  0.0000E+00  0.2100E-01  0.2100E-01
     -8.117  0.0000E+00  0.0000E+00  0.2400E-01  0.2100E-01
     -8.079  0.0000E+00  0.0000E+00  0.2400E-01  0.2400E-01
     -8.042  0.0000E+00  0.0000E+00  0.2400E-01  0.2400E-01
     -8.004  0.0000E+00  0.0000E+00  0.2400E-01  0.2400E-01
     -7.966  0.0000E+00  0.2502E-01  0.2800E-01  0.2594E-01
     -7.928  0.0000E+00  0.0000E+00  0.2900E-01  0.2900E-01
     -7.891  0.0000E+00  0.0000E+00  0.3000E-01  0.3000E-01
     -7.853  0.0000E+00  0.0000E+00  0.3200E-01  0.3200E-01
     -7.815  0.0000E+00  0.0000E+00  0.3300E-01  0.3200E-01
     -7.777  0.0000E+00  0.0000E+00  0.3400E-01  0.3400E-01
     -7.740  0.0000E+00  0.0000E+00  0.3400E-01  0.3400E-01
     -7.702  0.0000E+00  0.0000E+00  0.3700E-01  0.3400E-01
     -7.664  0.0000E+00  0.0000E+00  0.3900E-01  0.3800E-01
     -7.627  0.0000E+00  0.0000E+00  0.4000E-01  0.4000E-01
     -7.589  0.0000E+00  0.0000E+00  0.4000E-01  0.4000E-01
     -7.551  0.0000E+00  0.0000E+00  0.4000E-01  0.4000E-01
     -7.513  0.0000E+00  0.0000E+00  0.4000E-01  0.4000E-01
     -7.476  0.0000E+00  0.0000E+00  0.4000E-01  0.4000E-01
     -7.438  0.0000E+00  0.0000E+00  0.4000E-01  0.4000E-01
     -7.400  0.0000E+00  0.0000E+00  0.4000E-01  0.4000E-01
     -7.362  0.0000E+00  0.0000E+00  0.4000E-01  0.4000E-01
     -7.325  0.0000E+00  0.0000E+00  0.4300E-01  0.4000E-01
     -7.287  0.0000E+00  0.0000E+00  0.4400E-01  0.4300E-01
     -7.249  0.0000E+00  0.0000E+00  0.4500E-01  0.4400E-01
     -7.212  0.0000E+00  0.0000E+00  0.4500E-01  0.4500E-01
     -7.174  0.0000E+00  0.0000E+00  0.4700E-01  0.4700E-01
     -7.136  0.0000E+00  0.0000E+00  0.5000E-01  0.4800E-01
     -7.098  0.0000E+00  0.0000E+00  0.5000E-01  0.5000E-01
     -7.061  0.1349E-01  0.0000E+00  0.5051E-01  0.5000E-01
     -7.023  0.0000E+00  0.0000E+00  0.5100E-01  0.5100E-01
     -6.985  0.0000E+00  0.0000E+00  0.5200E-01  0.5100E-01
     -6.947  0.0000E+00  0.0000E+00  0.5400E-01  0.5200E-01
     -6.910  0.0000E+00  0.0000E+00  0.5400E-01  0.5400E-01
     -6.872  0.0000E+00  0.0000E+00  0.5800E-01  0.5600E-01
     -6.834  0.0000E+00  0.0000E+00  0.5800E-01  0.5800E-01
     -6.797  0.1588E-02  0.0000E+00  0.6106E-01  0.5900E-01
     -6.759  0.0000E+00  0.0000E+00  0.6300E-01  0.6300E-01
     -6.721  0.2651E-01  0.0000E+00  0.6700E-01  0.6600E-01
     -6.683  0.0000E+00  0.0000E+00  0.6700E-01  0.6700E-01
     -6.646  0.0000E+00  0.0000E+00  0.6800E-01  0.6800E-01
     -6.608  0.0000E+00  0.0000E+00  0.7100E-01  0.7000E-01
     -6.570  0.0000E+00  0.0000E+00  0.7200E-01  0.7200E-01
     -6.532  0.0000E+00  0.0000E+00  0.7500E-01  0.7500E-01
     -6.495  0.0000E+00  0.0000E+00  0.7500E-01  0.7500E-01
     -6.457  0.0000E+00  0.0000E+00  0.7500E-01  0.7500E-01
     -6.419  0.0000E+00  0.0000E+00  0.7500E-01  0.7500E-01
     -6.382  0.0000E+00  0.0000E+00  0.7500E-01  0.7500E-01
     -6.344  0.0000E+00  0.0000E+00  0.7600E-01  0.7600E-01
     -6.306  0.0000E+00  0.6820E-03  0.7700E-01  0.7603E-01
     -6.268  0.0000E+00  0.0000E+00  0.7700E-01  0.7700E-01
     -6.231  0.0000E+00  0.0000E+00  0.7700E-01  0.7700E-01
     -6.193  0.0000E+00  0.0000E+00  0.7700E-01  0.7700E-01
     -6.155  0.0000E+00  0.0000E+00  0.7700E-01  0.7700E-01
     -6.117  0.0000E+00  0.0000E+00  0.7700E-01  0.7700E-01
     -6.080  0.0000E+00  0.0000E+00  0.7700E-01  0.7700E-01
     -6.042  0.0000E+00  0.0000E+00  0.7700E-01  0.7700E-01
     -6.004  0.0000E+00  0.0000E+00  0.7700E-01  0.7700E-01
     -5.967  0.0000E+00  0.0000E+00  0.7700E-01  0.7700E-01
     -5.929  0.0000E+00  0.0000E+00  0.7700E-01  0.7700E-01
     -5.891  0.0000E+00  0.0000E+00  0.7700E-01  0.7700E-01
     -5.853  0.0000E+00  0.0000E+00  0.7700E-01  0.7700E-01
     -5.816  0.0000E+00  0.0000E+00  0.7700E-01  0.7700E-01
     -5.778  0.0000E+00  0.0000E+00  0.7700E-01  0.7700E-01
     -5.740  0.0000E+00  0.0000E+00  0.7900E-01  0.7700E-01
     -5.703  0.0000E+00  0.0000E+00  0.7900E-01  0.7700E-01
     -5.665  0.0000E+00  0.0000E+00  0.7900E-01  0.7900E-01
     -5.627  0.0000E+00  0.0000E+00  0.7900E-01  0.7900E-01
     -5.589  0.0000E+00  0.0000E+00  0.7900E-01  0.7900E-01
     -5.552  0.0000E+00  0.0000E+00  0.7900E-01  0.7900E-01
     -5.514  0.0000E+00  0.0000E+00  0.7900E-01  0.7900E-01
     -5.476  0.0000E+00  0.0000E+00  0.7900E-01  0.7900E-01
     -5.438  0.0000E+00  0.0000E+00  0.7900E-01  0.7900E-01
     -5.401  0.0000E+00  0.0000E+00  0.7900E-01  0.7900E-01
     -5.363  0.0000E+00  0.0000E+00  0.7900E-01  0.7900E-01
     -5.325  0.0000E+00  0.0000E+00  0.7900E-01  0.7900E-01
     -5.288  0.0000E+00  0.0000E+00  0.7900E-01  0.7900E-01
     -5.250  0.0000E+00  0.0000E+00  0.7900E-01  0.7900E-01
     -5.212  0.0000E+00  0.0000E+00  0.7900E-01  0.7900E-01
     -5.174  0.0000E+00  0.0000E+00  0.7900E-01  0.7900E-01
     -5.137  0.0000E+00  0.0000E+00  0.7900E-01  0.7900E-01
     -5.099  0.0000E+00  0.0000E+00  0.7900E-01  0.7900E-01
     -5.061  0.0000E+00  0.0000E+00  0.7900E-01  0.7900E-01
     -5.023  0.0000E+00  0.0000E+00  0.7900E-01  0.7900E-01
     -4.986  0.0000E+00  0.0000E+00  0.7900E-01  0.7900E-01
     -4.948  0.0000E+00  0.0000E+00  0.7900E-01  0.7900E-01
     -4.910  0.0000E+00  0.0000E+00  0.7900E-01  0.7900E-01
     -4.873  0.0000E+00  0.0000E+00  0.7900E-01  0.7900E-01
     -4.835  0.0000E+00  0.0000E+00  0.7900E-01  0.7900E-01
     -4.797  0.0000E+00  0.0000E+00  0.7900E-01  0.7900E-01
     -4.759  0.0000E+00  0.0000E+00  0.7900E-01  0.7900E-01
     -4.722  0.0000E+00  0.0000E+00  0.8000E-01  0.7900E-01
     -4.684  0.0000E+00  0.0000E+00  0.8000E-01  0.8000E-01
     -4.646  0.0000E+00  0.0000E+00  0.8000E-01  0.8000E-01
     -4.608  0.0000E+00  0.0000E+00  0.8000E-01  0.8000E-01
     -4.571  0.0000E+00  0.0000E+00  0.8000E-01  0.8000E-01
     -4.533  0.0000E+00  0.0000E+00  0.8000E-01  0.8000E-01
     -4.495  0.0000E+00  0.0000E+00  0.8000E-01  0.8000E-01
     -4.458  0.0000E+00  0.0000E+00  0.8000E-01  0.8000E-01
     -4.420  0.0000E+00  0.0000E+00  0.8000E-01  0.8000E-01
     -4.382  0.0000E+00  0.0000E+00  0.8000E-01  0.8000E-01
     -4.344  0.0000E+00  0.0000E+00  0.8000E-01  0.8000E-01
     -4.307  0.0000E+00  0.0000E+00  0.8000E-01  0.8000E-01
     -4.269  0.0000E+00  0.0000E+00  0.8000E-01  0.8000E-01
     -4.231  0.0000E+00  0.0000E+00  0.8000E-01  0.8000E-01
     -4.193  0.0000E+00  0.0000E+00  0.8000E-01  0.8000E-01
     -4.156  0.0000E+00  0.0000E+00  0.8000E-01  0.8000E-01
     -4.118  0.0000E+00  0.0000E+00  0.8000E-01  0.8000E-01
     -4.080  0.0000E+00  0.0000E+00  0.8000E-01  0.8000E-01
     -4.043  0.0000E+00  0.0000E+00  0.8000E-01  0.8000E-01
     -4.005  0.0000E+00  0.0000E+00  0.8000E-01  0.8000E-01
     -3.967  0.0000E+00  0.0000E+00  0.8200E-01  0.8000E-01
     -3.929  0.0000E+00  0.1471E-17  0.8200E-01  0.8000E-01
     -3.892  0.0000E+00  0.0000E+00  0.8200E-01  0.8200E-01
     -3.854  0.0000E+00  0.0000E+00  0.8200E-01  0.8200E-01
     -3.816  0.0000E+00  0.0000E+00  0.8200E-01  0.8200E-01
     -3.778  0.0000E+00  0.0000E+00  0.8300E-01  0.8200E-01
     -3.741  0.0000E+00  0.0000E+00  0.8300E-01  0.8200E-01
     -3.703  0.0000E+00  0.0000E+00  0.8300E-01  0.8200E-01
     -3.665  0.0000E+00  0.0000E+00  0.8300E-01  0.8200E-01
     -3.628  0.0000E+00  0.0000E+00  0.8300E-01  0.8200E-01
     -3.590  0.0000E+00  0.0000E+00  0.8300E-01  0.8300E-01
     -3.552  0.0000E+00  0.0000E+00  0.8300E-01  0.8300E-01
     -3.514  0.0000E+00  0.0000E+00  0.8300E-01  0.8300E-01
     -3.477  0.0000E+00  0.0000E+00  0.8300E-01  0.8300E-01
     -3.439  0.0000E+00  0.0000E+00  0.8300E-01  0.8300E-01
     -3.401  0.0000E+00  0.0000E+00  0.8300E-01  0.8300E-01
     -3.363  0.0000E+00  0.0000E+00  0.8300E-01  0.8300E-01
     -3.326  0.0000E+00  0.0000E+00  0.8300E-01  0.8300E-01
     -3.288  0.0000E+00  0.0000E+00  0.8300E-01  0.8300E-01
     -3.250  0.0000E+00  0.0000E+00  0.8300E-01  0.8300E-01
     -3.213  0.0000E+00  0.0000E+00  0.8300E-01  0.8300E-01
     -3.175  0.0000E+00  0.0000E+00  0.8400E-01  0.8300E-01
     -3.137  0.0000E+00  0.0000E+00  0.8400E-01  0.8300E-01
     -3.099  0.0000E+00  0.0000E+00  0.8400E-01  0.8400E-01
     -3.062  0.0000E+00  0.0000E+00  0.8400E-01  0.8400E-01
     -3.024  0.0000E+00  0.0000E+00  0.8400E-01  0.8400E-01
     -2.986  0.0000E+00  0.0000E+00  0.8500E-01  0.8500E-01
     -2.948  0.0000E+00  0.0000E+00  0.8500E-01  0.8500E-01
     -2.911  0.0000E+00  0.0000E+00  0.8600E-01  0.8500E-01
     -2.873  0.0000E+00  0.0000E+00  0.8600E-01  0.8500E-01
     -2.835  0.0000E+00  0.0000E+00  0.8600E-01  0.8500E-01
     -2.798  0.0000E+00  0.0000E+00  0.8600E-01  0.8600E-01
     -2.760  0.0000E+00  0.0000E+00  0.8600E-01  0.8600E-01
     -2.722  0.0000E+00  0.0000E+00  0.8600E-01  0.8600E-01
     -2.684  0.0000E+00  0.0000E+00  0.8600E-01  0.8600E-01
     -2.647  0.0000E+00  0.0000E+00  0.8600E-01  0.8600E-01
     -2.609  0.0000E+00  0.0000E+00  0.8600E-01  0.8600E-01
     -2.571  0.0000E+00  0.0000E+00  0.8600E-01  0.8600E-01
     -2.533  0.0000E+00  0.0000E+00  0.8600E-01  0.8600E-01
     -2.496  0.0000E+00  0.0000E+00  0.8600E-01  0.8600E-01
     -2.458  0.0000E+00  0.0000E+00  0.8600E-01  0.8600E-01
     -2.420  0.0000E+00  0.0000E+00  0.8600E-01  0.8600E-01
     -2.383  0.0000E+00  0.0000E+00  0.8600E-01  0.8600E-01
     -2.345  0.0000E+00  0.0000E+00  0.8600E-01  0.8600E-01
     -2.307  0.0000E+00  0.0000E+00  0.8600E-01  0.8600E-01
     -2.269  0.0000E+00  0.0000E+00  0.8600E-01  0.8600E-01
     -2.232  0.0000E+00  0.0000E+00  0.8600E-01  0.8600E-01
     -2.194  0.0000E+00  0.0000E+00  0.8600E-01  0.8600E-01
     -2.156  0.0000E+00  0.0000E+00  0.8600E-01  0.8600E-01
     -2.118  0.0000E+00  0.0000E+00  0.8600E-01  0.8600E-01
     -2.081  0.0000E+00  0.0000E+00  0.8700E-01  0.8600E-01
     -2.043  0.0000E+00  0.0000E+00  0.8800E-01  0.8800E-01
     -2.005  0.0000E+00  0.0000E+00  0.8800E-01  0.8800E-01
     -1.968  0.0000E+00  0.0000E+00  0.8800E-01  0.8800E-01
     -1.930  0.0000E+00  0.0000E+00  0.8800E-01  0.8800E-01
     -1.892  0.0000E+00  0.0000E+00  0.8800E-01  0.8800E-01
     -1.854  0.0000E+00  0.0000E+00  0.8800E-01  0.8800E-01
     -1.817  0.0000E+00  0.0000E+00  0.8900E-01  0.8800E-01
     -1.779  0.0000E+00  0.0000E+00  0.8900E-01  0.8800E-01
     -1.741  0.0000E+00  0.0000E+00  0.8900E-01  0.8800E-01
     -1.703  0.0000E+00  0.0000E+00  0.8900E-01  0.8900E-01
     -1.666  0.0000E+00  0.0000E+00  0.8900E-01  0.8900E-01
     -1.628  0.0000E+00  0.0000E+00  0.8900E-01  0.8900E-01
     -1.590  0.0000E+00  0.0000E+00  0.8900E-01  0.8900E-01
     -1.553  0.0000E+00  0.0000E+00  0.8900E-01  0.8900E-01
     -1.515  0.0000E+00  0.0000E+00  0.9000E-01  0.9000E-01
     -1.477  0.0000E+00  0.0000E+00  0.9000E-01  0.9000E-01
     -1.439  0.0000E+00  0.0000E+00  0.9000E-01  0.9000E-01
     -1.402  0.0000E+00  0.0000E+00  0.9000E-01  0.9000E-01
     -1.364  0.0000E+00  0.0000E+00  0.9200E-01  0.9000E-01
     -1.326  0.0000E+00  0.0000E+00  0.9300E-01  0.9100E-01
     -1.288  0.0000E+00  0.0000E+00  0.9300E-01  0.9100E-01
     -1.251  0.0000E+00  0.0000E+00  0.9300E-01  0.9100E-01
     -1.213  0.0000E+00  0.0000E+00  0.9300E-01  0.9200E-01
     -1.175  0.0000E+00  0.0000E+00  0.9300E-01  0.9300E-01
     -1.138  0.0000E+00  0.0000E+00  0.9300E-01  0.9300E-01
     -1.100  0.0000E+00  0.0000E+00  0.9300E-01  0.9300E-01
     -1.062  0.0000E+00  0.0000E+00  0.9300E-01  0.9300E-01
     -1.024  0.0000E+00  0.0000E+00  0.9400E-01  0.9400E-01
     -0.987  0.0000E+00  0.0000E+00  0.9400E-01  0.9400E-01
     -0.949  0.0000E+00  0.0000E+00  0.9400E-01  0.9400E-01
     -0.911  0.0000E+00  0.0000E+00  0.9400E-01  0.9400E-01
     -0.873  0.0000E+00  0.0000E+00  0.9400E-01  0.9400E-01
     -0.836  0.0000E+00  0.0000E+00  0.9500E-01  0.9400E-01
     -0.798  0.0000E+00  0.0000E+00  0.9600E-01  0.9400E-01
     -0.760  0.0000E+00  0.0000E+00  0.9600E-01  0.9600E-01
     -0.723  0.0000E+00  0.0000E+00  0.9600E-01  0.9600E-01
     -0.685  0.0000E+00  0.0000E+00  0.9600E-01  0.9600E-01
     -0.647  0.0000E+00  0.0000E+00  0.9600E-01  0.9600E-01
     -0.609  0.0000E+00  0.0000E+00  0.9600E-01  0.9600E-01
     -0.572  0.0000E+00  0.0000E+00  0.9600E-01  0.9600E-01
     -0.534  0.0000E+00  0.0000E+00  0.9600E-01  0.9600E-01
     -0.496  0.0000E+00  0.0000E+00  0.9600E-01  0.9600E-01
     -0.458  0.0000E+00  0.0000E+00  0.9600E-01  0.9600E-01
     -0.421  0.0000E+00  0.0000E+00  0.9600E-01  0.9600E-01
     -0.383  0.0000E+00  0.0000E+00  0.9600E-01  0.9600E-01
     -0.345  0.0000E+00  0.0000E+00  0.9600E-01  0.9600E-01
     -0.308  0.0000E+00  0.0000E+00  0.9600E-01  0.9600E-01
     -0.270  0.0000E+00  0.0000E+00  0.9600E-01  0.9600E-01
     -0.232  0.0000E+00  0.0000E+00  0.9600E-01  0.9600E-01
     -0.194  0.0000E+00  0.0000E+00  0.9600E-01  0.9600E-01
     -0.157  0.0000E+00  0.0000E+00  0.9600E-01  0.9600E-01
     -0.119  0.0000E+00  0.0000E+00  0.9800E-01  0.9600E-01
     -0.081  0.0000E+00  0.0000E+00  0.9800E-01  0.9800E-01
     -0.043  0.0000E+00  0.0000E+00  0.9800E-01  0.9800E-01
     -0.006  0.0000E+00  0.0000E+00  0.9800E-01  0.9800E-01
      0.032  0.0000E+00  0.0000E+00  0.9800E-01  0.9800E-01
      0.070  0.0000E+00  0.0000E+00  0.9800E-01  0.9800E-01
      0.107  0.0000E+00  0.0000E+00  0.9900E-01  0.9800E-01
      0.145  0.0000E+00  0.0000E+00  0.9900E-01  0.9800E-01
      0.183  0.0000E+00  0.0000E+00  0.9900E-01  0.9900E-01
      0.221  0.0000E+00  0.0000E+00  0.9900E-01  0.9900E-01
      0.258  0.0000E+00  0.0000E+00  0.1000E+00  0.1000E+00
      0.296  0.0000E+00  0.0000E+00  0.1000E+00  0.1000E+00
      0.334  0.0000E+00  0.0000E+00  0.1010E+00  0.1000E+00
      0.372  0.0000E+00  0.0000E+00  0.1010E+00  0.1000E+00
      0.409  0.0000E+00  0.0000E+00  0.1020E+00  0.1010E+00
      0.447  0.0000E+00  0.0000E+00  0.1030E+00  0.1020E+00
      0.485  0.2651E-01  0.0000E+00  0.1040E+00  0.1030E+00
      0.522  0.0000E+00  0.0000E+00  0.1050E+00  0.1040E+00
      0.560  0.0000E+00  0.0000E+00  0.1050E+00  0.1040E+00
      0.598  0.0000E+00  0.0000E+00  0.1050E+00  0.1040E+00
      0.636  0.0000E+00  0.0000E+00  0.1050E+00  0.1050E+00
      0.673  0.0000E+00  0.0000E+00  0.1050E+00  0.1050E+00
      0.711  0.0000E+00  0.0000E+00  0.1070E+00  0.1050E+00
      0.749  0.0000E+00  0.0000E+00  0.1080E+00  0.1070E+00
      0.787  0.0000E+00  0.0000E+00  0.1080E+00  0.1080E+00
      0.824  0.0000E+00  0.0000E+00  0.1080E+00  0.1080E+00
      0.862  0.0000E+00  0.0000E+00  0.1080E+00  0.1080E+00
      0.900  0.0000E+00  0.0000E+00  0.1080E+00  0.1080E+00
      0.937  0.0000E+00  0.0000E+00  0.1080E+00  0.1080E+00
      0.975  0.0000E+00  0.0000E+00  0.1080E+00  0.1080E+00
      1.013  0.0000E+00  0.0000E+00  0.1080E+00  0.1080E+00
      1.051  0.0000E+00  0.0000E+00  0.1080E+00  0.1080E+00
      1.088  0.0000E+00  0.0000E+00  0.1080E+00  0.1080E+00
      1.126  0.0000E+00  0.0000E+00  0.1080E+00  0.1080E+00
      1.164  0.0000E+00  0.0000E+00  0.1080E+00  0.1080E+00
      1.202  0.0000E+00  0.0000E+00  0.1080E+00  0.1080E+00
      1.239  0.0000E+00  0.0000E+00  0.1080E+00  0.1080E+00
      1.277  0.0000E+00  0.0000E+00  0.1080E+00  0.1080E+00
