<?xml version="1.0" encoding="ISO-8859-1"?>
<modeling>
 <generator>
  <i name="program" type="string">vasp </i>
  <i name="version" type="string">5.3.5  </i>
  <i name="subversion" type="string">31Mar14 (build Feb 01 2018 12:10:03) gamma-only                       parallel </i>
  <i name="platform" type="string">LinuxIFC </i>
  <i name="date" type="string">2019 03 23 </i>
  <i name="time" type="string">01:00:36 </i>
 </generator>
 <incar>
  <i type="string" name="PREC">normal</i>
  <i type="int" name="ISPIN">     2</i>
  <i type="int" name="IBRION">     2</i>
  <i type="int" name="NSW">  1000</i>
  <i type="int" name="ISIF">     2</i>
  <i name="POTIM">      0.10000000</i>
  <i type="logical" name="LPLANE"> T  </i>
  <i type="int" name="ISMEAR">     0</i>
  <i name="SIGMA">      0.00010000</i>
  <i type="logical" name="LWAVE"> F  </i>
  <i type="logical" name="LCHARG"> F  </i>
  <i type="logical" name="LVTOT"> F  </i>
  <i type="string" name="GGA"> PE</i>
 </incar>
 <kpoints>
  <varray name="kpointlist" >
   <v>       0.00000000       0.00000000       0.00000000 </v>
  </varray>
  <varray name="weights" >
   <v>       1.00000000 </v>
  </varray>
 </kpoints>
 <parameters>
  <separator name="general" >
   <i type="string" name="SYSTEM">unknown system</i>
   <i type="logical" name="LCOMPAT"> F  </i>
  </separator>
  <separator name="electronic" >
   <i type="string" name="PREC">normal</i>
   <i name="ENMAX">    249.84400000</i>
   <i name="ENAUG">    412.49600000</i>
   <i name="EDIFF">      0.00010000</i>
   <i type="int" name="IALGO">    38</i>
   <i type="int" name="IWAVPR">    11</i>
   <i type="int" name="NBANDS">   244</i>
   <i name="NELECT">    374.00000000</i>
   <i type="int" name="TURBO">     0</i>
   <i type="int" name="IRESTART">     0</i>
   <i type="int" name="NREBOOT">     0</i>
   <i type="int" name="NMIN">     0</i>
   <i name="EREF">      0.00000000</i>
   <separator name="electronic smearing" >
    <i type="int" name="ISMEAR">     0</i>
    <i name="SIGMA">      0.00010000</i>
    <i name="KSPACING">      0.50000000</i>
    <i type="logical" name="KGAMMA"> T  </i>
   </separator>
   <separator name="electronic projectors" >
    <i type="logical" name="LREAL"> F  </i>
    <v name="ROPT">      0.00000000</v>
    <i type="int" name="LMAXPAW">  -100</i>
    <i type="int" name="LMAXMIX">     2</i>
    <i type="logical" name="NLSPLINE"> F  </i>
   </separator>
   <separator name="electronic startup" >
    <i type="int" name="ISTART">     0</i>
    <i type="int" name="ICHARG">     2</i>
    <i type="int" name="INIWAV">     1</i>
   </separator>
   <separator name="electronic spin" >
    <i type="int" name="ISPIN">     2</i>
    <i type="logical" name="LNONCOLLINEAR"> F  </i>
    <v name="MAGMOM">      1.00000000      1.00000000      1.00000000      1.00000000      1.00000000      1.00000000      1.00000000      1.00000000      1.00000000      1.00000000      1.00000000      1.00000000      1.00000000      1.00000000      1.00000000      1.00000000      1.00000000      1.00000000      1.00000000      1.00000000
      1.00000000      1.00000000      1.00000000      1.00000000      1.00000000      1.00000000      1.00000000      1.00000000      1.00000000      1.00000000      1.00000000      1.00000000      1.00000000      1.00000000</v>
    <i name="NUPDOWN">     -1.00000000</i>
    <i type="logical" name="LSORBIT"> F  </i>
    <v name="SAXIS">      0.00000000      0.00000000      1.00000000</v>
    <i type="logical" name="LSPIRAL"> F  </i>
    <v name="QSPIRAL">      0.00000000      0.00000000      0.00000000</v>
    <i type="logical" name="LZEROZ"> F  </i>
   </separator>
   <separator name="electronic exchange-correlation" >
    <i type="logical" name="LASPH"> F  </i>
    <i type="logical" name="LMETAGGA"> F  </i>
   </separator>
   <separator name="electronic convergence" >
    <i type="int" name="NELM">    60</i>
    <i type="int" name="NELMDL">    -5</i>
    <i type="int" name="NELMIN">     2</i>
    <i name="ENINI">    249.84400000</i>
    <separator name="electronic convergence detail" >
     <i type="logical" name="LDIAG"> T  </i>
     <i type="logical" name="LSUBROT"> F  </i>
     <i name="WEIMIN">      0.00100000</i>
     <i name="EBREAK">      0.00000010</i>
     <i name="DEPER">      0.30000000</i>
     <i type="int" name="NRMM">     4</i>
     <i name="TIME">      0.40000000</i>
    </separator>
   </separator>
   <separator name="electronic mixer" >
    <i name="AMIX">      0.40000000</i>
    <i name="BMIX">      1.00000000</i>
    <i name="AMIN">      0.10000000</i>
    <i name="AMIX_MAG">      1.60000000</i>
    <i name="BMIX_MAG">      1.00000000</i>
    <separator name="electronic mixer details" >
     <i type="int" name="IMIX">     4</i>
     <i type="int" name="MAXMIX">   -45</i>
     <i name="WC">    100.00000000</i>
     <i type="int" name="INIMIX">     1</i>
     <i type="int" name="MIXPRE">     1</i>
     <i type="int" name="MREMOVE">     5</i>
    </separator>
   </separator>
   <separator name="electronic dipolcorrection" >
    <i type="logical" name="LDIPOL"> F  </i>
    <i type="logical" name="LMONO"> F  </i>
    <i type="int" name="IDIPOL">     0</i>
    <i name="EPSILON">      1.00000000</i>
    <v name="DIPOL">   -100.00000000   -100.00000000   -100.00000000</v>
    <i name="EFIELD">      0.00000000</i>
   </separator>
  </separator>
  <separator name="grids" >
   <i type="int" name="NGX">    84</i>
   <i type="int" name="NGY">    84</i>
   <i type="int" name="NGZ">    84</i>
   <i type="int" name="NGXF">   168</i>
   <i type="int" name="NGYF">   168</i>
   <i type="int" name="NGZF">   168</i>
   <i type="logical" name="ADDGRID"> F  </i>
  </separator>
  <separator name="ionic" >
   <i type="int" name="NSW">  1000</i>
   <i type="int" name="IBRION">     2</i>
   <i type="int" name="ISIF">     2</i>
   <i name="PSTRESS">      0.00000000</i>
   <i name="EDIFFG">      0.00100000</i>
   <i type="int" name="NFREE">     1</i>
   <i name="POTIM">      0.10000000</i>
   <i name="SMASS">     -3.00000000</i>
   <i name="SCALEE">      1.00000000</i>
  </separator>
  <separator name="ionic md" >
   <i name="TEBEG">      0.00010000</i>
   <i name="TEEND">      0.00010000</i>
   <i type="int" name="NBLOCK">     1</i>
   <i type="int" name="KBLOCK">  1000</i>
   <i type="int" name="NPACO">   256</i>
   <i name="APACO">     16.00000000</i>
  </separator>
  <separator name="symmetry" >
   <i type="int" name="ISYM">     2</i>
   <i name="SYMPREC">      0.00001000</i>
  </separator>
  <separator name="dos" >
   <i type="logical" name="LORBIT"> F  </i>
   <v name="RWIGS">     -1.00000000</v>
   <i type="int" name="NEDOS">   301</i>
   <i name="EMIN">     10.00000000</i>
   <i name="EMAX">    -10.00000000</i>
   <i name="EFERMI">      0.00000000</i>
  </separator>
  <separator name="writing" >
   <i type="int" name="NWRITE">     2</i>
   <i type="logical" name="LWAVE"> F  </i>
   <i type="logical" name="LCHARG"> F  </i>
   <i type="logical" name="LPARD"> F  </i>
   <i type="logical" name="LVTOT"> F  </i>
   <i type="logical" name="LVHAR"> F  </i>
   <i type="logical" name="LELF"> F  </i>
   <i type="logical" name="LOPTICS"> F  </i>
   <v name="STM">      0.00000000      0.00000000      0.00000000      0.00000000      0.00000000      0.00000000      0.00000000</v>
  </separator>
  <separator name="performance" >
   <i type="int" name="NPAR">     4</i>
   <i type="int" name="NSIM">     4</i>
   <i type="int" name="NBLK">    -1</i>
   <i type="logical" name="LPLANE"> T  </i>
   <i type="logical" name="LSCALAPACK"> T  </i>
   <i type="logical" name="LSCAAWARE"> F  </i>
   <i type="logical" name="LSCALU"> F  </i>
   <i type="logical" name="LASYNC"> F  </i>
   <i type="logical" name="LORBITALREAL"> F  </i>
  </separator>
  <separator name="miscellaneous" >
   <i type="int" name="IDIOT">     3</i>
   <i type="logical" name="LMUSIC"> F  </i>
   <v name="POMASS">    107.86800000</v>
   <v name="DARWINR">      0.00000000</v>
   <v name="DARWINV">      1.00000000</v>
   <i type="logical" name="LCORR"> T  </i>
  </separator>
  <i type="logical" name="GGA_COMPAT"> T  </i>
  <i type="logical" name="LBERRY"> F  </i>
  <i type="int" name="ICORELEVEL">     0</i>
  <i type="logical" name="LDAU"> F  </i>
  <i type="int" name="I_CONSTRAINED_M">     0</i>
  <separator name="electronic exchange-correlation" >
   <i type="string" name="GGA">PE</i>
   <i type="int" name="VOSKOWN">     0</i>
   <i type="logical" name="LHFCALC"> F  </i>
   <i type="string" name="PRECFOCK"></i>
   <i type="logical" name="LSYMGRAD"> F  </i>
   <i type="logical" name="LHFONE"> F  </i>
   <i type="logical" name="LRHFCALC"> F  </i>
   <i type="logical" name="LTHOMAS"> F  </i>
   <i type="logical" name="LMODELHF"> F  </i>
   <i name="ENCUT4O">     -1.00000000</i>
   <i type="int" name="EXXOEP">     0</i>
   <i type="int" name="FOURORBIT">     0</i>
   <i name="AEXX">      0.00000000</i>
   <i name="HFALPHA">      0.00000000</i>
   <i name="MCALPHA">      0.00000000</i>
   <i name="ALDAX">      1.00000000</i>
   <i name="AGGAX">      1.00000000</i>
   <i name="ALDAC">      1.00000000</i>
   <i name="AGGAC">      1.00000000</i>
   <i type="int" name="NKREDX">     1</i>
   <i type="int" name="NKREDY">     1</i>
   <i type="int" name="NKREDZ">     1</i>
   <i type="logical" name="SHIFTRED"> F  </i>
   <i type="logical" name="ODDONLY"> F  </i>
   <i type="logical" name="EVENONLY"> F  </i>
   <i type="int" name="LMAXFOCK">     0</i>
   <i type="int" name="NMAXFOCKAE">     0</i>
   <i type="logical" name="LFOCKAEDFT"> F  </i>
   <i name="HFSCREEN">      0.00000000</i>
   <i name="HFSCREENC">      0.00000000</i>
   <i type="int" name="NBANDSGWLOW">     0</i>
  </separator>
  <separator name="vdW DFT" >
   <i type="logical" name="LUSE_VDW"> F  </i>
   <i name="Zab_VDW">     -0.84910000</i>
   <i name="PARAM1">      0.12340000</i>
   <i name="PARAM2">      1.00000000</i>
   <i name="PARAM3">      0.00000000</i>
  </separator>
  <separator name="model GW" >
   <i type="int" name="MODEL_GW">     0</i>
   <i name="MODEL_EPS0">    178.60694125</i>
   <i name="MODEL_ALPHA">      1.00000000</i>
  </separator>
  <separator name="linear response parameters" >
   <i type="logical" name="LEPSILON"> F  </i>
   <i type="logical" name="LRPA"> F  </i>
   <i type="logical" name="LNABLA"> F  </i>
   <i type="logical" name="LVEL"> F  </i>
   <i type="int" name="KINTER">     0</i>
   <i name="CSHIFT">      0.10000000</i>
   <i name="OMEGAMAX">     -1.00000000</i>
   <i name="DEG_THRESHOLD">      0.00200000</i>
  </separator>
  <separator name="orbital magnetization" >
   <i type="logical" name="NUCIND"> F  </i>
   <v name="MAGPOS">      0.00000000      0.00000000      0.00000000</v>
   <i type="logical" name="LNICSALL"> T  </i>
   <i type="logical" name="ORBITALMAG"> F  </i>
   <i type="logical" name="LMAGBLOCH"> F  </i>
   <i type="logical" name="LCHIMAG"> F  </i>
   <i type="logical" name="LGAUGE"> T  </i>
   <i type="int" name="MAGATOM">     0</i>
   <v name="MAGDIPOL">      0.00000000      0.00000000      0.00000000</v>
   <v name="AVECCONST">      0.00000000      0.00000000      0.00000000</v>
  </separator>
  <separator name="response functions" >
   <i type="logical" name="LADDER"> F  </i>
   <i type="logical" name="LFXC"> F  </i>
   <i type="logical" name="LHARTREE"> T  </i>
   <i type="int" name="IBSE">     0</i>
   <i type="logical" name="LTCTE"> F  </i>
   <i type="logical" name="LTETE"> F  </i>
   <i type="logical" name="LTRIPLET"> F  </i>
   <i type="logical" name="LFXCEPS"> F  </i>
   <i type="logical" name="LFXHEG"> F  </i>
   <i type="logical" name="L2ORDER"> F  </i>
   <i type="logical" name="LUSEW"> F  </i>
   <i name="ENCUTGW">     -2.00000000</i>
   <i name="ENCUTGWSOFT">     -2.00000000</i>
   <i name="ENCUTLF">     -1.00000000</i>
   <i type="int" name="LMAXMP2">    -1</i>
   <i name="SCISSOR">      0.00000000</i>
   <i type="int" name="NOMEGA">     0</i>
   <i type="int" name="NOMEGAR">     0</i>
   <i type="int" name="NBANDSGW">    -1</i>
   <i type="int" name="NBANDSO">    -1</i>
   <i type="int" name="NBANDSV">    -1</i>
   <i type="int" name="NELM">     1</i>
   <i type="int" name="DIM">     3</i>
   <i type="int" name="ANTIRES">     0</i>
   <i name="OMEGAMAX">    -30.00000000</i>
   <i name="OMEGAMIN">    -30.00000000</i>
   <i name="OMEGATL">   -200.00000000</i>
   <i type="int" name="OMEGAGRID">     0</i>
   <i name="CSHIFT">     -0.10000000</i>
   <i type="logical" name="SELFENERGY"> F  </i>
   <i type="logical" name="LSPECTRAL"> F  </i>
   <i type="logical" name="ODDONLYGW"> F  </i>
   <i type="logical" name="EVENONLYGW"> F  </i>
   <i type="int" name="NKREDLFX">     1</i>
   <i type="int" name="NKREDLFY">     1</i>
   <i type="int" name="NKREDLFZ">     1</i>
   <i type="int" name="MAXMEM">  1800</i>
   <i type="int" name="TELESCOPE">     0</i>
   <i type="int" name="TAUPAR">     1</i>
  </separator>
  <separator name="External order field" >
   <i name="OFIELD_KAPPA">      0.00000000</i>
   <v name="OFIELD_K">      0.00000000      0.00000000      0.00000000</v>
   <i name="OFIELD_Q6_NEAR">      0.00000000</i>
   <i name="OFIELD_Q6_FAR">      0.00000000</i>
   <i name="OFIELD_A">      0.00000000</i>
  </separator>
 </parameters>
 <atominfo>
  <atoms>      34 </atoms>
  <types>       1 </types>
  <array name="atoms" >
   <dimension dim="1">ion</dimension>
   <field type="string">element</field>
   <field type="int">atomtype</field>
   <set>
    <rc><c>Ag</c><c>   1</c></rc>
    <rc><c>Ag</c><c>   1</c></rc>
    <rc><c>Ag</c><c>   1</c></rc>
    <rc><c>Ag</c><c>   1</c></rc>
    <rc><c>Ag</c><c>   1</c></rc>
    <rc><c>Ag</c><c>   1</c></rc>
    <rc><c>Ag</c><c>   1</c></rc>
    <rc><c>Ag</c><c>   1</c></rc>
    <rc><c>Ag</c><c>   1</c></rc>
    <rc><c>Ag</c><c>   1</c></rc>
    <rc><c>Ag</c><c>   1</c></rc>
    <rc><c>Ag</c><c>   1</c></rc>
    <rc><c>Ag</c><c>   1</c></rc>
    <rc><c>Ag</c><c>   1</c></rc>
    <rc><c>Ag</c><c>   1</c></rc>
    <rc><c>Ag</c><c>   1</c></rc>
    <rc><c>Ag</c><c>   1</c></rc>
    <rc><c>Ag</c><c>   1</c></rc>
    <rc><c>Ag</c><c>   1</c></rc>
    <rc><c>Ag</c><c>   1</c></rc>
    <rc><c>Ag</c><c>   1</c></rc>
    <rc><c>Ag</c><c>   1</c></rc>
    <rc><c>Ag</c><c>   1</c></rc>
    <rc><c>Ag</c><c>   1</c></rc>
    <rc><c>Ag</c><c>   1</c></rc>
    <rc><c>Ag</c><c>   1</c></rc>
    <rc><c>Ag</c><c>   1</c></rc>
    <rc><c>Ag</c><c>   1</c></rc>
    <rc><c>Ag</c><c>   1</c></rc>
    <rc><c>Ag</c><c>   1</c></rc>
    <rc><c>Ag</c><c>   1</c></rc>
    <rc><c>Ag</c><c>   1</c></rc>
    <rc><c>Ag</c><c>   1</c></rc>
    <rc><c>Ag</c><c>   1</c></rc>
   </set>
  </array>
  <array name="atomtypes" >
   <dimension dim="1">type</dimension>
   <field type="int">atomspertype</field>
   <field type="string">element</field>
   <field>mass</field>
   <field>valence</field>
   <field type="string">pseudopotential</field>
   <set>
    <rc><c>  34</c><c>Ag</c><c>    107.86800000</c><c>     11.00000000</c><c>  PAW_PBE Ag 02Apr2005                  </c></rc>
   </set>
  </array>
 </atominfo>
 <structure name="initialpos" >
  <crystal>
   <varray name="basis" >
    <v>      21.63093704       0.00000000       0.00000000 </v>
    <v>       0.00000000      21.63093704       0.00000000 </v>
    <v>       0.00000000       0.00000000      21.63093704 </v>
   </varray>
   <i name="volume">  10121.06000419 </i>
   <varray name="rec_basis" >
    <v>       0.04623008       0.00000000       0.00000000 </v>
    <v>       0.00000000       0.04623008       0.00000000 </v>
    <v>       0.00000000       0.00000000       0.04623008 </v>
   </varray>
  </crystal>
  <varray name="positions" >
   <v>       0.33776876       0.37246668       0.43334574 </v>
   <v>       0.45435353       0.41185312       0.37303256 </v>
   <v>       0.44998668       0.33844556       0.47840058 </v>
   <v>       0.51373434       0.35174934       0.58788435 </v>
   <v>       0.57817493       0.33187715       0.47636553 </v>
   <v>       0.34868596       0.47162809       0.35322355 </v>
   <v>       0.62009729       0.41887130       0.56022766 </v>
   <v>       0.57532767       0.41943334       0.37751604 </v>
   <v>       0.39368771       0.40801031       0.57847547 </v>
   <v>       0.45256194       0.49683789       0.65937331 </v>
   <v>       0.50660784       0.45044662       0.49272319 </v>
   <v>       0.68437454       0.41212870       0.44789557 </v>
   <v>       0.55536810       0.43399450       0.67956991 </v>
   <v>       0.49934711       0.53247395       0.38313302 </v>
   <v>       0.61044170       0.51897776       0.45447476 </v>
   <v>       0.74379019       0.52439193       0.42548253 </v>
   <v>       0.37003352       0.48496476       0.47905596 </v>
   <v>       0.71157939       0.51316240       0.54709396 </v>
   <v>       0.59794747       0.62329393       0.38068226 </v>
   <v>       0.55731928       0.52883068       0.57854104 </v>
   <v>       0.37766089       0.58578870       0.39239666 </v>
   <v>       0.65761628       0.50382756       0.65960633 </v>
   <v>       0.45706761       0.56833596       0.50366094 </v>
   <v>       0.44132796       0.37032535       0.69126761 </v>
   <v>       0.68462438       0.62351209       0.47885390 </v>
   <v>       0.48068013       0.66264817       0.40777526 </v>
   <v>       0.35556342       0.53729325       0.59700104 </v>
   <v>       0.64069103       0.62153581       0.60635516 </v>
   <v>       0.55947813       0.64563602       0.51037878 </v>
   <v>       0.33424200       0.61861663       0.50927911 </v>
   <v>       0.55380122       0.56856099       0.70456656 </v>
   <v>       0.36135491       0.71064588       0.42512923 </v>
   <v>       0.47271803       0.62076882       0.62146670 </v>
   <v>       0.43750972       0.69568662       0.53000449 </v>
  </varray>
 </structure>
 <calculation>
  <scstep>
   <time name="dav">    2.60    2.61</time>
   <time name="total">    2.80    2.83</time>
   <energy>
    <i name="alphaZ">     97.15071814 </i>
    <i name="ewald">  79022.65029102 </i>
    <i name="hartreedc">-112901.58103040 </i>
    <i name="XCdc">   -372.13677871 </i>
    <i name="pawpsdc">  34114.65405437 </i>
    <i name="pawaedc"> -32546.99670188 </i>
    <i name="eentropy">      0.00000000 </i>
    <i name="bandstr">    511.06384678 </i>
    <i name="atom">  35264.75342294 </i>
    <i name="e_fr_energy">   3189.55782225 </i>
    <i name="e_wo_entrp">   3189.55782225 </i>
    <i name="e_0_energy">   3189.55782225 </i>
   </energy>
  </scstep>
  <scstep>
   <time name="dav">    3.88    3.88</time>
   <time name="total">    3.88    4.06</time>
   <energy>
    <i name="e_fr_energy">    591.29076644 </i>
    <i name="e_wo_entrp">    591.29076644 </i>
    <i name="e_0_energy">    591.29076644 </i>
   </energy>
  </scstep>
  <scstep>
   <time name="dav">    3.14    3.14</time>
   <time name="total">    3.14    3.14</time>
   <energy>
    <i name="e_fr_energy">    -42.65521530 </i>
    <i name="e_wo_entrp">    -42.65521530 </i>
    <i name="e_0_energy">    -42.65521530 </i>
   </energy>
  </scstep>
  <scstep>
   <time name="dav">    2.75    2.75</time>
   <time name="total">    2.75    2.76</time>
   <energy>
    <i name="e_fr_energy">    -71.43051606 </i>
    <i name="e_wo_entrp">    -71.43051606 </i>
    <i name="e_0_energy">    -71.43051606 </i>
   </energy>
  </scstep>
  <scstep>
   <time name="dav">    2.84    2.85</time>
   <time name="total">    2.94    2.95</time>
   <energy>
    <i name="e_fr_energy">    -71.84304547 </i>
    <i name="e_wo_entrp">    -71.84304547 </i>
    <i name="e_0_energy">    -71.84304547 </i>
   </energy>
  </scstep>
  <scstep>
   <time name="dav">    2.62    2.62</time>
   <time name="total">    2.91    2.92</time>
   <energy>
    <i name="e_fr_energy">    -29.75633519 </i>
    <i name="e_wo_entrp">    -29.75633519 </i>
    <i name="e_0_energy">    -29.75633519 </i>
   </energy>
  </scstep>
  <scstep>
   <time name="dav">    2.70    2.70</time>
   <time name="total">    3.00    3.00</time>
   <energy>
    <i name="e_fr_energy">    -23.76059809 </i>
    <i name="e_wo_entrp">    -23.76059809 </i>
    <i name="e_0_energy">    -23.76059809 </i>
   </energy>
  </scstep>
  <scstep>
   <time name="dav">    2.72    2.72</time>
   <time name="total">    3.01    3.02</time>
   <energy>
    <i name="e_fr_energy">    -18.66701320 </i>
    <i name="e_wo_entrp">    -18.66701320 </i>
    <i name="e_0_energy">    -18.66701320 </i>
   </energy>
  </scstep>
  <scstep>
   <time name="dav">    2.75    2.75</time>
   <time name="total">    3.04    3.04</time>
   <energy>
    <i name="e_fr_energy">    -24.51301512 </i>
    <i name="e_wo_entrp">    -24.51301512 </i>
    <i name="e_0_energy">    -24.51301512 </i>
   </energy>
  </scstep>
  <scstep>
   <time name="dav">    2.61    2.61</time>
   <time name="total">    2.90    2.91</time>
   <energy>
    <i name="e_fr_energy">    -37.08817121 </i>
    <i name="e_wo_entrp">    -37.08817121 </i>
    <i name="e_0_energy">    -37.08817121 </i>
   </energy>
  </scstep>
  <scstep>
   <time name="dav">    2.72    2.72</time>
   <time name="total">    3.01    3.02</time>
   <energy>
    <i name="e_fr_energy">    -43.28409703 </i>
    <i name="e_wo_entrp">    -43.28409703 </i>
    <i name="e_0_energy">    -43.28409703 </i>
   </energy>
  </scstep>
  <scstep>
   <time name="dav">    2.65    2.65</time>
   <time name="total">    2.94    2.95</time>
   <energy>
    <i name="e_fr_energy">    -54.24969172 </i>
    <i name="e_wo_entrp">    -54.24969172 </i>
    <i name="e_0_energy">    -54.24969172 </i>
   </energy>
  </scstep>
  <scstep>
   <time name="dav">    2.70    2.71</time>
   <time name="total">    2.99    3.02</time>
   <energy>
    <i name="e_fr_energy">    -57.68620662 </i>
    <i name="e_wo_entrp">    -57.68620662 </i>
    <i name="e_0_energy">    -57.68620662 </i>
   </energy>
  </scstep>
  <scstep>
   <time name="dav">    2.61    2.61</time>
   <time name="total">    2.90    2.92</time>
   <energy>
    <i name="e_fr_energy">    -62.18471300 </i>
    <i name="e_wo_entrp">    -62.18471300 </i>
    <i name="e_0_energy">    -62.18471300 </i>
   </energy>
  </scstep>
  <scstep>
   <time name="dav">    2.64    2.64</time>
   <time name="total">    2.92    2.93</time>
   <energy>
    <i name="e_fr_energy">    -66.22334189 </i>
    <i name="e_wo_entrp">    -66.22334189 </i>
    <i name="e_0_energy">    -66.22334189 </i>
   </energy>
  </scstep>
  <scstep>
   <time name="dav">    2.99    2.99</time>
   <time name="total">    3.28    3.28</time>
   <energy>
    <i name="e_fr_energy">    -66.57241005 </i>
    <i name="e_wo_entrp">    -66.57241005 </i>
    <i name="e_0_energy">    -66.57241005 </i>
   </energy>
  </scstep>
  <scstep>
   <time name="dav">    2.68    2.69</time>
   <time name="total">    2.98    2.98</time>
   <energy>
    <i name="e_fr_energy">    -67.90585792 </i>
    <i name="e_wo_entrp">    -67.90585792 </i>
    <i name="e_0_energy">    -67.90585792 </i>
   </energy>
  </scstep>
  <scstep>
   <time name="dav">    2.64    2.64</time>
   <time name="total">    2.94    2.96</time>
   <energy>
    <i name="e_fr_energy">    -69.24190800 </i>
    <i name="e_wo_entrp">    -69.24190800 </i>
    <i name="e_0_energy">    -69.24190800 </i>
   </energy>
  </scstep>
  <scstep>
   <time name="dav">    2.70    2.71</time>
   <time name="total">    3.00    3.01</time>
   <energy>
    <i name="e_fr_energy">    -70.15605840 </i>
    <i name="e_wo_entrp">    -70.15605840 </i>
    <i name="e_0_energy">    -70.15605840 </i>
   </energy>
  </scstep>
  <scstep>
   <time name="dav">    2.76    2.77</time>
   <time name="total">    3.06    3.08</time>
   <energy>
    <i name="e_fr_energy">    -70.52801919 </i>
    <i name="e_wo_entrp">    -70.52801919 </i>
    <i name="e_0_energy">    -70.52801919 </i>
   </energy>
  </scstep>
  <scstep>
   <time name="dav">    2.66    2.66</time>
   <time name="total">    2.96    2.96</time>
   <energy>
    <i name="e_fr_energy">    -70.85052947 </i>
    <i name="e_wo_entrp">    -70.85052947 </i>
    <i name="e_0_energy">    -70.85052947 </i>
   </energy>
  </scstep>
  <scstep>
   <time name="dav">    2.27    2.27</time>
   <time name="total">    2.56    3.13</time>
   <energy>
    <i name="e_fr_energy">    -70.92057320 </i>
    <i name="e_wo_entrp">    -70.92057320 </i>
    <i name="e_0_energy">    -70.92057320 </i>
   </energy>
  </scstep>
  <scstep>
   <time name="dav">    2.03    2.03</time>
   <time name="total">    2.32    2.34</time>
   <energy>
    <i name="e_fr_energy">    -70.95912193 </i>
    <i name="e_wo_entrp">    -70.95912193 </i>
    <i name="e_0_energy">    -70.95912193 </i>
   </energy>
  </scstep>
  <scstep>
   <time name="dav">    2.22    2.23</time>
   <time name="total">    2.52    2.65</time>
   <energy>
    <i name="e_fr_energy">    -70.97448019 </i>
    <i name="e_wo_entrp">    -70.97448019 </i>
    <i name="e_0_energy">    -70.97448019 </i>
   </energy>
  </scstep>
  <scstep>
   <time name="dav">    2.06    2.06</time>
   <time name="total">    2.35    2.51</time>
   <energy>
    <i name="e_fr_energy">    -70.97843283 </i>
    <i name="e_wo_entrp">    -70.97843283 </i>
    <i name="e_0_energy">    -70.97843283 </i>
   </energy>
  </scstep>
  <scstep>
   <time name="dav">    2.04    2.05</time>
   <time name="total">    2.34    2.55</time>
   <energy>
    <i name="e_fr_energy">    -70.98464005 </i>
    <i name="e_wo_entrp">    -70.98464005 </i>
    <i name="e_0_energy">    -70.98464005 </i>
   </energy>
  </scstep>
  <scstep>
   <time name="dav">    2.04    2.04</time>
   <time name="total">    2.33    2.34</time>
   <energy>
    <i name="e_fr_energy">    -70.98735104 </i>
    <i name="e_wo_entrp">    -70.98735104 </i>
    <i name="e_0_energy">    -70.98735104 </i>
   </energy>
  </scstep>
  <scstep>
   <time name="dav">    2.00    2.01</time>
   <time name="total">    2.30    2.31</time>
   <energy>
    <i name="e_fr_energy">    -70.98804789 </i>
    <i name="e_wo_entrp">    -70.98804789 </i>
    <i name="e_0_energy">    -70.98804789 </i>
   </energy>
  </scstep>
  <scstep>
   <time name="dav">    1.94    1.95</time>
   <time name="total">    2.24    2.25</time>
   <energy>
    <i name="e_fr_energy">    -70.98841432 </i>
    <i name="e_wo_entrp">    -70.98841432 </i>
    <i name="e_0_energy">    -70.98841432 </i>
   </energy>
  </scstep>
  <scstep>
   <time name="dav">    1.94    1.94</time>
   <time name="total">    2.14    2.14</time>
   <energy>
    <i name="alphaZ">     97.15071814 </i>
    <i name="ewald">  79022.65029102 </i>
    <i name="hartreedc">-112867.43718658 </i>
    <i name="XCdc">   -385.02207788 </i>
    <i name="pawpsdc">  36868.13941323 </i>
    <i name="pawaedc"> -35363.77633446 </i>
    <i name="eentropy">      0.00000000 </i>
    <i name="bandstr">  -2707.44668897 </i>
    <i name="atom">  35264.75342294 </i>
    <i name="e_fr_energy">    -70.98844255 </i>
    <i name="e_wo_entrp">    -70.98844255 </i>
    <i name="e_0_energy">    -70.98844255 </i>
   </energy>
  </scstep>
  <structure>
   <crystal>
    <varray name="basis" >
     <v>      21.63093704       0.00000000       0.00000000 </v>
     <v>       0.00000000      21.63093704       0.00000000 </v>
     <v>       0.00000000       0.00000000      21.63093704 </v>
    </varray>
    <i name="volume">  10121.06000419 </i>
    <varray name="rec_basis" >
     <v>       0.04623008       0.00000000       0.00000000 </v>
     <v>       0.00000000       0.04623008       0.00000000 </v>
     <v>       0.00000000       0.00000000       0.04623008 </v>
    </varray>
   </crystal>
   <varray name="positions" >
    <v>       0.33776876       0.37246668       0.43334574 </v>
    <v>       0.45435353       0.41185312       0.37303256 </v>
    <v>       0.44998668       0.33844556       0.47840058 </v>
    <v>       0.51373434       0.35174934       0.58788435 </v>
    <v>       0.57817493       0.33187715       0.47636553 </v>
    <v>       0.34868596       0.47162809       0.35322355 </v>
    <v>       0.62009729       0.41887130       0.56022766 </v>
    <v>       0.57532767       0.41943334       0.37751604 </v>
    <v>       0.39368771       0.40801031       0.57847547 </v>
    <v>       0.45256194       0.49683789       0.65937331 </v>
    <v>       0.50660784       0.45044662       0.49272319 </v>
    <v>       0.68437454       0.41212870       0.44789557 </v>
    <v>       0.55536810       0.43399450       0.67956991 </v>
    <v>       0.49934711       0.53247395       0.38313302 </v>
    <v>       0.61044170       0.51897776       0.45447476 </v>
    <v>       0.74379019       0.52439193       0.42548253 </v>
    <v>       0.37003352       0.48496476       0.47905596 </v>
    <v>       0.71157939       0.51316240       0.54709396 </v>
    <v>       0.59794747       0.62329393       0.38068226 </v>
    <v>       0.55731928       0.52883068       0.57854104 </v>
    <v>       0.37766089       0.58578870       0.39239666 </v>
    <v>       0.65761628       0.50382756       0.65960633 </v>
    <v>       0.45706761       0.56833596       0.50366094 </v>
    <v>       0.44132796       0.37032535       0.69126761 </v>
    <v>       0.68462438       0.62351209       0.47885390 </v>
    <v>       0.48068013       0.66264817       0.40777526 </v>
    <v>       0.35556342       0.53729325       0.59700104 </v>
    <v>       0.64069103       0.62153581       0.60635516 </v>
    <v>       0.55947813       0.64563602       0.51037878 </v>
    <v>       0.33424200       0.61861663       0.50927911 </v>
    <v>       0.55380122       0.56856099       0.70456656 </v>
    <v>       0.36135491       0.71064588       0.42512923 </v>
    <v>       0.47271803       0.62076882       0.62146670 </v>
    <v>       0.43750972       0.69568662       0.53000449 </v>
   </varray>
  </structure>
  <varray name="forces" >
   <v>      -0.10818862       0.00313012      -0.00905594 </v>
   <v>      -0.44080912      -0.12436083      -0.07449912 </v>
   <v>      -0.21674320      -0.31340371       0.15130854 </v>
   <v>      -0.06688815      -0.05429551       0.11687682 </v>
   <v>       0.15126958       0.21986642      -0.07817994 </v>
   <v>      -0.27977090       0.03255334      -0.18686634 </v>
   <v>       0.35402998      -0.03154498       0.24824974 </v>
   <v>       0.40392374       0.05285432       0.15556287 </v>
   <v>      -0.01566567       0.07551643      -0.02227550 </v>
   <v>      -0.33006552       0.06307754       0.08137362 </v>
   <v>       0.14018555      -0.32013155      -0.17994297 </v>
   <v>      -0.03103375      -0.01414695       0.09263947 </v>
   <v>       0.38944633      -0.43363000       0.04303679 </v>
   <v>      -0.12085954       0.07042342      -0.11573166 </v>
   <v>       0.28687286       0.14106092       0.09171708 </v>
   <v>      -0.09510449      -0.04192910      -0.09440478 </v>
   <v>      -0.47255120      -0.09332869      -0.22841046 </v>
   <v>      -0.05112001       0.02855553      -0.11481105 </v>
   <v>       0.01487141       0.08996518       0.16580560 </v>
   <v>       0.05432678       0.15127753       0.31706675 </v>
   <v>       0.11822797       0.20425561      -0.03791361 </v>
   <v>       0.25131410      -0.06690792       0.11799673 </v>
   <v>      -0.03600289       0.35506823       0.18503945 </v>
   <v>       0.02419207       0.04353303      -0.02055603 </v>
   <v>      -0.10695548       0.00778294       0.15520827 </v>
   <v>      -0.19091798       0.10862312      -0.25423978 </v>
   <v>       0.07278099      -0.21070152       0.18580726 </v>
   <v>       0.17101704      -0.07971738       0.06103756 </v>
   <v>       0.18405948       0.04082231      -0.05395420 </v>
   <v>      -0.13768272       0.14140107      -0.26374035 </v>
   <v>       0.24003790      -0.06133950      -0.12050716 </v>
   <v>      -0.03177065       0.07868446      -0.07811119 </v>
   <v>      -0.01120448      -0.23851160       0.06348836 </v>
   <v>      -0.11322141       0.17549769      -0.29901484 </v>
  </varray>
  <varray name="stress" >
   <v>      -0.66548779      -0.09502830       0.67368597 </v>
   <v>      -0.09502830      -1.26501058      -0.49912699 </v>
   <v>       0.67368597      -0.49912699      -1.30270986 </v>
  </varray>
  <energy>
   <i name="e_fr_energy">    -70.98844255 </i>
   <i name="e_wo_entrp">    -70.98844255 </i>
   <i name="e_0_energy">      0.00000000 </i>
  </energy>
  <time name="totalsc">   89.27   90.86</time>
 </calculation>
 <calculation>
  <scstep>
   <time name="dav">    2.69    2.69</time>
   <time name="total">    2.98    3.00</time>
   <energy>
    <i name="alphaZ">     97.15071814 </i>
    <i name="ewald">  78976.85069009 </i>
    <i name="hartreedc">-112821.82421169 </i>
    <i name="XCdc">   -385.06077887 </i>
    <i name="pawpsdc">  36868.17449505 </i>
    <i name="pawaedc"> -35363.81160053 </i>
    <i name="eentropy">      0.00000000 </i>
    <i name="bandstr">  -2707.25053687 </i>
    <i name="atom">  35264.75342294 </i>
    <i name="e_fr_energy">    -71.01780175 </i>
    <i name="e_wo_entrp">    -71.01780175 </i>
    <i name="e_0_energy">    -71.01780175 </i>
   </energy>
  </scstep>
  <scstep>
   <time name="dav">    2.68    2.69</time>
   <time name="total">    2.98    2.98</time>
   <energy>
    <i name="e_fr_energy">    -71.01880577 </i>
    <i name="e_wo_entrp">    -71.01880577 </i>
    <i name="e_0_energy">    -71.01880577 </i>
   </energy>
  </scstep>
  <scstep>
   <time name="dav">    1.93    1.93</time>
   <time name="total">    2.12    2.13</time>
   <energy>
    <i name="alphaZ">     97.15071814 </i>
    <i name="ewald">  78976.85069009 </i>
    <i name="hartreedc">-112822.11906033 </i>
    <i name="XCdc">   -385.05583815 </i>
    <i name="pawpsdc">  36865.21815445 </i>
    <i name="pawaedc"> -35360.80324456 </i>
    <i name="eentropy">      0.00000000 </i>
    <i name="bandstr">  -2707.01365005 </i>
    <i name="atom">  35264.75342294 </i>
    <i name="e_fr_energy">    -71.01880748 </i>
    <i name="e_wo_entrp">    -71.01880748 </i>
    <i name="e_0_energy">    -71.01880748 </i>
   </energy>
  </scstep>
  <structure>
   <crystal>
    <varray name="basis" >
     <v>      21.63093704       0.00000000       0.00000000 </v>
     <v>       0.00000000      21.63093704       0.00000000 </v>
     <v>       0.00000000       0.00000000      21.63093704 </v>
    </varray>
    <i name="volume">  10121.06000419 </i>
    <varray name="rec_basis" >
     <v>       0.04623008       0.00000000       0.00000000 </v>
     <v>       0.00000000       0.04623008       0.00000000 </v>
     <v>       0.00000000       0.00000000       0.04623008 </v>
    </varray>
   </crystal>
   <varray name="positions" >
    <v>       0.33772050       0.37246808       0.43334170 </v>
    <v>       0.45415691       0.41179765       0.37299933 </v>
    <v>       0.44989000       0.33830577       0.47846807 </v>
    <v>       0.51370451       0.35172512       0.58793648 </v>
    <v>       0.57824240       0.33197523       0.47633066 </v>
    <v>       0.34856116       0.47164261       0.35314020 </v>
    <v>       0.62025521       0.41885723       0.56033839 </v>
    <v>       0.57550784       0.41945692       0.37758543 </v>
    <v>       0.39368072       0.40804399       0.57846553 </v>
    <v>       0.45241472       0.49686602       0.65940961 </v>
    <v>       0.50667037       0.45030383       0.49264293 </v>
    <v>       0.68436070       0.41212239       0.44793689 </v>
    <v>       0.55554182       0.43380108       0.67958911 </v>
    <v>       0.49929320       0.53250536       0.38308140 </v>
    <v>       0.61056966       0.51904068       0.45451567 </v>
    <v>       0.74374777       0.52437323       0.42544042 </v>
    <v>       0.36982274       0.48492313       0.47895408 </v>
    <v>       0.71155659       0.51317514       0.54704275 </v>
    <v>       0.59795411       0.62333406       0.38075622 </v>
    <v>       0.55734351       0.52889816       0.57868247 </v>
    <v>       0.37771362       0.58587981       0.39237975 </v>
    <v>       0.65772838       0.50379771       0.65965897 </v>
    <v>       0.45705155       0.56849434       0.50374348 </v>
    <v>       0.44133875       0.37034477       0.69125844 </v>
    <v>       0.68457668       0.62351556       0.47892313 </v>
    <v>       0.48059497       0.66269663       0.40766186 </v>
    <v>       0.35559589       0.53719927       0.59708392 </v>
    <v>       0.64076731       0.62150026       0.60638238 </v>
    <v>       0.55956023       0.64565423       0.51035471 </v>
    <v>       0.33418059       0.61867970       0.50916147 </v>
    <v>       0.55390829       0.56853363       0.70451281 </v>
    <v>       0.36134074       0.71068098       0.42509439 </v>
    <v>       0.47271303       0.62066244       0.62149502 </v>
    <v>       0.43745922       0.69576490       0.52987112 </v>
   </varray>
  </structure>
  <varray name="forces" >
   <v>      -0.10795960      -0.00238642      -0.01183936 </v>
   <v>      -0.38301992      -0.11771042      -0.06282549 </v>
   <v>      -0.20208493      -0.30029802       0.14514112 </v>
   <v>      -0.05759715      -0.05078189       0.10160591 </v>
   <v>       0.13801856       0.21144160      -0.06775403 </v>
   <v>      -0.27219229       0.04135866      -0.17976410 </v>
   <v>       0.32986807      -0.03039295       0.24208694 </v>
   <v>       0.34525856       0.05536904       0.14274654 </v>
   <v>      -0.01501960       0.07294313      -0.02615915 </v>
   <v>      -0.27154332       0.03723972       0.09996563 </v>
   <v>       0.13935472      -0.28306957      -0.16845067 </v>
   <v>      -0.02161634      -0.01486717       0.09282805 </v>
   <v>       0.35264289      -0.40277492       0.03775848 </v>
   <v>      -0.11278363       0.05855526      -0.10155105 </v>
   <v>       0.25790790       0.13100080       0.09032352 </v>
   <v>      -0.09287328      -0.03810536      -0.09381734 </v>
   <v>      -0.43674026      -0.06131387      -0.20650380 </v>
   <v>      -0.04583057       0.02767119      -0.10604689 </v>
   <v>       0.00973703       0.08958307       0.15941424 </v>
   <v>       0.04675660       0.12307285       0.28616734 </v>
   <v>       0.10928238       0.18150676      -0.04235215 </v>
   <v>       0.24616689      -0.06639364       0.11479448 </v>
   <v>      -0.04477039       0.30286314       0.16506368 </v>
   <v>       0.02279405       0.04417791      -0.01728653 </v>
   <v>      -0.09420624       0.01207228       0.14799401 </v>
   <v>      -0.17231147       0.10530246      -0.24144371 </v>
   <v>       0.05128873      -0.18132667       0.14497176 </v>
   <v>       0.16730185      -0.07465797       0.06073187 </v>
   <v>       0.16610547       0.04106680      -0.05219774 </v>
   <v>      -0.13045437       0.11556466      -0.23332400 </v>
   <v>       0.23353862      -0.06254403      -0.11227954 </v>
   <v>      -0.03682663       0.08526060      -0.08164366 </v>
   <v>      -0.01912013      -0.21091469       0.05133321 </v>
   <v>      -0.09907220       0.16148767      -0.27768758 </v>
  </varray>
  <varray name="stress" >
   <v>      -0.71307140      -0.09331919       0.66599314 </v>
   <v>      -0.09331918      -1.30293662      -0.48965000 </v>
   <v>       0.66599315      -0.48965000      -1.32574221 </v>
  </varray>
  <energy>
   <i name="e_fr_energy">    -71.01880748 </i>
   <i name="e_wo_entrp">    -71.01880748 </i>
   <i name="e_0_energy">      0.00000000 </i>
  </energy>
  <time name="totalsc">   12.89   13.43</time>
 </calculation>
 <calculation>
  <scstep>
   <time name="dav">    2.64    2.64</time>
   <time name="total">    2.93    2.94</time>
   <energy>
    <i name="alphaZ">     97.15071814 </i>
    <i name="ewald">  78839.91296425 </i>
    <i name="hartreedc">-112685.93029452 </i>
    <i name="XCdc">   -385.16567961 </i>
    <i name="pawpsdc">  36862.78390101 </i>
    <i name="pawaedc"> -35358.33463836 </i>
    <i name="eentropy">      0.00000000 </i>
    <i name="bandstr">  -2706.25890965 </i>
    <i name="atom">  35264.75342294 </i>
    <i name="e_fr_energy">    -71.08851581 </i>
    <i name="e_wo_entrp">    -71.08851581 </i>
    <i name="e_0_energy">    -71.08851581 </i>
   </energy>
  </scstep>
  <scstep>
   <time name="dav">    2.72    2.73</time>
   <time name="total">    3.02    4.30</time>
   <energy>
    <i name="e_fr_energy">    -71.09721561 </i>
    <i name="e_wo_entrp">    -71.09721561 </i>
    <i name="e_0_energy">    -71.09721561 </i>
   </energy>
  </scstep>
  <scstep>
   <time name="dav">    2.69    2.70</time>
   <time name="total">    2.98    3.00</time>
   <energy>
    <i name="e_fr_energy">    -71.09704868 </i>
    <i name="e_wo_entrp">    -71.09704868 </i>
    <i name="e_0_energy">    -71.09704868 </i>
   </energy>
  </scstep>
  <scstep>
   <time name="dav">    2.70    2.70</time>
   <time name="total">    2.99    3.01</time>
   <energy>
    <i name="e_fr_energy">    -71.09692245 </i>
    <i name="e_wo_entrp">    -71.09692245 </i>
    <i name="e_0_energy">    -71.09692245 </i>
   </energy>
  </scstep>
  <scstep>
   <time name="dav">    1.90    1.90</time>
   <time name="total">    2.09    2.10</time>
   <energy>
    <i name="alphaZ">     97.15071814 </i>
    <i name="ewald">  78839.91296425 </i>
    <i name="hartreedc">-112686.94989524 </i>
    <i name="XCdc">   -385.14687943 </i>
    <i name="pawpsdc">  36846.33394056 </i>
    <i name="pawaedc"> -35341.62265227 </i>
    <i name="eentropy">      0.00000000 </i>
    <i name="bandstr">  -2705.52854181 </i>
    <i name="atom">  35264.75342294 </i>
    <i name="e_fr_energy">    -71.09692287 </i>
    <i name="e_wo_entrp">    -71.09692287 </i>
    <i name="e_0_energy">    -71.09692287 </i>
   </energy>
  </scstep>
  <structure>
   <crystal>
    <varray name="basis" >
     <v>      21.63093704       0.00000000       0.00000000 </v>
     <v>       0.00000000      21.63093704       0.00000000 </v>
     <v>       0.00000000       0.00000000      21.63093704 </v>
    </varray>
    <i name="volume">  10121.06000419 </i>
    <varray name="rec_basis" >
     <v>       0.04623008       0.00000000       0.00000000 </v>
     <v>       0.00000000       0.04623008       0.00000000 </v>
     <v>       0.00000000       0.00000000       0.04623008 </v>
    </varray>
   </crystal>
   <varray name="positions" >
    <v>       0.33757572       0.37247227       0.43332958 </v>
    <v>       0.45356703       0.41163124       0.37289964 </v>
    <v>       0.44959996       0.33788638       0.47867055 </v>
    <v>       0.51361500       0.35165246       0.58809288 </v>
    <v>       0.57844482       0.33226944       0.47622604 </v>
    <v>       0.34818679       0.47168617       0.35289014 </v>
    <v>       0.62072896       0.41881502       0.56067059 </v>
    <v>       0.57604835       0.41952765       0.37779359 </v>
    <v>       0.39365976       0.40814504       0.57843573 </v>
    <v>       0.45197304       0.49695043       0.65951850 </v>
    <v>       0.50685796       0.44987544       0.49240214 </v>
    <v>       0.68431917       0.41210346       0.44806085 </v>
    <v>       0.55606296       0.43322082       0.67964670 </v>
    <v>       0.49913147       0.53259960       0.38292653 </v>
    <v>       0.61095354       0.51922944       0.45463840 </v>
    <v>       0.74362050       0.52431712       0.42531409 </v>
    <v>       0.36919039       0.48479824       0.47864843 </v>
    <v>       0.71148818       0.51321335       0.54688912 </v>
    <v>       0.59797401       0.62345444       0.38097809 </v>
    <v>       0.55741621       0.52910060       0.57910675 </v>
    <v>       0.37787183       0.58615314       0.39232901 </v>
    <v>       0.65806468       0.50370818       0.65981686 </v>
    <v>       0.45700338       0.56896947       0.50399109 </v>
    <v>       0.44137112       0.37040302       0.69123094 </v>
    <v>       0.68443355       0.62352597       0.47913083 </v>
    <v>       0.48033949       0.66284198       0.40732164 </v>
    <v>       0.35569328       0.53691732       0.59733255 </v>
    <v>       0.64099616       0.62139358       0.60646406 </v>
    <v>       0.55980653       0.64570886       0.51028251 </v>
    <v>       0.33399635       0.61886892       0.50880854 </v>
    <v>       0.55422950       0.56845154       0.70435155 </v>
    <v>       0.36129822       0.71078627       0.42498986 </v>
    <v>       0.47269804       0.62034327       0.62157997 </v>
    <v>       0.43730771       0.69599975       0.52947099 </v>
   </varray>
  </structure>
  <varray name="forces" >
   <v>      -0.11429268      -0.01813192      -0.02010092 </v>
   <v>      -0.25743165      -0.10799938      -0.03395878 </v>
   <v>      -0.17712594      -0.28436122       0.13933453 </v>
   <v>      -0.03695692      -0.04526893       0.06856491 </v>
   <v>       0.11306753       0.20122885      -0.04315891 </v>
   <v>      -0.26880134       0.06739956      -0.17188576 </v>
   <v>       0.28630486      -0.02880329       0.24233740 </v>
   <v>       0.21716684       0.06569451       0.11681494 </v>
   <v>      -0.01530397       0.07035054      -0.03849170 </v>
   <v>      -0.12976494      -0.02985401       0.15880277 </v>
   <v>       0.14811541      -0.20317317      -0.14875999 </v>
   <v>       0.00303237      -0.01845226       0.09986038 </v>
   <v>       0.27888968      -0.34819805       0.02594772 </v>
   <v>      -0.09923362       0.03125110      -0.06998845 </v>
   <v>       0.19881345       0.11226079       0.09230080 </v>
   <v>      -0.09404401      -0.03036393      -0.09869165 </v>
   <v>      -0.37062628       0.02118397      -0.15938127 </v>
   <v>      -0.03443082       0.02658965      -0.08721749 </v>
   <v>      -0.00373810       0.09668716       0.15229757 </v>
   <v>       0.02892819       0.05507453       0.21832424 </v>
   <v>       0.09045639       0.13080944      -0.05743455 </v>
   <v>       0.24813887      -0.06989023       0.11520610 </v>
   <v>      -0.07095121       0.18260229       0.12232353 </v>
   <v>       0.02081610       0.04907060      -0.00881432 </v>
   <v>      -0.06765595       0.02591631       0.13907921 </v>
   <v>      -0.13259653       0.10308782      -0.22096963 </v>
   <v>      -0.00773701      -0.11273218       0.04183778 </v>
   <v>       0.16897320      -0.06608931       0.06442556 </v>
   <v>       0.12865974       0.04406420      -0.05133707 </v>
   <v>      -0.11964224       0.05355164      -0.16706332 </v>
   <v>       0.23280119      -0.06809057      -0.09556864 </v>
   <v>      -0.05320753       0.10917615      -0.09589878 </v>
   <v>      -0.04252963      -0.15179285       0.02435015 </v>
   <v>      -0.06809345       0.13720222      -0.25308638 </v>
  </varray>
  <varray name="stress" >
   <v>      -0.82404258      -0.09126792       0.64293831 </v>
   <v>      -0.09126792      -1.38472753      -0.46451127 </v>
   <v>       0.64293831      -0.46451127      -1.37245773 </v>
  </varray>
  <energy>
   <i name="e_fr_energy">    -71.09692287 </i>
   <i name="e_wo_entrp">    -71.09692287 </i>
   <i name="e_0_energy">      0.00000000 </i>
  </energy>
  <time name="totalsc">   18.84   21.96</time>
 </calculation>
 <calculation>
  <scstep>
   <time name="dav">    2.61    2.62</time>
   <time name="total">    2.90    6.26</time>
   <energy>
    <i name="alphaZ">     97.15071814 </i>
    <i name="ewald">  78568.08506659 </i>
    <i name="hartreedc">-112416.25103878 </i>
    <i name="XCdc">   -385.34649738 </i>
    <i name="pawpsdc">  36846.39162660 </i>
    <i name="pawaedc"> -35341.68224969 </i>
    <i name="eentropy">      0.00000000 </i>
    <i name="bandstr">  -2704.26645498 </i>
    <i name="atom">  35264.75342294 </i>
    <i name="e_fr_energy">    -71.16540655 </i>
    <i name="e_wo_entrp">    -71.16540655 </i>
    <i name="e_0_energy">    -71.16540655 </i>
   </energy>
  </scstep>
  <scstep>
   <time name="dav">    2.70    2.71</time>
   <time name="total">    2.99    3.00</time>
   <energy>
    <i name="e_fr_energy">    -71.19992478 </i>
    <i name="e_wo_entrp">    -71.19992478 </i>
    <i name="e_0_energy">    -71.19992478 </i>
   </energy>
  </scstep>
  <scstep>
   <time name="dav">    2.71    2.71</time>
   <time name="total">    3.00    4.24</time>
   <energy>
    <i name="e_fr_energy">    -71.19928321 </i>
    <i name="e_wo_entrp">    -71.19928321 </i>
    <i name="e_0_energy">    -71.19928321 </i>
   </energy>
  </scstep>
  <scstep>
   <time name="dav">    2.70    2.70</time>
   <time name="total">    2.99    3.00</time>
   <energy>
    <i name="e_fr_energy">    -71.19864636 </i>
    <i name="e_wo_entrp">    -71.19864636 </i>
    <i name="e_0_energy">    -71.19864636 </i>
   </energy>
  </scstep>
  <scstep>
   <time name="dav">    1.90    1.91</time>
   <time name="total">    2.10    2.19</time>
   <energy>
    <i name="alphaZ">     97.15071814 </i>
    <i name="ewald">  78568.08506659 </i>
    <i name="hartreedc">-112418.20964071 </i>
    <i name="XCdc">   -385.31271945 </i>
    <i name="pawpsdc">  36819.92417040 </i>
    <i name="pawaedc"> -35314.76466622 </i>
    <i name="eentropy">      0.00000000 </i>
    <i name="bandstr">  -2702.82500443 </i>
    <i name="atom">  35264.75342294 </i>
    <i name="e_fr_energy">    -71.19865273 </i>
    <i name="e_wo_entrp">    -71.19865273 </i>
    <i name="e_0_energy">    -71.19865273 </i>
   </energy>
  </scstep>
  <structure>
   <crystal>
    <varray name="basis" >
     <v>      21.63093704       0.00000000       0.00000000 </v>
     <v>       0.00000000      21.63093704       0.00000000 </v>
     <v>       0.00000000       0.00000000      21.63093704 </v>
    </varray>
    <i name="volume">  10121.06000419 </i>
    <varray name="rec_basis" >
     <v>       0.04623008       0.00000000       0.00000000 </v>
     <v>       0.00000000       0.04623008       0.00000000 </v>
     <v>       0.00000000       0.00000000       0.04623008 </v>
    </varray>
   </crystal>
   <varray name="positions" >
    <v>       0.33728618       0.37248065       0.43330534 </v>
    <v>       0.45238729       0.41129841       0.37270025 </v>
    <v>       0.44901989       0.33704762       0.47907549 </v>
    <v>       0.51343599       0.35150715       0.58840568 </v>
    <v>       0.57884967       0.33285787       0.47601681 </v>
    <v>       0.34743803       0.47177329       0.35239003 </v>
    <v>       0.62167645       0.41873059       0.56133498 </v>
    <v>       0.57712938       0.41966910       0.37820993 </v>
    <v>       0.39361783       0.40834715       0.57837611 </v>
    <v>       0.45108968       0.49711924       0.65973628 </v>
    <v>       0.50723314       0.44901867       0.49192055 </v>
    <v>       0.68423612       0.41206560       0.44830879 </v>
    <v>       0.55710524       0.43206029       0.67976188 </v>
    <v>       0.49880801       0.53278807       0.38261680 </v>
    <v>       0.61172130       0.51960697       0.45488386 </v>
    <v>       0.74336597       0.52420491       0.42506144 </v>
    <v>       0.36792570       0.48454846       0.47803713 </v>
    <v>       0.71135137       0.51328978       0.54658185 </v>
    <v>       0.59801381       0.62369522       0.38142184 </v>
    <v>       0.55756161       0.52950546       0.57995532 </v>
    <v>       0.37818824       0.58669979       0.39222754 </v>
    <v>       0.65873728       0.50352911       0.66013266 </v>
    <v>       0.45690702       0.56991975       0.50448631 </v>
    <v>       0.44143587       0.37051953       0.69117592 </v>
    <v>       0.68414731       0.62354680       0.47954621 </v>
    <v>       0.47982854       0.66313269       0.40664122 </v>
    <v>       0.35588807       0.53635342       0.59782983 </v>
    <v>       0.64145386       0.62118023       0.60662742 </v>
    <v>       0.56029913       0.64581811       0.51013811 </v>
    <v>       0.33362786       0.61924735       0.50810269 </v>
    <v>       0.55487191       0.56828738       0.70402904 </v>
    <v>       0.36121320       0.71099686       0.42478081 </v>
    <v>       0.47266805       0.61970494       0.62174989 </v>
    <v>       0.43700469       0.69646943       0.52867073 </v>
   </varray>
  </structure>
  <varray name="forces" >
   <v>      -0.12326272      -0.05459815      -0.03670831 </v>
   <v>      -0.03109196      -0.08533592       0.02210305 </v>
   <v>      -0.12017069      -0.22938426       0.12013264 </v>
   <v>       0.00514010      -0.03445029      -0.00324175 </v>
   <v>       0.05983694       0.16689577       0.00989774 </v>
   <v>      -0.25169544       0.11375433      -0.15598315 </v>
   <v>       0.18997133      -0.02935953       0.23104943 </v>
   <v>      -0.00929952       0.08611869       0.05286248 </v>
   <v>      -0.01449883       0.06013969      -0.06436169 </v>
   <v>       0.15257107      -0.15919034       0.27317541 </v>
   <v>       0.15615786      -0.04688530      -0.10523958 </v>
   <v>       0.05953749      -0.02574185       0.11260661 </v>
   <v>       0.13027050      -0.22108975       0.00677992 </v>
   <v>      -0.06728694      -0.02557052      -0.00601682 </v>
   <v>       0.07368289       0.06395327       0.08929376 </v>
   <v>      -0.09064015      -0.01466312      -0.10649763 </v>
   <v>      -0.23918250       0.17928166      -0.05883022 </v>
   <v>      -0.00693746       0.02263701      -0.04432783 </v>
   <v>      -0.03167770       0.10778525       0.12925297 </v>
   <v>      -0.00304430      -0.08221847       0.06758717 </v>
   <v>       0.04506250       0.02048593      -0.08563727 </v>
   <v>       0.24290354      -0.07451440       0.11165899 </v>
   <v>      -0.11329879      -0.04543941       0.03348076 </v>
   <v>       0.01564263       0.05621531       0.00864681 </v>
   <v>      -0.00309899       0.05557199       0.11491143 </v>
   <v>      -0.03991173       0.09479099      -0.17322901 </v>
   <v>      -0.13827450       0.02541187      -0.16627548 </v>
   <v>       0.16744433      -0.04581546       0.06920661 </v>
   <v>       0.04547287       0.04727211      -0.04426120 </v>
   <v>      -0.09763735      -0.06570814      -0.04004528 </v>
   <v>       0.21529429      -0.07505797      -0.04824620 </v>
   <v>      -0.08641141       0.15416987      -0.12417861 </v>
   <v>      -0.08608250      -0.02986487      -0.01989531 </v>
   <v>      -0.00548487       0.09040402      -0.16967046 </v>
  </varray>
  <varray name="stress" >
   <v>      -1.01454421      -0.09018495       0.60609435 </v>
   <v>      -0.09018495      -1.53020171      -0.41703831 </v>
   <v>       0.60609435      -0.41703831      -1.45075180 </v>
  </varray>
  <energy>
   <i name="e_fr_energy">    -71.19865273 </i>
   <i name="e_wo_entrp">    -71.19865273 </i>
   <i name="e_0_energy">      0.00000000 </i>
  </energy>
  <time name="totalsc">   18.80   23.51</time>
 </calculation>
 <calculation>
  <scstep>
   <time name="dav">    2.61    2.61</time>
   <time name="total">    2.90    2.92</time>
   <energy>
    <i name="alphaZ">     97.15071814 </i>
    <i name="ewald">  78032.40525054 </i>
    <i name="hartreedc">-111884.16068362 </i>
    <i name="XCdc">   -385.62619825 </i>
    <i name="pawpsdc">  36819.85874106 </i>
    <i name="pawaedc"> -35314.70080257 </i>
    <i name="eentropy">      0.00000000 </i>
    <i name="bandstr">  -2700.75142990 </i>
    <i name="atom">  35264.75342294 </i>
    <i name="e_fr_energy">    -71.07098166 </i>
    <i name="e_wo_entrp">    -71.07098166 </i>
    <i name="e_0_energy">    -71.07098166 </i>
   </energy>
  </scstep>
  <scstep>
   <time name="dav">    2.69    2.70</time>
   <time name="total">    2.98    2.99</time>
   <energy>
    <i name="e_fr_energy">    -71.21257345 </i>
    <i name="e_wo_entrp">    -71.21257345 </i>
    <i name="e_0_energy">    -71.21257345 </i>
   </energy>
  </scstep>
  <scstep>
   <time name="dav">    2.73    2.73</time>
   <time name="total">    3.02    3.04</time>
   <energy>
    <i name="e_fr_energy">    -71.21056616 </i>
    <i name="e_wo_entrp">    -71.21056616 </i>
    <i name="e_0_energy">    -71.21056616 </i>
   </energy>
  </scstep>
  <scstep>
   <time name="dav">    2.66    2.66</time>
   <time name="total">    2.94    2.96</time>
   <energy>
    <i name="e_fr_energy">    -71.20773421 </i>
    <i name="e_wo_entrp">    -71.20773421 </i>
    <i name="e_0_energy">    -71.20773421 </i>
   </energy>
  </scstep>
  <scstep>
   <time name="dav">    2.74    2.74</time>
   <time name="total">    2.93    2.94</time>
   <energy>
    <i name="alphaZ">     97.15071814 </i>
    <i name="ewald">  78032.40525054 </i>
    <i name="hartreedc">-111887.40913218 </i>
    <i name="XCdc">   -385.56964793 </i>
    <i name="pawpsdc">  36788.85228400 </i>
    <i name="pawaedc"> -35283.05411030 </i>
    <i name="eentropy">      0.00000000 </i>
    <i name="bandstr">  -2698.33661165 </i>
    <i name="atom">  35264.75342294 </i>
    <i name="e_fr_energy">    -71.20782645 </i>
    <i name="e_wo_entrp">    -71.20782645 </i>
    <i name="e_0_energy">    -71.20782645 </i>
   </energy>
  </scstep>
  <structure>
   <crystal>
    <varray name="basis" >
     <v>      21.63093704       0.00000000       0.00000000 </v>
     <v>       0.00000000      21.63093704       0.00000000 </v>
     <v>       0.00000000       0.00000000      21.63093704 </v>
    </varray>
    <i name="volume">  10121.06000419 </i>
    <varray name="rec_basis" >
     <v>       0.04623008       0.00000000       0.00000000 </v>
     <v>       0.00000000       0.04623008       0.00000000 </v>
     <v>       0.00000000       0.00000000       0.04623008 </v>
    </varray>
   </crystal>
   <varray name="positions" >
    <v>       0.33670708       0.37249740       0.43325687 </v>
    <v>       0.45002780       0.41063275       0.37230149 </v>
    <v>       0.44785974       0.33537008       0.47988539 </v>
    <v>       0.51307796       0.35121653       0.58903128 </v>
    <v>       0.57965936       0.33403474       0.47559834 </v>
    <v>       0.34594052       0.47194754       0.35138980 </v>
    <v>       0.62357144       0.41856174       0.56266377 </v>
    <v>       0.57929143       0.41995201       0.37904260 </v>
    <v>       0.39353398       0.40875136       0.57825688 </v>
    <v>       0.44932296       0.49745687       0.66017184 </v>
    <v>       0.50798350       0.44730512       0.49095738 </v>
    <v>       0.68407000       0.41198987       0.44880465 </v>
    <v>       0.55918980       0.42973923       0.67999224 </v>
    <v>       0.49816109       0.53316502       0.38199733 </v>
    <v>       0.61325683       0.52036201       0.45537479 </v>
    <v>       0.74285691       0.52398047       0.42455612 </v>
    <v>       0.36539630       0.48404891       0.47681453 </v>
    <v>       0.71107774       0.51344262       0.54596731 </v>
    <v>       0.59809341       0.62417677       0.38230933 </v>
    <v>       0.55785240       0.53031519       0.58165246 </v>
    <v>       0.37882108       0.58779310       0.39202461 </v>
    <v>       0.66008247       0.50317098       0.66076425 </v>
    <v>       0.45671431       0.57182030       0.50547676 </v>
    <v>       0.44156536       0.37075255       0.69106589 </v>
    <v>       0.68357481       0.62358846       0.48037698 </v>
    <v>       0.47880663       0.66371411       0.40528037 </v>
    <v>       0.35627763       0.53522561       0.59882439 </v>
    <v>       0.64236925       0.62075353       0.60695413 </v>
    <v>       0.56128433       0.64603662       0.50984932 </v>
    <v>       0.33289090       0.62000422       0.50669099 </v>
    <v>       0.55615675       0.56795905       0.70338401 </v>
    <v>       0.36104314       0.71141802       0.42436271 </v>
    <v>       0.47260808       0.61842827       0.62208972 </v>
    <v>       0.43639866       0.69740881       0.52707022 </v>
   </varray>
  </structure>
  <varray name="forces" >
   <v>      -0.14213147      -0.14188840      -0.06806271 </v>
   <v>       0.30224879      -0.05837671       0.12055748 </v>
   <v>      -0.04143969      -0.10199045       0.08646561 </v>
   <v>       0.07989348      -0.02142899      -0.14124843 </v>
   <v>      -0.02302043       0.07592028       0.11939522 </v>
   <v>      -0.22060289       0.19116253      -0.14128280 </v>
   <v>       0.02083557      -0.04343020       0.19360413 </v>
   <v>      -0.34936821       0.13460949      -0.09149846 </v>
   <v>      -0.01331671       0.03308790      -0.11845779 </v>
   <v>       0.68456590      -0.39453944       0.51170827 </v>
   <v>       0.15010586       0.19340439      -0.02654924 </v>
   <v>       0.19087641      -0.03918160       0.14886924 </v>
   <v>      -0.09023083       0.00636458      -0.02104022 </v>
   <v>      -0.00555232      -0.12912700       0.10779291 </v>
   <v>      -0.15821300      -0.04680924       0.07258725 </v>
   <v>      -0.07606146       0.01477655      -0.12448558 </v>
   <v>      -0.01864410       0.45608420       0.12406249 </v>
   <v>       0.05598977       0.01419470       0.05117488 </v>
   <v>      -0.08961471       0.12951227       0.07250713 </v>
   <v>      -0.04444673      -0.32697472      -0.23761618 </v>
   <v>      -0.05754294      -0.19286884      -0.13642047 </v>
   <v>       0.23874262      -0.08344393       0.11166463 </v>
   <v>      -0.17463369      -0.41012321      -0.13487136 </v>
   <v>       0.00277342       0.06984480       0.04530192 </v>
   <v>       0.14581948       0.12741074       0.07000969 </v>
   <v>       0.15633063       0.08422484      -0.09349778 </v>
   <v>      -0.44113097       0.28522706      -0.56034517 </v>
   <v>       0.16750929      -0.00586195       0.08056316 </v>
   <v>      -0.12945439       0.05109957      -0.01729512 </v>
   <v>      -0.06491705      -0.26949665       0.16547080 </v>
   <v>       0.16153435      -0.07534011       0.07609062 </v>
   <v>      -0.15812350       0.24637197      -0.18588330 </v>
   <v>      -0.16304025       0.20253995      -0.05837492 </v>
   <v>       0.10425978       0.02504560      -0.00089591 </v>
  </varray>
  <varray name="stress" >
   <v>      -1.23737477      -0.10432356       0.56061127 </v>
   <v>      -0.10432357      -1.71798204      -0.33310107 </v>
   <v>       0.56061127      -0.33310107      -1.52375914 </v>
  </varray>
  <energy>
   <i name="e_fr_energy">    -71.20782645 </i>
   <i name="e_wo_entrp">    -71.20782645 </i>
   <i name="e_0_energy">      0.00000000 </i>
  </energy>
  <time name="totalsc">   19.59   22.15</time>
 </calculation>
 <calculation>
  <scstep>
   <time name="dav">    2.61    2.62</time>
   <time name="total">    2.90    2.92</time>
   <energy>
    <i name="alphaZ">     97.15071814 </i>
    <i name="ewald">  78267.94105275 </i>
    <i name="hartreedc">-112122.55351615 </i>
    <i name="XCdc">   -385.43380519 </i>
    <i name="pawpsdc">  36787.78557934 </i>
    <i name="pawaedc"> -35281.98114013 </i>
    <i name="eentropy">      0.00000000 </i>
    <i name="bandstr">  -2698.86937329 </i>
    <i name="atom">  35264.75342294 </i>
    <i name="e_fr_energy">    -71.20706160 </i>
    <i name="e_wo_entrp">    -71.20706160 </i>
    <i name="e_0_energy">    -71.20706160 </i>
   </energy>
  </scstep>
  <scstep>
   <time name="dav">    2.69    2.70</time>
   <time name="total">    2.98    3.05</time>
   <energy>
    <i name="e_fr_energy">    -71.23464479 </i>
    <i name="e_wo_entrp">    -71.23464479 </i>
    <i name="e_0_energy">    -71.23464479 </i>
   </energy>
  </scstep>
  <scstep>
   <time name="dav">    2.74    2.75</time>
   <time name="total">    3.04    3.69</time>
   <energy>
    <i name="e_fr_energy">    -71.23416136 </i>
    <i name="e_wo_entrp">    -71.23416136 </i>
    <i name="e_0_energy">    -71.23416136 </i>
   </energy>
  </scstep>
  <scstep>
   <time name="dav">    2.64    2.64</time>
   <time name="total">    2.92    2.95</time>
   <energy>
    <i name="e_fr_energy">    -71.23360590 </i>
    <i name="e_wo_entrp">    -71.23360590 </i>
    <i name="e_0_energy">    -71.23360590 </i>
   </energy>
  </scstep>
  <scstep>
   <time name="dav">    2.00    2.00</time>
   <time name="total">    2.20    2.21</time>
   <energy>
    <i name="alphaZ">     97.15071814 </i>
    <i name="ewald">  78267.94105275 </i>
    <i name="hartreedc">-112121.14139554 </i>
    <i name="XCdc">   -385.46584485 </i>
    <i name="pawpsdc">  36798.04429506 </i>
    <i name="pawaedc"> -35292.48423605 </i>
    <i name="eentropy">      0.00000000 </i>
    <i name="bandstr">  -2700.03165631 </i>
    <i name="atom">  35264.75342294 </i>
    <i name="e_fr_energy">    -71.23364386 </i>
    <i name="e_wo_entrp">    -71.23364386 </i>
    <i name="e_0_energy">    -71.23364386 </i>
   </energy>
  </scstep>
  <structure>
   <crystal>
    <varray name="basis" >
     <v>      21.63093704       0.00000000       0.00000000 </v>
     <v>       0.00000000      21.63093704       0.00000000 </v>
     <v>       0.00000000       0.00000000      21.63093704 </v>
    </varray>
    <i name="volume">  10121.06000419 </i>
    <varray name="rec_basis" >
     <v>       0.04623008       0.00000000       0.00000000 </v>
     <v>       0.00000000       0.04623008       0.00000000 </v>
     <v>       0.00000000       0.00000000       0.04623008 </v>
    </varray>
   </crystal>
   <varray name="positions" >
    <v>       0.33696310       0.37248999       0.43327830 </v>
    <v>       0.45107095       0.41092704       0.37247779 </v>
    <v>       0.44837265       0.33611173       0.47952733 </v>
    <v>       0.51323625       0.35134502       0.58875470 </v>
    <v>       0.57930139       0.33351444       0.47578335 </v>
    <v>       0.34660258       0.47187051       0.35183201 </v>
    <v>       0.62273366       0.41863639       0.56207630 </v>
    <v>       0.57833558       0.41982693       0.37867447 </v>
    <v>       0.39357105       0.40857266       0.57830959 </v>
    <v>       0.45010403       0.49730761       0.65997928 </v>
    <v>       0.50765176       0.44806269       0.49138321 </v>
    <v>       0.68414344       0.41202335       0.44858543 </v>
    <v>       0.55826820       0.43076538       0.67989039 </v>
    <v>       0.49844710       0.53299837       0.38227120 </v>
    <v>       0.61257796       0.52002820       0.45515775 </v>
    <v>       0.74308197       0.52407970       0.42477952 </v>
    <v>       0.36651456       0.48426976       0.47735505 </v>
    <v>       0.71119871       0.51337505       0.54623900 </v>
    <v>       0.59805822       0.62396387       0.38191697 </v>
    <v>       0.55772384       0.52995721       0.58090215 </v>
    <v>       0.37854130       0.58730974       0.39211433 </v>
    <v>       0.65948775       0.50332931       0.66048502 </v>
    <v>       0.45679951       0.57098005       0.50503888 </v>
    <v>       0.44150811       0.37064953       0.69111454 </v>
    <v>       0.68382792       0.62357004       0.48000970 </v>
    <v>       0.47925842       0.66345706       0.40588201 </v>
    <v>       0.35610540       0.53572422       0.59838469 </v>
    <v>       0.64196455       0.62094218       0.60680969 </v>
    <v>       0.56084877       0.64594001       0.50997700 </v>
    <v>       0.33321672       0.61966960       0.50731511 </v>
    <v>       0.55558871       0.56810421       0.70366918 </v>
    <v>       0.36111832       0.71123182       0.42454755 </v>
    <v>       0.47263459       0.61899269       0.62193948 </v>
    <v>       0.43666659       0.69699350       0.52777781 </v>
   </varray>
  </structure>
  <varray name="forces" >
   <v>      -0.13280881      -0.10195452      -0.05430764 </v>
   <v>       0.17268986      -0.06529376       0.07968409 </v>
   <v>      -0.06828054      -0.15569323       0.09865775 </v>
   <v>       0.04848921      -0.02526518      -0.08239408 </v>
   <v>       0.01035690       0.11743256       0.07101049 </v>
   <v>      -0.23148470       0.15846858      -0.14677711 </v>
   <v>       0.08637372      -0.03471711       0.20898014 </v>
   <v>      -0.21497662       0.11142862      -0.02523623 </v>
   <v>      -0.01381000       0.04506943      -0.09412032 </v>
   <v>       0.45749263      -0.29474590       0.40255463 </v>
   <v>       0.15438856       0.10270458      -0.05805816 </v>
   <v>       0.13017128      -0.03407931       0.13020475 </v>
   <v>      -0.00983067      -0.08257695      -0.01080793 </v>
   <v>      -0.03164552      -0.08685419       0.06160186 </v>
   <v>      -0.06154250       0.00266661       0.08121814 </v>
   <v>      -0.08349935       0.00189469      -0.11528616 </v>
   <v>      -0.10186045       0.34017776       0.04901612 </v>
   <v>       0.02760645       0.01741110       0.00822021 </v>
   <v>      -0.06418744       0.11885208       0.09798535 </v>
   <v>      -0.03063581      -0.21858289      -0.10416198 </v>
   <v>      -0.01131326      -0.10294023      -0.11374996 </v>
   <v>       0.24002556      -0.07921039       0.10689549 </v>
   <v>      -0.15002741      -0.26562731      -0.06308685 </v>
   <v>       0.00821105       0.06309075       0.02907843 </v>
   <v>       0.07798824       0.09294005       0.08778239 </v>
   <v>       0.06986265       0.08572615      -0.12265520 </v>
   <v>      -0.30094124       0.17357728      -0.38998897 </v>
   <v>       0.16492111      -0.02338009       0.07492546 </v>
   <v>      -0.05246772       0.04859127      -0.03039963 </v>
   <v>      -0.07692823      -0.18614685       0.08443316 </v>
   <v>       0.18578261      -0.07788465       0.01794241 </v>
   <v>      -0.12589149       0.20379386      -0.15658761 </v>
   <v>      -0.13071459       0.10314034      -0.04894412 </v>
   <v>       0.05848650       0.04798682      -0.07362891 </v>
  </varray>
  <varray name="stress" >
   <v>      -1.16187469      -0.09580267       0.57729295 </v>
   <v>      -0.09580267      -1.64749734      -0.36898112 </v>
   <v>       0.57729295      -0.36898112      -1.49578795 </v>
  </varray>
  <energy>
   <i name="e_fr_energy">    -71.23364386 </i>
   <i name="e_wo_entrp">    -71.23364386 </i>
   <i name="e_0_energy">      0.00000000 </i>
  </energy>
  <time name="totalsc">   18.87   19.69</time>
 </calculation>
 <calculation>
  <scstep>
   <time name="dav">    2.61    2.61</time>
   <time name="total">    2.90    2.91</time>
   <energy>
    <i name="alphaZ">     97.15071814 </i>
    <i name="ewald">  78064.18341141 </i>
    <i name="hartreedc">-111918.50096338 </i>
    <i name="XCdc">   -385.67593195 </i>
    <i name="pawpsdc">  36797.86788459 </i>
    <i name="pawaedc"> -35292.30655807 </i>
    <i name="eentropy">      0.00000000 </i>
    <i name="bandstr">  -2698.75623067 </i>
    <i name="atom">  35264.75342294 </i>
    <i name="e_fr_energy">    -71.28424699 </i>
    <i name="e_wo_entrp">    -71.28424699 </i>
    <i name="e_0_energy">    -71.28424699 </i>
   </energy>
  </scstep>
  <scstep>
   <time name="dav">    2.65    2.65</time>
   <time name="total">    2.94    2.95</time>
   <energy>
    <i name="e_fr_energy">    -71.30029727 </i>
    <i name="e_wo_entrp">    -71.30029727 </i>
    <i name="e_0_energy">    -71.30029727 </i>
   </energy>
  </scstep>
  <scstep>
   <time name="dav">    2.69    2.69</time>
   <time name="total">    2.98    2.99</time>
   <energy>
    <i name="e_fr_energy">    -71.30006739 </i>
    <i name="e_wo_entrp">    -71.30006739 </i>
    <i name="e_0_energy">    -71.30006739 </i>
   </energy>
  </scstep>
  <scstep>
   <time name="dav">    2.68    2.68</time>
   <time name="total">    2.96    2.99</time>
   <energy>
    <i name="e_fr_energy">    -71.29960883 </i>
    <i name="e_wo_entrp">    -71.29960883 </i>
    <i name="e_0_energy">    -71.29960883 </i>
   </energy>
  </scstep>
  <scstep>
   <time name="dav">    1.90    1.90</time>
   <time name="total">    2.10    2.12</time>
   <energy>
    <i name="alphaZ">     97.15071814 </i>
    <i name="ewald">  78064.18341141 </i>
    <i name="hartreedc">-111919.96564523 </i>
    <i name="XCdc">   -385.63901855 </i>
    <i name="pawpsdc">  36768.68854756 </i>
    <i name="pawaedc"> -35262.65643994 </i>
    <i name="eentropy">      0.00000000 </i>
    <i name="bandstr">  -2697.81462127 </i>
    <i name="atom">  35264.75342294 </i>
    <i name="e_fr_energy">    -71.29962494 </i>
    <i name="e_wo_entrp">    -71.29962494 </i>
    <i name="e_0_energy">    -71.29962494 </i>
   </energy>
  </scstep>
  <structure>
   <crystal>
    <varray name="basis" >
     <v>      21.63093704       0.00000000       0.00000000 </v>
     <v>       0.00000000      21.63093704       0.00000000 </v>
     <v>       0.00000000       0.00000000      21.63093704 </v>
    </varray>
    <i name="volume">  10121.06000419 </i>
    <varray name="rec_basis" >
     <v>       0.04623008       0.00000000       0.00000000 </v>
     <v>       0.00000000       0.04623008       0.00000000 </v>
     <v>       0.00000000       0.00000000       0.04623008 </v>
    </varray>
   </crystal>
   <varray name="positions" >
    <v>       0.33659450       0.37230534       0.43316771 </v>
    <v>       0.45088690       0.41066463       0.37253991 </v>
    <v>       0.44799934       0.33546677       0.47988208 </v>
    <v>       0.51324946       0.35123643       0.58873591 </v>
    <v>       0.57949307       0.33398206       0.47582526 </v>
    <v>       0.34585606       0.47220020       0.35134786 </v>
    <v>       0.62329698       0.41853631       0.56274532 </v>
    <v>       0.57839948       0.42009295       0.37880534 </v>
    <v>       0.39352768       0.40874201       0.57811042 </v>
    <v>       0.45057212       0.49683541       0.66081530 </v>
    <v>       0.50809671       0.44788710       0.49107075 </v>
    <v>       0.68434836       0.41194430       0.44893149 </v>
    <v>       0.55869432       0.43011826       0.67991953 </v>
    <v>       0.49825080       0.53291836       0.38225291 </v>
    <v>       0.61279160       0.52019404       0.45541232 </v>
    <v>       0.74281932       0.52403536       0.42445899 </v>
    <v>       0.36578744       0.48479133       0.47718498 </v>
    <v>       0.71119136       0.51343977       0.54612320 </v>
    <v>       0.59795668       0.62428593       0.38228701 </v>
    <v>       0.55772925       0.52972623       0.58107155 </v>
    <v>       0.37865528       0.58735270       0.39186107 </v>
    <v>       0.66021757       0.50310675       0.66081698 </v>
    <v>       0.45648146       0.57089471       0.50513350 </v>
    <v>       0.44155087       0.37081567       0.69114477 </v>
    <v>       0.68384989       0.62375051       0.48034882 </v>
    <v>       0.47916960       0.66373924       0.40536553 </v>
    <v>       0.35563284       0.53580431       0.59787666 </v>
    <v>       0.64246411       0.62080808       0.60701765 </v>
    <v>       0.56096188       0.64607629       0.50985932 </v>
    <v>       0.33291763       0.61948725       0.50717012 </v>
    <v>       0.55620553       0.56789044       0.70356483 </v>
    <v>       0.36084966       0.71169783       0.42416936 </v>
    <v>       0.47238049       0.61891102       0.62192154 </v>
    <v>       0.43664541       0.69728230       0.52730077 </v>
   </varray>
  </structure>
  <varray name="forces" >
   <v>      -0.09004902      -0.04091511      -0.05152668 </v>
   <v>       0.11848165      -0.04419818       0.09078720 </v>
   <v>      -0.06123022      -0.09239336       0.07953579 </v>
   <v>       0.04526910      -0.01717159      -0.09138346 </v>
   <v>       0.00174194       0.09916641       0.07903935 </v>
   <v>      -0.15799343       0.10093030      -0.10416684 </v>
   <v>       0.07450078      -0.04874042       0.18095203 </v>
   <v>      -0.20746889       0.10728893      -0.03641982 </v>
   <v>      -0.00249248       0.05867858      -0.09434870 </v>
   <v>       0.29466568      -0.17856622       0.29713522 </v>
   <v>       0.11786933       0.08832081      -0.04016066 </v>
   <v>       0.11710650      -0.02401535       0.12557682 </v>
   <v>       0.01198301      -0.04726920      -0.00292790 </v>
   <v>      -0.01825515      -0.08214719       0.07213152 </v>
   <v>      -0.07630750      -0.00327304       0.06523692 </v>
   <v>      -0.09487466       0.01494005      -0.10690280 </v>
   <v>      -0.10926134       0.27101793       0.01214938 </v>
   <v>       0.03966205       0.01676082       0.01678364 </v>
   <v>      -0.05800470       0.11644667       0.08565035 </v>
   <v>      -0.02682482      -0.20794580      -0.11048650 </v>
   <v>      -0.02229015      -0.07659201      -0.10415866 </v>
   <v>       0.21605141      -0.07894893       0.10734832 </v>
   <v>      -0.10788691      -0.24594841      -0.06686515 </v>
   <v>       0.00124232       0.03580810       0.02377662 </v>
   <v>       0.09582937       0.09613157       0.07232529 </v>
   <v>       0.05505086       0.07289559      -0.09299325 </v>
   <v>      -0.12702363       0.08781659      -0.24666032 </v>
   <v>       0.12696561      -0.04394419       0.05720235 </v>
   <v>      -0.08934115       0.02145013      -0.00108489 </v>
   <v>      -0.05901528      -0.12443078       0.02781973 </v>
   <v>       0.16134453      -0.06133058       0.00669696 </v>
   <v>      -0.11182183       0.14704967      -0.13102726 </v>
   <v>      -0.11591925       0.07058858      -0.04844223 </v>
   <v>       0.05829628       0.01253963      -0.07059237 </v>
  </varray>
  <varray name="stress" >
   <v>      -1.34853415      -0.07666596       0.49578147 </v>
   <v>      -0.07666597      -1.77555307      -0.32871274 </v>
   <v>       0.49578147      -0.32871274      -1.60031744 </v>
  </varray>
  <energy>
   <i name="e_fr_energy">    -71.29962494 </i>
   <i name="e_wo_entrp">    -71.29962494 </i>
   <i name="e_0_energy">      0.00000000 </i>
  </energy>
  <time name="totalsc">   18.69   18.89</time>
 </calculation>
 <calculation>
  <scstep>
   <time name="dav">    2.61    2.61</time>
   <time name="total">    2.90    2.92</time>
   <energy>
    <i name="alphaZ">     97.15071814 </i>
    <i name="ewald">  77456.50241440 </i>
    <i name="hartreedc">-111315.25243045 </i>
    <i name="XCdc">   -386.22063887 </i>
    <i name="pawpsdc">  36768.71946936 </i>
    <i name="pawaedc"> -35262.68497393 </i>
    <i name="eentropy">      0.00000000 </i>
    <i name="bandstr">  -2694.21942259 </i>
    <i name="atom">  35264.75342294 </i>
    <i name="e_fr_energy">    -71.25144100 </i>
    <i name="e_wo_entrp">    -71.25144100 </i>
    <i name="e_0_energy">    -71.25144100 </i>
   </energy>
  </scstep>
  <scstep>
   <time name="dav">    2.65    2.66</time>
   <time name="total">    2.94    2.95</time>
   <energy>
    <i name="e_fr_energy">    -71.39653408 </i>
    <i name="e_wo_entrp">    -71.39653408 </i>
    <i name="e_0_energy">    -71.39653408 </i>
   </energy>
  </scstep>
  <scstep>
   <time name="dav">    2.72    2.72</time>
   <time name="total">    3.01    3.03</time>
   <energy>
    <i name="e_fr_energy">    -71.39525948 </i>
    <i name="e_wo_entrp">    -71.39525948 </i>
    <i name="e_0_energy">    -71.39525948 </i>
   </energy>
  </scstep>
  <scstep>
   <time name="dav">    2.68    2.68</time>
   <time name="total">    2.96    2.97</time>
   <energy>
    <i name="e_fr_energy">    -71.39092183 </i>
    <i name="e_wo_entrp">    -71.39092183 </i>
    <i name="e_0_energy">    -71.39092183 </i>
   </energy>
  </scstep>
  <scstep>
   <time name="dav">    2.74    2.75</time>
   <time name="total">    3.04    3.08</time>
   <energy>
    <i name="e_fr_energy">    -71.39090067 </i>
    <i name="e_wo_entrp">    -71.39090067 </i>
    <i name="e_0_energy">    -71.39090067 </i>
   </energy>
  </scstep>
  <scstep>
   <time name="dav">    1.95    1.95</time>
   <time name="total">    2.14    2.15</time>
   <energy>
    <i name="alphaZ">     97.15071814 </i>
    <i name="ewald">  77456.50241440 </i>
    <i name="hartreedc">-111319.05946041 </i>
    <i name="XCdc">   -386.11927413 </i>
    <i name="pawpsdc">  36692.87722061 </i>
    <i name="pawaedc"> -35185.55856418 </i>
    <i name="eentropy">      0.00000000 </i>
    <i name="bandstr">  -2691.93729236 </i>
    <i name="atom">  35264.75342294 </i>
    <i name="e_fr_energy">    -71.39081499 </i>
[...]
       <r>    -0.0171     0.0000   214.0000 </r>
       <r>     0.0230     0.0000   215.0000 </r>
       <r>     0.0631     0.0000   215.0000 </r>
       <r>     0.1031     0.0000   216.0000 </r>
       <r>     0.1432     0.0000   217.0000 </r>
       <r>     0.1833     0.0000   218.0000 </r>
       <r>     0.2234     0.0000   218.0000 </r>
       <r>     0.2635     0.0000   218.0000 </r>
       <r>     0.3035     0.0000   219.0000 </r>
       <r>     0.3436     0.0000   220.0000 </r>
       <r>     0.3837     0.0000   220.0000 </r>
       <r>     0.4238     0.0000   220.0000 </r>
       <r>     0.4639     0.0000   220.0000 </r>
       <r>     0.5039     0.0000   221.0000 </r>
       <r>     0.5440     0.0000   222.0000 </r>
       <r>     0.5841     0.0000   222.0000 </r>
       <r>     0.6242     0.0000   223.0000 </r>
       <r>     0.6642     0.0000   223.0000 </r>
       <r>     0.7043     0.0000   224.0000 </r>
       <r>     0.7444     0.0000   224.0000 </r>
       <r>     0.7845     0.0000   225.0000 </r>
       <r>     0.8246     0.0000   227.0000 </r>
       <r>     0.8646     0.0000   227.0000 </r>
       <r>     0.9047    24.7939   228.9937 </r>
       <r>     0.9448     0.0000   229.0000 </r>
       <r>     0.9849     0.0000   230.0000 </r>
       <r>     1.0250     0.0000   231.0000 </r>
       <r>     1.0650     0.0000   232.0000 </r>
       <r>     1.1051    24.9511   235.0000 </r>
       <r>     1.1452     0.0000   236.0000 </r>
       <r>     1.1853     4.3714   238.1752 </r>
       <r>     1.2253     0.0000   240.0000 </r>
       <r>     1.2654     0.0000   242.0000 </r>
       <r>     1.3055     0.0000   243.0000 </r>
       <r>     1.3456     0.0000   244.0000 </r>
       <r>     1.3857     0.0000   244.0000 </r>
       <r>     1.4257     0.0000   244.0000 </r>
       <r>     1.4658     0.0000   244.0000 </r>
       <r>     1.5059     0.0000   244.0000 </r>
       <r>     1.5460     0.0000   244.0000 </r>
       <r>     1.5861     0.0000   244.0000 </r>
       <r>     1.6261     0.0000   244.0000 </r>
       <r>     1.6662     0.0000   244.0000 </r>
       <r>     1.7063     0.0000   244.0000 </r>
       <r>     1.7464     0.0000   244.0000 </r>
       <r>     1.7864     0.0000   244.0000 </r>
       <r>     1.8265     0.0000   244.0000 </r>
       <r>     1.8666     0.0000   244.0000 </r>
      </set>
      <set comment="spin 2">
       <r>   -10.1569     0.0000     0.0000 </r>
       <r>   -10.1168     0.0000     0.0000 </r>
       <r>   -10.0768     0.0000     0.0000 </r>
       <r>   -10.0367     0.0000     0.0000 </r>
       <r>    -9.9966     0.0000     0.0000 </r>
       <r>    -9.9565     0.0000     0.0000 </r>
       <r>    -9.9165     0.0000     0.0000 </r>
       <r>    -9.8764     0.0000     0.0000 </r>
       <r>    -9.8363     0.0000     0.0000 </r>
       <r>    -9.7962     0.0000     0.0000 </r>
       <r>    -9.7561     0.0000     0.0000 </r>
       <r>    -9.7161     0.0000     0.0000 </r>
       <r>    -9.6760     0.0000     0.0000 </r>
       <r>    -9.6359     0.0000     0.0000 </r>
       <r>    -9.5958     0.0000     1.0000 </r>
       <r>    -9.5558     0.0000     1.0000 </r>
       <r>    -9.5157     0.0000     1.0000 </r>
       <r>    -9.4756     0.0000     1.0000 </r>
       <r>    -9.4355     0.0000     1.0000 </r>
       <r>    -9.3954     0.0000     1.0000 </r>
       <r>    -9.3554     0.0000     1.0000 </r>
       <r>    -9.3153     0.0000     1.0000 </r>
       <r>    -9.2752     0.0000     1.0000 </r>
       <r>    -9.2351     0.0000     1.0000 </r>
       <r>    -9.1950     0.0000     1.0000 </r>
       <r>    -9.1550     0.0000     1.0000 </r>
       <r>    -9.1149     0.0000     2.0000 </r>
       <r>    -9.0748     0.0000     3.0000 </r>
       <r>    -9.0347     0.0000     3.0000 </r>
       <r>    -8.9947     0.0000     4.0000 </r>
       <r>    -8.9546     0.0000     4.0000 </r>
       <r>    -8.9145     0.0000     5.0000 </r>
       <r>    -8.8744     0.0000     6.0000 </r>
       <r>    -8.8343     0.0000     8.0000 </r>
       <r>    -8.7943     0.0000    10.0000 </r>
       <r>    -8.7542     0.0000    11.0000 </r>
       <r>    -8.7141     0.0000    12.0000 </r>
       <r>    -8.6740     0.0000    13.0000 </r>
       <r>    -8.6339     0.0000    15.0000 </r>
       <r>    -8.5939     0.0000    17.0000 </r>
       <r>    -8.5538     0.0000    20.0000 </r>
       <r>    -8.5137     0.0000    23.0000 </r>
       <r>    -8.4736     0.0000    25.0000 </r>
       <r>    -8.4336     0.0000    27.0000 </r>
       <r>    -8.3935     0.0000    30.0000 </r>
       <r>    -8.3534     0.0000    33.0000 </r>
       <r>    -8.3133     0.0000    34.0000 </r>
       <r>    -8.2732     0.0002    35.0000 </r>
       <r>    -8.2332     0.0000    39.0000 </r>
       <r>    -8.1931     0.0000    41.0000 </r>
       <r>    -8.1530     0.0000    44.0000 </r>
       <r>    -8.1129     0.0000    46.0000 </r>
       <r>    -8.0728     0.0000    48.0000 </r>
       <r>    -8.0328     0.0000    50.0000 </r>
       <r>    -7.9927     0.0000    52.0000 </r>
       <r>    -7.9526     0.0000    55.0000 </r>
       <r>    -7.9125     0.0000    57.0000 </r>
       <r>    -7.8725     0.0000    59.0000 </r>
       <r>    -7.8324     0.0000    62.0000 </r>
       <r>    -7.7923     0.0000    63.0000 </r>
       <r>    -7.7522     0.0000    65.0000 </r>
       <r>    -7.7121     0.0000    66.0000 </r>
       <r>    -7.6721     0.0000    68.0000 </r>
       <r>    -7.6320     0.0000    70.0000 </r>
       <r>    -7.5919     0.0000    72.0000 </r>
       <r>    -7.5518     0.0000    74.0000 </r>
       <r>    -7.5118     0.0000    76.0000 </r>
       <r>    -7.4717     0.0000    79.0000 </r>
       <r>    -7.4316     0.0000    82.0000 </r>
       <r>    -7.3915     0.0000    83.0000 </r>
       <r>    -7.3514     0.0000    85.0000 </r>
       <r>    -7.3114     0.0000    87.0000 </r>
       <r>    -7.2713     0.0000    89.0000 </r>
       <r>    -7.2312     0.0000    91.0000 </r>
       <r>    -7.1911     0.0000    95.0000 </r>
       <r>    -7.1510     0.0000    97.0000 </r>
       <r>    -7.1110     0.0000    99.0000 </r>
       <r>    -7.0709     0.0000   101.0000 </r>
       <r>    -7.0308     0.0000   104.0000 </r>
       <r>    -6.9907     0.0000   106.0000 </r>
       <r>    -6.9507     0.0000   109.0000 </r>
       <r>    -6.9106     0.0000   112.0000 </r>
       <r>    -6.8705     0.0000   115.0000 </r>
       <r>    -6.8304     0.0000   118.0000 </r>
       <r>    -6.7903     0.0000   122.0000 </r>
       <r>    -6.7503    24.9511   125.0000 </r>
       <r>    -6.7102     0.0000   128.0000 </r>
       <r>    -6.6701     0.0000   133.0000 </r>
       <r>    -6.6300     0.0000   136.0000 </r>
       <r>    -6.5899     0.0000   139.0000 </r>
       <r>    -6.5499     0.0000   143.0000 </r>
       <r>    -6.5098     0.0000   147.0000 </r>
       <r>    -6.4697     0.0000   149.0000 </r>
       <r>    -6.4296     0.0000   153.0000 </r>
       <r>    -6.3896    24.9511   156.0000 </r>
       <r>    -6.3495     0.0000   160.0000 </r>
       <r>    -6.3094    24.9511   163.0000 </r>
       <r>    -6.2693    21.2122   165.8502 </r>
       <r>    -6.2292     0.0000   168.0000 </r>
       <r>    -6.1892     0.0000   169.0000 </r>
       <r>    -6.1491     0.0000   171.0000 </r>
       <r>    -6.1090     0.0000   173.0000 </r>
       <r>    -6.0689     0.0000   174.0000 </r>
       <r>    -6.0288     0.0000   174.0000 </r>
       <r>    -5.9888     0.0000   174.0000 </r>
       <r>    -5.9487     0.0000   174.0000 </r>
       <r>    -5.9086     0.0000   174.0000 </r>
       <r>    -5.8685     0.0000   174.0000 </r>
       <r>    -5.8285     0.0000   174.0000 </r>
       <r>    -5.7884     0.0000   175.0000 </r>
       <r>    -5.7483     0.0000   175.0000 </r>
       <r>    -5.7082     0.0000   176.0000 </r>
       <r>    -5.6681     0.0000   176.0000 </r>
       <r>    -5.6281     0.0000   176.0000 </r>
       <r>    -5.5880     0.0000   176.0000 </r>
       <r>    -5.5479     0.0000   176.0000 </r>
       <r>    -5.5078     0.0000   176.0000 </r>
       <r>    -5.4678     0.0000   178.0000 </r>
       <r>    -5.4277     0.0000   178.0000 </r>
       <r>    -5.3876     0.0000   178.0000 </r>
       <r>    -5.3475     0.0000   178.0000 </r>
       <r>    -5.3074     0.0000   179.0000 </r>
       <r>    -5.2674     0.0000   179.0000 </r>
       <r>    -5.2273     0.0000   179.0000 </r>
       <r>    -5.1872     0.0000   179.0000 </r>
       <r>    -5.1471     0.0000   179.0000 </r>
       <r>    -5.1070     0.0000   179.0000 </r>
       <r>    -5.0670     0.0000   179.0000 </r>
       <r>    -5.0269     0.0000   179.0000 </r>
       <r>    -4.9868     0.0000   179.0000 </r>
       <r>    -4.9467     0.0000   179.0000 </r>
       <r>    -4.9067     0.0000   180.0000 </r>
       <r>    -4.8666     0.0000   180.0000 </r>
       <r>    -4.8265     0.0000   180.0000 </r>
       <r>    -4.7864     0.0000   180.0000 </r>
       <r>    -4.7463     0.0000   180.0000 </r>
       <r>    -4.7063     0.0000   180.0000 </r>
       <r>    -4.6662     0.0000   180.0000 </r>
       <r>    -4.6261     0.0000   180.0000 </r>
       <r>    -4.5860     0.0000   180.0000 </r>
       <r>    -4.5459     0.0000   180.0000 </r>
       <r>    -4.5059     0.0000   180.0000 </r>
       <r>    -4.4658     0.0000   180.0000 </r>
       <r>    -4.4257     0.0000   180.0000 </r>
       <r>    -4.3856     0.0000   180.0000 </r>
       <r>    -4.3456     0.0000   180.0000 </r>
       <r>    -4.3055     0.0000   181.0000 </r>
       <r>    -4.2654     0.0000   181.0000 </r>
       <r>    -4.2253     0.0000   183.0000 </r>
       <r>    -4.1852     0.0000   183.0000 </r>
       <r>    -4.1452     0.0000   183.0000 </r>
       <r>    -4.1051     0.0000   183.0000 </r>
       <r>    -4.0650     0.0000   183.0000 </r>
       <r>    -4.0249     0.0000   184.0000 </r>
       <r>    -3.9848     0.0000   184.0000 </r>
       <r>    -3.9448     0.0000   184.0000 </r>
       <r>    -3.9047     0.0000   185.0000 </r>
       <r>    -3.8646     0.0000   185.0000 </r>
       <r>    -3.8245     0.0000   185.0000 </r>
       <r>    -3.7845     0.0000   185.0000 </r>
       <r>    -3.7444     0.0000   185.0000 </r>
       <r>    -3.7043     0.0000   186.0000 </r>
       <r>    -3.6642     0.0000   186.0000 </r>
       <r>    -3.6241     0.0000   187.0000 </r>
       <r>    -3.5841     0.0000   187.0000 </r>
       <r>    -3.5440     0.0000   187.0000 </r>
       <r>    -3.5039     0.0000   187.0000 </r>
       <r>    -3.4638     0.0000   187.0000 </r>
       <r>    -3.4238     0.0000   187.0000 </r>
       <r>    -3.3837     0.0000   187.0000 </r>
       <r>    -3.3436     0.0000   187.0000 </r>
       <r>    -3.3035     0.0000   187.0000 </r>
       <r>    -3.2634     0.0000   187.0000 </r>
       <r>    -3.2234     0.0000   187.0000 </r>
       <r>    -3.1833     0.0000   187.0000 </r>
       <r>    -3.1432     0.0000   187.0000 </r>
       <r>    -3.1031     0.0000   188.0000 </r>
       <r>    -3.0630     0.0000   188.0000 </r>
       <r>    -3.0230     0.0000   189.0000 </r>
       <r>    -2.9829     0.0000   189.0000 </r>
       <r>    -2.9428     0.0000   189.0000 </r>
       <r>    -2.9027     0.0000   189.0000 </r>
       <r>    -2.8627     0.0000   189.0000 </r>
       <r>    -2.8226     0.0000   189.0000 </r>
       <r>    -2.7825     0.0000   189.0000 </r>
       <r>    -2.7424     0.0000   189.0000 </r>
       <r>    -2.7023     0.0000   190.0000 </r>
       <r>    -2.6623     0.0000   190.0000 </r>
       <r>    -2.6222     0.0000   190.0000 </r>
       <r>    -2.5821     0.0000   191.0000 </r>
       <r>    -2.5420     0.0000   191.0000 </r>
       <r>    -2.5019     0.0000   191.0000 </r>
       <r>    -2.4619     0.0000   191.0000 </r>
       <r>    -2.4218     0.0000   192.0000 </r>
       <r>    -2.3817     0.0000   192.0000 </r>
       <r>    -2.3416     0.0000   193.0000 </r>
       <r>    -2.3016     0.0000   194.0000 </r>
       <r>    -2.2615     0.0000   194.0000 </r>
       <r>    -2.2214     0.0000   194.0000 </r>
       <r>    -2.1813     0.0000   195.0000 </r>
       <r>    -2.1412     0.0000   196.0000 </r>
       <r>    -2.1012     0.0000   196.0000 </r>
       <r>    -2.0611     0.0000   196.0000 </r>
       <r>    -2.0210     0.0000   196.0000 </r>
       <r>    -1.9809     0.0000   198.0000 </r>
       <r>    -1.9408     0.0000   198.0000 </r>
       <r>    -1.9008     0.0000   198.0000 </r>
       <r>    -1.8607     0.0000   198.0000 </r>
       <r>    -1.8206     0.0000   198.0000 </r>
       <r>    -1.7805     0.0000   199.0000 </r>
       <r>    -1.7405     0.0000   199.0000 </r>
       <r>    -1.7004     0.0000   199.0000 </r>
       <r>    -1.6603     0.0000   199.0000 </r>
       <r>    -1.6202     0.0000   200.0000 </r>
       <r>    -1.5801     0.0000   201.0000 </r>
       <r>    -1.5401     0.0000   201.0000 </r>
       <r>    -1.5000     0.0000   201.0000 </r>
       <r>    -1.4599     0.0000   202.0000 </r>
       <r>    -1.4198     0.0000   202.0000 </r>
       <r>    -1.3798     0.0000   202.0000 </r>
       <r>    -1.3397     0.0000   202.0000 </r>
       <r>    -1.2996     0.0000   203.0000 </r>
       <r>    -1.2595     0.0000   203.0000 </r>
       <r>    -1.2194     0.0000   203.0000 </r>
       <r>    -1.1794     0.0000   203.0000 </r>
       <r>    -1.1393     0.0000   203.0000 </r>
       <r>    -1.0992     0.0000   203.0000 </r>
       <r>    -1.0591     0.0000   204.0000 </r>
       <r>    -1.0190     0.0000   204.0000 </r>
       <r>    -0.9790     0.0000   204.0000 </r>
       <r>    -0.9389     0.0000   204.0000 </r>
       <r>    -0.8988     0.0000   205.0000 </r>
       <r>    -0.8587     0.0000   205.0000 </r>
       <r>    -0.8187     0.0000   205.0000 </r>
       <r>    -0.7786     0.0000   206.0000 </r>
       <r>    -0.7385     0.0000   206.0000 </r>
       <r>    -0.6984     0.0000   206.0000 </r>
       <r>    -0.6583     0.0000   207.0000 </r>
       <r>    -0.6183     0.0000   207.0000 </r>
       <r>    -0.5782     0.0000   208.0000 </r>
       <r>    -0.5381     0.0000   208.0000 </r>
       <r>    -0.4980     0.0000   209.0000 </r>
       <r>    -0.4579     0.0000   210.0000 </r>
       <r>    -0.4179     0.0000   210.0000 </r>
       <r>    -0.3778     0.0000   210.0000 </r>
       <r>    -0.3377     0.0000   211.0000 </r>
       <r>    -0.2976     0.0000   211.0000 </r>
       <r>    -0.2576     0.0000   212.0000 </r>
       <r>    -0.2175     0.0000   213.0000 </r>
       <r>    -0.1774     0.0000   213.0000 </r>
       <r>    -0.1373     0.0000   213.0000 </r>
       <r>    -0.0972     0.0000   213.0000 </r>
       <r>    -0.0572     0.0000   214.0000 </r>
       <r>    -0.0171     0.0000   214.0000 </r>
       <r>     0.0230     0.0000   215.0000 </r>
       <r>     0.0631     0.0000   215.0000 </r>
       <r>     0.1031     0.0000   216.0000 </r>
       <r>     0.1432     0.0000   217.0000 </r>
       <r>     0.1833     0.0000   218.0000 </r>
       <r>     0.2234     0.0000   218.0000 </r>
       <r>     0.2635     0.0000   218.0000 </r>
       <r>     0.3035     0.0000   219.0000 </r>
       <r>     0.3436     0.0000   220.0000 </r>
       <r>     0.3837     0.0000   220.0000 </r>
       <r>     0.4238     0.0000   220.0000 </r>
       <r>     0.4639     0.0000   220.0000 </r>
       <r>     0.5039     0.0000   221.0000 </r>
       <r>     0.5440     0.0000   222.0000 </r>
       <r>     0.5841     0.0000   222.0000 </r>
       <r>     0.6242     0.0000   223.0000 </r>
       <r>     0.6642     0.0000   223.0000 </r>
       <r>     0.7043     0.0000   224.0000 </r>
       <r>     0.7444     0.0000   224.0000 </r>
       <r>     0.7845     0.0000   225.0000 </r>
       <r>     0.8246     0.0000   227.0000 </r>
       <r>     0.8646     0.0000   227.0000 </r>
       <r>     0.9047    24.7957   228.9938 </r>
       <r>     0.9448     0.0000   229.0000 </r>
       <r>     0.9849     0.0000   230.0000 </r>
       <r>     1.0250     0.0000   231.0000 </r>
       <r>     1.0650     0.0000   232.0000 </r>
       <r>     1.1051    24.9511   235.0000 </r>
       <r>     1.1452     0.0000   236.0000 </r>
       <r>     1.1853     4.3175   238.1730 </r>
       <r>     1.2253     0.0000   240.0000 </r>
       <r>     1.2654     0.0000   242.0000 </r>
       <r>     1.3055     0.0000   243.0000 </r>
       <r>     1.3456     0.0000   244.0000 </r>
       <r>     1.3857     0.0000   244.0000 </r>
       <r>     1.4257     0.0000   244.0000 </r>
       <r>     1.4658     0.0000   244.0000 </r>
       <r>     1.5059     0.0000   244.0000 </r>
       <r>     1.5460     0.0000   244.0000 </r>
       <r>     1.5861     0.0000   244.0000 </r>
       <r>     1.6261     0.0000   244.0000 </r>
       <r>     1.6662     0.0000   244.0000 </r>
       <r>     1.7063     0.0000   244.0000 </r>
       <r>     1.7464     0.0000   244.0000 </r>
       <r>     1.7864     0.0000   244.0000 </r>
       <r>     1.8265     0.0000   244.0000 </r>
       <r>     1.8666     0.0000   244.0000 </r>
      </set>
     </set>
    </array>
   </total>
  </dos>
 </calculation>
 <structure name="finalpos" >
  <crystal>
   <varray name="basis" >
    <v>      21.63093704       0.00000000       0.00000000 </v>
    <v>       0.00000000      21.63093704       0.00000000 </v>
    <v>       0.00000000       0.00000000      21.63093704 </v>
   </varray>
   <i name="volume">  10121.06000419 </i>
   <varray name="rec_basis" >
    <v>       0.04623008       0.00000000       0.00000000 </v>
    <v>       0.00000000       0.04623008       0.00000000 </v>
    <v>       0.00000000       0.00000000       0.04623008 </v>
   </varray>
  </crystal>
  <varray name="positions" >
   <v>       0.35224262       0.38089469       0.45148469 </v>
   <v>       0.46622169       0.38255826       0.38207190 </v>
   <v>       0.45081872       0.31911489       0.49925036 </v>
   <v>       0.52358049       0.34848480       0.59459675 </v>
   <v>       0.58261624       0.33616552       0.47615419 </v>
   <v>       0.37094651       0.46387997       0.35623662 </v>
   <v>       0.63607627       0.40667166       0.57620786 </v>
   <v>       0.58541013       0.43051440       0.38020831 </v>
   <v>       0.39521428       0.42673868       0.56883026 </v>
   <v>       0.45080696       0.50051180       0.66478669 </v>
   <v>       0.50773915       0.43786919       0.49219618 </v>
   <v>       0.68389212       0.41674810       0.45726946 </v>
   <v>       0.55924887       0.42901628       0.68774128 </v>
   <v>       0.48748414       0.51844938       0.37655332 </v>
   <v>       0.58814299       0.53408889       0.46235634 </v>
   <v>       0.70056170       0.53284264       0.40467146 </v>
   <v>       0.33468887       0.50258040       0.47695696 </v>
   <v>       0.70060825       0.51578563       0.54005131 </v>
   <v>       0.60794777       0.63117838       0.38276190 </v>
   <v>       0.55738118       0.51398145       0.58552438 </v>
   <v>       0.37694973       0.58734091       0.38135929 </v>
   <v>       0.66665027       0.49982341       0.66329793 </v>
   <v>       0.45890517       0.55879852       0.50176208 </v>
   <v>       0.43707393       0.37482967       0.68086324 </v>
   <v>       0.68086436       0.63193607       0.48755886 </v>
   <v>       0.48513527       0.65197723       0.40236041 </v>
   <v>       0.36514953       0.55789085       0.59147028 </v>
   <v>       0.63817936       0.61578725       0.60818580 </v>
   <v>       0.55730876       0.65532341       0.51268156 </v>
   <v>       0.32299132       0.62847587       0.49126520 </v>
   <v>       0.56117112       0.56618738       0.70346542 </v>
   <v>       0.37105173       0.71401760       0.40708141 </v>
   <v>       0.48078496       0.61892655       0.61677168 </v>
   <v>       0.43167920       0.68763018       0.52020536 </v>
  </varray>
 </structure>
</modeling>
