       N       E                     dE             d eps       ncg     rms          rms(c)
DAV:   1     0.227675356676E+04    0.22768E+04   -0.49148E+04   704   0.592E+02
DAV:   2     0.502577438871E+03   -0.17742E+04   -0.15894E+04  1168   0.144E+02
DAV:   3    -0.205915067493E+02   -0.52317E+03   -0.48233E+03   912   0.873E+01
DAV:   4    -0.466159565506E+02   -0.26024E+02   -0.25732E+02   752   0.217E+01
DAV:   5    -0.469872443766E+02   -0.37129E+00   -0.37082E+00   768   0.303E+00    0.285E+01
DAV:   6    -0.148777177641E+02    0.32110E+02   -0.10467E+02   700   0.171E+01    0.148E+01
DAV:   7    -0.942763228330E+01    0.54501E+01   -0.58062E+00   756   0.562E+00    0.871E+00
DAV:   8    -0.137025274835E+02   -0.42749E+01   -0.24616E+00   740   0.307E+00    0.440E+00
DAV:   9    -0.191516549832E+02   -0.54491E+01   -0.18840E+00   752   0.231E+00    0.253E+00
DAV:  10    -0.270421490595E+02   -0.78905E+01   -0.28241E+00   720   0.269E+00    0.266E+00
DAV:  11    -0.285883978856E+02   -0.15462E+01   -0.31918E-01   752   0.134E+00    0.224E+00
DAV:  12    -0.350794761832E+02   -0.64911E+01   -0.29744E+00   704   0.301E+00    0.138E+00
DAV:  13    -0.401323525667E+02   -0.50529E+01   -0.17203E+00   720   0.174E+00    0.180E+00
DAV:  14    -0.403648291238E+02   -0.23248E+00   -0.38111E-02   808   0.466E-01    0.164E+00
DAV:  15    -0.417342767712E+02   -0.13694E+01   -0.20577E-01   696   0.102E+00    0.129E+00
DAV:  16    -0.434804352099E+02   -0.17462E+01   -0.44736E-01   720   0.156E+00    0.651E-01
DAV:  17    -0.446892432554E+02   -0.12088E+01   -0.31223E-01   696   0.123E+00    0.420E-01
DAV:  18    -0.453585572516E+02   -0.66931E+00   -0.58636E-02   732   0.527E-01    0.309E-01
DAV:  19    -0.458914241446E+02   -0.53287E+00   -0.28440E-02   708   0.308E-01    0.175E-01
DAV:  20    -0.461474205402E+02   -0.25600E+00   -0.10995E-02   736   0.139E-01    0.123E-01
DAV:  21    -0.461845744245E+02   -0.37154E-01   -0.15067E-03   760   0.137E-01    0.679E-02
DAV:  22    -0.462430649157E+02   -0.58490E-01   -0.36426E-03   732   0.146E-01    0.476E-02
DAV:  23    -0.462535862241E+02   -0.10521E-01   -0.79847E-04   536   0.591E-02    0.392E-02
DAV:  24    -0.462556050811E+02   -0.20189E-02   -0.21664E-04   512   0.412E-02    0.216E-02
DAV:  25    -0.462571276210E+02   -0.15225E-02   -0.24287E-04   524   0.446E-02    0.116E-02
DAV:  26    -0.462592388073E+02   -0.21112E-02   -0.80516E-05   504   0.147E-02    0.116E-02
DAV:  27    -0.462610313119E+02   -0.17925E-02   -0.42515E-05   484   0.118E-02    0.548E-03
DAV:  28    -0.462617726541E+02   -0.74134E-03   -0.42974E-05   488   0.808E-03    0.454E-03
DAV:  29    -0.462618305283E+02   -0.57874E-04   -0.42084E-06   480   0.594E-03
   1 F= -.46261831E+02 E0= -.46261831E+02  d E =-.462618E+02  mag=     1.9988
       N       E                     dE             d eps       ncg     rms          rms(c)
DAV:   1    -0.463291403992E+02   -0.67368E-01   -0.48387E+00   724   0.454E+00    0.182E-01
DAV:   2    -0.463314857128E+02   -0.23453E-02   -0.23294E-02   728   0.441E-01    0.137E-01
DAV:   3    -0.463314298986E+02    0.55814E-04   -0.44733E-04   740   0.611E-02
   2 F= -.46331430E+02 E0= -.46331430E+02  d E =-.695994E-01  mag=     1.9994
       N       E                     dE             d eps       ncg     rms          rms(c)
DAV:   1    -0.464941636218E+02   -0.16268E+00   -0.43635E+01   696   0.136E+01    0.512E-01
DAV:   2    -0.465149187974E+02   -0.20755E-01   -0.20928E-01   744   0.132E+00    0.408E-01
DAV:   3    -0.465143649050E+02    0.55389E-03   -0.36962E-03   752   0.175E-01    0.256E-01
DAV:   4    -0.465139838555E+02    0.38105E-03   -0.21412E-03   728   0.108E-01    0.424E-02
DAV:   5    -0.465139705466E+02    0.13309E-04   -0.72998E-05   488   0.269E-02
   3 F= -.46513971E+02 E0= -.46513971E+02  d E =-.252140E+00  mag=     1.9998
       N       E                     dE             d eps       ncg     rms          rms(c)
DAV:   1    -0.466934780384E+02   -0.17949E+00   -0.17504E+02   688   0.274E+01    0.886E-01
DAV:   2    -0.467769434742E+02   -0.83465E-01   -0.83239E-01   744   0.266E+00    0.784E-01
DAV:   3    -0.467756264515E+02    0.13170E-02   -0.13241E-02   736   0.328E-01    0.555E-01
DAV:   4    -0.467734978997E+02    0.21286E-02   -0.95945E-03   736   0.219E-01    0.135E-01
DAV:   5    -0.467735330010E+02   -0.35101E-04   -0.29085E-04   512   0.608E-02
   4 F= -.46773533E+02 E0= -.46773533E+02  d E =-.511702E+00  mag=     1.9999
       N       E                     dE             d eps       ncg     rms          rms(c)
DAV:   1    -0.466158073510E+02    0.15769E+00   -0.71103E+02   688   0.559E+01    0.143E+00
DAV:   2    -0.469599930317E+02   -0.34419E+00   -0.34033E+00   744   0.548E+00    0.150E+00
DAV:   3    -0.469594335278E+02    0.55950E-03   -0.51661E-02   736   0.643E-01    0.116E+00
DAV:   4    -0.469492233499E+02    0.10210E-01   -0.23693E-02   736   0.349E-01    0.597E-01
DAV:   5    -0.469493306220E+02   -0.10727E-03   -0.70144E-03   744   0.199E-01    0.196E-01
DAV:   6    -0.469492521989E+02    0.78423E-04   -0.54132E-04   736   0.490E-02
   5 F= -.46949252E+02 E0= -.46949252E+02  d E =-.687422E+00  mag=     2.0000
       N       E                     dE             d eps       ncg     rms          rms(c)
DAV:   1    -0.469995735980E+02   -0.50243E-01   -0.33557E+01   688   0.120E+01    0.330E-01
DAV:   2    -0.470160290170E+02   -0.16455E-01   -0.15993E-01   736   0.115E+00    0.262E-01
DAV:   3    -0.470159044141E+02    0.12460E-03   -0.25442E-03   752   0.143E-01    0.179E-01
DAV:   4    -0.470157311104E+02    0.17330E-03   -0.14409E-03   736   0.841E-02    0.498E-02
DAV:   5    -0.470158289734E+02   -0.97863E-04   -0.56254E-05   496   0.259E-02
   6 F= -.47015829E+02 E0= -.47015829E+02  d E =-.665768E-01  mag=     2.0000
       N       E                     dE             d eps       ncg     rms          rms(c)
DAV:   1    -0.469877039062E+02    0.28027E-01   -0.21916E+02   688   0.307E+01    0.742E-01
DAV:   2    -0.470945213952E+02   -0.10682E+00   -0.10449E+00   736   0.297E+00    0.623E-01
DAV:   3    -0.470933833411E+02    0.11381E-02   -0.16096E-02   752   0.360E-01    0.452E-01
DAV:   4    -0.470905306559E+02    0.28527E-02   -0.79799E-03   736   0.197E-01    0.166E-01
DAV:   5    -0.470906426211E+02   -0.11197E-03   -0.10086E-03   744   0.832E-02    0.616E-02
DAV:   6    -0.470907705627E+02   -0.12794E-03   -0.11882E-04   480   0.253E-02    0.379E-02
DAV:   7    -0.470909654834E+02   -0.19492E-03   -0.97415E-05   496   0.220E-02    0.105E-02
DAV:   8    -0.470911422140E+02   -0.17673E-03   -0.16756E-05   480   0.994E-03    0.363E-03
DAV:   9    -0.470912672588E+02   -0.12504E-03   -0.59415E-06   496   0.524E-03    0.277E-03
DAV:  10    -0.470914015087E+02   -0.13425E-03   -0.43180E-06   480   0.295E-03    0.175E-03
DAV:  11    -0.470915929015E+02   -0.19139E-03   -0.11765E-05   484   0.348E-03    0.147E-03
DAV:  12    -0.470916548919E+02   -0.61990E-04   -0.24624E-06   488   0.185E-03
   7 F= -.47091655E+02 E0= -.47091655E+02  d E =-.142403E+00  mag=     2.0000
       N       E                     dE             d eps       ncg     rms          rms(c)
DAV:   1    -0.471229594294E+02   -0.31367E-01   -0.37701E+01   688   0.126E+01    0.246E-01
DAV:   2    -0.471415496264E+02   -0.18590E-01   -0.18270E-01   728   0.125E+00    0.226E-01
DAV:   3    -0.471412807515E+02    0.26887E-03   -0.29172E-03   752   0.159E-01    0.164E-01
DAV:   4    -0.471405870165E+02    0.69374E-03   -0.92712E-04   736   0.671E-02    0.865E-02
DAV:   5    -0.471404614761E+02    0.12554E-03   -0.65182E-04   736   0.561E-02    0.305E-02
DAV:   6    -0.471405469392E+02   -0.85463E-04   -0.22718E-05   468   0.107E-02
   8 F= -.47140547E+02 E0= -.47140547E+02  d E =-.488920E-01  mag=     2.0000
       N       E                     dE             d eps       ncg     rms          rms(c)
DAV:   1    -0.470627400587E+02    0.77721E-01   -0.34375E+02   688   0.385E+01    0.918E-01
DAV:   2    -0.472351758878E+02   -0.17244E+00   -0.17154E+00   728   0.385E+00    0.682E-01
DAV:   3    -0.472321601039E+02    0.30158E-02   -0.28055E-02   752   0.504E-01    0.464E-01
DAV:   4    -0.472272912988E+02    0.48688E-02   -0.87211E-03   728   0.206E-01    0.221E-01
DAV:   5    -0.472272443659E+02    0.46933E-04   -0.32693E-03   724   0.129E-01    0.691E-02
DAV:   6    -0.472278066209E+02   -0.56225E-03   -0.17545E-04   512   0.298E-02    0.439E-02
DAV:   7    -0.472284733044E+02   -0.66668E-03   -0.10347E-04   480   0.215E-02    0.139E-02
DAV:   8    -0.472290295809E+02   -0.55628E-03   -0.27668E-05   496   0.101E-02    0.457E-03
DAV:   9    -0.472293439960E+02   -0.31442E-03   -0.78048E-06   472   0.508E-03    0.310E-03
DAV:  10    -0.472296141661E+02   -0.27017E-03   -0.53582E-06   488   0.313E-03    0.212E-03
DAV:  11    -0.472300131539E+02   -0.39899E-03   -0.17233E-05   488   0.391E-03    0.146E-03
DAV:  12    -0.472301329308E+02   -0.11978E-03   -0.33430E-06   496   0.221E-03    0.905E-04
DAV:  13    -0.472302203520E+02   -0.87421E-04   -0.27474E-06   488   0.160E-03
   9 F= -.47230220E+02 E0= -.47230220E+02  d E =-.138565E+00  mag=     2.0000
       N       E                     dE             d eps       ncg     rms          rms(c)
DAV:   1    -0.472042754892E+02    0.25857E-01   -0.75998E+01   688   0.180E+01    0.383E-01
DAV:   2    -0.472415474145E+02   -0.37272E-01   -0.36881E-01   728   0.177E+00    0.330E-01
DAV:   3    -0.472408831188E+02    0.66430E-03   -0.58439E-03   752   0.226E-01    0.236E-01
DAV:   4    -0.472395087441E+02    0.13744E-02   -0.23777E-03   728   0.106E-01    0.108E-01
DAV:   5    -0.472394261872E+02    0.82557E-04   -0.85748E-04   736   0.669E-02
  10 F= -.47239426E+02 E0= -.47239426E+02  d E =-.147771E+00  mag=     2.0000
       N       E                     dE             d eps       ncg     rms          rms(c)
DAV:   1    -0.472548227996E+02   -0.15314E-01   -0.54376E+01   688   0.152E+01    0.289E-01
DAV:   2    -0.472815683764E+02   -0.26746E-01   -0.26186E-01   732   0.149E+00    0.244E-01
DAV:   3    -0.472812325083E+02    0.33587E-03   -0.40508E-03   728   0.188E-01    0.179E-01
DAV:   4    -0.472805297610E+02    0.70275E-03   -0.11663E-03   720   0.745E-02    0.890E-02
DAV:   5    -0.472805767809E+02   -0.47020E-04   -0.82140E-04   736   0.633E-02
  11 F= -.47280577E+02 E0= -.47280577E+02  d E =-.411506E-01  mag=     2.0000
       N       E                     dE             d eps       ncg     rms          rms(c)
DAV:   1    -0.470969789846E+02    0.18355E+00   -0.49930E+02   688   0.466E+01    0.118E+00
DAV:   2    -0.473498623178E+02   -0.25288E+00   -0.25055E+00   720   0.465E+00    0.751E-01
DAV:   3    -0.473455618913E+02    0.43004E-02   -0.40635E-02   752   0.619E-01    0.512E-01
DAV:   4    -0.473397748883E+02    0.57870E-02   -0.10296E-02   716   0.223E-01    0.245E-01
DAV:   5    -0.473393980184E+02    0.37687E-03   -0.40721E-03   708   0.143E-01    0.673E-02
DAV:   6    -0.473397939446E+02   -0.39593E-03   -0.14858E-04   504   0.305E-02    0.415E-02
DAV:   7    -0.473401597085E+02   -0.36576E-03   -0.52324E-05   488   0.154E-02    0.150E-02
DAV:   8    -0.473404899827E+02   -0.33027E-03   -0.17822E-05   496   0.843E-03    0.461E-03
DAV:   9    -0.473406924561E+02   -0.20247E-03   -0.54780E-06   464   0.413E-03    0.256E-03
DAV:  10    -0.473408346395E+02   -0.14218E-03   -0.33079E-06   464   0.242E-03    0.177E-03
DAV:  11    -0.473410261089E+02   -0.19147E-03   -0.66101E-06   480   0.256E-03    0.124E-03
DAV:  12    -0.473411223772E+02   -0.96268E-04   -0.30208E-06   480   0.197E-03
  12 F= -.47341122E+02 E0= -.47341122E+02  d E =-.101696E+00  mag=     2.0000
       N       E                     dE             d eps       ncg     rms          rms(c)
DAV:   1    -0.473514591608E+02   -0.10433E-01   -0.83490E+01   688   0.189E+01    0.335E-01
DAV:   2    -0.473922612197E+02   -0.40802E-01   -0.40057E-01   720   0.185E+00    0.349E-01
DAV:   3    -0.473919966533E+02    0.26457E-03   -0.62676E-03   752   0.232E-01    0.265E-01
DAV:   4    -0.473906826449E+02    0.13140E-02   -0.15891E-03   736   0.898E-02    0.162E-01
DAV:   5    -0.473903472998E+02    0.33535E-03   -0.20604E-03   752   0.997E-02    0.569E-02
DAV:   6    -0.473903705276E+02   -0.23228E-04   -0.47013E-05   460   0.156E-02
  13 F= -.47390371E+02 E0= -.47390371E+02  d E =-.492482E-01  mag=     2.0000
       N       E                     dE             d eps       ncg     rms          rms(c)
DAV:   1    -0.471803710699E+02    0.20998E+00   -0.53421E+02   688   0.482E+01    0.999E-01
DAV:   2    -0.474464014949E+02   -0.26603E+00   -0.26248E+00   736   0.480E+00    0.924E-01
DAV:   3    -0.474443647337E+02    0.20368E-02   -0.42006E-02   736   0.612E-01    0.654E-01
DAV:   4    -0.474373427579E+02    0.70220E-02   -0.92216E-03   736   0.219E-01    0.405E-01
DAV:   5    -0.474358557022E+02    0.14871E-02   -0.88069E-03   728   0.207E-01    0.129E-01
DAV:   6    -0.474360836134E+02   -0.22791E-03   -0.18308E-04   488   0.321E-02    0.758E-02
DAV:   7    -0.474363955109E+02   -0.31190E-03   -0.11298E-04   496   0.234E-02    0.307E-02
DAV:   8    -0.474366524768E+02   -0.25697E-03   -0.32127E-05   480   0.136E-02    0.113E-02
DAV:   9    -0.474369122632E+02   -0.25979E-03   -0.10965E-05   488   0.712E-03    0.318E-03
DAV:  10    -0.474370295166E+02   -0.11725E-03   -0.24103E-06   464   0.293E-03    0.198E-03
DAV:  11    -0.474371585867E+02   -0.12907E-03   -0.23132E-06   468   0.191E-03    0.132E-03
DAV:  12    -0.474373089079E+02   -0.15032E-03   -0.43896E-06   476   0.190E-03    0.106E-03
DAV:  13    -0.474373549997E+02   -0.46092E-04   -0.11778E-06   480   0.109E-03
  14 F= -.47437355E+02 E0= -.47437355E+02  d E =-.962326E-01  mag=     2.0000
       N       E                     dE             d eps       ncg     rms          rms(c)
DAV:   1    -0.474292544936E+02    0.80544E-02   -0.10093E+02   688   0.208E+01    0.348E-01
DAV:   2    -0.474787988235E+02   -0.49544E-01   -0.47954E-01   724   0.203E+00    0.339E-01
DAV:   3    -0.474783629069E+02    0.43592E-03   -0.74408E-03   756   0.254E-01    0.260E-01
DAV:   4    -0.474769739926E+02    0.13889E-02   -0.14135E-03   736   0.843E-02    0.162E-01
DAV:   5    -0.474764433631E+02    0.53063E-03   -0.25649E-03   740   0.110E-01    0.485E-02
DAV:   6    -0.474764781087E+02   -0.34746E-04   -0.34610E-05   476   0.146E-02
  15 F= -.47476478E+02 E0= -.47476478E+02  d E =-.391231E-01  mag=     2.0000
       N       E                     dE             d eps       ncg     rms          rms(c)
DAV:   1    -0.470630782278E+02    0.41337E+00   -0.93750E+02   688   0.645E+01    0.209E+00
DAV:   2    -0.472953781601E+02   -0.23230E+00   -0.49741E+00   708   0.682E+00    0.183E+00
DAV:   3    -0.474187845328E+02   -0.12341E+00   -0.15044E-01   724   0.152E+00    0.128E+00
DAV:   4    -0.473753495997E+02    0.43435E-01   -0.90467E-03   744   0.341E-01    0.111E+00
DAV:   5    -0.472008871809E+02    0.17446E+00   -0.34906E-02   716   0.674E-01    0.714E-01
DAV:   6    -0.470667461990E+02    0.13414E+00   -0.39657E-02   748   0.493E-01    0.325E-01
DAV:   7    -0.471303649462E+02   -0.63619E-01   -0.60173E-03   752   0.117E-01    0.278E-01
DAV:   8    -0.472972609229E+02   -0.16690E+00   -0.27713E-02   704   0.234E-01    0.187E-01
DAV:   9    -0.473927197389E+02   -0.95459E-01   -0.13789E-02   728   0.157E-01    0.120E-01
DAV:  10    -0.474429602989E+02   -0.50241E-01   -0.28512E-03   740   0.672E-02    0.850E-02
DAV:  11    -0.474973218219E+02   -0.54362E-01   -0.29627E-03   716   0.705E-02    0.432E-02
DAV:  12    -0.475177873209E+02   -0.20465E-01   -0.82934E-04   520   0.340E-02    0.292E-02
DAV:  13    -0.475311311963E+02   -0.13344E-01   -0.57482E-04   512   0.267E-02    0.171E-02
DAV:  14    -0.475396792461E+02   -0.85480E-02   -0.34232E-04   520   0.175E-02    0.968E-03
DAV:  15    -0.475425338448E+02   -0.28546E-02   -0.80005E-05   496   0.926E-03    0.508E-03
DAV:  16    -0.475442131409E+02   -0.16793E-02   -0.39040E-05   504   0.733E-03    0.268E-03
DAV:  17    -0.475446487582E+02   -0.43562E-03   -0.12500E-05   496   0.414E-03    0.161E-03
DAV:  18    -0.475448056415E+02   -0.15688E-03   -0.71274E-06   480   0.323E-03    0.108E-03
DAV:  19    -0.475448993786E+02   -0.93737E-04   -0.34903E-06   504   0.218E-03
  16 F= -.47544899E+02 E0= -.47544899E+02  d E =-.107544E+00  mag=     0.0003
       N       E                     dE             d eps       ncg     rms          rms(c)
DAV:   1    -0.475104963598E+02    0.34309E-01   -0.84152E+01   696   0.189E+01    0.333E-01
DAV:   2    -0.475504949377E+02   -0.39999E-01   -0.39575E-01   736   0.183E+00    0.302E-01
DAV:   3    -0.475499338106E+02    0.56113E-03   -0.60705E-03   752   0.227E-01    0.230E-01
DAV:   4    -0.475486482739E+02    0.12855E-02   -0.15778E-03   736   0.877E-02    0.124E-01
DAV:   5    -0.475483193091E+02    0.32896E-03   -0.16561E-03   728   0.881E-02    0.399E-02
DAV:   6    -0.475483747643E+02   -0.55455E-04   -0.45134E-05   464   0.151E-02
  17 F= -.47548375E+02 E0= -.47548375E+02  d E =-.111020E+00  mag=     0.0001
       N       E                     dE             d eps       ncg     rms          rms(c)
DAV:   1    -0.475358024649E+02    0.12517E-01   -0.16420E+02   688   0.265E+01    0.557E-01
DAV:   2    -0.476147143925E+02   -0.78912E-01   -0.78617E-01   732   0.258E+00    0.469E-01
DAV:   3    -0.476129518165E+02    0.17626E-02   -0.12510E-02   752   0.324E-01    0.341E-01
DAV:   4    -0.476093570892E+02    0.35947E-02   -0.59478E-03   728   0.160E-01    0.155E-01
DAV:   5    -0.476084074660E+02    0.94962E-03   -0.27554E-03   760   0.105E-01    0.580E-02
DAV:   6    -0.476088001777E+02   -0.39271E-03   -0.14907E-04   480   0.255E-02    0.386E-02
DAV:   7    -0.476094718844E+02   -0.67171E-03   -0.20930E-04   512   0.277E-02    0.154E-02
DAV:   8    -0.476101926467E+02   -0.72076E-03   -0.12444E-04   504   0.177E-02    0.910E-03
DAV:   9    -0.476107898105E+02   -0.59716E-03   -0.78136E-05   496   0.110E-02    0.714E-03
DAV:  10    -0.476114369680E+02   -0.64716E-03   -0.11074E-04   496   0.128E-02    0.447E-03
DAV:  11    -0.476118983656E+02   -0.46140E-03   -0.72903E-05   496   0.100E-02    0.263E-03
DAV:  12    -0.476121921350E+02   -0.29377E-03   -0.39755E-05   496   0.685E-03    0.156E-03
DAV:  13    -0.476123231674E+02   -0.13103E-03   -0.93873E-06   472   0.361E-03    0.108E-03
DAV:  14    -0.476124256268E+02   -0.10246E-03   -0.68599E-06   472   0.292E-03    0.628E-04
DAV:  15    -0.476124935740E+02   -0.67947E-04   -0.31130E-06   472   0.190E-03
  18 F= -.47612494E+02 E0= -.47612494E+02  d E =-.641188E-01  mag=    -0.0000
       N       E                     dE             d eps       ncg     rms          rms(c)
DAV:   1    -0.475830904329E+02    0.29335E-01   -0.10689E+02   688   0.214E+01    0.434E-01
DAV:   2    -0.476342765708E+02   -0.51186E-01   -0.50663E-01   736   0.207E+00    0.378E-01
DAV:   3    -0.476332753669E+02    0.10012E-02   -0.78841E-03   760   0.257E-01    0.276E-01
DAV:   4    -0.476311562057E+02    0.21192E-02   -0.40480E-03   752   0.126E-01    0.125E-01
DAV:   5    -0.476305984764E+02    0.55773E-03   -0.19527E-03   744   0.811E-02    0.470E-02
DAV:   6    -0.476306092228E+02   -0.10746E-04   -0.18912E-04   496   0.213E-02
  19 F= -.47630609E+02 E0= -.47630609E+02  d E =-.822345E-01  mag=    -0.0000
       N       E                     dE             d eps       ncg     rms          rms(c)
DAV:   1    -0.476551290423E+02   -0.24531E-01   -0.74816E+01   688   0.178E+01    0.361E-01
DAV:   2    -0.476918264600E+02   -0.36697E-01   -0.35727E-01   736   0.172E+00    0.318E-01
DAV:   3    -0.476913133524E+02    0.51311E-03   -0.54735E-03   752   0.210E-01    0.234E-01
DAV:   4    -0.476903347451E+02    0.97861E-03   -0.24505E-03   736   0.110E-01    0.106E-01
DAV:   5    -0.476905255184E+02   -0.19077E-03   -0.94734E-04   752   0.703E-02    0.392E-02
DAV:   6    -0.476906780408E+02   -0.15252E-03   -0.75719E-05   480   0.180E-02    0.200E-02
DAV:   7    -0.476909001737E+02   -0.22213E-03   -0.48865E-05   488   0.140E-02    0.583E-03
DAV:   8    -0.476910539327E+02   -0.15376E-03   -0.90875E-06   480   0.559E-03    0.322E-03
DAV:   9    -0.476912764690E+02   -0.22254E-03   -0.11286E-05   488   0.367E-03    0.230E-03
DAV:  10    -0.476914584643E+02   -0.18200E-03   -0.70388E-06   480   0.235E-03    0.143E-03
DAV:  11    -0.476916331474E+02   -0.17468E-03   -0.78783E-06   488   0.221E-03    0.860E-04
DAV:  12    -0.476917363406E+02   -0.10319E-03   -0.27079E-06   480   0.138E-03    0.497E-04
DAV:  13    -0.476917859908E+02   -0.49650E-04   -0.96917E-07   480   0.883E-04
  20 F= -.47691786E+02 E0= -.47691786E+02  d E =-.611768E-01  mag=     0.0000
       N       E                     dE             d eps       ncg     rms          rms(c)
DAV:   1    -0.476927390616E+02   -0.10027E-02   -0.63135E+01   688   0.164E+01    0.333E-01
DAV:   2    -0.477230903882E+02   -0.30351E-01   -0.29992E-01   736   0.158E+00    0.292E-01
DAV:   3    -0.477226313063E+02    0.45908E-03   -0.45745E-03   752   0.191E-01    0.215E-01
DAV:   4    -0.477217249737E+02    0.90633E-03   -0.20836E-03   728   0.103E-01    0.936E-02
DAV:   5    -0.477217435084E+02   -0.18535E-04   -0.65104E-04   768   0.611E-02
  21 F= -.47721744E+02 E0= -.47721744E+02  d E =-.911343E-01  mag=     0.0000
       N       E                     dE             d eps       ncg     rms          rms(c)
DAV:   1    -0.475866282659E+02    0.13510E+00   -0.25504E+02   688   0.331E+01    0.782E-01
DAV:   2    -0.477112226396E+02   -0.12459E+00   -0.12277E+00   736   0.319E+00    0.576E-01
DAV:   3    -0.477090054109E+02    0.22172E-02   -0.18983E-02   752   0.383E-01    0.402E-01
DAV:   4    -0.477059533950E+02    0.30520E-02   -0.84752E-03   728   0.207E-01    0.150E-01
DAV:   5    -0.477060381432E+02   -0.84748E-04   -0.12035E-03   752   0.888E-02    0.535E-02
DAV:   6    -0.477060006937E+02    0.37449E-04   -0.20764E-04   496   0.319E-02
  22 F= -.47706001E+02 E0= -.47706001E+02  d E =-.753915E-01  mag=     0.0000
       N       E                     dE             d eps       ncg     rms          rms(c)
DAV:   1    -0.476779624608E+02    0.28076E-01   -0.10699E+02   688   0.213E+01    0.418E-01
DAV:   2    -0.477302472567E+02   -0.52285E-01   -0.51790E-01   732   0.209E+00    0.417E-01
DAV:   3    -0.477297695741E+02    0.47768E-03   -0.80389E-03   752   0.259E-01    0.314E-01
DAV:   4    -0.477281642917E+02    0.16053E-02   -0.27127E-03   736   0.116E-01    0.174E-01
DAV:   5    -0.477280718704E+02    0.92421E-04   -0.19714E-03   736   0.101E-01    0.609E-02
DAV:   6    -0.477280410346E+02    0.30836E-04   -0.94207E-05   480   0.219E-02
  23 F= -.47728041E+02 E0= -.47728041E+02  d E =-.974318E-01  mag=     0.0000
       N       E                     dE             d eps       ncg     rms          rms(c)
DAV:   1    -0.477082135941E+02    0.19858E-01   -0.12777E+02   688   0.233E+01    0.535E-01
DAV:   2    -0.477696898234E+02   -0.61476E-01   -0.61022E-01   720   0.225E+00    0.424E-01
DAV:   3    -0.477687222200E+02    0.96760E-03   -0.96440E-03   752   0.282E-01    0.294E-01
DAV:   4    -0.477670958151E+02    0.16264E-02   -0.43211E-03   736   0.147E-01    0.116E-01
DAV:   5    -0.477671402414E+02   -0.44426E-04   -0.78680E-04   752   0.695E-02
  24 F= -.47767140E+02 E0= -.47767140E+02  d E =-.390992E-01  mag=     0.0000
       N       E                     dE             d eps       ncg     rms          rms(c)
DAV:   1    -0.477667235429E+02    0.37227E-03   -0.11390E+00   704   0.219E+00    0.567E-02
DAV:   2    -0.477672814772E+02   -0.55793E-03   -0.55870E-03   736   0.214E-01    0.446E-02
DAV:   3    -0.477672808167E+02    0.66056E-06   -0.79157E-05   428   0.271E-02
  25 F= -.47767281E+02 E0= -.47767281E+02  d E =-.392398E-01  mag=     0.0000
       N       E                     dE             d eps       ncg     rms          rms(c)
DAV:   1    -0.477649763711E+02    0.23051E-02   -0.58244E+01   688   0.157E+01    0.307E-01
DAV:   2    -0.477931418848E+02   -0.28166E-01   -0.27726E-01   728   0.152E+00    0.281E-01
DAV:   3    -0.477928408807E+02    0.30100E-03   -0.42382E-03   752   0.187E-01    0.207E-01
DAV:   4    -0.477920171847E+02    0.82370E-03   -0.15796E-03   728   0.881E-02    0.101E-01
DAV:   5    -0.477919990349E+02    0.18150E-04   -0.80037E-04   736   0.646E-02
  26 F= -.47791999E+02 E0= -.47791999E+02  d E =-.247182E-01  mag=     0.0000
       N       E                     dE             d eps       ncg     rms          rms(c)
DAV:   1    -0.477698182639E+02    0.22199E-01   -0.59465E+01   688   0.159E+01    0.319E-01
DAV:   2    -0.477984741155E+02   -0.28656E-01   -0.28449E-01   720   0.154E+00    0.283E-01
DAV:   3    -0.477981585898E+02    0.31553E-03   -0.43553E-03   752   0.190E-01    0.205E-01
DAV:   4    -0.477973817173E+02    0.77687E-03   -0.15697E-03   720   0.882E-02    0.991E-02
DAV:   5    -0.477973808159E+02    0.90135E-06   -0.72828E-04   728   0.622E-02
  27 F= -.47797381E+02 E0= -.47797381E+02  d E =-.301000E-01  mag=     0.0000
       N       E                     dE             d eps       ncg     rms          rms(c)
DAV:   1    -0.477869643203E+02    0.10417E-01   -0.55580E+01   688   0.153E+01    0.284E-01
DAV:   2    -0.478134984604E+02   -0.26534E-01   -0.26613E-01   736   0.150E+00    0.274E-01
DAV:   3    -0.478132812534E+02    0.21721E-03   -0.42778E-03   752   0.196E-01    0.197E-01
DAV:   4    -0.478125791955E+02    0.70206E-03   -0.10481E-03   720   0.731E-02    0.114E-01
DAV:   5    -0.478125055662E+02    0.73629E-04   -0.11238E-03   736   0.737E-02    0.384E-02
DAV:   6    -0.478125047907E+02    0.77547E-06   -0.40706E-05   456   0.146E-02
  28 F= -.47812505E+02 E0= -.47812505E+02  d E =-.151240E-01  mag=    -0.0000
       N       E                     dE             d eps       ncg     rms          rms(c)
DAV:   1    -0.477968301454E+02    0.15675E-01   -0.37045E+01   692   0.125E+01    0.228E-01
DAV:   2    -0.478143886647E+02   -0.17559E-01   -0.17666E-01   720   0.123E+00    0.222E-01
DAV:   3    -0.478142267260E+02    0.16194E-03   -0.28370E-03   752   0.160E-01    0.161E-01
DAV:   4    -0.478137389773E+02    0.48775E-03   -0.71066E-04   720   0.599E-02    0.932E-02
DAV:   5    -0.478136827669E+02    0.56210E-04   -0.79655E-04   736   0.619E-02
  29 F= -.47813683E+02 E0= -.47813683E+02  d E =-.163020E-01  mag=    -0.0000
       N       E                     dE             d eps       ncg     rms          rms(c)
DAV:   1    -0.478022327986E+02    0.11506E-01   -0.44569E+01   688   0.137E+01    0.259E-01
DAV:   2    -0.478235946624E+02   -0.21362E-01   -0.21496E-01   732   0.134E+00    0.239E-01
DAV:   3    -0.478234155870E+02    0.17908E-03   -0.33661E-03   752   0.170E-01    0.174E-01
DAV:   4    -0.478228666517E+02    0.54894E-03   -0.93871E-04   736   0.690E-02    0.923E-02
DAV:   5    -0.478228427566E+02    0.23895E-04   -0.70947E-04   752   0.608E-02
  30 F= -.47822843E+02 E0= -.47822843E+02  d E =-.915999E-02  mag=    -0.0000
       N       E                     dE             d eps       ncg     rms          rms(c)
DAV:   1    -0.478211623234E+02    0.17043E-02   -0.32439E+00   696   0.370E+00    0.737E-02
DAV:   2    -0.478227334496E+02   -0.15711E-02   -0.15865E-02   728   0.363E-01    0.636E-02
DAV:   3    -0.478227280247E+02    0.54249E-05   -0.22747E-04   480   0.462E-02
  31 F= -.47822728E+02 E0= -.47822728E+02  d E =-.904526E-02  mag=    -0.0000
       N       E                     dE             d eps       ncg     rms          rms(c)
DAV:   1    -0.478163458512E+02    0.63876E-02   -0.23158E+01   696   0.992E+00    0.271E-01
DAV:   2    -0.478271670400E+02   -0.10821E-01   -0.11189E-01   736   0.955E-01    0.207E-01
DAV:   3    -0.478270444671E+02    0.12257E-03   -0.19120E-03   752   0.120E-01    0.133E-01
DAV:   4    -0.478268833779E+02    0.16109E-03   -0.67400E-04   732   0.637E-02    0.443E-02
DAV:   5    -0.478269011054E+02   -0.17727E-04   -0.50329E-05   448   0.240E-02
  32 F= -.47826901E+02 E0= -.47826901E+02  d E =-.417308E-02  mag=     0.0000
       N       E                     dE             d eps       ncg     rms          rms(c)
DAV:   1    -0.478270711558E+02   -0.18778E-03   -0.26596E+00   696   0.336E+00    0.908E-02
DAV:   2    -0.478283081839E+02   -0.12370E-02   -0.12673E-02   736   0.322E-01    0.728E-02
DAV:   3    -0.478282889510E+02    0.19233E-04   -0.19968E-04   480   0.403E-02
  33 F= -.47828289E+02 E0= -.47828289E+02  d E =-.556093E-02  mag=     0.0000
       N       E                     dE             d eps       ncg     rms          rms(c)
DAV:   1    -0.478273245362E+02    0.98365E-03   -0.12065E+01   688   0.715E+00    0.132E-01
DAV:   2    -0.478332824497E+02   -0.59579E-02   -0.57492E-02   744   0.691E-01    0.118E-01
DAV:   3    -0.478332136337E+02    0.68816E-04   -0.86196E-04   728   0.826E-02
  34 F= -.47833214E+02 E0= -.47833214E+02  d E =-.492468E-02  mag=    -0.0000
       N       E                     dE             d eps       ncg     rms          rms(c)
DAV:   1    -0.478321359493E+02    0.11465E-02   -0.38997E+00   704   0.407E+00    0.986E-02
DAV:   2    -0.478339266411E+02   -0.17907E-02   -0.17794E-02   752   0.385E-01    0.870E-02
DAV:   3    -0.478338703220E+02    0.56319E-04   -0.24385E-04   464   0.440E-02
  35 F= -.47833870E+02 E0= -.47833870E+02  d E =-.558137E-02  mag=    -0.0000
       N       E                     dE             d eps       ncg     rms          rms(c)
DAV:   1    -0.478325729328E+02    0.13537E-02   -0.67280E+00   696   0.533E+00    0.130E-01
DAV:   2    -0.478356969180E+02   -0.31240E-02   -0.32463E-02   720   0.523E-01    0.113E-01
DAV:   3    -0.478356755671E+02    0.21351E-04   -0.58174E-04   736   0.732E-02
  36 F= -.47835676E+02 E0= -.47835676E+02  d E =-.180525E-02  mag=    -0.0000
       N       E                     dE             d eps       ncg     rms          rms(c)
DAV:   1    -0.478355640579E+02    0.13286E-03   -0.24040E-01   720   0.101E+00    0.281E-02
DAV:   2    -0.478356833767E+02   -0.11932E-03   -0.12432E-03   720   0.104E-01    0.909E-03
DAV:   3    -0.478356851461E+02   -0.17694E-05   -0.24258E-05   432   0.177E-02
  37 F= -.47835685E+02 E0= -.47835685E+02  d E =-.181482E-02  mag=    -0.0000
       N       E                     dE             d eps       ncg     rms          rms(c)
DAV:   1    -0.478348974310E+02    0.78595E-03   -0.57112E+00   688   0.484E+00    0.970E-02
DAV:   2    -0.478376445497E+02   -0.27471E-02   -0.27555E-02   736   0.470E-01    0.795E-02
DAV:   3    -0.478376179982E+02    0.26552E-04   -0.41933E-04   672   0.591E-02
  38 F= -.47837618E+02 E0= -.47837618E+02  d E =-.193285E-02  mag=    -0.0000
       N       E                     dE             d eps       ncg     rms          rms(c)
DAV:   1    -0.478376046683E+02    0.39881E-04   -0.34348E-01   720   0.119E+00    0.409E-02
DAV:   2    -0.478377510593E+02   -0.14639E-03   -0.15470E-03   736   0.112E-01    0.312E-02
DAV:   3    -0.478377432919E+02    0.77673E-05   -0.28654E-05   432   0.143E-02
  39 F= -.47837743E+02 E0= -.47837743E+02  d E =-.205815E-02  mag=    -0.0000
       N       E                     dE             d eps       ncg     rms          rms(c)
DAV:   1    -0.478381274842E+02   -0.37642E-03   -0.30300E+00   688   0.349E+00    0.561E-02
DAV:   2    -0.478396004833E+02   -0.14730E-02   -0.14470E-02   728   0.337E-01    0.513E-02
DAV:   3    -0.478395881022E+02    0.12381E-04   -0.19294E-04   528   0.396E-02
  40 F= -.47839588E+02 E0= -.47839588E+02  d E =-.184481E-02  mag=    -0.0000
       N       E                     dE             d eps       ncg     rms          rms(c)
DAV:   1    -0.478376732288E+02    0.19273E-02   -0.89146E+00   688   0.599E+00    0.101E-01
DAV:   2    -0.478419156350E+02   -0.42424E-02   -0.41953E-02   736   0.576E-01    0.982E-02
DAV:   3    -0.478418663676E+02    0.49267E-04   -0.59410E-04   752   0.661E-02
  41 F= -.47841866E+02 E0= -.47841866E+02  d E =-.412308E-02  mag=    -0.0000
       N       E                     dE             d eps       ncg     rms          rms(c)
DAV:   1    -0.478421911760E+02   -0.27554E-03   -0.13764E+00   688   0.241E+00    0.613E-02
DAV:   2    -0.478428182207E+02   -0.62704E-03   -0.64794E-03   736   0.234E-01    0.518E-02
DAV:   3    -0.478428042505E+02    0.13970E-04   -0.98675E-05   432   0.300E-02
  42 F= -.47842804E+02 E0= -.47842804E+02  d E =-.937883E-03  mag=    -0.0000
       N       E                     dE             d eps       ncg     rms          rms(c)
DAV:   1    -0.478429156890E+02   -0.97468E-04   -0.10783E-01   720   0.676E-01    0.214E-02
DAV:   2    -0.478429679070E+02   -0.52218E-04   -0.50923E-04   688   0.644E-02
  43 F= -.47842968E+02 E0= -.47842968E+02  d E =-.110154E-02  mag=    -0.0000
       N       E                     dE             d eps       ncg     rms          rms(c)
DAV:   1    -0.478432538308E+02   -0.33814E-03   -0.14289E+00   688   0.243E+00    0.478E-02
DAV:   2    -0.478439536338E+02   -0.69980E-03   -0.68221E-03   752   0.235E-01    0.432E-02
DAV:   3    -0.478439466893E+02    0.69445E-05   -0.90311E-05   416   0.276E-02
  44 F= -.47843947E+02 E0= -.47843947E+02  d E =-.978782E-03  mag=    -0.0000
       N       E                     dE             d eps       ncg     rms          rms(c)
DAV:   1    -0.478440616713E+02   -0.10804E-03   -0.21623E-01   720   0.948E-01    0.253E-02
DAV:   2    -0.478441634218E+02   -0.10175E-03   -0.99463E-04   736   0.893E-02    0.204E-02
DAV:   3    -0.478441628916E+02    0.53019E-06   -0.13506E-05   416   0.102E-02
  45 F= -.47844163E+02 E0= -.47844163E+02  d E =-.119498E-02  mag=    -0.0000
       N       E                     dE             d eps       ncg     rms          rms(c)
DAV:   1    -0.478441918882E+02   -0.28466E-04   -0.12633E+00   704   0.228E+00    0.646E-02
DAV:   2    -0.478447832036E+02   -0.59132E-03   -0.59829E-03   720   0.216E-01    0.455E-02
DAV:   3    -0.478447768208E+02    0.63828E-05   -0.91338E-05   448   0.270E-02
  46 F= -.47844777E+02 E0= -.47844777E+02  d E =-.613929E-03  mag=    -0.0000
       N       E                     dE             d eps       ncg     rms          rms(c)
DAV:   1    -0.478447022208E+02    0.80983E-04   -0.79799E-02   720   0.572E-01    0.125E-02
DAV:   2    -0.478447415585E+02   -0.39338E-04   -0.37325E-04   640   0.557E-02
  47 F= -.47844742E+02 E0= -.47844742E+02  d E =-.578667E-03  mag=    -0.0000
