   51   51 1000    2
  0.2362274E+03  0.2292452E-08  0.2292452E-08  0.2292452E-08  0.1000000E-15
  1.000000000000000E-004
  CAR 
 unknown system                          
    561      1    364
 
  0.0000000E+00  0.0000000E+00  0.0000000E+00  0.1000000E+01
    1       -9.742920     -9.727237
    2       -9.237404     -9.227756
    3       -9.101595     -9.093233
    4       -9.072568     -9.065601
    5       -9.037399     -9.026794
    6       -9.017519     -9.009126
    7       -8.990559     -8.978714
    8       -8.964837     -8.951313
    9       -8.914627     -8.906715
   10       -8.908631     -8.898043
   11       -8.887008     -8.879639
   12       -8.865368     -8.855723
   13       -8.850299     -8.840907
   14       -8.818574     -8.810627
   15       -8.793575     -8.785609
   16       -8.754455     -8.744995
   17       -8.753348     -8.744390
   18       -8.721883     -8.713356
   19       -8.709589     -8.701440
   20       -8.678887     -8.670874
   21       -8.651751     -8.645923
   22       -8.619382     -8.612368
   23       -8.613053     -8.606209
   24       -8.580703     -8.572320
   25       -8.577647     -8.568850
   26       -8.551558     -8.546763
   27       -8.542752     -8.535969
   28       -8.527512     -8.520627
   29       -8.515374     -8.509220
   30       -8.495624     -8.488611
   31       -8.490282     -8.482986
   32       -8.468535     -8.461684
   33       -8.460054     -8.453863
   34       -8.453746     -8.446775
   35       -8.449058     -8.442811
   36       -8.425585     -8.419061
   37       -8.422562     -8.415971
   38       -8.407734     -8.400289
   39       -8.394972     -8.388118
   40       -8.374707     -8.368972
   41       -8.366889     -8.359433
   42       -8.346343     -8.340130
   43       -8.338473     -8.330922
   44       -8.320948     -8.314497
   45       -8.318067     -8.311428
   46       -8.299324     -8.292819
   47       -8.275486     -8.269655
   48       -8.273039     -8.266792
   49       -8.263380     -8.257316
   50       -8.252970     -8.246019
   51       -8.240191     -8.234162
   52       -8.226671     -8.220389
   53       -8.223694     -8.217449
   54       -8.214847     -8.209332
   55       -8.185984     -8.178823
   56       -8.176482     -8.170143
   57       -8.162305     -8.155910
   58       -8.151625     -8.145742
   59       -8.147651     -8.138908
   60       -8.113780     -8.106383
   61       -8.103180     -8.097544
   62       -8.099853     -8.093309
   63       -8.076886     -8.070857
   64       -8.066064     -8.059803
   65       -8.049115     -8.042504
   66       -8.031159     -8.025688
   67       -8.026762     -8.020184
   68       -8.007666     -8.001139
   69       -7.993612     -7.987712
   70       -7.990161     -7.984428
   71       -7.963407     -7.957078
   72       -7.951137     -7.945489
   73       -7.932538     -7.926908
   74       -7.917371     -7.911311
   75       -7.915952     -7.909740
   76       -7.911292     -7.905048
   77       -7.898693     -7.892741
   78       -7.882542     -7.875631
   79       -7.854277     -7.848706
   80       -7.851687     -7.845341
   81       -7.835110     -7.829011
   82       -7.821241     -7.815126
   83       -7.813207     -7.807412
   84       -7.799359     -7.792613
   85       -7.777613     -7.771418
   86       -7.770912     -7.764256
   87       -7.762709     -7.757001
   88       -7.750135     -7.744074
   89       -7.738547     -7.731731
   90       -7.729436     -7.723349
   91       -7.724247     -7.717414
   92       -7.711018     -7.704426
   93       -7.701871     -7.696220
   94       -7.670318     -7.665002
   95       -7.664750     -7.659187
   96       -7.649003     -7.642279
   97       -7.647601     -7.641560
   98       -7.642481     -7.636889
   99       -7.617412     -7.611295
  100       -7.598668     -7.592874
  101       -7.581552     -7.576076
  102       -7.568519     -7.561633
  103       -7.559304     -7.553210
  104       -7.541221     -7.535536
  105       -7.516540     -7.511365
  106       -7.510315     -7.504661
  107       -7.502794     -7.496329
  108       -7.488688     -7.483122
  109       -7.475238     -7.469626
  110       -7.468931     -7.463024
  111       -7.457530     -7.451794
  112       -7.447760     -7.441513
  113       -7.435105     -7.429259
  114       -7.420466     -7.414485
  115       -7.414340     -7.407249
  116       -7.390298     -7.384179
  117       -7.384687     -7.379429
  118       -7.366005     -7.360315
  119       -7.359423     -7.353216
  120       -7.340826     -7.335272
  121       -7.336072     -7.330553
  122       -7.311708     -7.306745
  123       -7.308878     -7.302903
  124       -7.306826     -7.300562
  125       -7.284157     -7.278688
  126       -7.275788     -7.269821
  127       -7.271662     -7.266227
  128       -7.254492     -7.249541
  129       -7.242534     -7.237152
  130       -7.226852     -7.221665
  131       -7.211755     -7.206208
  132       -7.206350     -7.199709
  133       -7.191003     -7.185923
  134       -7.176348     -7.170884
  135       -7.171860     -7.166473
  136       -7.147690     -7.141628
  137       -7.138548     -7.132927
  138       -7.124704     -7.119546
  139       -7.117875     -7.112998
  140       -7.090582     -7.085302
  141       -7.084029     -7.078821
  142       -7.079766     -7.073764
  143       -7.059981     -7.055042
  144       -7.054526     -7.049202
  145       -7.047391     -7.040445
  146       -7.036563     -7.031933
  147       -7.021975     -7.016748
  148       -7.007651     -7.001923
  149       -7.000662     -6.995666
  150       -6.988752     -6.982851
  151       -6.981588     -6.976116
  152       -6.967345     -6.962967
  153       -6.954054     -6.948177
  154       -6.946800     -6.941016
  155       -6.928268     -6.922975
  156       -6.917541     -6.911125
  157       -6.904543     -6.897942
  158       -6.896651     -6.890367
  159       -6.881789     -6.874862
  160       -6.877909     -6.871154
  161       -6.866006     -6.860310
  162       -6.860141     -6.855364
  163       -6.848463     -6.842802
  164       -6.837530     -6.832801
  165       -6.823665     -6.818000
  166       -6.809897     -6.803831
  167       -6.802829     -6.796481
  168       -6.789451     -6.783685
  169       -6.783888     -6.777614
  170       -6.771301     -6.766392
  171       -6.759364     -6.754308
  172       -6.743885     -6.738309
  173       -6.727309     -6.721680
  174       -6.725083     -6.719269
  175       -6.714956     -6.709343
  176       -6.709230     -6.703327
  177       -6.703664     -6.698129
  178       -6.700839     -6.695419
  179       -6.680814     -6.675726
  180       -6.675047     -6.668326
  181       -6.664918     -6.659353
  182       -6.659961     -6.654798
  183       -6.653917     -6.647559
  184       -6.636235     -6.631481
  185       -6.631841     -6.626770
  186       -6.623501     -6.618622
  187       -6.616228     -6.610666
  188       -6.611371     -6.606099
  189       -6.603464     -6.598601
  190       -6.590616     -6.585281
  191       -6.574533     -6.569145
  192       -6.570536     -6.565432
  193       -6.566546     -6.561719
  194       -6.563649     -6.558610
  195       -6.556743     -6.551051
  196       -6.552455     -6.546523
  197       -6.541152     -6.535000
  198       -6.537364     -6.531236
  199       -6.531580     -6.526582
  200       -6.524017     -6.518390
  201       -6.511584     -6.507544
  202       -6.506476     -6.501098
  203       -6.496845     -6.490970
  204       -6.493207     -6.487401
  205       -6.486040     -6.480994
  206       -6.473774     -6.468901
  207       -6.462457     -6.457176
  208       -6.454292     -6.449053
  209       -6.445490     -6.439508
  210       -6.436976     -6.431183
  211       -6.432397     -6.426988
  212       -6.422810     -6.417829
  213       -6.418399     -6.413356
  214       -6.407361     -6.402299
  215       -6.404079     -6.398828
  216       -6.397321     -6.392505
  217       -6.393429     -6.387887
  218       -6.391247     -6.386541
  219       -6.379492     -6.373879
  220       -6.367550     -6.362551
  221       -6.363276     -6.358211
  222       -6.350836     -6.346325
  223       -6.342909     -6.337323
  224       -6.334915     -6.329850
  225       -6.332490     -6.327288
  226       -6.325790     -6.320836
  227       -6.316123     -6.309724
  228       -6.304892     -6.300347
  229       -6.302832     -6.297583
  230       -6.291675     -6.285873
  231       -6.283979     -6.279016
  232       -6.280051     -6.274299
  233       -6.270839     -6.265524
  234       -6.263062     -6.258598
  235       -6.258248     -6.252998
  236       -6.239813     -6.234542
  237       -6.234812     -6.230341
  238       -6.229152     -6.223728
  239       -6.225039     -6.220298
  240       -6.217100     -6.212487
  241       -6.205149     -6.201127
  242       -6.200170     -6.195499
  243       -6.180688     -6.175056
  244       -6.170004     -6.163797
  245       -6.168749     -6.162860
  246       -6.151400     -6.145976
  247       -6.143693     -6.137972
  248       -6.137779     -6.131569
  249       -6.125795     -6.120721
  250       -6.107639     -6.103014
  251       -6.102414     -6.095652
  252       -6.087503     -6.083785
  253       -6.076038     -6.069213
  254       -6.063901     -6.059561
  255       -6.051475     -6.046006
  256       -6.034156     -6.027077
  257       -6.030717     -6.025291
  258       -6.006037     -5.997319
  259       -6.000535     -5.995535
  260       -5.973074     -5.968721
  261       -5.957547     -5.953070
  262       -5.935542     -5.931794
  263       -5.889790     -5.879635
  264       -5.698442     -5.683459
  265       -5.462028     -5.452587
  266       -5.217476     -5.205469
  267       -5.134272     -5.118741
  268       -5.004666     -4.986478
  269       -4.866960     -4.850744
  270       -4.825687     -4.798382
  271       -4.614139     -4.598607
  272       -4.431728     -4.414903
  273       -4.290874     -4.274143
  274       -3.953214     -3.938279
  275       -3.879985     -3.866457
  276       -3.733674     -3.717868
  277       -3.692530     -3.677751
  278       -3.468271     -3.445389
  279       -3.405614     -3.386746
  280       -3.306366     -3.287881
  281       -3.236269     -3.172900
  282       -2.985007     -2.967112
  283       -2.778017     -2.761554
  284       -2.754733     -2.737307
  285       -2.725543     -2.704268
  286       -2.541010     -2.520494
  287       -2.480399     -2.467740
  288       -2.296666     -2.279466
  289       -2.187506     -2.172873
  290       -2.145737     -2.130274
  291       -2.103347     -2.082095
  292       -2.031011     -2.014499
  293       -1.899662     -1.878177
  294       -1.848577     -1.826969
  295       -1.778420     -1.755751
  296       -1.720496     -1.695461
  297       -1.647603     -1.617800
  298       -1.460742     -1.437372
  299       -1.440354     -1.421420
  300       -1.431864     -1.399588
  301       -1.264986     -1.238630
  302       -1.242308     -1.221861
  303       -1.128587     -1.112791
  304       -0.985607     -0.965706
  305       -0.941098     -0.920056
  306       -0.919570     -0.899151
  307       -0.856936     -0.841641
  308       -0.797281     -0.777782
  309       -0.556912     -0.539103
  310       -0.549771     -0.529002
  311       -0.450521     -0.427158
  312       -0.399270     -0.378920
  313       -0.339561     -0.321506
  314       -0.251430     -0.230518
  315       -0.215592     -0.197369
  316       -0.084711     -0.062265
  317       -0.045816     -0.027521
  318        0.030651      0.052380
  319        0.095618      0.118426
  320        0.144792      0.163187
  321        0.226284      0.247240
  322        0.368674      0.392102
  323        0.430102      0.458414
  324        0.467153      0.492942
  325        0.568363      0.584884
  326        0.599616      0.624087
  327        0.683204      0.696990
  328        0.743812      0.761952
  329        0.755372      0.773796
  330        0.806008      0.824232
  331        0.856030      0.871484
  332        0.896026      0.905747
  333        0.977091      0.984883
  334        0.990134      0.992142
  335        1.001523      1.004994
  336        1.047158      1.056564
  337        1.074021      1.084835
  338        1.091806      1.095688
  339        1.126719      1.135611
  340        1.138197      1.154824
  341        1.156738      1.167864
  342        1.175389      1.183045
  343        1.192218      1.200762
  344        1.234620      1.239979
  345        1.249303      1.254212
  346        1.273829      1.259316
  347        1.298381      1.309949
  348        1.333799      1.338839
  349        1.336214      1.350223
  350        1.393494      1.396895
  351        1.423104      1.418154
  352        1.448770      1.448363
  353        1.465195      1.471744
  354        1.479551      1.483691
  355        1.500820      1.489474
  356        1.521220      1.528674
  357        1.527245      1.538172
  358        1.558639      1.561250
  359        1.575477      1.569032
  360        1.594140      1.598050
  361        1.633254      1.641458
  362        1.653837      1.668004
  363        1.687677      1.691648
  364        1.717460      1.724412
