   54   54 1000    2
  0.4635170E+03  0.2925184E-08  0.2925184E-08  0.2925184E-08  0.1000000E-15
  1.000000000000000E-004
  CAR 
 unknown system                          
    594      1    384
 
  0.0000000E+00  0.0000000E+00  0.0000000E+00  0.1000000E+01
    1      -10.138226    -10.138212
    2       -9.603043     -9.603035
    3       -9.574228     -9.574219
    4       -9.504044     -9.504037
    5       -9.456648     -9.456640
    6       -9.417566     -9.417559
    7       -9.376896     -9.376888
    8       -9.357294     -9.357287
    9       -9.308639     -9.308631
   10       -9.272499     -9.272493
   11       -9.263500     -9.263494
   12       -9.214171     -9.214163
   13       -9.209100     -9.209093
   14       -9.164214     -9.164208
   15       -9.135526     -9.135519
   16       -9.128501     -9.128495
   17       -9.112355     -9.112350
   18       -9.089359     -9.089353
   19       -9.079200     -9.079194
   20       -9.045107     -9.045102
   21       -9.040648     -9.040642
   22       -9.028186     -9.028181
   23       -8.999970     -8.999965
   24       -8.995959     -8.995953
   25       -8.969219     -8.969214
   26       -8.960953     -8.960947
   27       -8.959216     -8.959211
   28       -8.933122     -8.933117
   29       -8.926930     -8.926924
   30       -8.906564     -8.906559
   31       -8.893932     -8.893927
   32       -8.881247     -8.881241
   33       -8.862021     -8.862016
   34       -8.847072     -8.847067
   35       -8.841162     -8.841158
   36       -8.830138     -8.830133
   37       -8.802402     -8.802397
   38       -8.789604     -8.789600
   39       -8.781358     -8.781353
   40       -8.763689     -8.763685
   41       -8.738049     -8.738044
   42       -8.725904     -8.725900
   43       -8.710665     -8.710660
   44       -8.700297     -8.700292
   45       -8.692550     -8.692547
   46       -8.673124     -8.673120
   47       -8.649452     -8.649447
   48       -8.624695     -8.624691
   49       -8.610781     -8.610776
   50       -8.599158     -8.599153
   51       -8.583653     -8.583649
   52       -8.577195     -8.577191
   53       -8.566319     -8.566314
   54       -8.552389     -8.552385
   55       -8.534487     -8.534483
   56       -8.532476     -8.532471
   57       -8.519348     -8.519343
   58       -8.502872     -8.502868
   59       -8.475882     -8.475877
   60       -8.473285     -8.473281
   61       -8.464806     -8.464802
   62       -8.454222     -8.454218
   63       -8.440198     -8.440193
   64       -8.429443     -8.429438
   65       -8.420171     -8.420166
   66       -8.415792     -8.415787
   67       -8.406094     -8.406089
   68       -8.389136     -8.389132
   69       -8.371217     -8.371213
   70       -8.360999     -8.360995
   71       -8.336368     -8.336364
   72       -8.324582     -8.324578
   73       -8.314851     -8.314846
   74       -8.305990     -8.305986
   75       -8.293516     -8.293512
   76       -8.276977     -8.276973
   77       -8.264310     -8.264305
   78       -8.243120     -8.243116
   79       -8.235566     -8.235562
   80       -8.230331     -8.230327
   81       -8.217329     -8.217325
   82       -8.205376     -8.205372
   83       -8.193091     -8.193087
   84       -8.180623     -8.180619
   85       -8.175820     -8.175815
   86       -8.161296     -8.161292
   87       -8.156191     -8.156187
   88       -8.137187     -8.137183
   89       -8.124973     -8.124969
   90       -8.115136     -8.115132
   91       -8.098374     -8.098371
   92       -8.081874     -8.081870
   93       -8.070793     -8.070789
   94       -8.064371     -8.064367
   95       -8.039436     -8.039432
   96       -8.038592     -8.038588
   97       -8.027462     -8.027458
   98       -8.018658     -8.018654
   99       -8.006374     -8.006370
  100       -7.994365     -7.994362
  101       -7.987971     -7.987967
  102       -7.971102     -7.971098
  103       -7.964559     -7.964555
  104       -7.943038     -7.943034
  105       -7.933667     -7.933664
  106       -7.922838     -7.922835
  107       -7.900812     -7.900808
  108       -7.892037     -7.892033
  109       -7.880311     -7.880307
  110       -7.877888     -7.877885
  111       -7.858117     -7.858113
  112       -7.847982     -7.847979
  113       -7.840412     -7.840408
  114       -7.837217     -7.837213
  115       -7.817917     -7.817913
  116       -7.813686     -7.813682
  117       -7.792268     -7.792265
  118       -7.780680     -7.780676
  119       -7.768174     -7.768170
  120       -7.755863     -7.755859
  121       -7.738346     -7.738342
  122       -7.734787     -7.734783
  123       -7.724362     -7.724358
  124       -7.715684     -7.715680
  125       -7.704006     -7.704003
  126       -7.693029     -7.693025
  127       -7.671917     -7.671913
  128       -7.663581     -7.663577
  129       -7.651720     -7.651716
  130       -7.635196     -7.635192
  131       -7.632595     -7.632591
  132       -7.623002     -7.622998
  133       -7.599540     -7.599536
  134       -7.589372     -7.589368
  135       -7.588816     -7.588813
  136       -7.580817     -7.580813
  137       -7.569991     -7.569987
  138       -7.560131     -7.560127
  139       -7.555693     -7.555689
  140       -7.539958     -7.539955
  141       -7.534336     -7.534332
  142       -7.513007     -7.513004
  143       -7.505350     -7.505346
  144       -7.500557     -7.500553
  145       -7.487868     -7.487864
  146       -7.470745     -7.470741
  147       -7.456125     -7.456121
  148       -7.439567     -7.439563
  149       -7.436329     -7.436325
  150       -7.418160     -7.418156
  151       -7.411082     -7.411079
  152       -7.402898     -7.402895
  153       -7.398992     -7.398988
  154       -7.385073     -7.385070
  155       -7.375043     -7.375039
  156       -7.370556     -7.370552
  157       -7.362462     -7.362459
  158       -7.350638     -7.350634
  159       -7.339942     -7.339938
  160       -7.324496     -7.324492
  161       -7.313397     -7.313394
  162       -7.309458     -7.309454
  163       -7.298543     -7.298539
  164       -7.291150     -7.291146
  165       -7.283113     -7.283109
  166       -7.273158     -7.273154
  167       -7.267890     -7.267887
  168       -7.262246     -7.262243
  169       -7.248350     -7.248346
  170       -7.241268     -7.241264
  171       -7.223770     -7.223767
  172       -7.216208     -7.216205
  173       -7.210504     -7.210501
  174       -7.207552     -7.207549
  175       -7.194740     -7.194736
  176       -7.192993     -7.192990
  177       -7.185670     -7.185666
  178       -7.181137     -7.181134
  179       -7.166608     -7.166605
  180       -7.156568     -7.156565
  181       -7.149868     -7.149865
  182       -7.139242     -7.139238
  183       -7.134452     -7.134448
  184       -7.129409     -7.129407
  185       -7.115991     -7.115987
  186       -7.110196     -7.110193
  187       -7.099844     -7.099841
  188       -7.091657     -7.091653
  189       -7.081207     -7.081204
  190       -7.079815     -7.079811
  191       -7.069897     -7.069894
  192       -7.064801     -7.064798
  193       -7.060431     -7.060428
  194       -7.054312     -7.054309
  195       -7.049019     -7.049016
  196       -7.033978     -7.033974
  197       -7.029043     -7.029040
  198       -7.017399     -7.017396
  199       -7.009197     -7.009194
  200       -7.000742     -7.000739
  201       -6.990622     -6.990619
  202       -6.987330     -6.987327
  203       -6.978316     -6.978313
  204       -6.974784     -6.974781
  205       -6.971974     -6.971970
  206       -6.963440     -6.963436
  207       -6.950779     -6.950776
  208       -6.944849     -6.944846
  209       -6.934461     -6.934458
  210       -6.929642     -6.929638
  211       -6.924644     -6.924641
  212       -6.915182     -6.915180
  213       -6.905800     -6.905797
  214       -6.897024     -6.897021
  215       -6.894037     -6.894034
  216       -6.881373     -6.881370
  217       -6.874319     -6.874315
  218       -6.868937     -6.868934
  219       -6.861311     -6.861308
  220       -6.849655     -6.849651
  221       -6.845381     -6.845377
  222       -6.835374     -6.835370
  223       -6.829427     -6.829424
  224       -6.820755     -6.820751
  225       -6.817409     -6.817405
  226       -6.812690     -6.812687
  227       -6.801534     -6.801531
  228       -6.796676     -6.796673
  229       -6.787834     -6.787831
  230       -6.779473     -6.779470
  231       -6.775466     -6.775462
  232       -6.759768     -6.759764
  233       -6.754101     -6.754098
  234       -6.736340     -6.736337
  235       -6.732641     -6.732638
  236       -6.723241     -6.723238
  237       -6.717534     -6.717531
  238       -6.704245     -6.704242
  239       -6.700483     -6.700480
  240       -6.695054     -6.695051
  241       -6.682510     -6.682506
  242       -6.676194     -6.676190
  243       -6.672539     -6.672536
  244       -6.660437     -6.660433
  245       -6.655446     -6.655442
  246       -6.645582     -6.645580
  247       -6.644361     -6.644358
  248       -6.632664     -6.632661
  249       -6.622723     -6.622719
  250       -6.610217     -6.610213
  251       -6.608691     -6.608687
  252       -6.598724     -6.598721
  253       -6.596957     -6.596954
  254       -6.592867     -6.592864
  255       -6.573161     -6.573158
  256       -6.565682     -6.565679
  257       -6.557084     -6.557081
  258       -6.547430     -6.547427
  259       -6.530346     -6.530343
  260       -6.528687     -6.528683
  261       -6.517415     -6.517412
  262       -6.511691     -6.511688
  263       -6.502357     -6.502354
  264       -6.489469     -6.489466
  265       -6.469304     -6.469301
  266       -6.451632     -6.451629
  267       -6.448637     -6.448634
  268       -6.442327     -6.442324
  269       -6.431534     -6.431531
  270       -6.419079     -6.419075
  271       -6.415118     -6.415114
  272       -6.396509     -6.396506
  273       -6.389867     -6.389864
  274       -6.384764     -6.384761
  275       -6.369907     -6.369903
  276       -6.349989     -6.349985
  277       -6.282728     -6.282723
  278       -6.262636     -6.262633
  279       -6.157914     -6.157907
  280       -5.841928     -5.841920
  281       -5.763309     -5.763302
  282       -5.650742     -5.650737
  283       -5.566510     -5.566501
  284       -5.465950     -5.465942
  285       -5.295574     -5.295564
  286       -5.184560     -5.184550
  287       -4.949097     -4.949088
  288       -4.818218     -4.818209
  289       -4.576090     -4.576085
  290       -4.401722     -4.401716
  291       -4.321145     -4.321142
  292       -4.229404     -4.229401
  293       -4.125124     -4.125120
  294       -3.972156     -3.972150
  295       -3.933656     -3.933645
  296       -3.786093     -3.786081
  297       -3.695399     -3.695388
  298       -3.547875     -3.547860
  299       -3.367236     -3.367230
  300       -3.352742     -3.352733
  301       -3.136594     -3.136587
  302       -2.969510     -2.969511
  303       -2.899609     -2.899608
  304       -2.800242     -2.800244
  305       -2.758186     -2.758189
  306       -2.650379     -2.650375
  307       -2.599652     -2.599661
  308       -2.495093     -2.495096
  309       -2.459463     -2.459484
  310       -2.374467     -2.374468
  311       -2.231410     -2.231408
  312       -2.188987     -2.188992
  313       -2.122821     -2.122818
  314       -2.053358     -2.053356
  315       -1.977807     -1.977812
  316       -1.838308     -1.838313
  317       -1.811702     -1.811718
  318       -1.633273     -1.633273
  319       -1.612507     -1.612542
  320       -1.565486     -1.565524
  321       -1.486443     -1.486463
  322       -1.458435     -1.458488
  323       -1.344793     -1.344845
  324       -1.278094     -1.278152
  325       -1.187427     -1.187525
  326       -1.176270     -1.176490
  327       -1.118991     -1.119092
  328       -1.030264     -1.030324
  329       -0.977021     -0.977083
  330       -0.947675     -0.947974
  331       -0.936330     -0.936341
  332       -0.860667     -0.860707
  333       -0.831933     -0.832010
  334       -0.670038     -0.670170
  335       -0.592304     -0.592402
  336       -0.554865     -0.554969
  337       -0.500888     -0.501046
  338       -0.398602     -0.398667
  339       -0.372242     -0.372369
  340       -0.257775     -0.257941
  341       -0.208489     -0.208715
  342       -0.098825     -0.098915
  343       -0.060963     -0.061183
  344        0.023722      0.022333
  345        0.066983      0.066631
  346        0.113853      0.112970
  347        0.209576      0.208464
  348        0.262094      0.261474
  349        0.327219      0.326763
  350        0.351170      0.349975
  351        0.419488      0.419422
  352        0.432465      0.433210
  353        0.442404      0.445482
  354        0.455961      0.448598
  355        0.504737      0.505554
  356        0.514064      0.511073
  357        0.554889      0.555406
  358        0.563727      0.578044
  359        0.597216      0.591361
  360        0.627868      0.624262
  361        0.637176      0.634678
  362        0.639398      0.646981
  363        0.647157      0.651047
  364        0.656896      0.660078
  365        0.668786      0.673191
  366        0.675034      0.685625
  367        0.685271      0.705955
  368        0.689116      0.716783
  369        0.709336      0.718512
  370        0.753749      0.752045
  371        0.771328      0.791173
  372        0.782807      0.806670
  373        0.808728      0.812413
  374        0.819695      0.837568
  375        0.838454      0.851504
  376        0.845319      0.858264
  377        0.855197      0.874153
  378        0.860127      0.879499
  379        0.872639      0.885736
  380        0.901966      0.899046
  381        0.907877      0.908186
  382        0.911448      0.919629
  383        0.953144      0.957889
  384        0.974283      0.968637
