   21   21 1000    2
  0.3965737E+03  0.2026972E-08  0.2026972E-08  0.2026972E-08  0.1000000E-15
  1.000000000000000E-004
  CAR 
 unknown system                          
    231      1    152
 
  0.0000000E+00  0.0000000E+00  0.0000000E+00  0.1000000E+01
    1       -9.396411     -9.370044
    2       -9.007430     -8.989636
    3       -8.961160     -8.944690
    4       -8.921743     -8.904889
    5       -8.899318     -8.873488
    6       -8.875440     -8.854746
    7       -8.850624     -8.836913
    8       -8.830807     -8.817762
    9       -8.789659     -8.774143
   10       -8.770071     -8.757962
   11       -8.727719     -8.715683
   12       -8.708715     -8.690275
   13       -8.663220     -8.644837
   14       -8.643758     -8.625205
   15       -8.632190     -8.614067
   16       -8.603220     -8.585584
   17       -8.571453     -8.554344
   18       -8.561985     -8.550017
   19       -8.544493     -8.527159
   20       -8.516677     -8.502951
   21       -8.480818     -8.467308
   22       -8.469117     -8.455245
   23       -8.444704     -8.430560
   24       -8.402084     -8.390620
   25       -8.380999     -8.367804
   26       -8.326729     -8.312758
   27       -8.302906     -8.289017
   28       -8.280252     -8.262318
   29       -8.248782     -8.235345
   30       -8.229997     -8.216450
   31       -8.198031     -8.183038
   32       -8.185392     -8.171076
   33       -8.148672     -8.134250
   34       -8.110864     -8.094840
   35       -8.077506     -8.063012
   36       -8.040762     -8.024493
   37       -8.018170     -8.004582
   38       -7.974520     -7.960708
   39       -7.919372     -7.902988
   40       -7.879291     -7.866121
   41       -7.853416     -7.841322
   42       -7.820916     -7.810256
   43       -7.808001     -7.793644
   44       -7.778252     -7.766196
   45       -7.739157     -7.725858
   46       -7.713774     -7.702796
   47       -7.689841     -7.677389
   48       -7.660465     -7.647657
   49       -7.635302     -7.622162
   50       -7.564102     -7.552457
   51       -7.505864     -7.493014
   52       -7.503471     -7.489173
   53       -7.477520     -7.462207
   54       -7.457592     -7.443544
   55       -7.368926     -7.356292
   56       -7.358938     -7.345293
   57       -7.332430     -7.317570
   58       -7.297409     -7.281536
   59       -7.287510     -7.274530
   60       -7.272214     -7.262337
   61       -7.244875     -7.231598
   62       -7.224492     -7.212432
   63       -7.208108     -7.194044
   64       -7.182109     -7.167725
   65       -7.174134     -7.162141
   66       -7.164832     -7.149529
   67       -7.133276     -7.121346
   68       -7.115503     -7.101774
   69       -7.093433     -7.083815
   70       -7.057239     -7.045055
   71       -7.037566     -7.024525
   72       -7.022927     -7.012747
   73       -7.011869     -6.997455
   74       -6.999030     -6.986938
   75       -6.981502     -6.969308
   76       -6.962321     -6.947851
   77       -6.952098     -6.935723
   78       -6.918662     -6.907956
   79       -6.902186     -6.890189
   80       -6.872090     -6.856223
   81       -6.854926     -6.842550
   82       -6.850370     -6.837044
   83       -6.816367     -6.802916
   84       -6.806358     -6.794065
   85       -6.778940     -6.769682
   86       -6.751696     -6.741629
   87       -6.748802     -6.734939
   88       -6.736920     -6.728627
   89       -6.709238     -6.696606
   90       -6.698406     -6.684961
   91       -6.685985     -6.673840
   92       -6.667220     -6.657299
   93       -6.643854     -6.629722
   94       -6.632597     -6.620940
   95       -6.612720     -6.602340
   96       -6.574036     -6.562697
   97       -6.540093     -6.530492
   98       -6.524885     -6.514338
   99       -6.516311     -6.504237
  100       -6.487084     -6.473087
  101       -6.443144     -6.431630
  102       -6.431088     -6.417099
  103       -6.429653     -6.415713
  104       -6.400768     -6.387853
  105       -6.381895     -6.368522
  106       -6.375683     -6.358870
  107       -6.349996     -6.330781
  108       -6.333190     -6.322268
  109       -6.169137     -6.148282
  110       -5.183119     -5.126700
  111       -4.993676     -4.944557
  112       -4.756519     -4.726938
  113       -4.704388     -4.673194
  114       -4.178296     -4.141014
  115       -3.870193     -3.836915
  116       -3.394547     -3.262450
  117       -3.058554     -3.019769
  118       -2.822772     -2.786752
  119       -2.723482     -2.673780
  120       -2.710996     -2.671075
  121       -2.534910     -2.488828
  122       -2.456834     -2.425832
  123       -2.217288     -2.177567
  124       -1.828428     -1.794941
  125       -1.666389     -1.627202
  126       -1.248081     -1.146975
  127       -1.075993     -0.993632
  128       -0.962732     -0.925661
  129       -0.937801     -0.893566
  130       -0.837073     -0.794354
  131       -0.730072     -0.656449
  132       -0.645712     -0.599947
  133       -0.551433     -0.498991
  134       -0.363045     -0.324202
  135       -0.226500     -0.192216
  136       -0.199871     -0.168400
  137       -0.013069      0.019155
  138        0.277945      0.311533
  139        0.357903      0.400715
  140        0.375424      0.449529
  141        0.553000      0.593780
  142        0.604182      0.644129
  143        0.649451      0.684375
  144        0.695720      0.726597
  145        0.738709      0.768446
  146        0.742817      0.772248
  147        0.781742      0.810885
  148        0.831788      0.857445
  149        0.901598      0.929220
  150        0.971901      1.007649
  151        0.990457      1.011590
  152        1.004231      1.031539
