unknown system                          
           1
    20.685600    0.000000    0.000000
     0.000000   20.685600    0.000000
     0.000000    0.000000   20.685600
   Ag
  23
Direct configuration=     1
   0.56983211  0.28414395  0.51471153
   0.62075944  0.39776673  0.45551583
   0.66685824  0.51005938  0.40307942
   0.58425129  0.40205488  0.58345213
   0.61673643  0.51475178  0.52704959
   0.60955780  0.50954434  0.66085795
   0.48669863  0.37534267  0.45851421
   0.67190345  0.62079041  0.47742553
   0.46964160  0.34249912  0.58513231
   0.53422448  0.48857925  0.40095510
   0.63791265  0.62627735  0.60431128
   0.47937985  0.50928841  0.51978109
   0.54229441  0.63312172  0.50042413
   0.40435196  0.46123005  0.40290583
   0.48095533  0.46012576  0.65161435
   0.38193433  0.42836337  0.53561484
   0.57854802  0.61134964  0.37387703
   0.50856509  0.59499385  0.62384569
   0.44511002  0.59311308  0.40673487
   0.38380387  0.54264937  0.61747865
   0.33726361  0.54390818  0.48382641
   0.41637330  0.64452063  0.53891657
   0.33443721  0.66550123  0.43623808
Direct configuration=     2
   0.56997601  0.28420576  0.51469324
   0.62072403  0.39764533  0.45549714
   0.66688919  0.51003948  0.40285273
   0.58435137  0.40192889  0.58348706
   0.61672928  0.51473540  0.52705835
   0.60947668  0.50953436  0.66099336
   0.48678769  0.37527576  0.45857204
   0.67210700  0.62105586  0.47728397
   0.46945082  0.34232437  0.58520221
   0.53437825  0.48858209  0.40081040
   0.63788035  0.62634977  0.60432390
   0.47934428  0.50939297  0.51981595
   0.54232759  0.63319296  0.50040220
   0.40426955  0.46125058  0.40288676
   0.48098444  0.46014854  0.65162515
   0.38172965  0.42819012  0.53567769
   0.57854904  0.61131321  0.37379181
   0.50860409  0.59495004  0.62406701
   0.44511597  0.59316674  0.40683357
   0.38368172  0.54256979  0.61749892
   0.33729034  0.54389181  0.48393817
   0.41629958  0.64459443  0.53874605
   0.33444623  0.66563687  0.43620475
Direct configuration=     3
   0.57040770  0.28439117  0.51463838
   0.62061777  0.39728115  0.45544108
   0.66698202  0.50997980  0.40217267
   0.58465159  0.40155092  0.58359183
   0.61670781  0.51468627  0.52708464
   0.60923331  0.50950442  0.66139957
   0.48705490  0.37507502  0.45874553
   0.67271765  0.62185220  0.47685928
   0.46887850  0.34180013  0.58541192
   0.53483954  0.48859062  0.40037629
   0.63778347  0.62656705  0.60436175
   0.47923758  0.50970667  0.51992051
   0.54242711  0.63340669  0.50033641
   0.40402230  0.46131219  0.40282956
   0.48107179  0.46021687  0.65165755
   0.38111564  0.42767038  0.53586627
   0.57855210  0.61120391  0.37353613
   0.50872110  0.59481864  0.62473095
   0.44513381  0.59332771  0.40712969
   0.38331526  0.54233104  0.61755972
   0.33737051  0.54384271  0.48427343
   0.41607842  0.64481581  0.53823449
   0.33447326  0.66604379  0.43610477
Direct configuration=     4
   0.57127108  0.28476201  0.51452866
   0.62040526  0.39655277  0.45532895
   0.66716768  0.50986044  0.40081255
   0.58525203  0.40079497  0.58380138
   0.61666488  0.51458799  0.52713722
   0.60874657  0.50944455  0.66221201
   0.48758932  0.37467354  0.45909250
   0.67393895  0.62344488  0.47600991
   0.46773385  0.34075165  0.58583134
   0.53576214  0.48860766  0.39950808
   0.63758971  0.62700160  0.60443746
   0.47902417  0.51033406  0.52012964
   0.54262615  0.63383413  0.50020483
   0.40352781  0.46143541  0.40271515
   0.48124648  0.46035352  0.65172234
   0.37988761  0.42663089  0.53624341
   0.57855820  0.61098530  0.37302477
   0.50895512  0.59455583  0.62605884
   0.44516949  0.59364966  0.40772193
   0.38258235  0.54185355  0.61768134
   0.33753086  0.54374451  0.48494396
   0.41563610  0.64525859  0.53721136
   0.33452734  0.66685764  0.43590479
Direct configuration=     5
   0.57299784  0.28550367  0.51430923
   0.61998024  0.39509602  0.45510469
   0.66753900  0.50962172  0.39809230
   0.58645292  0.39928308  0.58422048
   0.61657902  0.51439145  0.52724237
   0.60777309  0.50932480  0.66383687
   0.48865815  0.37387059  0.45978644
   0.67638154  0.62663024  0.47431115
   0.46544456  0.33865468  0.58667019
   0.53760734  0.48864174  0.39777166
   0.63720218  0.62787070  0.60458889
   0.47859736  0.51158884  0.52054790
   0.54302423  0.63468902  0.49994167
   0.40253882  0.46168184  0.40248633
   0.48159585  0.46062683  0.65185191
   0.37743155  0.42455191  0.53699769
   0.57857042  0.61054810  0.37200205
   0.50942316  0.59403021  0.62871462
   0.44524086  0.59429356  0.40890641
   0.38111652  0.54089856  0.61792457
   0.33785155  0.54354811  0.48628502
   0.41475145  0.64614414  0.53516512
   0.33463549  0.66848533  0.43550485
Direct configuration=     6
   0.57261692  0.28534006  0.51435764
   0.62007400  0.39541738  0.45515416
   0.66745708  0.50967438  0.39869240
   0.58618800  0.39961661  0.58412803
   0.61659796  0.51443481  0.52721917
   0.60798784  0.50935121  0.66347842
   0.48842236  0.37404773  0.45963335
   0.67584270  0.62592754  0.47468590
   0.46594959  0.33911728  0.58648514
   0.53720028  0.48863422  0.39815472
   0.63728767  0.62767897  0.60455548
   0.47869152  0.51131203  0.52045563
   0.54293641  0.63450043  0.49999972
   0.40275699  0.46162748  0.40253681
   0.48151878  0.46056654  0.65182333
   0.37797336  0.42501054  0.53683129
   0.57856772  0.61064455  0.37222766
   0.50931991  0.59414616  0.62812874
   0.44522511  0.59415151  0.40864511
   0.38143988  0.54110923  0.61787091
   0.33778080  0.54359144  0.48598918
   0.41494661  0.64594878  0.53561653
   0.33461163  0.66812626  0.43559308
Direct configuration=     7
   0.57320723  0.28521884  0.51449422
   0.62035992  0.39558327  0.45479771
   0.66748495  0.50968380  0.39839702
   0.58606748  0.39921297  0.58446618
   0.61689697  0.51484352  0.52679373
   0.60780203  0.50942362  0.66379124
   0.48824061  0.37442647  0.45993979
   0.67602346  0.62631990  0.47427797
   0.46540397  0.33877381  0.58659915
   0.53690444  0.48825794  0.39807952
   0.63702898  0.62763147  0.60429016
   0.47811210  0.51125327  0.52037969
   0.54350030  0.63455028  0.50009092
   0.40317411  0.46163530  0.40275217
   0.48176185  0.46032788  0.65154812
   0.37762015  0.42469479  0.53693792
   0.57863675  0.61071866  0.37203795
   0.50902453  0.59409527  0.62848095
   0.44544362  0.59425234  0.40903285
   0.38122975  0.54096267  0.61766209
   0.33782613  0.54365002  0.48639996
   0.41514002  0.64588931  0.53565497
   0.33450380  0.66856976  0.43535815
Direct configuration=     8
   0.57497817  0.28485518  0.51490399
   0.62121766  0.39608092  0.45372836
   0.66756856  0.50971205  0.39751087
   0.58570592  0.39800204  0.58548062
   0.61779401  0.51606964  0.52551738
   0.60724460  0.50964082  0.66472968
   0.48769534  0.37556272  0.46085910
   0.67656574  0.62749697  0.47305416
   0.46376713  0.33774340  0.58694120
   0.53601691  0.48712909  0.39785392
   0.63625292  0.62748897  0.60349418
   0.47637386  0.51107699  0.52015188
   0.54519196  0.63469983  0.50036449
   0.40442546  0.46165877  0.40339824
   0.48249104  0.45961193  0.65072249
   0.37656049  0.42374754  0.53725780
   0.57884383  0.61094098  0.37146880
   0.50813839  0.59394259  0.62953758
   0.44609914  0.59455483  0.41019607
   0.38059934  0.54052298  0.61703561
   0.33796210  0.54382575  0.48763230
   0.41572026  0.64571088  0.53577029
   0.33418030  0.66990028  0.43465337
Direct configuration=     9
   0.57530521  0.28504390  0.51497909
   0.62141995  0.39641404  0.45376715
   0.66729085  0.50989561  0.39746975
   0.58551538  0.39820607  0.58523087
   0.61791889  0.51575326  0.52520587
   0.60707804  0.50979700  0.66457663
   0.48794167  0.37558244  0.46181445
   0.67664536  0.62759568  0.47252216
   0.46358724  0.33745406  0.58686055
   0.53595619  0.48717194  0.39793249
   0.63593548  0.62721877  0.60327869
   0.47608833  0.51099857  0.52005429
   0.54552755  0.63446658  0.50054528
   0.40455629  0.46181371  0.40361565
   0.48263829  0.45924419  0.65019139
   0.37627970  0.42361397  0.53740608
   0.57880571  0.61077394  0.37153221
   0.50764217  0.59387234  0.62944999
   0.44639548  0.59482026  0.41058611
   0.38049145  0.54032056  0.61690909
   0.33782211  0.54422029  0.48755502
   0.41612953  0.64558764  0.53596812
   0.33442227  0.67011032  0.43481145
Direct configuration=    10
   0.57628632  0.28561007  0.51520440
   0.62202680  0.39741340  0.45388352
   0.66645771  0.51044629  0.39734638
   0.58494379  0.39881817  0.58448163
   0.61829354  0.51480414  0.52427134
   0.60657834  0.51026554  0.66411747
   0.48868066  0.37564161  0.46468052
   0.67688424  0.62789181  0.47092616
   0.46304755  0.33658603  0.58661859
   0.53577405  0.48730050  0.39816820
   0.63498314  0.62640817  0.60263222
   0.47523174  0.51076331  0.51976152
   0.54653431  0.63376681  0.50108764
   0.40494876  0.46227852  0.40426789
   0.48308005  0.45814098  0.64859808
   0.37543733  0.42321327  0.53785092
   0.57869134  0.61027282  0.37172245
   0.50615354  0.59366158  0.62918723
   0.44728449  0.59561656  0.41175625
   0.38016777  0.53971329  0.61652954
   0.33740214  0.54540390  0.48732318
   0.41735734  0.64521792  0.53656159
   0.33514817  0.67074045  0.43528568
Direct configuration=    11
   0.57676387  0.28565441  0.51525853
   0.62232746  0.39724727  0.45386138
   0.66652575  0.51065648  0.39698959
   0.58489725  0.39907156  0.58401433
   0.61848538  0.51467423  0.52426740
   0.60613937  0.51035195  0.66361288
   0.48912528  0.37639940  0.46501174
   0.67699946  0.62782607  0.47045105
   0.46283709  0.33576334  0.58729172
   0.53559811  0.48721023  0.39842603
   0.63494593  0.62608854  0.60249704
   0.47522926  0.51059582  0.51960264
   0.54662176  0.63342921  0.50108285
   0.40498626  0.46225648  0.40476928
   0.48278255  0.45789816  0.64805868
   0.37507091  0.42343605  0.53797786
   0.57846357  0.61044299  0.37172751
   0.50568955  0.59336684  0.62921410
   0.44749477  0.59611277  0.41188790
   0.37978428  0.53928057  0.61645937
   0.33723010  0.54584807  0.48708048
   0.41757516  0.64530736  0.53683499
   0.33582002  0.67105735  0.43588506
Direct configuration=    12
   0.57734715  0.28570858  0.51532464
   0.62269468  0.39704435  0.45383435
   0.66660886  0.51091321  0.39655382
   0.58484042  0.39938106  0.58344358
   0.61871969  0.51451557  0.52426258
   0.60560320  0.51045749  0.66299657
   0.48966834  0.37732498  0.46541629
   0.67714018  0.62774576  0.46987076
   0.46258004  0.33475852  0.58811389
   0.53538322  0.48709997  0.39874096
   0.63490048  0.62569814  0.60233193
   0.47522623  0.51039125  0.51940858
   0.54672857  0.63301686  0.50107700
   0.40503207  0.46222956  0.40538167
   0.48241917  0.45760157  0.64739985
   0.37462336  0.42370815  0.53813289
   0.57818536  0.61065082  0.37173369
   0.50512283  0.59300684  0.62924692
   0.44775160  0.59671883  0.41204870
   0.37931589  0.53875204  0.61637366
   0.33701997  0.54639058  0.48678403
   0.41784120  0.64541659  0.53716891
   0.33664062  0.67144442  0.43661714
Direct configuration=    13
   0.57768425  0.28562342  0.51534793
   0.62342133  0.39681718  0.45334483
   0.66662444  0.51089487  0.39613598
   0.58454929  0.39928943  0.58307788
   0.61924528  0.51470974  0.52401639
   0.60475450  0.51019261  0.66248841
   0.49017668  0.37774293  0.46629417
   0.67720002  0.62749737  0.46946257
   0.46240007  0.33424436  0.58840565
   0.53583933  0.48740606  0.39878102
   0.63509312  0.62565209  0.60225778
   0.47533268  0.51044530  0.51940472
   0.54673600  0.63270717  0.50104844
   0.40467775  0.46221672  0.40593114
   0.48166684  0.45716271  0.64702667
   0.37466055  0.42376058  0.53847507
   0.57789849  0.61089689  0.37162119
   0.50473043  0.59263757  0.62937826
   0.44782499  0.59710244  0.41185592
   0.37861375  0.53845070  0.61612832
   0.33698377  0.54672287  0.48666535
   0.41798511  0.64551703  0.53784115
   0.33729448  0.67228510  0.43727356
Direct configuration=    14
   0.57817044  0.28550060  0.51538151
   0.62446933  0.39648954  0.45263883
   0.66664692  0.51086843  0.39553334
   0.58412940  0.39915729  0.58255045
   0.62000331  0.51498978  0.52366133
   0.60353046  0.50981058  0.66175552
   0.49090984  0.37834573  0.46756028
   0.67728632  0.62713914  0.46887386
   0.46214051  0.33350281  0.58882645
   0.53649716  0.48784751  0.39883881
   0.63537095  0.62558568  0.60215083
   0.47548620  0.51052326  0.51939916
   0.54674670  0.63226053  0.50100724
   0.40416673  0.46219820  0.40672361
   0.48058179  0.45652976  0.64648845
   0.37471419  0.42383618  0.53896858
   0.57748475  0.61125178  0.37145895
   0.50416449  0.59210499  0.62956768
   0.44793083  0.59765569  0.41157790
   0.37760109  0.53801609  0.61577447
   0.33693155  0.54720213  0.48649419
   0.41819267  0.64566188  0.53881069
   0.33823750  0.67349758  0.43822029
Direct configuration=    15
   0.57826005  0.28523923  0.51517373
   0.62513643  0.39649386  0.45220539
   0.66702636  0.51080548  0.39501771
   0.58372990  0.39921393  0.58204426
   0.62070989  0.51460476  0.52319648
   0.60257704  0.50918281  0.66139308
   0.49142141  0.37862939  0.46837183
   0.67736201  0.62699294  0.46830393
   0.46197671  0.33340742  0.58853054
   0.53618574  0.48793001  0.39909297
   0.63527806  0.62566486  0.60236267
   0.47568573  0.51105184  0.51935303
   0.54672336  0.63215315  0.50120766
   0.40455569  0.46210003  0.40739031
   0.47910056  0.45574762  0.64647618
   0.37528793  0.42348857  0.53952042
   0.57763883  0.61169116  0.37111227
   0.50406749  0.59197003  0.62982653
   0.44759060  0.59747946  0.41155462
   0.37698249  0.53829153  0.61547215
   0.33718295  0.54765728  0.48660764
   0.41824842  0.64559363  0.53936565
   0.33866550  0.67458615  0.43868337
Direct configuration=    16
   0.57831174  0.28508847  0.51505388
   0.62552121  0.39649635  0.45195539
   0.66724522  0.51076918  0.39472030
   0.58349946  0.39924660  0.58175229
   0.62111744  0.51438268  0.52292835
   0.60202711  0.50882071  0.66118402
   0.49171648  0.37879300  0.46883993
   0.67740567  0.62690861  0.46797519
   0.46188222  0.33335241  0.58835986
   0.53600611  0.48797760  0.39923957
   0.63522448  0.62571054  0.60248485
   0.47580082  0.51135672  0.51932642
   0.54670990  0.63209121  0.50132327
   0.40478004  0.46204341  0.40777486
   0.47824618  0.45529648  0.64646910
   0.37561886  0.42328807  0.53983872
   0.57772770  0.61194460  0.37091231
   0.50401155  0.59189218  0.62997583
   0.44739435  0.59737780  0.41154120
   0.37662569  0.53845040  0.61529778
   0.33732795  0.54791982  0.48667309
   0.41828057  0.64555427  0.53968575
   0.33891237  0.67521403  0.43895047
Direct configuration=    17
   0.57822161  0.28492898  0.51469114
   0.62564989  0.39653352  0.45183825
   0.66723296  0.51084575  0.39405305
   0.58296786  0.39944800  0.58122861
   0.62162677  0.51419623  0.52265782
   0.60134522  0.50819914  0.66089416
   0.49237058  0.37900614  0.46888886
   0.67722509  0.62694591  0.46728283
   0.46195754  0.33263528  0.58832650
   0.53634304  0.48829384  0.39932374
   0.63470775  0.62525372  0.60272929
   0.47588130  0.51192966  0.51990511
   0.54694456  0.63207710  0.50131369
   0.40518005  0.46172196  0.40841974
   0.47701859  0.45462994  0.64655110
   0.37607334  0.42350973  0.54025887
   0.57790307  0.61183203  0.37102401
   0.50399913  0.59199720  0.63044002
   0.44719336  0.59723522  0.41169340
   0.37660000  0.53900824  0.61536750
   0.33756064  0.54823439  0.48660781
   0.41825095  0.64575028  0.53959524
   0.33913984  0.67576287  0.43917167
Direct configuration=    18
   0.57812257  0.28475372  0.51429255
   0.62579128  0.39657436  0.45170953
   0.66721948  0.51092988  0.39331987
   0.58238374  0.39966930  0.58065319
   0.62218643  0.51399136  0.52236057
   0.60059595  0.50751616  0.66057567
   0.49308931  0.37924034  0.46894263
   0.67702667  0.62698690  0.46652207
   0.46204030  0.33184730  0.58828984
   0.53671327  0.48864132  0.39941622
   0.63413997  0.62475178  0.60299789
   0.47596973  0.51255921  0.52054097
   0.54720241  0.63206161  0.50130316
   0.40561958  0.46136876  0.40912833
   0.47566971  0.45389754  0.64664121
   0.37657272  0.42375329  0.54072052
   0.57809576  0.61170834  0.37114675
   0.50398548  0.59211260  0.63095008
   0.44697251  0.59707854  0.41186064
   0.37657176  0.53962119  0.61544412
   0.33781632  0.54858004  0.48653609
   0.41821840  0.64596565  0.53949580
   0.33938979  0.67636594  0.43941473
Direct configuration=    19
   0.57803229  0.28462208  0.51407277
   0.62600405  0.39669139  0.45150155
   0.66735273  0.51078424  0.39236733
   0.58151166  0.39973369  0.58004636
   0.62243771  0.51420549  0.52219267
   0.59995126  0.50676878  0.66046899
   0.49344497  0.37940185  0.46892911
   0.67695225  0.62722749  0.46600789
   0.46215791  0.33075748  0.58809786
   0.53671702  0.48874482  0.39976490
   0.63382235  0.62413523  0.60318232
   0.47634804  0.51279928  0.52112567
   0.54714257  0.63211055  0.50131062
   0.40596942  0.46114890  0.40965434
   0.47533096  0.45334174  0.64665619
   0.37698360  0.42412503  0.54112569
   0.57796138  0.61177425  0.37120834
   0.50360434  0.59248156  0.63163048
   0.44721301  0.59706711  0.41195012
   0.37666553  0.54033166  0.61579753
   0.33782639  0.54863339  0.48638088
   0.41864424  0.64646007  0.53947227
   0.33931947  0.67662906  0.43931854
Direct configuration=    20
   0.57789659  0.28442422  0.51374242
   0.62632387  0.39686730  0.45118893
   0.66755303  0.51056533  0.39093560
   0.58020085  0.39983048  0.57913425
   0.62281541  0.51452735  0.52194032
   0.59898225  0.50564540  0.66030864
   0.49397955  0.37964462  0.46890879
   0.67684039  0.62758912  0.46523503
   0.46233468  0.32911941  0.58780931
   0.53672265  0.48890040  0.40028899
   0.63334494  0.62320850  0.60345954
   0.47691666  0.51316011  0.52200451
   0.54705263  0.63218411  0.50132183
   0.40649526  0.46081842  0.41044496
   0.47482179  0.45250632  0.64667871
   0.37760117  0.42468378  0.54173470
   0.57775940  0.61187332  0.37130093
   0.50303145  0.59303613  0.63265318
   0.44757450  0.59704992  0.41208462
   0.37680647  0.54139955  0.61632872
   0.33784152  0.54871359  0.48614759
   0.41928430  0.64720322  0.53943689
   0.33921378  0.67702454  0.43917396
Direct configuration=    21
   0.57797385  0.28420896  0.51360014
   0.62671311  0.39718041  0.45092068
   0.66748815  0.51029395  0.38996414
   0.57896187  0.39989676  0.57808143
   0.62288525  0.51466175  0.52134493
   0.59839718  0.50488905  0.66030813
   0.49390369  0.37931953  0.46916539
   0.67659317  0.62778608  0.46516734
   0.46209306  0.32789800  0.58723353
   0.53696096  0.48902992  0.40069680
   0.63323272  0.62272636  0.60354196
   0.47747281  0.51324066  0.52255390
   0.54737650  0.63247251  0.50160346
   0.40653091  0.46101535  0.41068065
   0.47464909  0.45209819  0.64665076
   0.37815844  0.42486365  0.54225370
   0.57761559  0.61205347  0.37115090
   0.50277105  0.59369706  0.63392059
   0.44752017  0.59717328  0.41230410
   0.37700889  0.54207318  0.61646167
   0.33815286  0.54895534  0.48636463
   0.41964292  0.64776916  0.53915144
   0.33929089  0.67667251  0.43914212
Direct configuration=    22
   0.57798926  0.28416601  0.51357175
   0.62679077  0.39724287  0.45086715
   0.66747521  0.51023981  0.38977032
   0.57871468  0.39990999  0.57787138
   0.62289919  0.51468857  0.52122614
   0.59828045  0.50473814  0.66030803
   0.49388856  0.37925467  0.46921658
   0.67654385  0.62782537  0.46515383
   0.46204485  0.32765431  0.58711866
   0.53700851  0.48905577  0.40077816
   0.63321033  0.62263017  0.60355841
   0.47758377  0.51325673  0.52266352
   0.54744111  0.63253006  0.50165965
   0.40653802  0.46105464  0.41072768
   0.47461463  0.45201676  0.64664519
   0.37826962  0.42489954  0.54235725
   0.57758689  0.61208942  0.37112097
   0.50271909  0.59382893  0.63417346
   0.44750934  0.59719789  0.41234789
   0.37704927  0.54220758  0.61648820
   0.33821498  0.54900357  0.48640794
   0.41971448  0.64788207  0.53909448
   0.33930627  0.67660228  0.43913576
Direct configuration=    23
   0.57828859  0.28402282  0.51355771
   0.62670039  0.39706763  0.45084805
   0.66742540  0.51035520  0.38979040
   0.57849509  0.40012352  0.57756756
   0.62274093  0.51447949  0.52091712
   0.59844831  0.50491028  0.66013476
   0.49335549  0.37898591  0.46897254
   0.67642465  0.62775930  0.46557206
   0.46157944  0.32758706  0.58701508
   0.53694182  0.48901021  0.40086199
   0.63344427  0.62270720  0.60356516
   0.47774079  0.51332828  0.52260823
   0.54753048  0.63277294  0.50186357
   0.40642886  0.46143712  0.41054232
   0.47445440  0.45215467  0.64670090
   0.37838143  0.42469109  0.54233052
   0.57762808  0.61213371  0.37106471
   0.50296564  0.59420461  0.63440132
   0.44747737  0.59713096  0.41251828
   0.37724251  0.54213959  0.61627505
   0.33852756  0.54900501  0.48689033
   0.41992826  0.64776284  0.53921965
   0.33924338  0.67620566  0.43904510
Direct configuration=    24
   0.57868672  0.28383237  0.51353903
   0.62658017  0.39683455  0.45082264
   0.66735914  0.51050868  0.38981711
   0.57820303  0.40040753  0.57716346
   0.62253045  0.51420140  0.52050611
   0.59867157  0.50513923  0.65990430
   0.49264648  0.37862845  0.46864795
   0.67626610  0.62767142  0.46612831
   0.46096043  0.32749761  0.58687732
   0.53685312  0.48894963  0.40097349
   0.63375542  0.62280965  0.60357414
   0.47794964  0.51342346  0.52253471
   0.54764934  0.63309599  0.50213480
   0.40628366  0.46194584  0.41029578
   0.47424129  0.45233811  0.64677500
   0.37853013  0.42441385  0.54229498
   0.57768285  0.61219263  0.37098989
   0.50329356  0.59470428  0.63470439
   0.44743485  0.59704195  0.41274490
   0.37749953  0.54204917  0.61599154
   0.33894331  0.54900693  0.48753194
   0.42021261  0.64760425  0.53938613
   0.33915974  0.67567815  0.43892452
Direct configuration=    25
   0.57882181  0.28403418  0.51357575
   0.62630965  0.39656632  0.45064281
   0.66728967  0.51052397  0.38989911
   0.57762769  0.40037946  0.57699743
   0.62243221  0.51430929  0.52032257
   0.59875319  0.50531142  0.65966326
   0.49220076  0.37818486  0.46822398
   0.67628459  0.62759812  0.46650736
   0.46079593  0.32750588  0.58682903
   0.53689277  0.48887064  0.40095550
   0.63410653  0.62282673  0.60350533
   0.47810423  0.51336393  0.52268181
   0.54767154  0.63335289  0.50222226
   0.40612119  0.46222281  0.41009201
   0.47442767  0.45247184  0.64683355
   0.37851336  0.42436355  0.54208097
   0.57765443  0.61217000  0.37117576
   0.50350618  0.59504691  0.63480033
   0.44764317  0.59707531  0.41283759
   0.37772716  0.54192408  0.61620970
   0.33898015  0.54888711  0.48775338
   0.42041929  0.64772095  0.53950827
   0.33910998  0.67526492  0.43894465
Direct configuration=    26
   0.57905834  0.28438753  0.51364006
   0.62583598  0.39609666  0.45032794
   0.66716802  0.51055074  0.39004270
   0.57662029  0.40033030  0.57670671
   0.62226019  0.51449820  0.52000121
   0.59889610  0.50561291  0.65924120
   0.49142034  0.37740815  0.46748164
   0.67631695  0.62746977  0.46717104
   0.46050789  0.32752037  0.58674449
   0.53696219  0.48873232  0.40092400
   0.63472132  0.62285663  0.60338486
   0.47837491  0.51325970  0.52293938
   0.54771041  0.63380270  0.50237539
   0.40583671  0.46270776  0.40973522
   0.47475401  0.45270599  0.64693607
   0.37848399  0.42427547  0.54170625
   0.57760467  0.61213036  0.37150121
   0.50387848  0.59564684  0.63496832
   0.44800794  0.59713372  0.41299987
   0.37812574  0.54170505  0.61659170
   0.33904464  0.54867730  0.48814111
   0.42078116  0.64792529  0.53972214
   0.33902286  0.67454139  0.43897990
Direct configuration=    27
   0.57900573  0.28441054  0.51364014
   0.62533674  0.39614909  0.45012589
   0.66725997  0.51029788  0.39007148
   0.57612915  0.40068302  0.57639783
   0.62210429  0.51431484  0.52003625
   0.59896728  0.50565675  0.65896578
   0.49097190  0.37714852  0.46662795
   0.67665305  0.62758399  0.46736164
   0.46054006  0.32751679  0.58671606
   0.53673357  0.48840644  0.40094197
   0.63504328  0.62289805  0.60321997
   0.47848792  0.51307334  0.52312563
   0.54778763  0.63403400  0.50256041
   0.40592564  0.46274605  0.40964471
   0.47502458  0.45280904  0.64730581
   0.37844975  0.42450948  0.54125740
   0.57770190  0.61209204  0.37187669
   0.50397476  0.59589677  0.63488071
   0.44816841  0.59716588  0.41321220
   0.37836226  0.54171932  0.61709310
   0.33902764  0.54856784  0.48826686
   0.42069255  0.64806537  0.53977014
   0.33904505  0.67423009  0.43916381
Direct configuration=    28
   0.57899055  0.28441719  0.51364016
   0.62519260  0.39616422  0.45006756
   0.66728652  0.51022488  0.39007979
   0.57598734  0.40078486  0.57630864
   0.62205928  0.51426190  0.52004637
   0.59898783  0.50566941  0.65888626
   0.49084243  0.37707356  0.46638146
   0.67675009  0.62761697  0.46741667
   0.46054935  0.32751576  0.58670785
   0.53666757  0.48831235  0.40094715
   0.63513624  0.62291001  0.60317236
   0.47852055  0.51301954  0.52317940
   0.54780992  0.63410079  0.50261382
   0.40595131  0.46275710  0.40961858
   0.47510270  0.45283880  0.64741256
   0.37843987  0.42457705  0.54112781
   0.57772998  0.61208097  0.37198510
   0.50400255  0.59596893  0.63485541
   0.44821475  0.59717516  0.41327350
   0.37843055  0.54172344  0.61723786
   0.33902273  0.54853624  0.48830316
   0.42066697  0.64810581  0.53978399
   0.33905146  0.67414021  0.43921692
Direct configuration=    29
   0.57869419  0.28443832  0.51361635
   0.62479330  0.39622254  0.44997484
   0.66731859  0.50998507  0.39007170
   0.57569475  0.40092735  0.57580591
   0.62212470  0.51434414  0.52000726
   0.59911211  0.50572145  0.65884096
   0.49073743  0.37660905  0.46601553
   0.67699533  0.62766850  0.46744794
   0.46072905  0.32774401  0.58642049
   0.53667450  0.48836509  0.40074470
   0.63523960  0.62292926  0.60300031
   0.47855505  0.51296120  0.52335006
   0.54791627  0.63410594  0.50283322
   0.40590775  0.46277628  0.40952046
   0.47502262  0.45284589  0.64792247
   0.37854486  0.42477822  0.54088037
   0.57794501  0.61183008  0.37241586
   0.50403927  0.59599105  0.63466528
   0.44821863  0.59710527  0.41355046
   0.37855455  0.54187613  0.61755940
   0.33911069  0.54848108  0.48843808
   0.42046538  0.64803819  0.53986405
   0.33899948  0.67423101  0.43931671
Direct configuration=    30
   0.57855826  0.28444802  0.51360543
   0.62461015  0.39624929  0.44993232
   0.66733331  0.50987508  0.39006798
   0.57556055  0.40099271  0.57557532
   0.62215471  0.51438186  0.51998932
   0.59916912  0.50574533  0.65882017
   0.49068927  0.37639599  0.46584769
   0.67710782  0.62769213  0.46746229
   0.46081148  0.32784870  0.58628868
   0.53667769  0.48838928  0.40065184
   0.63528700  0.62293809  0.60292140
   0.47857088  0.51293444  0.52342833
   0.54796505  0.63410830  0.50293385
   0.40588777  0.46278508  0.40947546
   0.47498589  0.45284914  0.64815635
   0.37859301  0.42487050  0.54076687
   0.57804364  0.61171501  0.37261344
   0.50405612  0.59600120  0.63457808
   0.44822041  0.59707321  0.41367749
   0.37861142  0.54194616  0.61770688
   0.33915104  0.54845578  0.48849996
   0.42037292  0.64800718  0.53990077
   0.33897563  0.67427266  0.43936248
Direct configuration=    31
   0.57849627  0.28415814  0.51358780
   0.62476461  0.39614724  0.44980281
   0.66747205  0.50987946  0.38996073
   0.57552639  0.40125229  0.57587093
   0.62230316  0.51454382  0.51984197
   0.59908909  0.50564969  0.65884993
   0.49060378  0.37665877  0.46570412
   0.67704732  0.62765799  0.46748250
   0.46071973  0.32784143  0.58632412
   0.53649764  0.48828790  0.40069677
   0.63530502  0.62296671  0.60304682
   0.47870445  0.51289771  0.52335464
   0.54775415  0.63405153  0.50288730
   0.40595819  0.46275604  0.40949535
   0.47495377  0.45281996  0.64806347
   0.37869958  0.42476548  0.54092838
   0.57809146  0.61178006  0.37258840
   0.50415886  0.59585071  0.63466015
   0.44814998  0.59705587  0.41369559
   0.37851246  0.54194169  0.61775208
   0.33916554  0.54854739  0.48848477
   0.42046296  0.64799300  0.53990221
   0.33895668  0.67447227  0.43928157
Direct configuration=    32
   0.57852660  0.28429999  0.51359643
   0.62468902  0.39619718  0.44986618
   0.66740416  0.50987732  0.39001321
   0.57554310  0.40112526  0.57572627
   0.62223052  0.51446457  0.51991407
   0.59912825  0.50569649  0.65883537
   0.49064561  0.37653018  0.46577437
   0.67707692  0.62767470  0.46747261
   0.46076463  0.32784499  0.58630677
   0.53658574  0.48833751  0.40067478
   0.63529620  0.62295271  0.60298545
   0.47863908  0.51291568  0.52339070
   0.54785735  0.63407931  0.50291008
   0.40592373  0.46277025  0.40948562
   0.47496949  0.45283424  0.64810892
   0.37864743  0.42481687  0.54084935
   0.57806806  0.61174823  0.37260066
   0.50410858  0.59592435  0.63461999
   0.44818445  0.59706435  0.41368673
   0.37856089  0.54194388  0.61772996
   0.33915844  0.54850256  0.48849220
   0.42041890  0.64799994  0.53990151
   0.33896595  0.67437459  0.43932117
