       N       E                     dE             d eps       ncg     rms          rms(c)
DAV:   1     0.421811370840E+04    0.42181E+04   -0.10483E+05  1328   0.620E+02
DAV:   2     0.674643136630E+03   -0.35435E+04   -0.31891E+04  2112   0.168E+02
DAV:   3    -0.714265828170E+02   -0.74607E+03   -0.68709E+03  1656   0.825E+01
DAV:   4    -0.999411762610E+02   -0.28515E+02   -0.28282E+02  1432   0.173E+01
DAV:   5    -0.100372690732E+03   -0.43151E+00   -0.43102E+00  1464   0.246E+00    0.392E+01
DAV:   6    -0.502159352518E+02    0.50157E+02   -0.16016E+02  1320   0.160E+01    0.208E+01
DAV:   7    -0.414269417805E+02    0.87890E+01   -0.90839E+00  1360   0.489E+00    0.128E+01
DAV:   8    -0.378555112650E+02    0.35714E+01   -0.25463E+00  1400   0.254E+00    0.719E+00
DAV:   9    -0.404419827032E+02   -0.25865E+01   -0.75911E-01  1384   0.125E+00    0.443E+00
DAV:  10    -0.518504731621E+02   -0.11408E+02   -0.28292E+00  1368   0.209E+00    0.388E+00
DAV:  11    -0.613366431421E+02   -0.94862E+01   -0.33074E+00  1384   0.292E+00    0.333E+00
DAV:  12    -0.694608118214E+02   -0.81242E+01   -0.28799E+00  1352   0.250E+00    0.240E+00
DAV:  13    -0.809019601244E+02   -0.11441E+02   -0.49395E+00  1328   0.219E+00    0.263E+00
DAV:  14    -0.825067142070E+02   -0.16048E+01   -0.28566E-01  1520   0.779E-01    0.212E+00
DAV:  15    -0.869047969552E+02   -0.43981E+01   -0.10789E+00  1368   0.116E+00    0.151E+00
DAV:  16    -0.916707737006E+02   -0.47660E+01   -0.11398E+00  1352   0.108E+00    0.166E+00
DAV:  17    -0.925220246370E+02   -0.85125E+00   -0.85346E-02  1400   0.535E-01    0.128E+00
DAV:  18    -0.942681450645E+02   -0.17461E+01   -0.25444E-01  1360   0.729E-01    0.770E-01
DAV:  19    -0.965588450659E+02   -0.22907E+01   -0.29180E-01  1336   0.697E-01    0.423E-01
DAV:  20    -0.974166792571E+02   -0.85783E+00   -0.33118E-02  1376   0.229E-01    0.344E-01
DAV:  21    -0.981285984509E+02   -0.71192E+00   -0.21127E-02  1384   0.219E-01    0.161E-01
DAV:  22    -0.984686031598E+02   -0.34000E+00   -0.12099E-02  1368   0.119E-01    0.107E-01
DAV:  23    -0.985179545251E+02   -0.49351E-01   -0.71476E-04   960   0.497E-02    0.696E-02
DAV:  24    -0.985942410103E+02   -0.76286E-01   -0.25964E-03  1376   0.864E-02    0.399E-02
DAV:  25    -0.986097356847E+02   -0.15495E-01   -0.44869E-04   936   0.376E-02    0.339E-02
DAV:  26    -0.986175596812E+02   -0.78240E-02   -0.13861E-04   944   0.193E-02    0.287E-02
DAV:  27    -0.986245547296E+02   -0.69950E-02   -0.21076E-04   936   0.256E-02    0.169E-02
DAV:  28    -0.986281495175E+02   -0.35948E-02   -0.56293E-05   920   0.978E-03    0.122E-02
DAV:  29    -0.986319191554E+02   -0.37696E-02   -0.41228E-05   920   0.822E-03    0.688E-03
DAV:  30    -0.986347468443E+02   -0.28277E-02   -0.45521E-05   928   0.741E-03    0.353E-03
DAV:  31    -0.986352814212E+02   -0.53458E-03   -0.39350E-06   904   0.273E-03    0.278E-03
DAV:  32    -0.986355311793E+02   -0.24976E-03   -0.35055E-06   856   0.306E-03    0.161E-03
DAV:  33    -0.986355965939E+02   -0.65415E-04   -0.22658E-06   856   0.207E-03
   1 F= -.98635597E+02 E0= -.98635597E+02  d E =-.986356E+02  mag=     2.0014
       N       E                     dE             d eps       ncg     rms          rms(c)
DAV:   1    -0.986642080105E+02   -0.28677E-01   -0.20363E+00  1408   0.215E+00    0.884E-02
DAV:   2    -0.986651488849E+02   -0.94087E-03   -0.91644E-03  1400   0.202E-01    0.658E-02
DAV:   3    -0.986651442745E+02    0.46104E-05   -0.14745E-04   840   0.282E-02
   2 F= -.98665144E+02 E0= -.98665144E+02  d E =-.295477E-01  mag=     2.0008
       N       E                     dE             d eps       ncg     rms          rms(c)
DAV:   1    -0.987351369649E+02   -0.69988E-01   -0.18366E+01  1320   0.645E+00    0.265E-01
DAV:   2    -0.987432679865E+02   -0.81310E-02   -0.82493E-02  1392   0.604E-01    0.196E-01
DAV:   3    -0.987430745304E+02    0.19346E-03   -0.14281E-03  1424   0.840E-02    0.128E-01
DAV:   4    -0.987429069212E+02    0.16761E-03   -0.72544E-04  1368   0.460E-02    0.283E-02
DAV:   5    -0.987429063119E+02    0.60923E-06   -0.21269E-05   856   0.124E-02
   3 F= -.98742906E+02 E0= -.98742906E+02  d E =-.107310E+00  mag=     2.0004
       N       E                     dE             d eps       ncg     rms          rms(c)
DAV:   1    -0.988208329904E+02   -0.77926E-01   -0.73389E+01  1312   0.129E+01    0.499E-01
DAV:   2    -0.988534842271E+02   -0.32651E-01   -0.33007E-01  1360   0.121E+00    0.379E-01
DAV:   3    -0.988527528215E+02    0.73141E-03   -0.55852E-03  1376   0.166E-01    0.254E-01
DAV:   4    -0.988519896393E+02    0.76318E-03   -0.28414E-03  1400   0.896E-02    0.650E-02
DAV:   5    -0.988519959822E+02   -0.63429E-05   -0.11158E-04   856   0.265E-02
   4 F= -.98851996E+02 E0= -.98851996E+02  d E =-.216399E+00  mag=     2.0002
       N       E                     dE             d eps       ncg     rms          rms(c)
DAV:   1    -0.987641379952E+02    0.87852E-01   -0.29482E+02  1312   0.259E+01    0.973E-01
DAV:   2    -0.988972289933E+02   -0.13309E+00   -0.13398E+00  1368   0.244E+00    0.743E-01
DAV:   3    -0.988946437635E+02    0.25852E-02   -0.22040E-02  1400   0.331E-01    0.504E-01
DAV:   4    -0.988915177270E+02    0.31260E-02   -0.10012E-02  1392   0.168E-01    0.156E-01
DAV:   5    -0.988915873299E+02   -0.69603E-04   -0.78576E-04  1408   0.587E-02
   5 F= -.98891587E+02 E0= -.98891587E+02  d E =-.255991E+00  mag=     2.0001
       N       E                     dE             d eps       ncg     rms          rms(c)
DAV:   1    -0.988913213007E+02    0.19643E-03   -0.30432E+01  1328   0.830E+00    0.305E-01
DAV:   2    -0.989049429416E+02   -0.13622E-01   -0.13584E-01  1384   0.776E-01    0.238E-01
DAV:   3    -0.989046391507E+02    0.30379E-03   -0.22752E-03  1424   0.102E-01    0.159E-01
DAV:   4    -0.989043867260E+02    0.25242E-03   -0.13629E-03  1392   0.603E-02    0.431E-02
DAV:   5    -0.989044400718E+02   -0.53346E-04   -0.51046E-05   912   0.172E-02
   6 F= -.98904440E+02 E0= -.98904440E+02  d E =-.268843E+00  mag=     2.0000
       N       E                     dE             d eps       ncg     rms          rms(c)
DAV:   1    -0.989431953777E+02   -0.38809E-01   -0.22505E+01  1312   0.713E+00    0.230E-01
DAV:   2    -0.989534453391E+02   -0.10250E-01   -0.10136E-01  1392   0.676E-01    0.197E-01
DAV:   3    -0.989532633688E+02    0.18197E-03   -0.16228E-03  1416   0.879E-02    0.141E-01
DAV:   4    -0.989529475057E+02    0.31586E-03   -0.92423E-04  1384   0.487E-02    0.494E-02
DAV:   5    -0.989529612958E+02   -0.13790E-04   -0.11059E-04   880   0.203E-02
   7 F= -.98952961E+02 E0= -.98952961E+02  d E =-.485212E-01  mag=     2.0000
       N       E                     dE             d eps       ncg     rms          rms(c)
DAV:   1    -0.989483002231E+02    0.46473E-02   -0.20308E+02  1312   0.215E+01    0.641E-01
DAV:   2    -0.990412142921E+02   -0.92914E-01   -0.91570E-01  1384   0.203E+00    0.581E-01
DAV:   3    -0.990401028037E+02    0.11115E-02   -0.14304E-02  1408   0.258E-01    0.429E-01
DAV:   4    -0.990372423932E+02    0.28604E-02   -0.61109E-03  1408   0.127E-01    0.192E-01
DAV:   5    -0.990371880721E+02    0.54321E-04   -0.20665E-03  1424   0.770E-02    0.677E-02
DAV:   6    -0.990371337384E+02    0.54334E-04   -0.14762E-04   888   0.192E-02
   8 F= -.99037134E+02 E0= -.99037134E+02  d E =-.132694E+00  mag=     2.0000
       N       E                     dE             d eps       ncg     rms          rms(c)
DAV:   1    -0.990288503974E+02    0.83377E-02   -0.40323E+01  1312   0.954E+00    0.281E-01
DAV:   2    -0.990474148651E+02   -0.18564E-01   -0.18297E-01  1392   0.907E-01    0.245E-01
DAV:   3    -0.990471855365E+02    0.22933E-03   -0.28574E-03  1400   0.115E-01    0.178E-01
DAV:   4    -0.990466513185E+02    0.53422E-03   -0.11798E-03  1384   0.560E-02    0.778E-02
DAV:   5    -0.990466661875E+02   -0.14869E-04   -0.38335E-04  1264   0.333E-02
   9 F= -.99046666E+02 E0= -.99046666E+02  d E =-.142226E+00  mag=     2.0000
       N       E                     dE             d eps       ncg     rms          rms(c)
DAV:   1    -0.990595011056E+02   -0.12850E-01   -0.16845E+01  1312   0.616E+00    0.175E-01
DAV:   2    -0.990672720693E+02   -0.77710E-02   -0.76565E-02  1376   0.583E-01    0.148E-01
DAV:   3    -0.990671889967E+02    0.83073E-04   -0.11778E-03  1416   0.722E-02    0.104E-01
DAV:   4    -0.990670257223E+02    0.16327E-03   -0.44010E-04  1328   0.345E-02    0.468E-02
DAV:   5    -0.990670655321E+02   -0.39810E-04   -0.15194E-04   872   0.224E-02
  10 F= -.99067066E+02 E0= -.99067066E+02  d E =-.203993E-01  mag=     2.0000
       N       E                     dE             d eps       ncg     rms          rms(c)
DAV:   1    -0.990332659215E+02    0.33760E-01   -0.12189E+02  1312   0.166E+01    0.487E-01
DAV:   2    -0.990892291582E+02   -0.55963E-01   -0.55487E-01  1384   0.157E+00    0.400E-01
DAV:   3    -0.990883496128E+02    0.87955E-03   -0.85827E-03  1416   0.196E-01    0.280E-01
DAV:   4    -0.990868111651E+02    0.15384E-02   -0.34010E-03  1408   0.954E-02    0.122E-01
DAV:   5    -0.990867998194E+02    0.11346E-04   -0.10093E-03  1408   0.550E-02    0.443E-02
DAV:   6    -0.990868103782E+02   -0.10559E-04   -0.76629E-05   880   0.142E-02
  11 F= -.99086810E+02 E0= -.99086810E+02  d E =-.401442E-01  mag=     2.0000
       N       E                     dE             d eps       ncg     rms          rms(c)
DAV:   1    -0.990901690257E+02   -0.33692E-02   -0.29498E+01  1312   0.815E+00    0.199E-01
DAV:   2    -0.991037971587E+02   -0.13628E-01   -0.13291E-01  1392   0.768E-01    0.174E-01
DAV:   3    -0.991036264090E+02    0.17075E-03   -0.19753E-03  1408   0.929E-02    0.130E-01
DAV:   4    -0.991032591617E+02    0.36725E-03   -0.64390E-04  1400   0.407E-02    0.636E-02
DAV:   5    -0.991032695965E+02   -0.10435E-04   -0.45147E-04  1328   0.340E-02
  12 F= -.99103270E+02 E0= -.99103270E+02  d E =-.164592E-01  mag=     2.0000
       N       E                     dE             d eps       ncg     rms          rms(c)
DAV:   1    -0.990630353512E+02    0.40224E-01   -0.11345E+02  1312   0.160E+01    0.421E-01
DAV:   2    -0.991156600610E+02   -0.52625E-01   -0.51428E-01  1368   0.151E+00    0.342E-01
DAV:   3    -0.991148801246E+02    0.77994E-03   -0.77597E-03  1392   0.186E-01    0.249E-01
DAV:   4    -0.991134228613E+02    0.14573E-02   -0.26595E-03  1384   0.830E-02    0.113E-01
DAV:   5    -0.991133658331E+02    0.57028E-04   -0.13186E-03  1408   0.587E-02    0.396E-02
DAV:   6    -0.991133990576E+02   -0.33225E-04   -0.49693E-05   864   0.118E-02
  13 F= -.99113399E+02 E0= -.99113399E+02  d E =-.265887E-01  mag=     2.0000
       N       E                     dE             d eps       ncg     rms          rms(c)
DAV:   1    -0.991107343980E+02    0.26314E-02   -0.46535E+01  1312   0.102E+01    0.258E-01
DAV:   2    -0.991319416687E+02   -0.21207E-01   -0.21034E-01  1368   0.973E-01    0.241E-01
DAV:   3    -0.991316709449E+02    0.27072E-03   -0.32796E-03  1432   0.122E-01    0.174E-01
DAV:   4    -0.991309887305E+02    0.68221E-03   -0.96496E-04  1392   0.512E-02    0.956E-02
DAV:   5    -0.991309109667E+02    0.77764E-04   -0.85221E-04  1424   0.461E-02
  14 F= -.99130911E+02 E0= -.99130911E+02  d E =-.175119E-01  mag=     2.0000
       N       E                     dE             d eps       ncg     rms          rms(c)
DAV:   1    -0.990951409748E+02    0.35848E-01   -0.97077E+01  1312   0.148E+01    0.402E-01
DAV:   2    -0.991393193626E+02   -0.44178E-01   -0.44366E-01  1392   0.142E+00    0.360E-01
DAV:   3    -0.991386957029E+02    0.62366E-03   -0.73155E-03  1432   0.190E-01    0.246E-01
DAV:   4    -0.991373600662E+02    0.13356E-02   -0.18940E-03  1392   0.725E-02    0.137E-01
DAV:   5    -0.991372452886E+02    0.11478E-03   -0.16134E-03  1392   0.635E-02    0.438E-02
DAV:   6    -0.991373909847E+02   -0.14570E-03   -0.26228E-05   904   0.942E-03    0.308E-02
DAV:   7    -0.991376688077E+02   -0.27782E-03   -0.56778E-05   904   0.111E-02    0.997E-03
DAV:   8    -0.991379012744E+02   -0.23247E-03   -0.15280E-05   888   0.664E-03    0.325E-03
DAV:   9    -0.991380299948E+02   -0.12872E-03   -0.43171E-06   888   0.299E-03    0.228E-03
DAV:  10    -0.991381804990E+02   -0.15050E-03   -0.27413E-06   872   0.182E-03    0.147E-03
DAV:  11    -0.991383148462E+02   -0.13435E-03   -0.34306E-06   888   0.145E-03    0.939E-04
DAV:  12    -0.991383840875E+02   -0.69241E-04   -0.12241E-06   888   0.779E-04
  15 F= -.99138384E+02 E0= -.99138384E+02  d E =-.249850E-01  mag=     2.0000
       N       E                     dE             d eps       ncg     rms          rms(c)
DAV:   1    -0.991347093028E+02    0.36055E-02   -0.49945E+01  1312   0.106E+01    0.279E-01
DAV:   2    -0.991565400308E+02   -0.21831E-01   -0.22602E-01  1376   0.102E+00    0.245E-01
DAV:   3    -0.991559947955E+02    0.54524E-03   -0.40221E-03  1424   0.151E-01    0.167E-01
DAV:   4    -0.991551831736E+02    0.81162E-03   -0.69704E-04  1408   0.426E-02    0.102E-01
DAV:   5    -0.991547778285E+02    0.40535E-03   -0.12257E-03  1392   0.538E-02    0.283E-02
DAV:   6    -0.991549770058E+02   -0.19918E-03   -0.18718E-05   912   0.947E-03    0.186E-02
DAV:   7    -0.991553752535E+02   -0.39825E-03   -0.32618E-05   888   0.782E-03    0.673E-03
DAV:   8    -0.991556843761E+02   -0.30912E-03   -0.10394E-05   912   0.508E-03    0.292E-03
DAV:   9    -0.991558613084E+02   -0.17693E-03   -0.29281E-06   888   0.208E-03    0.205E-03
DAV:  10    -0.991560574233E+02   -0.19611E-03   -0.34837E-06   888   0.165E-03    0.134E-03
DAV:  11    -0.991562173659E+02   -0.15994E-03   -0.45775E-06   880   0.158E-03    0.801E-04
DAV:  12    -0.991562892651E+02   -0.71899E-04   -0.15320E-06   888   0.895E-04
  16 F= -.99156289E+02 E0= -.99156289E+02  d E =-.179052E-01  mag=     2.0000
       N       E                     dE             d eps       ncg     rms          rms(c)
DAV:   1    -0.989803851616E+02    0.17583E+00   -0.44298E+02  1312   0.316E+01    0.882E-01
DAV:   2    -0.991782261389E+02   -0.19784E+00   -0.20251E+00  1384   0.306E+00    0.725E-01
DAV:   3    -0.991743412027E+02    0.38849E-02   -0.34497E-02  1432   0.421E-01    0.495E-01
DAV:   4    -0.991686150202E+02    0.57262E-02   -0.59306E-03  1400   0.129E-01    0.306E-01
DAV:   5    -0.991667959003E+02    0.18191E-02   -0.82799E-03  1400   0.141E-01    0.794E-02
DAV:   6    -0.991679355248E+02   -0.11396E-02   -0.12000E-04   960   0.222E-02    0.524E-02
DAV:   7    -0.991699892341E+02   -0.20537E-02   -0.15393E-04   936   0.160E-02    0.195E-02
DAV:   8    -0.991715256483E+02   -0.15364E-02   -0.69239E-05   944   0.111E-02    0.775E-03
DAV:   9    -0.991722131767E+02   -0.68753E-03   -0.12503E-05   928   0.421E-03    0.532E-03
DAV:  10    -0.991730747772E+02   -0.86160E-03   -0.21625E-05   912   0.390E-03    0.319E-03
DAV:  11    -0.991736606636E+02   -0.58589E-03   -0.18579E-05   928   0.295E-03    0.222E-03
DAV:  12    -0.991739925251E+02   -0.33186E-03   -0.13497E-05   896   0.257E-03    0.127E-03
DAV:  13    -0.991741071797E+02   -0.11465E-03   -0.33521E-06   928   0.136E-03    0.840E-04
DAV:  14    -0.991741909491E+02   -0.83769E-04   -0.10448E-06   856   0.808E-04
  17 F= -.99174191E+02 E0= -.99174191E+02  d E =-.358069E-01  mag=     2.0000
       N       E                     dE             d eps       ncg     rms          rms(c)
DAV:   1    -0.991637175735E+02    0.10390E-01   -0.28023E+01  1336   0.790E+00    0.193E-01
DAV:   2    -0.991760071564E+02   -0.12290E-01   -0.12567E-01  1384   0.757E-01    0.177E-01
DAV:   3    -0.991757242735E+02    0.28288E-03   -0.20890E-03  1440   0.104E-01    0.125E-01
DAV:   4    -0.991752611006E+02    0.46317E-03   -0.36613E-04  1240   0.314E-02    0.777E-02
DAV:   5    -0.991750180655E+02    0.24304E-03   -0.80707E-04  1400   0.442E-02    0.236E-02
DAV:   6    -0.991751193700E+02   -0.10130E-03   -0.11775E-05   904   0.701E-03    0.161E-02
DAV:   7    -0.991753181426E+02   -0.19877E-03   -0.18263E-05   872   0.617E-03    0.603E-03
DAV:   8    -0.991755041223E+02   -0.18598E-03   -0.73596E-06   896   0.418E-03    0.199E-03
DAV:   9    -0.991755964957E+02   -0.92373E-04   -0.21427E-06   888   0.187E-03
  18 F= -.99175596E+02 E0= -.99175596E+02  d E =-.372124E-01  mag=     2.0000
       N       E                     dE             d eps       ncg     rms          rms(c)
DAV:   1    -0.991699049932E+02    0.55991E-02   -0.68780E+01  1312   0.123E+01    0.315E-01
DAV:   2    -0.992003150309E+02   -0.30410E-01   -0.31179E-01  1368   0.119E+00    0.276E-01
DAV:   3    -0.991995721259E+02    0.74291E-03   -0.51921E-03  1440   0.162E-01    0.194E-01
DAV:   4    -0.991984225020E+02    0.11496E-02   -0.93206E-04  1408   0.496E-02    0.117E-01
DAV:   5    -0.991978116782E+02    0.61082E-03   -0.15531E-03  1408   0.605E-02    0.322E-02
DAV:   6    -0.991980627683E+02   -0.25109E-03   -0.21852E-05   912   0.910E-03    0.222E-02
DAV:   7    -0.991985757735E+02   -0.51301E-03   -0.40814E-05   896   0.829E-03    0.785E-03
DAV:   8    -0.991989977401E+02   -0.42197E-03   -0.16524E-05   928   0.557E-03    0.298E-03
DAV:   9    -0.991992008129E+02   -0.20307E-03   -0.36373E-06   912   0.220E-03    0.216E-03
DAV:  10    -0.991994336316E+02   -0.23282E-03   -0.51063E-06   888   0.177E-03    0.125E-03
DAV:  11    -0.991995851321E+02   -0.15150E-03   -0.44297E-06   896   0.144E-03    0.732E-04
DAV:  12    -0.991996485280E+02   -0.63396E-04   -0.22666E-06   880   0.101E-03
  19 F= -.99199649E+02 E0= -.99199649E+02  d E =-.240520E-01  mag=     2.0000
       N       E                     dE             d eps       ncg     rms          rms(c)
DAV:   1    -0.990744045929E+02    0.12518E+00   -0.32132E+02  1312   0.267E+01    0.696E-01
DAV:   2    -0.992212243844E+02   -0.14682E+00   -0.14688E+00  1368   0.255E+00    0.577E-01
DAV:   3    -0.992186240539E+02    0.26003E-02   -0.22411E-02  1448   0.316E-01    0.415E-01
DAV:   4    -0.992142409104E+02    0.43831E-02   -0.47700E-03  1416   0.113E-01    0.240E-01
DAV:   5    -0.992129130230E+02    0.13279E-02   -0.51967E-03  1400   0.113E-01    0.654E-02
DAV:   6    -0.992133687501E+02   -0.45573E-03   -0.69975E-05   912   0.155E-02    0.453E-02
DAV:   7    -0.992141361647E+02   -0.76741E-03   -0.76008E-05   912   0.119E-02    0.165E-02
DAV:   8    -0.992147812904E+02   -0.64513E-03   -0.37784E-05   912   0.857E-03    0.492E-03
DAV:   9    -0.992151426472E+02   -0.36136E-03   -0.71666E-06   912   0.345E-03    0.322E-03
DAV:  10    -0.992154528596E+02   -0.31021E-03   -0.68907E-06   896   0.216E-03    0.182E-03
DAV:  11    -0.992156523584E+02   -0.19950E-03   -0.40937E-06   912   0.148E-03    0.121E-03
DAV:  12    -0.992158244379E+02   -0.17208E-03   -0.74692E-06   872   0.170E-03    0.619E-04
DAV:  13    -0.992158558858E+02   -0.31448E-04   -0.10767E-06   896   0.792E-04
  20 F= -.99215856E+02 E0= -.99215856E+02  d E =-.402594E-01  mag=     2.0000
       N       E                     dE             d eps       ncg     rms          rms(c)
DAV:   1    -0.991805239352E+02    0.35301E-01   -0.13273E+02  1312   0.171E+01    0.417E-01
DAV:   2    -0.992417919107E+02   -0.61268E-01   -0.60429E-01  1376   0.163E+00    0.377E-01
DAV:   3    -0.992410255700E+02    0.76634E-03   -0.91666E-03  1432   0.201E-01    0.276E-01
DAV:   4    -0.992391111596E+02    0.19144E-02   -0.23069E-03  1392   0.780E-02    0.156E-01
DAV:   5    -0.992385943172E+02    0.51684E-03   -0.25052E-03  1400   0.783E-02    0.488E-02
DAV:   6    -0.992387257371E+02   -0.13142E-03   -0.37632E-05   880   0.111E-02    0.332E-02
DAV:   7    -0.992389341662E+02   -0.20843E-03   -0.44917E-05   864   0.988E-03    0.117E-02
DAV:   8    -0.992391226796E+02   -0.18851E-03   -0.16779E-05   904   0.664E-03    0.273E-03
DAV:   9    -0.992392360883E+02   -0.11341E-03   -0.36709E-06   896   0.276E-03    0.177E-03
DAV:  10    -0.992393241054E+02   -0.88017E-04   -0.15834E-06   896   0.137E-03
  21 F= -.99239324E+02 E0= -.99239324E+02  d E =-.234682E-01  mag=     2.0000
       N       E                     dE             d eps       ncg     rms          rms(c)
DAV:   1    -0.992252475125E+02    0.13989E-01   -0.38340E+01  1312   0.920E+00    0.215E-01
DAV:   2    -0.992430914278E+02   -0.17844E-01   -0.17329E-01  1368   0.873E-01    0.202E-01
DAV:   3    -0.992429079813E+02    0.18345E-03   -0.25899E-03  1432   0.106E-01    0.151E-01
DAV:   4    -0.992423510929E+02    0.55689E-03   -0.69782E-04  1376   0.429E-02    0.850E-02
DAV:   5    -0.992422220797E+02    0.12901E-03   -0.78875E-04  1408   0.440E-02    0.286E-02
DAV:   6    -0.992422658619E+02   -0.43782E-04   -0.13539E-05   840   0.643E-03
  22 F= -.99242266E+02 E0= -.99242266E+02  d E =-.264100E-01  mag=     2.0000
       N       E                     dE             d eps       ncg     rms          rms(c)
DAV:   1    -0.992460672684E+02   -0.38452E-02   -0.44089E+01  1312   0.996E+00    0.258E-01
DAV:   2    -0.992665797954E+02   -0.20513E-01   -0.20020E-01  1376   0.940E-01    0.217E-01
DAV:   3    -0.992663477932E+02    0.23200E-03   -0.29958E-03  1416   0.113E-01    0.160E-01
DAV:   4    -0.992658036913E+02    0.54410E-03   -0.10311E-03  1376   0.518E-02    0.720E-02
DAV:   5    -0.992658079138E+02   -0.42226E-05   -0.50707E-04  1408   0.369E-02
  23 F= -.99265808E+02 E0= -.99265808E+02  d E =-.235421E-01  mag=     2.0000
       N       E                     dE             d eps       ncg     rms          rms(c)
DAV:   1    -0.992513306112E+02    0.14473E-01   -0.47945E+01  1312   0.104E+01    0.274E-01
DAV:   2    -0.992734732396E+02   -0.22143E-01   -0.21843E-01  1392   0.981E-01    0.224E-01
DAV:   3    -0.992732147097E+02    0.25853E-03   -0.32775E-03  1408   0.119E-01    0.163E-01
DAV:   4    -0.992726547508E+02    0.55996E-03   -0.10718E-03  1376   0.532E-02    0.726E-02
DAV:   5    -0.992726593835E+02   -0.46327E-05   -0.50263E-04  1408   0.370E-02
  24 F= -.99272659E+02 E0= -.99272659E+02  d E =-.303935E-01  mag=     2.0000
       N       E                     dE             d eps       ncg     rms          rms(c)
DAV:   1    -0.992633569288E+02    0.92978E-02   -0.56969E+01  1312   0.113E+01    0.280E-01
DAV:   2    -0.992897340819E+02   -0.26377E-01   -0.25911E-01  1376   0.107E+00    0.239E-01
DAV:   3    -0.992894197804E+02    0.31430E-03   -0.38746E-03  1400   0.130E-01    0.176E-01
DAV:   4    -0.992887124668E+02    0.70731E-03   -0.11059E-03  1400   0.542E-02    0.885E-02
DAV:   5    -0.992886597245E+02    0.52742E-04   -0.86551E-04  1400   0.468E-02
  25 F= -.99288660E+02 E0= -.99288660E+02  d E =-.160003E-01  mag=     2.0000
       N       E                     dE             d eps       ncg     rms          rms(c)
DAV:   1    -0.992818384826E+02    0.68740E-02   -0.19417E+01  1312   0.660E+00    0.165E-01
DAV:   2    -0.992907642348E+02   -0.89258E-02   -0.88349E-02  1400   0.623E-01    0.140E-01
DAV:   3    -0.992906671770E+02    0.97058E-04   -0.13192E-03  1408   0.756E-02    0.102E-01
DAV:   4    -0.992904622790E+02    0.20490E-03   -0.36348E-04  1176   0.318E-02    0.512E-02
DAV:   5    -0.992904853644E+02   -0.23085E-04   -0.29469E-04   992   0.291E-02
  26 F= -.99290485E+02 E0= -.99290485E+02  d E =-.178260E-01  mag=     2.0000
       N       E                     dE             d eps       ncg     rms          rms(c)
DAV:   1    -0.992849899088E+02    0.54724E-02   -0.31799E+01  1312   0.846E+00    0.217E-01
DAV:   2    -0.992994525153E+02   -0.14463E-01   -0.14340E-01  1392   0.793E-01    0.192E-01
DAV:   3    -0.992992628731E+02    0.18964E-03   -0.21126E-03  1448   0.934E-02    0.141E-01
DAV:   4    -0.992988386010E+02    0.42427E-03   -0.79530E-04  1392   0.460E-02    0.661E-02
DAV:   5    -0.992988250393E+02    0.13562E-04   -0.36812E-04  1264   0.323E-02
  27 F= -.99298825E+02 E0= -.99298825E+02  d E =-.833967E-02  mag=     2.0000
       N       E                     dE             d eps       ncg     rms          rms(c)
DAV:   1    -0.992971484085E+02    0.16902E-02   -0.35227E+00  1344   0.281E+00    0.772E-02
DAV:   2    -0.992987717403E+02   -0.16233E-02   -0.16128E-02  1416   0.265E-01    0.623E-02
DAV:   3    -0.992987610531E+02    0.10687E-04   -0.21335E-04   872   0.314E-02
  28 F= -.99298761E+02 E0= -.99298761E+02  d E =-.827569E-02  mag=     2.0000
       N       E                     dE             d eps       ncg     rms          rms(c)
DAV:   1    -0.992950584447E+02    0.37133E-02   -0.13518E+01  1320   0.553E+00    0.189E-01
DAV:   2    -0.993010800627E+02   -0.60216E-02   -0.61612E-02  1376   0.514E-01    0.144E-01
DAV:   3    -0.993009981578E+02    0.81905E-04   -0.99032E-04  1424   0.615E-02
  29 F= -.99300998E+02 E0= -.99300998E+02  d E =-.223710E-02  mag=     2.0000
       N       E                     dE             d eps       ncg     rms          rms(c)
DAV:   1    -0.993011039487E+02   -0.23886E-04   -0.16544E+00  1352   0.193E+00    0.521E-02
DAV:   2    -0.993018716487E+02   -0.76770E-03   -0.75290E-03  1400   0.182E-01    0.420E-02
DAV:   3    -0.993018720859E+02   -0.43717E-06   -0.11462E-04   840   0.227E-02
  30 F= -.99301872E+02 E0= -.99301872E+02  d E =-.311103E-02  mag=     2.0000
       N       E                     dE             d eps       ncg     rms          rms(c)
DAV:   1    -0.993018441212E+02    0.27527E-04   -0.50306E+00  1336   0.336E+00    0.809E-02
DAV:   2    -0.993041565723E+02   -0.23125E-02   -0.22825E-02  1392   0.318E-01    0.754E-02
DAV:   3    -0.993041303681E+02    0.26204E-04   -0.31731E-04   976   0.383E-02
  31 F= -.99304130E+02 E0= -.99304130E+02  d E =-.225828E-02  mag=     2.0000
       N       E                     dE             d eps       ncg     rms          rms(c)
DAV:   1    -0.993041818373E+02   -0.25265E-04   -0.64636E-02  1384   0.383E-01    0.306E-02
DAV:   2    -0.993041975303E+02   -0.15693E-04   -0.21117E-04   824   0.334E-02
  32 F= -.99304198E+02 E0= -.99304198E+02  d E =-.232544E-02  mag=     2.0000
       N       E                     dE             d eps       ncg     rms          rms(c)
DAV:   1    -0.993044016968E+02   -0.21986E-03   -0.21792E+00  1336   0.221E+00    0.589E-02
DAV:   2    -0.993053941206E+02   -0.99242E-03   -0.98969E-03  1384   0.208E-01    0.520E-02
DAV:   3    -0.993053815658E+02    0.12555E-04   -0.13166E-04   816   0.247E-02
  33 F= -.99305382E+02 E0= -.99305382E+02  d E =-.118404E-02  mag=     2.0000
       N       E                     dE             d eps       ncg     rms          rms(c)
DAV:   1    -0.993053908103E+02    0.33103E-05   -0.64740E-03  1376   0.122E-01    0.152E-02
DAV:   2    -0.993053956370E+02   -0.48267E-05   -0.21846E-05   824   0.105E-02
  34 F= -.99305396E+02 E0= -.99305396E+02  d E =-.119811E-02  mag=     2.0000
       N       E                     dE             d eps       ncg     rms          rms(c)
DAV:   1    -0.993056134445E+02   -0.22263E-03   -0.11213E+00  1344   0.159E+00    0.396E-02
DAV:   2    -0.993061202804E+02   -0.50684E-03   -0.49881E-03  1400   0.148E-01    0.351E-02
DAV:   3    -0.993061125084E+02    0.77720E-05   -0.63966E-05   784   0.169E-02
  35 F= -.99306113E+02 E0= -.99306113E+02  d E =-.716871E-03  mag=     2.0000
       N       E                     dE             d eps       ncg     rms          rms(c)
DAV:   1    -0.993061855338E+02   -0.65253E-04   -0.88716E-02  1360   0.448E-01    0.169E-02
DAV:   2    -0.993062223277E+02   -0.36794E-04   -0.36008E-04  1168   0.405E-02
  36 F= -.99306222E+02 E0= -.99306222E+02  d E =-.826691E-03  mag=     2.0000
