unknown system                          
           1
    23.127154    0.000000    0.000000
     0.000000   23.127154    0.000000
     0.000000    0.000000   23.127154
   Ag
  37
Direct configuration=     1
   0.47197187  0.68461157  0.68028734
   0.49430116  0.69459374  0.44876694
   0.46988914  0.70099466  0.56427716
   0.40854956  0.61442799  0.61233499
   0.44521003  0.61508850  0.37792578
   0.54924730  0.59842026  0.67833488
   0.58102365  0.69953083  0.62440163
   0.41173949  0.62209561  0.49357826
   0.58067293  0.65120586  0.51808263
   0.55619787  0.59600943  0.41802442
   0.51087680  0.56661125  0.57108364
   0.36049024  0.53036524  0.54637499
   0.35847119  0.52093298  0.66502392
   0.40987043  0.52111427  0.31643459
   0.37461914  0.52698395  0.42990310
   0.48417345  0.51259394  0.47066180
   0.52550493  0.52106519  0.33200013
   0.47606338  0.50490820  0.66487574
   0.64550487  0.55794195  0.48794188
   0.40356773  0.42915220  0.49256896
   0.64286803  0.59360922  0.60175899
   0.45504346  0.43342211  0.38479969
   0.39859155  0.42793570  0.61003828
   0.63826941  0.52797354  0.36960700
   0.51629165  0.40562340  0.61737641
   0.68867139  0.45491874  0.44538462
   0.59296314  0.49240925  0.65105423
   0.43277061  0.33237509  0.55682500
   0.57420752  0.47300636  0.53126937
   0.69265731  0.49074249  0.57681228
   0.50515509  0.36469362  0.46634843
   0.57337550  0.43574349  0.40317567
   0.63374759  0.38643891  0.60690350
   0.55005754  0.30952913  0.56110869
   0.72912890  0.38852998  0.53285881
   0.62121578  0.36815630  0.48842070
   0.55787133  0.76707602  0.52420650
Direct configuration=     2
   0.47196193  0.68479517  0.68048192
   0.49433988  0.69476139  0.44862429
   0.46992668  0.70103571  0.56432977
   0.40847364  0.61437199  0.61252607
   0.44519027  0.61501335  0.37784869
   0.54927067  0.59845289  0.67852881
   0.58096316  0.69959074  0.62450832
   0.41178909  0.62212105  0.49353368
   0.58072977  0.65132243  0.51803020
   0.55622632  0.59613479  0.41794820
   0.51094240  0.56669461  0.57096422
   0.36044669  0.53019527  0.54643217
   0.35835144  0.52102355  0.66517484
   0.40975844  0.52108171  0.31630423
   0.37446568  0.52694094  0.42968032
   0.48418982  0.51267820  0.47055923
   0.52546524  0.52104388  0.33192904
   0.47587223  0.50496128  0.66507607
   0.64563542  0.55799769  0.48778337
   0.40341056  0.42898393  0.49253062
   0.64283171  0.59366802  0.60188389
   0.45492752  0.43344461  0.38460475
   0.39855460  0.42799385  0.61015926
   0.63838444  0.52805472  0.36947129
   0.51617445  0.40551861  0.61741925
   0.68874102  0.45495301  0.44540355
   0.59308930  0.49240550  0.65107980
   0.43281180  0.33225062  0.55681008
   0.57433709  0.47285392  0.53128978
   0.69262878  0.49064795  0.57680174
   0.50503937  0.36469791  0.46640754
   0.57342030  0.43583554  0.40312500
   0.63383408  0.38643853  0.60696615
   0.55011939  0.30934074  0.56117325
   0.72929963  0.38833217  0.53291227
   0.62134195  0.36802211  0.48837971
   0.55788618  0.76717258  0.52414962
Direct configuration=     3
   0.47193211  0.68534597  0.68106568
   0.49445604  0.69526434  0.44819636
   0.47003931  0.70115888  0.56448758
   0.40824588  0.61420401  0.61309931
   0.44513096  0.61478790  0.37761740
   0.54934079  0.59855077  0.67911062
   0.58078172  0.69977049  0.62482837
   0.41193791  0.62219740  0.49339994
   0.58090029  0.65167212  0.51787291
   0.55631166  0.59651087  0.41771951
   0.51113923  0.56694471  0.57060595
   0.36031604  0.52968537  0.54660371
   0.35799220  0.52129524  0.66562760
   0.40942246  0.52098402  0.31591313
   0.37400528  0.52681192  0.42901197
   0.48423892  0.51293097  0.47025150
   0.52534619  0.52097993  0.33171576
   0.47529875  0.50512051  0.66567707
   0.64602707  0.55816490  0.48730781
   0.40293906  0.42847911  0.49241561
   0.64272273  0.59384440  0.60225856
   0.45457972  0.43351214  0.38401993
   0.39844378  0.42816833  0.61052223
   0.63872954  0.52829829  0.36906416
   0.51582284  0.40520423  0.61754775
   0.68894993  0.45505582  0.44546036
   0.59346777  0.49239422  0.65115653
   0.43293536  0.33187722  0.55676532
   0.57472583  0.47239662  0.53135102
   0.69254322  0.49036433  0.57677013
   0.50469221  0.36471077  0.46658487
   0.57355469  0.43611168  0.40297297
   0.63409352  0.38643738  0.60715408
   0.55030494  0.30877559  0.56136692
   0.72981182  0.38773875  0.53307265
   0.62172047  0.36761952  0.48825673
   0.55793073  0.76746225  0.52397895
Direct configuration=     4
   0.47187248  0.68644757  0.68223320
   0.49468836  0.69627023  0.44734049
   0.47026456  0.70140522  0.56480322
   0.40779036  0.61386803  0.61424578
   0.44501236  0.61433699  0.37715482
   0.54948101  0.59874654  0.68027423
   0.58041882  0.70012997  0.62546847
   0.41223554  0.62235008  0.49313246
   0.58124133  0.65237152  0.51755835
   0.55648235  0.59726302  0.41726213
   0.51153287  0.56744491  0.56988943
   0.36005473  0.52866555  0.54694679
   0.35727373  0.52183863  0.66653311
   0.40875049  0.52078864  0.31513095
   0.37308448  0.52655387  0.42767526
   0.48433711  0.51343652  0.46963605
   0.52510807  0.52085204  0.33128919
   0.47415181  0.50543898  0.66687907
   0.64681037  0.55849931  0.48635671
   0.40199606  0.42746948  0.49218559
   0.64250479  0.59419718  0.60300791
   0.45388412  0.43364719  0.38285029
   0.39822213  0.42851727  0.61124816
   0.63941974  0.52878543  0.36824990
   0.51511961  0.40457547  0.61780477
   0.68936775  0.45526144  0.44557398
   0.59422470  0.49237167  0.65130999
   0.43318248  0.33113042  0.55667580
   0.57550330  0.47148201  0.53147349
   0.69237208  0.48979708  0.57670691
   0.50399789  0.36473649  0.46693953
   0.57382348  0.43666397  0.40266892
   0.63461242  0.38643508  0.60752996
   0.55067604  0.30764527  0.56175425
   0.73083621  0.38655191  0.53339340
   0.62247749  0.36681435  0.48801078
   0.55801985  0.76804160  0.52363763
Direct configuration=     5
   0.47175321  0.68865077  0.68456824
   0.49515301  0.69828202  0.44562875
   0.47071507  0.70189789  0.56543449
   0.40687931  0.61319607  0.61653873
   0.44477515  0.61343518  0.37622968
   0.54976147  0.59913807  0.68260145
   0.57969303  0.70084895  0.62674868
   0.41283080  0.62265544  0.49259750
   0.58192340  0.65377030  0.51692921
   0.55682372  0.59876734  0.41634738
   0.51232016  0.56844532  0.56845637
   0.35953211  0.52662592  0.54763295
   0.35583677  0.52292541  0.66834415
   0.40740657  0.52039789  0.31356658
   0.37124287  0.52603777  0.42500185
   0.48453350  0.51444762  0.46840515
   0.52463184  0.52059625  0.33043606
   0.47185793  0.50607591  0.66928306
   0.64837697  0.55916815  0.48445449
   0.40011004  0.42545021  0.49172555
   0.64206890  0.59490273  0.60450661
   0.45249292  0.43391729  0.38051101
   0.39777883  0.42921516  0.61270002
   0.64080014  0.52975970  0.36662139
   0.51371316  0.40331795  0.61831880
   0.69020339  0.45567267  0.44580122
   0.59573857  0.49232658  0.65161690
   0.43367672  0.32963682  0.55649675
   0.57705823  0.46965279  0.53171843
   0.69202982  0.48866260  0.57658048
   0.50260926  0.36478795  0.46764884
   0.57436107  0.43776855  0.40206082
   0.63565021  0.38643049  0.60828170
   0.55141824  0.30538464  0.56252893
   0.73288497  0.38417823  0.53403490
   0.62399153  0.36520401  0.48751888
   0.55819807  0.76920029  0.52295499
Direct configuration=     6
   0.47171526  0.68909146  0.68510448
   0.49518999  0.69873285  0.44519594
   0.47076392  0.70150143  0.56571895
   0.40742503  0.61342508  0.61685566
   0.44484223  0.61317751  0.37611092
   0.54938259  0.59899220  0.68303876
   0.57926403  0.70100890  0.62699526
   0.41309237  0.62218900  0.49275069
   0.58241137  0.65420785  0.51685672
   0.55712503  0.59915931  0.41568604
   0.51262044  0.56858869  0.56887132
   0.35976021  0.52630270  0.54733956
   0.35481913  0.52305243  0.66913163
   0.40695054  0.52040771  0.31243305
   0.37077754  0.52564599  0.42511711
   0.48427014  0.51415129  0.46789045
   0.52455626  0.52074252  0.33028635
   0.47223928  0.50662109  0.66949900
   0.64849723  0.55966060  0.48447686
   0.39965128  0.42527965  0.49125715
   0.64185152  0.59491680  0.60443966
   0.45233038  0.43382348  0.38041828
   0.39767774  0.42903972  0.61274589
   0.64111217  0.53014428  0.36613655
   0.51372338  0.40323702  0.61861711
   0.69045895  0.45546018  0.44614378
   0.59528323  0.49248403  0.65180199
   0.43356996  0.32955705  0.55693951
   0.57712660  0.46933148  0.53146207
   0.69202442  0.48854131  0.57616642
   0.50296630  0.36547444  0.46752322
   0.57426239  0.43794177  0.40248707
   0.63566750  0.38604240  0.60830096
   0.55193837  0.30509059  0.56269958
   0.73320749  0.38357865  0.53409092
   0.62416146  0.36469719  0.48741379
   0.55811525  0.76953230  0.52282826
Direct configuration=     7
   0.47166461  0.68967965  0.68582019
   0.49523935  0.69933456  0.44461827
   0.47082912  0.70097228  0.56609862
   0.40815340  0.61373074  0.61727866
   0.44493175  0.61283361  0.37595241
   0.54887691  0.59879751  0.68362244
   0.57869145  0.70122239  0.62732436
   0.41344147  0.62156645  0.49295514
   0.58306265  0.65479184  0.51675997
   0.55752718  0.59968247  0.41480336
   0.51302121  0.56878004  0.56942515
   0.36006466  0.52587129  0.54694799
   0.35346092  0.52322194  0.67018267
   0.40634189  0.52042081  0.31092015
   0.37015647  0.52512310  0.42527094
   0.48391863  0.51375579  0.46720350
   0.52445538  0.52093773  0.33008654
   0.47274827  0.50734872  0.66978721
   0.64865774  0.56031786  0.48450671
   0.39903899  0.42505201  0.49063200
   0.64156139  0.59493558  0.60435030
   0.45211343  0.43369826  0.38029452
   0.39754282  0.42880557  0.61280712
   0.64152862  0.53065758  0.36548944
   0.51373702  0.40312901  0.61901525
   0.69080005  0.45517658  0.44660098
   0.59467549  0.49269418  0.65204902
   0.43342747  0.32945057  0.55753046
   0.57721784  0.46890263  0.53111992
   0.69201721  0.48837942  0.57561379
   0.50344283  0.36639068  0.46735555
   0.57413068  0.43817295  0.40305598
   0.63569058  0.38552442  0.60832665
   0.55263257  0.30469812  0.56292734
   0.73363796  0.38277842  0.53416569
   0.62438825  0.36402074  0.48727354
   0.55800470  0.76997543  0.52265913
Direct configuration=     8
   0.47156331  0.69085602  0.68725160
   0.49533806  0.70053799  0.44346295
   0.47095951  0.69991397  0.56685795
   0.40961013  0.61434205  0.61812465
   0.44511081  0.61214581  0.37563540
   0.54786555  0.59840814  0.68478980
   0.57754630  0.70164936  0.62798257
   0.41413969  0.62032135  0.49336406
   0.58436521  0.65595982  0.51656646
   0.55833147  0.60072878  0.41303801
   0.51382275  0.56916275  0.57053281
   0.36067354  0.52500849  0.54616483
   0.35074449  0.52356098  0.67228475
   0.40512460  0.52044701  0.30789435
   0.36891434  0.52407731  0.42557860
   0.48321561  0.51296479  0.46582959
   0.52425362  0.52132817  0.32968691
   0.47376625  0.50880399  0.67036363
   0.64897876  0.56163238  0.48456642
   0.39781440  0.42459672  0.48938169
   0.64098113  0.59497315  0.60417158
   0.45167954  0.43344783  0.38004699
   0.39727298  0.42833725  0.61292958
   0.64236153  0.53168418  0.36419521
   0.51376430  0.40291297  0.61981155
   0.69148224  0.45460938  0.44751538
   0.59346002  0.49311448  0.65254308
   0.43314250  0.32923762  0.55871234
   0.57740033  0.46804493  0.53043563
   0.69200279  0.48805565  0.57450852
   0.50439589  0.36822318  0.46702021
   0.57386728  0.43863533  0.40419380
   0.63573674  0.38448848  0.60837805
   0.55402098  0.30391319  0.56338286
   0.73449888  0.38117794  0.53431523
   0.62484182  0.36266784  0.48699304
   0.55778361  0.77086168  0.52232087
Direct configuration=     9
   0.47161601  0.69024409  0.68650700
   0.49528671  0.69991198  0.44406394
   0.47089168  0.70046449  0.56646295
   0.40885236  0.61402406  0.61768458
   0.44501767  0.61250359  0.37580031
   0.54839165  0.59861069  0.68418256
   0.57814199  0.70142726  0.62764018
   0.41377649  0.62096904  0.49315135
   0.58368763  0.65535225  0.51666712
   0.55791309  0.60018450  0.41395633
   0.51340580  0.56896367  0.56995662
   0.36035681  0.52545731  0.54657222
   0.35215754  0.52338462  0.67119128
   0.40575782  0.52043338  0.30946833
   0.36956048  0.52462132  0.42541856
   0.48358131  0.51337626  0.46654428
   0.52435857  0.52112507  0.32989479
   0.47323671  0.50804697  0.67006378
   0.64881177  0.56094858  0.48453536
   0.39845141  0.42483355  0.49003209
   0.64128298  0.59495361  0.60426455
   0.45190525  0.43357810  0.38017575
   0.39741335  0.42858086  0.61286588
   0.64192826  0.53115016  0.36486845
   0.51375011  0.40302535  0.61939733
   0.69112737  0.45490443  0.44703972
   0.59409229  0.49289585  0.65228608
   0.43329074  0.32934840  0.55809754
   0.57730540  0.46849110  0.53079159
   0.69201029  0.48822407  0.57508346
   0.50390012  0.36726994  0.46719465
   0.57400430  0.43839481  0.40360192
   0.63571273  0.38502737  0.60835131
   0.55329875  0.30432150  0.56314591
   0.73405104  0.38201049  0.53423744
   0.62460588  0.36337160  0.48713895
   0.55789862  0.77040066  0.52249683
Direct configuration=    10
   0.47160905  0.69074416  0.68728570
   0.49528311  0.69994050  0.44389115
   0.47139394  0.69993944  0.56634952
   0.40940019  0.61329860  0.61837967
   0.44496977  0.61179413  0.37586276
   0.54787804  0.59913492  0.68476617
   0.57754504  0.70139893  0.62792061
   0.41454759  0.62015543  0.49327280
   0.58424622  0.65607731  0.51630000
   0.55841324  0.60085738  0.41333816
   0.51402265  0.56877667  0.56995752
   0.36099020  0.52532629  0.54687279
   0.35174274  0.52340347  0.67135579
   0.40534586  0.52049665  0.30858153
   0.36927201  0.52420815  0.42506360
   0.48347567  0.51319672  0.46636019
   0.52407415  0.52122731  0.32984856
   0.47278982  0.50835424  0.66991937
   0.64879982  0.56134102  0.48445654
   0.39797831  0.42426515  0.48965596
   0.64077210  0.59477147  0.60404728
   0.45157327  0.43381488  0.37973736
   0.39727338  0.42908262  0.61301431
   0.64215205  0.53114035  0.36479844
   0.51401762  0.40302242  0.61974179
   0.69102504  0.45495776  0.44750505
   0.59340928  0.49280629  0.65197549
   0.43364406  0.32978216  0.55840188
   0.57711561  0.46832329  0.53035007
   0.69171951  0.48798622  0.57451862
   0.50429346  0.36815225  0.46794776
   0.57433962  0.43948159  0.40402175
   0.63565016  0.38476669  0.60817722
   0.55365903  0.30439408  0.56325997
   0.73407763  0.38113336  0.53432890
   0.62495102  0.36276282  0.48705499
   0.55738073  0.77051623  0.52251170
Direct configuration=    11
   0.47158818  0.69224439  0.68962180
   0.49527230  0.70002605  0.44337279
   0.47290072  0.69836429  0.56600920
   0.41104368  0.61112224  0.62046496
   0.44482607  0.60966575  0.37605011
   0.54633723  0.60070762  0.68651701
   0.57575418  0.70131396  0.62876189
   0.41686089  0.61771460  0.49363716
   0.58592196  0.65825248  0.51519864
   0.55991371  0.60287600  0.41148365
   0.51587320  0.56821566  0.56996024
   0.36289037  0.52493324  0.54777449
   0.35049833  0.52346001  0.67184931
   0.40410996  0.52068646  0.30592114
   0.36840658  0.52296866  0.42399872
   0.48315874  0.51265809  0.46580792
   0.52322088  0.52153403  0.32970986
   0.47144912  0.50927603  0.66948614
   0.64876396  0.56251832  0.48422008
   0.39655899  0.42255995  0.48852759
   0.63923949  0.59422507  0.60339549
   0.45057733  0.43452523  0.37842220
   0.39685348  0.43058790  0.61345960
   0.64282342  0.53111095  0.36458839
   0.51482015  0.40301364  0.62077518
   0.69071803  0.45511775  0.44890104
   0.59136024  0.49253762  0.65104375
   0.43470403  0.33108345  0.55931490
   0.57654625  0.46781987  0.52902551
   0.69084718  0.48727267  0.57282410
   0.50547347  0.37079919  0.47020709
   0.57534557  0.44274192  0.40528124
   0.63546246  0.38398468  0.60765495
   0.55473988  0.30461182  0.56360215
   0.73415741  0.37850197  0.53460328
   0.62598644  0.36093648  0.48680308
   0.55582708  0.77086294  0.52255634
Direct configuration=    12
   0.47092688  0.69263923  0.68974368
   0.49493837  0.69915999  0.44336030
   0.47291158  0.69705246  0.56622170
   0.41234931  0.61088453  0.62096356
   0.44485380  0.60902966  0.37641587
   0.54617148  0.60041530  0.68649814
   0.57611648  0.70122591  0.62878737
   0.41823246  0.61725622  0.49375963
   0.58635274  0.65849578  0.51467462
   0.56016134  0.60322499  0.41137473
   0.51673310  0.56812650  0.56926910
   0.36389015  0.52492376  0.54775644
   0.35034694  0.52324386  0.67155856
   0.40387943  0.52074393  0.30596490
   0.36873462  0.52270869  0.42355091
   0.48298709  0.51269980  0.46599030
   0.52299932  0.52168199  0.32980788
   0.47050006  0.50902991  0.66923332
   0.64843521  0.56242768  0.48378043
   0.39625439  0.42239668  0.48854626
   0.63821853  0.59387018  0.60349512
   0.45039890  0.43475785  0.37847207
   0.39733837  0.43053842  0.61328350
   0.64302580  0.53109835  0.36481621
   0.51436637  0.40307581  0.62087158
   0.69046783  0.45533320  0.44938831
   0.59105092  0.49300232  0.65034111
   0.43532326  0.33194520  0.55955603
   0.57658094  0.46744454  0.52890289
   0.69025855  0.48687936  0.57272436
   0.50575424  0.37227172  0.47088808
   0.57514625  0.44368586  0.40574123
   0.63567148  0.38446708  0.60753868
   0.55422769  0.30474494  0.56371258
   0.73377142  0.37816668  0.53470463
   0.62625562  0.36077752  0.48632361
   0.55520005  0.77140506  0.52281326
Direct configuration=    13
   0.46995278  0.69322082  0.68992321
   0.49444648  0.69788428  0.44334190
   0.47292757  0.69512011  0.56653471
   0.41427253  0.61053438  0.62169801
   0.44489463  0.60809270  0.37695464
   0.54592734  0.59998472  0.68647035
   0.57665014  0.70109620  0.62882492
   0.42025281  0.61658102  0.49394004
   0.58698729  0.65885418  0.51390273
   0.56052610  0.60373905  0.41121429
   0.51799975  0.56799517  0.56825105
   0.36536285  0.52490979  0.54772984
   0.35012393  0.52292548  0.67113027
   0.40353985  0.52082859  0.30602936
   0.36921783  0.52232574  0.42289128
   0.48273424  0.51276124  0.46625896
   0.52267297  0.52189992  0.32995227
   0.46910208  0.50866738  0.66886091
   0.64795095  0.56229417  0.48313282
   0.39580570  0.42215619  0.48857376
   0.63671466  0.59334742  0.60364187
   0.45013607  0.43510050  0.37854554
   0.39805262  0.43046554  0.61302410
   0.64332391  0.53107980  0.36515179
   0.51369793  0.40316739  0.62101359
   0.69009927  0.45565057  0.45010607
   0.59059528  0.49368683  0.64930612
   0.43623539  0.33321457  0.55991122
   0.57663205  0.46689168  0.52872227
   0.68939148  0.48630000  0.57257745
   0.50616783  0.37444078  0.47189119
   0.57485265  0.44507629  0.40641880
   0.63597939  0.38517766  0.60736741
   0.55347321  0.30494104  0.56387524
   0.73320285  0.37767278  0.53485391
   0.62665212  0.36054336  0.48561735
   0.55427642  0.77220360  0.52319172
Direct configuration=    14
   0.47036461  0.69297494  0.68984731
   0.49465444  0.69842362  0.44334968
   0.47292081  0.69593706  0.56640238
   0.41345943  0.61068242  0.62138750
   0.44487737  0.60848883  0.37672686
   0.54603056  0.60016676  0.68648210
   0.57642452  0.70115104  0.62880905
   0.41939865  0.61686648  0.49386377
   0.58671902  0.65870266  0.51422907
   0.56037189  0.60352172  0.41128212
   0.51746424  0.56805070  0.56868146
   0.36474023  0.52491569  0.54774109
   0.35021821  0.52306009  0.67131134
   0.40368342  0.52079280  0.30600211
   0.36901354  0.52248764  0.42317016
   0.48284114  0.51273526  0.46614538
   0.52281094  0.52180778  0.32989123
   0.46969312  0.50882065  0.66901835
   0.64815568  0.56235061  0.48340662
   0.39599539  0.42225787  0.48856213
   0.63735046  0.59356843  0.60357983
   0.45024719  0.43495564  0.37851448
   0.39775065  0.43049635  0.61313377
   0.64319788  0.53108764  0.36500991
   0.51398053  0.40312867  0.62095355
   0.69025509  0.45551639  0.44980262
   0.59078791  0.49339743  0.64974369
   0.43584976  0.33267791  0.55976106
   0.57661045  0.46712541  0.52879863
   0.68975806  0.48654494  0.57263956
   0.50599297  0.37352375  0.47146710
   0.57497678  0.44448844  0.40613234
   0.63584921  0.38487724  0.60743982
   0.55379219  0.30485814  0.56380647
   0.73344323  0.37788159  0.53479080
   0.62648449  0.36064236  0.48591594
   0.55466691  0.77186600  0.52303172
Direct configuration=    15
   0.47007856  0.69308610  0.68954213
   0.49435603  0.69811185  0.44364732
   0.47387441  0.69564428  0.56665051
   0.41420003  0.60990793  0.62193379
   0.44498759  0.60829838  0.37677325
   0.54524853  0.59989985  0.68611135
   0.57681176  0.70095521  0.62861790
   0.42048534  0.61622764  0.49402034
   0.58689236  0.65943886  0.51410817
   0.56045992  0.60320784  0.41103033
   0.51844257  0.56798496  0.56807376
   0.36584476  0.52513125  0.54748499
   0.34996984  0.52296180  0.67056920
   0.40353887  0.52070493  0.30624110
   0.36925239  0.52235024  0.42322021
   0.48273362  0.51247030  0.46643626
   0.52286013  0.52200148  0.32997585
   0.46971996  0.50865666  0.66887895
   0.64770096  0.56206321  0.48332431
   0.39561698  0.42249561  0.48861531
   0.63668155  0.59348819  0.60335381
   0.45022030  0.43491310  0.37886557
   0.39753037  0.43026419  0.61288398
   0.64342107  0.53128143  0.36491674
   0.51429793  0.40344214  0.62116203
   0.69028936  0.45556534  0.45012732
   0.59022666  0.49338332  0.64918276
   0.43591820  0.33269929  0.55968673
   0.57669832  0.46652074  0.52892516
   0.68961144  0.48687485  0.57282149
   0.50611246  0.37529981  0.47202784
   0.57459977  0.44505492  0.40643692
   0.63540630  0.38520348  0.60755129
   0.55365718  0.30528684  0.56373770
   0.73328016  0.37792294  0.53481970
   0.62611756  0.36036849  0.48557554
   0.55368771  0.77166352  0.52350135
Direct configuration=    16
   0.46986145  0.69317048  0.68931050
   0.49412952  0.69787520  0.44387324
   0.47459822  0.69542206  0.56683885
   0.41476216  0.60932009  0.62234843
   0.44507125  0.60815382  0.37680846
   0.54465496  0.59969726  0.68582995
   0.57710568  0.70080657  0.62847282
   0.42131016  0.61574275  0.49413919
   0.58702393  0.65999766  0.51401641
   0.56052674  0.60296960  0.41083921
   0.51918514  0.56793506  0.56761251
   0.36668313  0.52529487  0.54729062
   0.34978132  0.52288720  0.67000590
   0.40342915  0.52063823  0.30642250
   0.36943369  0.52224595  0.42325821
   0.48265201  0.51226918  0.46665705
   0.52289746  0.52214850  0.33004008
   0.46974034  0.50853219  0.66877313
   0.64735582  0.56184506  0.48326184
   0.39532975  0.42267606  0.48865567
   0.63617383  0.59342729  0.60318226
   0.45019989  0.43488081  0.37913205
   0.39736318  0.43008797  0.61269438
   0.64359047  0.53142852  0.36484602
   0.51453884  0.40368006  0.62132026
   0.69031538  0.45560250  0.45037378
   0.58980065  0.49337261  0.64875699
   0.43597014  0.33271551  0.55963031
   0.57676502  0.46606178  0.52902119
   0.68950016  0.48712525  0.57295958
   0.50620316  0.37664788  0.47245345
   0.57431362  0.44548489  0.40666811
   0.63507012  0.38545109  0.60763589
   0.55355471  0.30561223  0.56368549
   0.73315638  0.37795433  0.53484164
   0.62583906  0.36016063  0.48531717
   0.55294448  0.77150984  0.52385781
Direct configuration=    17
   0.46995021  0.69330559  0.68887185
   0.49376060  0.69796920  0.44397313
   0.47511428  0.69477993  0.56751132
   0.41566105  0.60887966  0.62250062
   0.44515305  0.60837121  0.37654800
   0.54351335  0.59993358  0.68529346
   0.57770475  0.70059229  0.62877131
   0.42234748  0.61530859  0.49450255
   0.58759481  0.66026574  0.51337320
   0.56043706  0.60286021  0.41101983
   0.52000460  0.56792344  0.56701568
   0.36775207  0.52543305  0.54722502
   0.34916323  0.52268791  0.66894237
   0.40336252  0.52035217  0.30677642
   0.36933328  0.52236824  0.42342841
   0.48278224  0.51157178  0.46707276
   0.52292482  0.52215340  0.32977234
   0.46984726  0.50791783  0.66867118
   0.64651569  0.56172322  0.48356658
   0.39453248  0.42265568  0.48880602
   0.63621008  0.59365362  0.60277683
   0.45013257  0.43480751  0.37914858
   0.39694188  0.42973231  0.61250294
   0.64396695  0.53143835  0.36451779
   0.51432918  0.40361689  0.62154193
   0.69036318  0.45541254  0.45067100
   0.58950117  0.49344321  0.64862161
   0.43576942  0.33231212  0.55923719
   0.57710405  0.46544786  0.52912898
   0.68979372  0.48774496  0.57336844
   0.50560434  0.37812167  0.47378339
   0.57472106  0.44632560  0.40648463
   0.63484890  0.38547742  0.60774676
   0.55357964  0.30620538  0.56351382
   0.73273322  0.37830190  0.53490287
   0.62565045  0.35979038  0.48500754
   0.55212633  0.77194652  0.52423460
Direct configuration=    18
   0.47001336  0.69340171  0.68855978
   0.49349812  0.69803607  0.44404420
   0.47548144  0.69432308  0.56798974
   0.41630058  0.60856632  0.62260889
   0.44521125  0.60852587  0.37636269
   0.54270114  0.60010171  0.68491177
   0.57813095  0.70043984  0.62898367
   0.42308548  0.61499970  0.49476107
   0.58800097  0.66045646  0.51291559
   0.56037327  0.60278238  0.41114833
   0.52058760  0.56791517  0.56659107
   0.36851256  0.52553136  0.54717835
   0.34872348  0.52254612  0.66818571
   0.40331511  0.52014865  0.30702822
   0.36926185  0.52245525  0.42354950
   0.48287488  0.51107562  0.46736852
   0.52294429  0.52215689  0.32958185
   0.46992334  0.50748074  0.66859864
   0.64591798  0.56163653  0.48378340
   0.39396525  0.42264118  0.48891299
   0.63623588  0.59381464  0.60248839
   0.45008467  0.43475536  0.37916035
   0.39664215  0.42947928  0.61236675
   0.64423480  0.53144535  0.36428427
   0.51418001  0.40357194  0.62169964
   0.69039719  0.45527739  0.45088246
   0.58928811  0.49349344  0.64852529
   0.43562663  0.33202512  0.55895751
   0.57734526  0.46501109  0.52920567
   0.69000257  0.48818586  0.57365932
   0.50517831  0.37917020  0.47472957
   0.57501094  0.44692372  0.40635409
   0.63469152  0.38549614  0.60782564
   0.55359738  0.30662738  0.56339168
   0.73243217  0.37854918  0.53494644
   0.62551626  0.35952698  0.48478724
   0.55154425  0.77225720  0.52450268
Direct configuration=    19
   0.47015322  0.69435131  0.68877205
   0.49331021  0.69864536  0.44405038
   0.47600424  0.69369966  0.56831625
   0.41699554  0.60809463  0.62276658
   0.44514026  0.60892003  0.37607884
   0.54203044  0.60021578  0.68410774
   0.57900008  0.70052400  0.62930756
   0.42395463  0.61500964  0.49455245
   0.58836333  0.66164080  0.51236029
   0.55987443  0.60273430  0.41127587
   0.52110455  0.56779135  0.56609122
   0.36910483  0.52533851  0.54740895
   0.34786567  0.52244116  0.66707808
   0.40328165  0.51987502  0.30745072
   0.36918626  0.52291710  0.42372476
   0.48297444  0.50993599  0.46753522
   0.52290636  0.52213845  0.32899988
   0.46946799  0.50648487  0.66849706
   0.64531272  0.56080299  0.48395285
   0.39232907  0.42221507  0.48873139
   0.63695861  0.59437641  0.60267366
   0.45008448  0.43470111  0.37907063
   0.39639644  0.42871672  0.61231595
   0.64478766  0.53170249  0.36399645
   0.51321851  0.40289549  0.62181602
   0.69029196  0.45539340  0.45104354
   0.58962382  0.49407296  0.64884951
   0.43496178  0.33127041  0.55869769
   0.57827169  0.46467326  0.52946245
   0.69048439  0.48848469  0.57428315
   0.50472005  0.38036389  0.47587822
   0.57541575  0.44682972  0.40639658
   0.63513864  0.38549883  0.60794755
   0.55355205  0.30701847  0.56327435
   0.73194583  0.37899355  0.53522838
   0.62556608  0.35927944  0.48418608
   0.55105329  0.77278410  0.52465261
Direct configuration=    20
   0.47020948  0.69473328  0.68885744
   0.49323463  0.69889043  0.44405287
   0.47621453  0.69344889  0.56844758
   0.41727508  0.60790490  0.62283000
   0.44511171  0.60907858  0.37596466
   0.54176066  0.60026167  0.68378433
   0.57934967  0.70055785  0.62943784
   0.42430424  0.61501364  0.49446853
   0.58850909  0.66211719  0.51213693
   0.55967378  0.60271496  0.41132717
   0.52131249  0.56774154  0.56589016
   0.36934306  0.52526094  0.54750170
   0.34752063  0.52239894  0.66663254
   0.40326819  0.51976495  0.30762067
   0.36915586  0.52310287  0.42379525
   0.48301449  0.50947758  0.46760227
   0.52289110  0.52213103  0.32876579
   0.46928484  0.50608430  0.66845621
   0.64506926  0.56046771  0.48402102
   0.39167093  0.42204368  0.48865834
   0.63724932  0.59460238  0.60274819
   0.45008441  0.43467929  0.37903455
   0.39629760  0.42840998  0.61229552
   0.64501004  0.53180593  0.36388068
   0.51283176  0.40262340  0.62186284
   0.69024963  0.45544007  0.45110833
   0.58975885  0.49430606  0.64897992
   0.43469435  0.33096683  0.55859318
   0.57864434  0.46453737  0.52956573
   0.69067820  0.48860489  0.57453408
   0.50453571  0.38084404  0.47634026
   0.57557858  0.44679192  0.40641368
   0.63531849  0.38549991  0.60799659
   0.55353382  0.30717579  0.56322715
   0.73175020  0.37917229  0.53534179
   0.62558612  0.35917988  0.48394426
   0.55085581  0.77299603  0.52471292
Direct configuration=    21
   0.47046333  0.69604770  0.68930748
   0.49342227  0.69956382  0.44383090
   0.47692694  0.69341098  0.56833122
   0.41779862  0.60782182  0.62329448
   0.44490131  0.60928835  0.37582246
   0.54160955  0.60018232  0.68305791
   0.57961947  0.70103617  0.62941323
   0.42421144  0.61470744  0.49391413
   0.58891987  0.66241548  0.51231713
   0.55930380  0.60247613  0.41145278
   0.52155899  0.56750829  0.56560633
   0.36932706  0.52511064  0.54728595
   0.34706765  0.52239251  0.66636960
   0.40317780  0.51984728  0.30768457
   0.36942505  0.52344353  0.42405113
   0.48281503  0.50891763  0.46771907
   0.52317263  0.52199141  0.32869565
   0.46902951  0.50562028  0.66839381
   0.64447149  0.56055063  0.48413175
   0.39051878  0.42147944  0.48801495
   0.63780491  0.59531695  0.60297989
   0.45015525  0.43453950  0.37917580
   0.39580821  0.42766361  0.61231468
   0.64469733  0.53204953  0.36416472
   0.51324203  0.40243740  0.62186425
   0.69036248  0.45558828  0.45089270
   0.58981318  0.49431067  0.64916298
   0.43410675  0.33035756  0.55846367
   0.57930402  0.46460254  0.53021498