unknown system                          
           1
    19.860340    0.000000    0.000000
     0.000000   19.860340    0.000000
     0.000000    0.000000   19.860340
   Ag
  15
Direct configuration=     1
   0.70290384  0.55263480  0.61021748
   0.61563531  0.45652751  0.58086805
   0.63529821  0.56964961  0.49299236
   0.64320891  0.34840221  0.50591013
   0.53468477  0.56768680  0.40408746
   0.57309810  0.58717422  0.61267896
   0.59087388  0.45176052  0.43954037
   0.51509836  0.37201159  0.53480072
   0.47635918  0.49298394  0.60290188
   0.45042658  0.48535914  0.47024140
   0.44636838  0.62286255  0.60163260
   0.42675426  0.61583186  0.47092011
   0.40760265  0.54638945  0.35661029
   0.38642558  0.40520348  0.55598692
   0.36922222  0.70933748  0.53929942
Direct configuration=     2
   0.70325285  0.55275985  0.61031659
   0.61552424  0.45650192  0.58103372
   0.63550593  0.56973402  0.49284316
   0.64344351  0.34808802  0.50585112
   0.53484402  0.56789782  0.40383252
   0.57311298  0.58719091  0.61291515
   0.59090552  0.45164126  0.43939656
   0.51501758  0.37208852  0.53487835
   0.47652879  0.49284470  0.60318220
   0.45035970  0.48496408  0.47007571
   0.44631392  0.62301389  0.60194878
   0.42661747  0.61604148  0.47065767
   0.40746531  0.54639997  0.35645018
   0.38610036  0.40495890  0.55597815
   0.36896805  0.70968984  0.53932831
Direct configuration=     3
   0.70429989  0.55313501  0.61061392
   0.61519103  0.45642514  0.58153074
   0.63612909  0.56998724  0.49239555
   0.64414729  0.34714545  0.50567411
   0.53532177  0.56853088  0.40306770
   0.57315764  0.58724096  0.61362371
   0.59100047  0.45128346  0.43896512
   0.51477522  0.37231933  0.53511124
   0.47703764  0.49242697  0.60402317
   0.45015905  0.48377890  0.46957861
   0.44615053  0.62346791  0.60289733
   0.42620710  0.61667034  0.46987036
   0.40705329  0.54643153  0.35596982
   0.38512468  0.40422515  0.55595184
   0.36820555  0.71074690  0.53941498
Direct configuration=     4
   0.70639396  0.55388534  0.61120858
   0.61452462  0.45627160  0.58252476
   0.63737540  0.57049369  0.49150033
   0.64555485  0.34526032  0.50532009
   0.53627727  0.56979699  0.40153805
   0.57324696  0.58734108  0.61504082
   0.59119035  0.45056786  0.43810225
   0.51429051  0.37278094  0.53557702
   0.47805533  0.49159150  0.60570510
   0.44975775  0.48140853  0.46858443
   0.44582376  0.62437593  0.60479441
   0.42538637  0.61792806  0.46829572
   0.40622925  0.54649465  0.35500910
   0.38317333  0.40275765  0.55589921
   0.36668054  0.71286103  0.53958832
Direct configuration=     5
   0.71058209  0.55538599  0.61239789
   0.61319178  0.45596451  0.58451282
   0.63986803  0.57150658  0.48970989
   0.64836998  0.34149006  0.50461203
   0.53818826  0.57232922  0.39847874
   0.57342560  0.58754131  0.61787505
   0.59157011  0.44913667  0.43637652
   0.51332108  0.37370416  0.53650858
   0.48009071  0.48992056  0.60906896
   0.44895515  0.47666780  0.46659606
   0.44517020  0.62619198  0.60858858
   0.42374491  0.62044349  0.46514645
   0.40458117  0.54662089  0.35308766
   0.37927063  0.39982265  0.55579395
   0.36363053  0.71708930  0.53993500
Direct configuration=     6
   0.70854269  0.55465525  0.61181876
   0.61384080  0.45611405  0.58354474
   0.63865425  0.57101335  0.49058174
   0.64699916  0.34332598  0.50495682
   0.53725771  0.57109616  0.39996846
   0.57333861  0.58744381  0.61649493
   0.59138519  0.44983359  0.43721686
   0.51379314  0.37325460  0.53605496
   0.47909959  0.49073422  0.60743094
   0.44934597  0.47897628  0.46756429
   0.44548845  0.62530766  0.60674102
   0.42454421  0.61921861  0.46667998
   0.40538370  0.54655942  0.35402330
   0.38117104  0.40125184  0.55584520
   0.36511572  0.71503036  0.53976618
Direct configuration=     7
   0.70865553  0.55482357  0.61158350
   0.61429628  0.45620982  0.58361776
   0.63908646  0.57080085  0.49076308
   0.64681091  0.34327933  0.50500403
   0.53710515  0.57101871  0.39979565
   0.57402398  0.58732183  0.61687553
   0.59152562  0.44974449  0.43731954
   0.51401416  0.37330040  0.53615517
   0.47874903  0.49042410  0.60773968
   0.44923501  0.47897133  0.46689444
   0.44501873  0.62570866  0.60661072
   0.42420625  0.61961642  0.46680684
   0.40533953  0.54654225  0.35392617
   0.38086773  0.40090669  0.55577097
   0.36502586  0.71514672  0.53982510
Direct configuration=     8
   0.70887571  0.55515203  0.61112440
   0.61518509  0.45639671  0.58376025
   0.63992989  0.57038616  0.49111696
   0.64644356  0.34318831  0.50509615
   0.53680745  0.57086757  0.39945841
   0.57536140  0.58708380  0.61761824
   0.59179968  0.44957064  0.43751990
   0.51444547  0.37338978  0.53635073
   0.47806494  0.48981894  0.60834215
   0.44901848  0.47896165  0.46558731
   0.44410212  0.62649117  0.60635644
   0.42354674  0.62039271  0.46705440
   0.40525335  0.54650873  0.35373664
   0.38027586  0.40023317  0.55562612
   0.36485049  0.71537380  0.53994008
Direct configuration=     9
   0.70923003  0.55535143  0.61086351
   0.61564879  0.45645074  0.58373964
   0.64011152  0.57000841  0.49111216
   0.64611833  0.34323648  0.50525680
   0.53667186  0.57058854  0.39966870
   0.57518115  0.58683666  0.61801381
   0.59190429  0.44970954  0.43771948
   0.51452824  0.37364433  0.53646936
   0.47775982  0.48989551  0.60839697
   0.44888080  0.47892328  0.46525571
   0.44427807  0.62639964  0.60614827
   0.42332442  0.62045133  0.46703892
   0.40522055  0.54666338  0.35368989
   0.38044668  0.40004286  0.55528220
   0.36465568  0.71561302  0.54003276
Direct configuration=    10
   0.71029297  0.55594964  0.61008082
   0.61703990  0.45661284  0.58367781
   0.64065640  0.56887517  0.49109777
   0.64514265  0.34338100  0.50573876
   0.53626508  0.56975145  0.40029957
   0.57464039  0.58609525  0.61920052
   0.59221812  0.45012626  0.43831822
   0.51477652  0.37440798  0.53682525
   0.47684446  0.49012522  0.60856142
   0.44846778  0.47880816  0.46426091
   0.44480594  0.62612503  0.60552378
   0.42265746  0.62062720  0.46699246
   0.40512218  0.54712733  0.35354963
   0.38095916  0.39947195  0.55425045
   0.36407123  0.71633069  0.54031082
Direct configuration=    11
   0.71241884  0.55714606  0.60851544
   0.61982210  0.45693705  0.58355415
   0.64174617  0.56660869  0.49106897
   0.64319130  0.34367004  0.50670268
   0.53545152  0.56807727  0.40156130
   0.57355888  0.58461242  0.62157394
   0.59284579  0.45095968  0.43951570
   0.51527309  0.37593528  0.53753703
   0.47501373  0.49058465  0.60889033
   0.44764172  0.47857791  0.46227131
   0.44586168  0.62557580  0.60427479
   0.42132354  0.62097893  0.46689955
   0.40492544  0.54805523  0.35326912
   0.38198410  0.39833012  0.55218693
   0.36290233  0.71776602  0.54086694
Direct configuration=    12
   0.71105957  0.55638108  0.60951633
   0.61804318  0.45672975  0.58363322
   0.64104937  0.56805786  0.49108738
   0.64443898  0.34348523  0.50608635
   0.53597170  0.56914773  0.40075455
   0.57425039  0.58556053  0.62005639
   0.59244446  0.45042680  0.43875004
   0.51495559  0.37495873  0.53708193
   0.47618429  0.49029089  0.60868003
   0.44816990  0.47872513  0.46354345
   0.44518665  0.62592697  0.60507339
   0.42217644  0.62075403  0.46695895
   0.40505124  0.54746194  0.35344848
   0.38132876  0.39906020  0.55350633
   0.36364972  0.71684828  0.54051136
Direct configuration=    13
   0.71148098  0.55691274  0.60918294
   0.61852982  0.45695664  0.58389031
   0.64121948  0.56780976  0.49118601
   0.64421519  0.34310945  0.50636897
   0.53581874  0.56898771  0.40114465
   0.57448762  0.58490058  0.62068975
   0.59251964  0.45022692  0.43885867
   0.51498605  0.37564223  0.53736789
   0.47592276  0.49019088  0.60845947
   0.44788860  0.47835464  0.46340147
   0.44524259  0.62616848  0.60453411
   0.42164283  0.62096075  0.46699521
   0.40484274  0.54790652  0.35310735
   0.38157949  0.39878367  0.55278385
   0.36358370  0.71690419  0.54071753
Direct configuration=    14
   0.71244975  0.55813497  0.60841649
   0.61964854  0.45747822  0.58448133
   0.64161054  0.56723939  0.49141274
   0.64370073  0.34224560  0.50701866
   0.53546710  0.56861983  0.40204144
   0.57503297  0.58338343  0.62214578
   0.59269247  0.44976743  0.43910840
   0.51505607  0.37721350  0.53802529
   0.47532153  0.48996096  0.60795243
   0.44724193  0.47750293  0.46307508
   0.44537120  0.62672368  0.60329440
   0.42041614  0.62143596  0.46707855
   0.40436342  0.54892857  0.35232314
   0.38215591  0.39814796  0.55112296
   0.36343193  0.71703274  0.54119149
Direct configuration=    15
   0.71289277  0.55886378  0.60821810
   0.62005557  0.45746671  0.58478072
   0.64160673  0.56721147  0.49148500
   0.64355345  0.34169094  0.50744579
   0.53520644  0.56856082  0.40252151
   0.57524845  0.58278493  0.62281108
   0.59274292  0.44931876  0.43914499
   0.51548524  0.37770934  0.53829994
   0.47521346  0.49013284  0.60769661
   0.44694018  0.47748952  0.46258509
   0.44574713  0.62690109  0.60286059
   0.41979708  0.62138852  0.46675768
   0.40422236  0.54948509  0.35212968
   0.38192023  0.39766085  0.55049423
   0.36332821  0.71715050  0.54145717
Direct configuration=    16
   0.71372622  0.56023492  0.60784485
   0.62082134  0.45744506  0.58534397
   0.64159955  0.56715893  0.49162096
   0.64327638  0.34064746  0.50824936
   0.53471605  0.56844981  0.40342466
   0.57565385  0.58165896  0.62406272
   0.59283784  0.44847468  0.43921383
   0.51629265  0.37864216  0.53881666
   0.47501014  0.49045620  0.60721532
   0.44637250  0.47746430  0.46166326
   0.44645437  0.62723487  0.60204447
   0.41863245  0.62129927  0.46615401
   0.40395699  0.55053208  0.35176573
   0.38147684  0.39674443  0.54931140
   0.36313307  0.71737205  0.54195698
Direct configuration=    17
   0.71362406  0.56045751  0.60797041
   0.62102877  0.45713961  0.58530139
   0.64124197  0.56721048  0.49164246
   0.64348940  0.34047834  0.50847212
   0.53475060  0.56847506  0.40354055
   0.57563392  0.58196350  0.62412934
   0.59286978  0.44842925  0.43920758
   0.51623593  0.37835847  0.53876070
   0.47499412  0.49074925  0.60705067
   0.44626483  0.47762475  0.46148732
   0.44707358  0.62714559  0.60212090
   0.41829987  0.62126873  0.46605560
   0.40398250  0.55055775  0.35165643
   0.38131205  0.39661218  0.54932965
   0.36315884  0.71734471  0.54196305
Direct configuration=    18
   0.71358282  0.56054738  0.60802110
   0.62111252  0.45701629  0.58528420
   0.64109761  0.56723129  0.49165115
   0.64357540  0.34041007  0.50856206
   0.53476455  0.56848525  0.40358733
   0.57562587  0.58208646  0.62415623
   0.59288268  0.44841091  0.43920506
   0.51621304  0.37824393  0.53873811
   0.47498766  0.49086756  0.60698419
   0.44622137  0.47768953  0.46141629
   0.44732357  0.62710954  0.60215176
   0.41816560  0.62125639  0.46601587
   0.40399280  0.55056812  0.35161231
   0.38124552  0.39655878  0.54933701
   0.36316924  0.71733367  0.54196550
Direct configuration=    19
   0.71333586  0.56060110  0.60811866
   0.62114612  0.45695721  0.58524250
   0.64085679  0.56727161  0.49181392
   0.64372749  0.34039148  0.50865827
   0.53473991  0.56853635  0.40355036
   0.57581962  0.58225768  0.62408886
   0.59289252  0.44835685  0.43925357
   0.51606232  0.37808786  0.53864335
   0.47505594  0.49084645  0.60676966
   0.44616209  0.47765492  0.46150045
   0.44756122  0.62727725  0.60211623
   0.41798833  0.62124687  0.46605239
   0.40403816  0.55050022  0.35148598
   0.38128564  0.39662157  0.54939267
   0.36328822  0.71720775  0.54200131
Direct configuration=    20
   0.71290019  0.56069586  0.60829076
   0.62120540  0.45685299  0.58516895
   0.64043194  0.56734273  0.49210106
   0.64399579  0.34035870  0.50882799
   0.53469646  0.56862649  0.40348512
   0.57616141  0.58255973  0.62397001
   0.59290988  0.44826150  0.43933916
   0.51579645  0.37781252  0.53847617
   0.47517640  0.49080922  0.60639120
   0.44605753  0.47759386  0.46164892
   0.44798047  0.62757312  0.60205354
   0.41767560  0.62123006  0.46611683
   0.40411819  0.55038045  0.35126312
   0.38135641  0.39673234  0.54949085
   0.36349812  0.71698559  0.54206449
Direct configuration=    21
   0.71294096  0.56077522  0.60844810
   0.62109147  0.45672871  0.58515074
   0.64015482  0.56738949  0.49213286
   0.64402478  0.34036575  0.50895344
   0.53458748  0.56855696  0.40353128
   0.57601543  0.58263040  0.62398038
   0.59287245  0.44826745  0.43938479
   0.51601996  0.37761740  0.53834697
   0.47540058  0.49108618  0.60626907
   0.44606298  0.47776120  0.46145281
   0.44838638  0.62758687  0.60206305
   0.41757884  0.62095900  0.46589348
   0.40419916  0.55033958  0.35130442
   0.38117308  0.39667986  0.54960226
   0.36345186  0.71707110  0.54217452
Direct configuration=    22
   0.71294168  0.56077662  0.60845088
   0.62108945  0.45672651  0.58515042
   0.64014992  0.56739032  0.49213343
   0.64402529  0.34036588  0.50895566
   0.53458555  0.56855573  0.40353209
   0.57601284  0.58263165  0.62398056
   0.59287178  0.44826755  0.43938560
   0.51602392  0.37761394  0.53834469
   0.47540454  0.49109108  0.60626691
   0.44606308  0.47776416  0.46144934
   0.44839357  0.62758711  0.60206322
   0.41757713  0.62095420  0.46588953
   0.40420060  0.55033886  0.35130515
   0.38116984  0.39667893  0.54960423
   0.36345104  0.71707262  0.54217647
Direct configuration=    23
   0.71285692  0.56084988  0.60858525
   0.62102897  0.45670211  0.58517333
   0.63987034  0.56744777  0.49228135
   0.64415549  0.34032740  0.50908071
   0.53452665  0.56851731  0.40352923
   0.57611567  0.58273073  0.62401731
   0.59283969  0.44824899  0.43942365
   0.51597689  0.37749501  0.53822199
   0.47557761  0.49116871  0.60600503
   0.44602190  0.47770700  0.46144696
   0.44868366  0.62777807  0.60194731
   0.41737168  0.62086712  0.46589649
   0.40422634  0.55025858  0.35116122
   0.38118573  0.39671881  0.54965720
   0.36352270  0.71699767  0.54226114
Direct configuration=    24
   0.71268272  0.56100044  0.60886139
   0.62090468  0.45665198  0.58522041
   0.63929577  0.56756582  0.49258537
   0.64442307  0.34024832  0.50933770
   0.53440559  0.56843836  0.40352334
   0.57632698  0.58293435  0.62409283
   0.59277373  0.44821085  0.43950184
   0.51588024  0.37725059  0.53796984
   0.47593328  0.49132824  0.60546683
   0.44593727  0.47758953  0.46144208
   0.44927984  0.62817052  0.60170909
   0.41694944  0.62068817  0.46591080
   0.40427924  0.55009359  0.35086543
   0.38121840  0.39680076  0.54976605
   0.36366997  0.71684365  0.54243517
Direct configuration=    25
   0.71233433  0.56130156  0.60941368
   0.62065610  0.45655172  0.58531457
   0.63814664  0.56780194  0.49319340
   0.64495824  0.34009017  0.50985169
   0.53416348  0.56828045  0.40351157
   0.57674962  0.58334158  0.62424388
   0.59264180  0.44813456  0.43965824
   0.51568694  0.37676174  0.53746554
   0.47664461  0.49164731  0.60439042
   0.44576801  0.47735459  0.46143231
   0.45047219  0.62895541  0.60123266
   0.41610497  0.62033026  0.46593942
   0.40438505  0.54976362  0.35027384
   0.38128372  0.39696467  0.54998374
   0.36396453  0.71653560  0.54278322
Direct configuration=    26
   0.71230147  0.56134434  0.60948335
   0.62062527  0.45654333  0.58534523
   0.63795961  0.56783900  0.49339153
   0.64499201  0.34012487  0.50997076
   0.53401445  0.56822864  0.40349509
   0.57685771  0.58345591  0.62439232
   0.59264773  0.44807028  0.43973771
   0.51573919  0.37664698  0.53733525
   0.47677119  0.49177835  0.60411980
   0.44571733  0.47732704  0.46130256
   0.45075631  0.62910334  0.60112660
   0.41591735  0.62013034  0.46582914
   0.40442089  0.54969754  0.35022962
   0.38128200  0.39697690  0.55005106
   0.36395771  0.71654829  0.54287815
Direct configuration=    27
   0.71227684  0.56137642  0.60953558
   0.62060216  0.45653704  0.58536821
   0.63781940  0.56786679  0.49354008
   0.64501732  0.34015089  0.51006003
   0.53390272  0.56818980  0.40348273
   0.57693876  0.58354163  0.62450361
   0.59265218  0.44802209  0.43979729
   0.51577835  0.37656095  0.53723758
   0.47686609  0.49187659  0.60391691
   0.44567934  0.47730638  0.46120528
   0.45096932  0.62921425  0.60104709
   0.41577669  0.61998046  0.46574646
   0.40444775  0.54964800  0.35019647
   0.38128071  0.39698608  0.55010154
   0.36395260  0.71655780  0.54294931
Direct configuration=    28
   0.71235288  0.56134008  0.60947726
   0.62063403  0.45657072  0.58539335
   0.63788138  0.56783921  0.49355426
   0.64495421  0.34019133  0.51005533
   0.53388951  0.56816371  0.40349144
   0.57694263  0.58354347  0.62463310
   0.59268340  0.44802804  0.43981586
   0.51580856  0.37659934  0.53724682
   0.47682097  0.49192020  0.60388843
   0.44566441  0.47726067  0.46112507
   0.45093842  0.62919703  0.60102394
   0.41575805  0.61995604  0.46573518
   0.40441885  0.54964699  0.35022174
   0.38130468  0.39697244  0.55009799
   0.36390824  0.71658590  0.54292840
Direct configuration=    29
   0.71258103  0.56123106  0.60930231
   0.62072964  0.45667175  0.58546875
   0.63806731  0.56775648  0.49359680
   0.64476488  0.34031264  0.51004123
   0.53384990  0.56808544  0.40351756
   0.57695427  0.58354902  0.62502155
   0.59277707  0.44804590  0.43987154
   0.51589918  0.37671452  0.53727457
   0.47668560  0.49205105  0.60380299
   0.44561963  0.47712352  0.46088446
   0.45084573  0.62914535  0.60095451
   0.41570214  0.61988278  0.46570136
   0.40433212  0.54964397  0.35029753
   0.38137660  0.39693152  0.55008736
   0.36377514  0.71667020  0.54286565
Direct configuration=    30
   0.71262981  0.56122127  0.60929613
   0.62072709  0.45671026  0.58551753
   0.63802531  0.56775792  0.49364011
   0.64479010  0.34029951  0.51008051
   0.53384639  0.56805373  0.40355177
   0.57700490  0.58354976  0.62514767
   0.59279196  0.44807413  0.43987192
   0.51587019  0.37675689  0.53727739
   0.47670877  0.49211198  0.60368162
   0.44559163  0.47701964  0.46081216
   0.45089190  0.62920681  0.60090505
   0.41561990  0.61985449  0.46571961
   0.40428880  0.54962608  0.35024576
   0.38141062  0.39692831  0.55009411
   0.36376286  0.71664438  0.54284683
Direct configuration=    31
   0.71277617  0.56119190  0.60927760
   0.62071946  0.45682581  0.58566388
   0.63789932  0.56776227  0.49377004
   0.64486576  0.34026012  0.51019836
   0.53383585  0.56795863  0.40365440
   0.57715679  0.58355197  0.62552605
   0.59283663  0.44815882  0.43987303
   0.51578324  0.37688400  0.53728584
   0.47677826  0.49229476  0.60331751
   0.44550764  0.47670800  0.46059526
   0.45103041  0.62939120  0.60075665
   0.41537316  0.61976963  0.46577438
   0.40415883  0.54957244  0.35009043
   0.38151270  0.39691869  0.55011437
   0.36372600  0.71656693  0.54279038
Direct configuration=    32
   0.71280461  0.56118707  0.60926101
   0.62072950  0.45678969  0.58565032
   0.63791005  0.56777542  0.49383298
   0.64479549  0.34032971  0.51022237
   0.53374154  0.56796141  0.40365447
   0.57713687  0.58357452  0.62559014
   0.59287015  0.44809586  0.43992066
   0.51591987  0.37685048  0.53726122
   0.47677148  0.49238404  0.60328707
   0.44548599  0.47673312  0.46046971
   0.45111319  0.62939401  0.60076658
   0.41536667  0.61965351  0.46568896
   0.40417763  0.54957752  0.35014883
   0.38146077  0.39690179  0.55014005
   0.36367641  0.71660703  0.54279380
Direct configuration=    33
   0.71281219  0.56118578  0.60925659
   0.62073218  0.45678006  0.58564670
   0.63791291  0.56777893  0.49384974
   0.64477677  0.34034824  0.51022876
   0.53371641  0.56796215  0.40365449
   0.57713157  0.58358053  0.62560722
   0.59287908  0.44807909  0.43993335
   0.51595627  0.37684155  0.53725467
   0.47676967  0.49240782  0.60327896
   0.44548022  0.47673981  0.46043627
   0.45113524  0.62939475  0.60076923
   0.41536494  0.61962257  0.46566620
   0.40418263  0.54957888  0.35016440
   0.38144693  0.39689729  0.55014689
   0.36366320  0.71661771  0.54279471
