15
Energy = -121.44468809 eV
Hf 8.056195558514316 11.761724080323496 8.1814171801313
Hf 9.94739642303803 12.910112842830854 9.879749814652202
Hf 10.655703458021783 11.993268162326293 7.310341011814229
Hf 12.460016087503309 11.898032440435994 9.461395037497986
Hf 8.922047475901572 9.60075154010612 6.6681850856006655
Hf 7.952290404687254 10.936201826851224 11.112206734034427
Hf 7.192599514839794 9.139033645597262 8.750366182926646
Hf 9.989680636214526 9.92962672642549 9.457914618239025
Hf 9.351710687064399 7.2805343364282855 8.44871505809004
Hf 11.24891913859205 11.238415493669077 11.914181538206128
Hf 8.146303369796575 7.871917381129548 10.926910298203515
Hf 12.82428115480407 9.314146256942147 10.327138801228111
Hf 9.540321044279029 9.159996946473308 12.862977077762906
Hf 12.332734489049543 8.803673025170417 13.036520227518805
Hf 10.810726478841463 7.31967916168068 11.109368393796444
