13
Energy = -102.72731809 eV
Hf 14.31451648929727 11.666294453771469 10.66456421736955
Hf 12.779975273298962 9.221359613839958 10.663199399994527
Hf 12.891235884677801 13.905551394930782 10.95143101253222
Hf 11.870402279358567 11.92306608310491 9.259659205395394
Hf 11.868693487642226 11.504500491857147 12.127121265190715
Hf 10.821933658284278 6.952810602453441 10.648435329277648
Hf 10.620406472558205 8.890486810427833 12.502742528149142
Hf 10.075835105967561 9.529956785818205 9.531038010038978
Hf 10.142659181186628 13.562787100965606 10.984641687698712
Hf 8.805463649764357 12.18794547606292 8.991958512006233
Hf 8.727444167759408 11.018897874308806 11.66874852499268
Hf 8.280716985992658 8.139340326894404 11.237247355892327
Hf 7.293897657524801 10.022037121032866 9.443145053036261
