25
Energy = -212.06975839 eV
Hf 10.344140189578308 9.874577421648024 14.148735480572324
Hf 12.11526161744 12.46689681032679 13.539015976679751
Hf 9.259524429493606 12.306331607196428 12.77672607053248
Hf 7.626919645635664 10.106214163918338 13.232581066585116
Hf 8.547259541354713 7.572826347917412 13.220897273215066
Hf 11.315988010670498 7.401062393235801 12.887250441652919
Hf 10.652931177079026 14.579554992428449 11.852785829683668
Hf 12.83756039973558 9.71112863673501 12.440105399002679
Hf 14.524418294328948 11.928468767150033 12.122419959546043
Hf 13.342041242390735 14.414953995387181 11.811915360040652
Hf 9.849745998803485 9.572131397826361 11.236479217664327
Hf 7.153628785263156 11.428048272031127 10.93655128420768
Hf 14.638091571163779 13.282197366340531 9.6756606098441
Hf 11.883953300683263 12.116877727963136 10.51463619870806
Hf 7.281849580142604 8.507659476548694 10.643205210052326
Hf 14.073079054085317 10.267419806331995 9.731295167599244
Hf 9.58294970637046 6.59118811047169 10.881246105373089
Hf 11.97576004602063 14.60569699911808 9.142401267913462
Hf 12.09792192601258 7.798690160025521 10.177048404423898
Hf 9.096644490206762 13.33884807748514 9.88360402354788
Hf 13.139910508779872 12.135851921604704 7.750710365642088
Hf 8.56511952418593 10.691438755471593 8.641297247086838
Hf 9.460712301695889 8.044258091679856 8.617268039505856
Hf 10.495556586803021 12.61082323862438 7.576213377373856
Hf 11.516292406391711 9.930823131936418 8.212614758691661
