24
Energy = -201.37138227 eV
Hf 11.839774344201519 16.061233126756473 10.633398021349374
Hf 13.142011991272687 14.185742523297108 8.746527120973338
Hf 13.343348035723162 16.187684357110985 13.228647993951068
Hf 14.763189255196755 15.844482565894335 10.510300056797938
Hf 10.582015014100747 14.707517899680044 13.053708063960867
Hf 10.61250238266754 13.25527165736842 10.27895366035802
Hf 8.992996361031093 12.165358614151783 12.652908363670361
Hf 10.229422770731004 10.22768494944554 10.798798909556451
Hf 10.27511368446413 9.739859464714591 13.679129669836911
Hf 10.60918908316916 12.453193339267493 15.165093542286597
Hf 11.755528890137192 11.670628633076715 12.511674703326744
Hf 12.813455041383724 11.299702936123861 9.652277828971247
Hf 13.248229732589152 13.416832684120665 14.28528594735722
Hf 11.737748377054357 15.25098149826509 15.713426715937747
Hf 13.280789733518436 13.795205922528455 11.433218152984608
Hf 15.72865322914 14.207799942963796 12.96403222079463
Hf 15.581971194826357 12.882362027930903 10.041130295962363
Hf 14.732360228429117 15.07856518468387 15.762999419345816
Hf 15.003951814720418 11.267999174827516 12.631502240044377
Hf 15.11678770312235 9.95973436870407 10.199718977685858
Hf 15.606604091488583 12.300836641902347 15.447117477243186
Hf 13.147973141811631 12.903191923653345 16.936271100819106
Hf 13.059771865179949 10.624515029567203 14.869977270776106
Hf 12.827885026681004 9.136603554115483 11.936112598923607
