27
Energy = -227.94511901 eV
Hf 14.932364253631162 9.38138733993229 10.714546580832751
Hf 14.918757518120763 12.17592630231897 10.048125570218184
Hf 13.298245500887127 13.269451309695864 7.563724507481754
Hf 12.033593321242352 13.359283084159214 10.053848985494964
Hf 15.58603587224816 11.331336139182342 12.753786836207905
Hf 10.793726606196554 14.714039931504344 7.984944215384275
Hf 14.220622373788803 13.705554687513294 12.251268360550727
Hf 13.97548657603927 9.199903751503019 13.970201466012766
Hf 13.019567494470625 10.522892000559152 8.753572906570557
Hf 12.068428381174146 8.293406701751293 10.841516847227357
Hf 14.243703314149712 7.0277231416095205 12.166799210909343
Hf 10.882735590516038 11.968751259855903 7.541022329070603
Hf 13.320651787792555 12.148915204216884 14.539209975350099
Hf 11.858523752247818 7.275602075052271 13.488017771651938
Hf 12.82144240564993 11.009367474165204 11.884692661390586
Hf 10.109449575951361 10.058266599689325 9.524669959719605
Hf 11.665678168281566 14.378873391843932 13.241326763567422
Hf 10.01839080870707 12.117191781345529 12.016623797146211
Hf 8.791317856169506 12.83526078636706 9.160212595830549
Hf 9.672634734444538 14.945037580046742 11.030935121552687
Hf 11.299358503345486 9.879169797660223 14.488286593907691
Hf 9.589515305675176 9.05536666983464 12.238623013136335
Hf 7.695106754023729 10.664264113853859 10.896122779903147
Hf 7.98150264922594 11.288391484141458 13.758205595142655
Hf 7.346844156626836 13.331137943652921 11.620534260865009
Hf 10.44743501692657 12.452573703061436 15.039478059816137
Hf 8.82830564879511 14.16911106485489 13.749526316081962
