24
Energy = -202.04868046 eV
Hf 10.97562392482906 16.883527958503326 12.146722005273338
Hf 12.618520490058561 15.315012972458367 13.792225474955165
Hf 10.056613413806705 14.781900890300124 9.917581458731084
Hf 12.820609291974925 15.430354408659275 10.84491021901141
Hf 10.191926661383242 14.281905729878867 12.74183892901521
Hf 12.456463879695116 14.02566205261365 8.409571959568133
Hf 8.85497408118651 11.981893010350893 10.84892667801067
Hf 11.672973357051157 12.57161646706318 14.67826140060783
Hf 10.293677040264116 12.295792363840423 8.369973322007151
Hf 11.818541164543785 12.639253788919682 10.837065647319433
Hf 9.113783051212048 11.824411685581765 13.623261525340286
Hf 14.614912382975225 13.207348564211218 10.114281781765717
Hf 10.467903104863858 10.066982115157117 15.115362055884049
Hf 12.959513830385642 11.141826436995498 8.630972335235981
Hf 8.996226613212988 9.145094883646061 12.563152708044045
Hf 11.582716857240982 10.154260470856643 12.32271584083261
Hf 13.465283494484156 10.178428189413538 14.403015948670005
Hf 14.513791184590223 10.60118462279239 11.405689641564939
Hf 13.998735701647785 12.934583247609552 12.97091144421743
Hf 10.321331696502021 9.716484628215461 9.56509368192306
Hf 11.388502795677809 7.838403783168212 14.034485449555174
Hf 13.01617700593014 8.68491343301918 9.887164843192714
Hf 13.663055041432695 7.993902832284365 12.464349502093459
Hf 11.050858893632089 7.448715640242075 11.303418778873077
