23
Energy = -189.81515923 eV
Hf 15.017611087210447 9.857858735324381 13.197694520002162
Hf 14.48745284360995 10.165841542985891 10.468318230187068
Hf 14.507547125812337 12.551696034452638 12.127188657627187
Hf 14.465715804338728 12.049489477409528 14.89755431464216
Hf 14.071701511318345 12.603421026533896 9.278669830404525
Hf 12.433325520364718 10.608629058775804 13.696714506959486
Hf 12.349414240737575 14.559098538308687 10.71080371604666
Hf 12.285928875018135 8.50892109249049 11.446592069921447
Hf 12.00088421254801 13.345522830332975 13.455107085641178
Hf 11.727932721312996 13.099009005086161 8.153752112286266
Hf 11.827000381985693 11.766702278084542 10.970858678641527
Hf 10.997338612725779 7.541640272039343 9.039763299804036
Hf 9.860712531908744 14.96330282962916 9.128966143200286
Hf 10.307414897674619 8.496025143224577 13.572079969512508
Hf 9.502578876393942 13.788029395684438 11.733962587056833
Hf 12.11064240707969 10.164496455824134 8.694043280071446
Hf 9.810681550960087 6.863407289715449 11.40099066834598
Hf 9.521763309558157 11.219937375198938 13.221492150455305
Hf 9.202520177283365 12.14486964249415 9.135490187071829
Hf 7.787483829741774 8.9228548820466 12.632513506169152
Hf 7.405258535962827 14.110390558279706 9.916126552650626
Hf 9.581202556841063 9.54517574037782 10.603896198146609
Hf 7.395344849852558 11.628160123417222 11.321335869706484
