23
Energy = -193.62909085 eV
Hf 11.500639005753271 7.582167534909586 9.432105883237464
Hf 8.641002802151117 7.105578529652681 10.209469027785149
Hf 10.519396225273857 6.897552472107795 12.165993675728325
Hf 9.229032801906875 9.107674381002909 8.071646911428207
Hf 12.03548794778681 9.43182780049156 7.127016648417996
Hf 13.942089200213214 9.250174377882406 9.047425743376703
Hf 9.787678193535884 9.610656410584788 11.274837467800328
Hf 12.853759534763226 8.715254884100302 11.771541886062291
Hf 7.057435454086306 9.318921770953196 10.095856873908533
Hf 8.003638376887103 8.441518645124193 12.87257570423725
Hf 10.43623082064953 11.631481755038216 7.019379714614748
Hf 11.523972257925614 10.835272897023454 9.679407020455528
Hf 13.278887032341059 12.041347672483782 8.079901608138327
Hf 8.21309793525511 11.676361393803587 8.868024256211957
Hf 10.809105118987095 8.922220208880562 13.960224506028942
Hf 14.200465998371511 11.24404684220387 10.868984766028548
Hf 7.344825303621352 11.556651643670737 11.744517628387646
Hf 10.448097246174996 13.690086492739104 8.918546705200093
Hf 12.007952965684758 11.43586745524166 12.878056277420855
Hf 9.195442881445363 11.108996899432347 13.79148992545225
Hf 12.577166025252783 13.423448462687222 10.720722360613559
Hf 7.843591533796315 14.04970372381943 10.252309804968434
Hf 9.923378524637018 13.107434627494014 11.823948101299505
