25
Energy = -212.46318014 eV
Hf 11.778487349761003 11.353672196649477 14.676208093085801
Hf 13.407895235047187 10.13741433888407 12.41587217847067
Hf 11.99809610287807 13.125980336436347 12.192680173370317
Hf 11.586854902274954 14.063642560486693 9.465785789378808
Hf 9.149534780296305 13.968942251943242 11.227429530716526
Hf 14.150755799293352 8.823578182743912 9.94408851406787
Hf 9.485528593145476 12.799610433523748 13.864024781178424
Hf 11.456408916666073 8.581412172010332 14.05063909245667
Hf 9.107869063930647 10.061964440049609 14.601463064669638
Hf 12.00128121016397 7.283995796453221 11.509911602013814
Hf 13.320965833037299 11.722210891408922 9.731277749044468
Hf 11.402943666073854 9.42755092383955 9.835770992528463
Hf 9.085835189496072 8.164866246562326 12.20174487807051
Hf 13.074947451397717 9.732941456550195 7.493170180892127
Hf 9.875630309344789 11.74605937023187 9.717748506033555
Hf 11.331226364682903 12.044150479807437 7.298283765905535
Hf 12.284928098661377 7.179345555899957 8.493056210320164
Hf 9.108053409539222 13.921564650148607 8.197269490901585
Hf 10.536069642522088 10.648504193462914 12.324709682266374
Hf 7.6669321069646195 11.159313424429728 12.160362888490438
Hf 9.712336497126008 7.096504568852037 9.56561014120338
Hf 10.14490558259327 9.005622588077772 7.326564774715076
Hf 7.128989100799655 12.347496647953797 9.57525646408824
Hf 8.395815113383799 11.319569005907121 7.266705597867656
Hf 7.967425916705944 9.444114538478155 9.574981510720368
