39
Energy = -336.0485455 eV
Hf 6.720032724497979 8.241479255193841 10.366372215930335
Hf 7.13703289776223 10.554038829928396 11.891190317078278
Hf 7.449483689259879 10.617404433450098 8.99471799922205
Hf 9.410062564101981 8.674082770614781 9.772043076487938
Hf 9.438474660501129 13.274162837838517 15.769489673536894
Hf 8.763824309805756 8.232041121777597 12.557318725074158
Hf 7.858440999661333 13.446919183684667 13.38405917528801
Hf 8.828142876519724 10.747248680676972 14.460168676928584
Hf 8.253555312616067 12.950903366447472 10.595522270755353
Hf 10.08689846113326 10.652939093303367 11.832850130717238
Hf 9.773672501688973 14.491318432436433 8.614641444728043
Hf 10.283570722831696 11.473223466752362 8.993468815386592
Hf 10.807945421572231 13.178671636555114 13.193480626385245
Hf 12.355322378211682 8.911017364444474 8.504816709647699
Hf 9.652400640748137 15.605972608119465 14.304031268420244
Hf 11.711815453841481 7.874939279167906 11.397313907347208
Hf 11.65805936889038 11.485974532492133 15.609033419446815
Hf 11.365548594362266 9.016287461531558 14.062764874863984
Hf 9.403448548087214 15.412205113823969 11.433343365526738
Hf 13.689270503911045 10.901328054862978 13.307794544126036
Hf 12.081004814667434 14.432026177958676 15.437303602617714
Hf 13.639594276951888 9.420838250600868 15.825108265588657
Hf 12.081936393911034 13.624940911939339 10.373131782737719
Hf 14.332871614183638 8.086430072829943 10.369135813120065
Hf 16.13284843214232 9.921360247899814 11.716618273074708
Hf 12.020138792585813 15.914730587292059 12.570776518603921
Hf 11.52233982967707 16.449537484656688 9.743125257459736
Hf 14.277908748968384 8.041998123169984 13.257955982872785
Hf 12.573837524432944 14.910990391476048 7.7435272438738325
Hf 12.708168775819017 11.809990896087475 7.756253006727624
Hf 12.848635271414082 10.65192612805982 10.59148059027392
Hf 14.618400989729667 12.198586821048965 15.679034004375685
Hf 16.101498722884834 9.855004955020881 14.596564839701049
Hf 13.87074040864771 13.912953674184887 13.072636710612453
Hf 15.030148540046284 10.372503968227193 8.751268777712287
Hf 16.336716511950495 12.369479416482124 13.424505631893002
Hf 14.248371827664457 15.51283091130184 10.20790971613232
Hf 14.878832538049798 13.422251483545008 8.188339950398323
Hf 15.146437569800497 12.640711346314603 10.810759070766531
