37
Energy = -318.65860842 eV
Hf 13.454984749932262 8.710887793590247 8.4289416005711
Hf 10.592822318546498 9.265168777119616 9.02768326102991
Hf 14.832284596358223 10.992338781096576 7.85985033942122
Hf 11.922947992905602 7.046868597203367 10.15297091861143
Hf 12.050489985462443 11.07412556285608 6.781858012096428
Hf 14.6303992538939 7.355539652273527 10.819765201345735
Hf 15.674319607364929 9.971371188261 10.361212074182003
Hf 9.202157989584508 11.019273233852276 10.93219722568713
Hf 13.841921266866748 13.455447754283794 7.357865281682801
Hf 12.872125189694106 9.656159308703964 11.34603804420757
Hf 15.163510444239312 13.101571564881333 9.878104686383045
Hf 11.110469419038099 13.866733138623973 7.520149653488522
Hf 9.546148091521433 11.78203036171861 8.199410323288854
Hf 12.654477328339679 7.120797610684071 12.817161009338275
Hf 10.158367562006267 8.524453214647874 11.979632427480269
Hf 14.938887202936389 8.994998074985025 13.212089722962261
Hf 12.350365903914284 11.957810164211422 9.440843373419753
Hf 15.055797800047419 11.775435152341728 12.446462713923992
Hf 10.202477822363237 13.78236375946808 10.333050450608301
Hf 12.754752991615485 15.016534543985177 9.536790888720265
Hf 11.754355738191387 9.178212970371982 14.41640521472238
Hf 12.99670166592797 13.754748350421513 11.961177273630256
Hf 11.241331600944433 11.70271345170639 13.02537712457463
Hf 13.658661809502533 11.29438144418657 14.904298335599115
Hf 8.951696321577456 10.547077327786374 14.000402124299315
Hf 14.66165196680085 14.031047615701757 14.590664596719755
Hf 8.604995899085713 13.325453481368353 12.853232913740547
Hf 10.569183082514337 15.853517463198589 12.38364989009597
Hf 13.253239288652173 16.318643403384197 13.335781174364282
Hf 11.562935601891759 14.185447949679116 14.627006775137929
Hf 11.082085264268159 11.531870949542707 16.30330922040861
Hf 13.246575660599198 13.254092513281856 16.983098104847908
Hf 8.824867072942032 12.90621735512283 15.610170369759448
Hf 13.2702313877718 15.910364222336403 16.263473294941953
Hf 8.811407099576904 15.487869318466121 14.820373101517236
Hf 11.049916612680061 17.005406771426777 15.010187564276622
Hf 10.60317458352245 14.666684798658858 17.144848315728023
