30
Energy = -257.62123598 eV
Hf 15.079332063671915 10.636741381016066 13.104491777640261
Hf 15.483852196158024 9.677932797026365 10.341949322394463
Hf 14.16904084135664 13.7500641844385 13.243931828666804
Hf 14.661699031415417 12.325220608708273 10.609032194418974
Hf 13.941487479103834 15.015959777482315 10.598924037491592
Hf 14.748187683796107 7.80734942179639 12.24975084696419
Hf 12.471014274070876 11.525268588804268 14.230142685861907
Hf 12.355884885068033 16.04108018839956 12.641101960353751
Hf 13.094945180591004 8.738497203920366 14.197766391318124
Hf 13.588402279624448 7.695504341008487 9.727892622377524
Hf 13.231435089080438 10.428031967297038 8.654700696136375
Hf 12.36957711625434 13.331688512957866 8.764521291185648
Hf 12.746874756328081 9.954143404283615 11.496777286215622
Hf 11.514934621407994 14.198967058294011 14.440233677328791
Hf 11.789768087818095 13.226062845695141 11.630551079663084
Hf 9.578686331001828 14.989738503478804 12.363302950556482
Hf 11.292414271527754 15.730820576331109 10.089294396345178
Hf 10.915678266220711 8.411110800316054 9.43067261225167
Hf 10.3054587293326 11.21686217308892 8.096458617084329
Hf 10.385142682316923 9.349345761055769 13.530118672243782
Hf 11.833928292773297 7.229297754390864 12.031852395948098
Hf 9.40297215761461 13.744390741985262 9.599434672535743
Hf 9.522231596251256 12.322751139350398 13.669002788692257
Hf 9.482948091462065 10.835881833353433 10.874860472730449
Hf 8.317524418526528 9.115718933811909 8.723958004523988
Hf 8.706975022169585 8.073901340683 11.43669580261292
Hf 7.681561350068009 10.19992988977701 13.166361403161648
Hf 7.548454398150781 11.817283773949029 8.825402150999306
Hf 7.387744777310849 12.714418406459615 11.633841574775982
Hf 6.572235877219155 10.014060193947635 10.690804962987789
