36
Energy = -305.72319801 eV
Hf 8.895027542954823 13.76807389810854 10.137530304668655
Hf 14.983095430269046 13.545500928537736 9.114342717112157
Hf 11.94421518201932 15.21150749907978 16.347669980930114
Hf 10.639973792819486 16.46883152998169 14.196075725967821
Hf 11.659697920046973 13.588053919773955 14.15172758794165
Hf 16.071631458552847 14.883513411428412 13.510877640050888
Hf 12.062148220504794 9.434560329829829 16.0100835715795
Hf 16.623571718507456 13.181888788384011 11.376745437891698
Hf 7.6206981613609805 11.933677903901371 12.563793326585282
Hf 10.550857298947873 11.519140934954985 8.651750174004153
Hf 13.485602267341202 7.906424062915996 13.92809060021112
Hf 13.501785736966617 11.008694822697398 9.940218717024548
Hf 14.046741520826659 10.94736325573864 14.89281595722891
Hf 14.38576865675057 13.809697881441355 15.664678014842973
Hf 14.673498709013545 15.459581266811448 11.102456039598213
Hf 10.480469064502866 8.117614203877864 14.45009624165113
Hf 13.514321948944795 8.183687122821308 10.69772747700541
Hf 13.459808531773811 15.977861954242655 13.945120730173247
Hf 12.132790717580182 9.982495256628933 12.697451345958795
Hf 12.13012499333087 12.220296287164652 16.697331935258834
Hf 8.081258740613292 10.863385039686513 9.990155871194661
Hf 10.454070408106572 14.210441441395274 7.624717311454153
Hf 11.09695537193687 15.367519242580062 11.746463619961954
Hf 9.949878544986952 11.074512889434827 14.594068715372487
Hf 13.983269262699832 12.931345682077142 12.450474573250947
Hf 11.298033737219328 7.1759659173319195 12.049656580703587
Hf 10.368676899590486 12.134056992222611 11.789038249779422
Hf 8.85628502052359 14.434526473666722 13.161218924422094
Hf 10.71231759275305 8.876047422385563 9.92519926112065
Hf 12.940491863641043 12.330646455610891 7.406726759906744
Hf 12.607045629809868 9.406105262487333 7.901914060057121
Hf 12.248181343359182 13.70771297221111 9.879323835422689
Hf 16.428948206448904 12.182687400399205 14.051502411958998
Hf 8.141453983127402 12.69778416956292 7.641501447147841
Hf 15.168598826345951 10.196112941592089 12.25651723918342
Hf 9.058125942909935 9.40566290843964 12.308958391564627
