48
Energy = -418.40856357 eV
Hf 16.488111257455103 11.671179881491549 9.825409721273095
Hf 17.434062537105966 10.907651707672976 12.54821743701021
Hf 14.380371657781684 9.990935372382506 8.785650983246022
Hf 15.680385004100513 8.908368244941602 11.057037962211508
Hf 17.543918172800392 13.903054974275861 11.648968698872231
Hf 16.28170345555784 16.670618695238208 11.67088498527136
Hf 16.48317084283982 10.954264052275455 15.483502298187393
Hf 15.858485795530918 14.716784342691888 9.24360643421914
Hf 17.334133974045844 15.555754747320497 14.075753777424882
Hf 12.632005388080596 8.945664111922557 10.81074308898713
Hf 14.31762947993924 8.764710062489156 15.77647449511535
Hf 14.543755209807511 10.469334197781313 13.256724819465035
Hf 16.44396838114185 8.505809654768596 13.85076614511877
Hf 11.208998461606361 13.625884865399483 10.483363852799616
Hf 11.771022865752958 11.112161582329225 8.79144180648005
Hf 15.991652096614796 14.12678464021291 16.214043608975697
Hf 13.696152833777003 11.981253392406357 10.851531252017388
Hf 13.657468810542921 17.911796310395996 12.189073718093896
Hf 13.855519596542527 15.07564853909975 11.416823305670523
Hf 13.59295920112356 7.6269685354533125 13.19426209053122
Hf 14.255580480692592 12.633422392743979 8.069747842362153
Hf 18.091405586625868 12.993810003944938 14.373356239470844
Hf 15.260971747633874 13.432124474354445 13.617370640284422
Hf 14.352198983401266 17.244735789413888 9.571844374176814
Hf 14.71962989906763 16.43489149061896 14.416941818091537
Hf 11.675775337311329 7.543350762236463 15.453272761442376
Hf 13.748988624599967 11.96131959104188 15.888982575338408
Hf 10.811257278829249 11.040841476003706 11.510644734922707
Hf 10.242592229418262 8.178767933763343 12.932834905103539
Hf 11.859721315531804 10.040962859724747 14.087662358547341
Hf 11.546684282337877 16.652418806324643 10.599389300860352
Hf 11.887159937349272 9.918692459840521 17.047653785552924
Hf 12.895686692770855 15.079928383570943 8.564065878120607
Hf 8.708383854596086 10.845785710609274 13.412694994086706
Hf 12.974712422189327 14.62031619113322 15.864074998533953
Hf 12.240094072734133 13.074008501215541 13.392167801026481
Hf 9.511190156898152 9.390568191960295 15.65351236814024
Hf 9.027210991829282 15.266975052629087 9.851658055203822
Hf 8.241132819097169 12.41368469656136 10.51831969329742
Hf 9.209441942431909 13.801087210090623 12.854290492148781
Hf 10.65659890266906 12.31173173186436 15.70441627019273
Hf 11.832748732112918 16.0923651498755 13.550679693092798
Hf 8.97999931371781 16.70057040995363 12.54350184941839
Hf 7.92936541241792 12.89340404119179 15.455280553254386
Hf 6.499527945612214 12.676034948195744 13.025177328005459
Hf 9.726328807739499 15.253971704502082 15.365696275401858
Hf 6.878107309331248 14.916520289009465 11.420110572775531
Hf 7.064365873230258 15.28371272508361 14.203840934701704
