52
Energy = -453.49085309 eV
Hf 14.61624883497566 12.531316063748122 18.03837222614505
Hf 13.5596076985465 13.535958032623691 8.429741432013065
Hf 8.327563967190434 12.591564453587717 15.144129795756049
Hf 7.8607559131151605 16.095192504289187 11.835933756405677
Hf 17.848069334004713 13.601856815368752 14.515952678982838
Hf 10.693812851032513 10.524435361330294 14.230229289625166
Hf 11.673765420451076 11.141843544276059 8.560309338861158
Hf 7.082394631742643 10.46672559028445 10.29850288772814
Hf 7.072873549493632 13.385971824334728 10.649803510958222
Hf 14.735656409731314 7.615416128101851 14.569603338419038
Hf 12.31968000003553 12.876603531518008 13.069955283676924
Hf 15.060439064273398 14.874885068643154 13.541047517615493
Hf 14.423490400535705 16.907158417669436 15.610452339838487
Hf 9.447463578075752 9.38313482156273 9.389140948807244
Hf 17.94564086861128 14.772107744095091 12.130838023425909
Hf 11.80090273362765 15.991342170063843 8.749562956262343
Hf 16.289987358018 13.876277210989581 10.090556007073886
Hf 13.167509506354362 14.754071901704773 16.804414533187277
Hf 10.848066035408936 13.752837368476133 7.321823232750977
Hf 12.437586805977316 8.673354604751488 16.040899130141955
Hf 16.799181700533346 10.055004186624476 14.379251918588155
Hf 14.148847184549004 17.528949522863144 12.880109581547938
Hf 12.08778885150506 15.729363542680542 14.043166808751687
Hf 13.412165060348887 15.14602649154075 11.152418063220919
Hf 16.117295276965542 16.623669485787676 11.23391306878574
Hf 8.989515644345095 15.289041708393723 9.212470278412589
Hf 12.240081219555865 11.310145980189557 16.865617237708783
Hf 8.762421720947515 12.131104893119423 8.495545071326855
Hf 16.946701952230235 16.74596894010184 14.146288578708784
Hf 16.935476585237204 11.928453424215185 16.551526535104035
Hf 11.128360107787318 13.559250666179524 10.127088867455079
Hf 8.726712116904341 15.557982311699515 14.871826589541206
Hf 10.755636703275915 16.589939737601014 11.315581893394002
Hf 11.835674670381568 7.72350395012526 13.61857974643537
Hf 13.589898340825066 11.91189020408804 10.802448601624324
Hf 6.894042949964977 11.293023236644194 12.94122919493523
Hf 11.659398332462843 9.55667185401848 11.34552065659555
Hf 14.965269883282378 9.844197971685137 16.66228623316598
Hf 16.16662571038616 9.327657159529863 11.687825803711329
Hf 13.735950108610698 9.973674484373179 13.552678274332195
Hf 9.43102578891836 11.551329118935083 11.447178071815323
Hf 15.847232719637104 12.217738130244168 12.60266241804121
Hf 9.690420281496356 14.115187628875251 12.832021199305299
Hf 18.188006700848835 11.909284245353069 11.463984563334687
Hf 13.85521698438628 7.430188032850507 11.79786777275252
Hf 16.107137266429305 11.242783049786834 9.414568487913252
Hf 8.792713130140351 8.970542951821534 12.212497226607004
Hf 10.886236391938802 13.498681152558735 15.515750549942567
Hf 6.74306044132806 14.102592165498717 13.421158485344758
Hf 16.12048821792851 14.756452732889969 16.6196589266761
Hf 14.377251455586967 12.503237467206091 15.240050860148484
Hf 14.076803251722465 9.262264340400824 9.73481451990285
