50
Energy = -434.05246807 eV
Hf 15.770838215671692 7.867028546900536 12.806240935777533
Hf 16.85700315507739 10.228810826928362 11.851480948273146
Hf 15.505072411178784 11.715931572125646 9.885138478239353
Hf 17.937084457235116 12.81849879384853 11.404860453871297
Hf 14.816512279594608 8.785608554617784 10.147356185869318
Hf 16.227107611518534 14.779123804926703 10.432730106110041
Hf 14.328425639472991 13.86171951069459 8.19425943637031
Hf 13.388370397369311 10.676536524973537 8.028472906069366
Hf 17.37566315936763 14.944545103844389 13.316382171895382
Hf 14.404774928226548 16.61602107471266 9.302279691465253
Hf 11.825478034327656 12.983661232306218 7.364175138699264
Hf 18.019151427320487 12.168380921022107 14.14137361232486
Hf 11.826287303908295 15.633634213267197 8.539001325500854
Hf 13.86490509859176 7.789492291091614 14.716973665133406
Hf 15.552180179735169 10.303954139817364 14.857485338790175
Hf 13.148052312689753 7.19130422114886 12.011947382025621
Hf 13.790226781329086 9.990781619577115 12.491275365063311
Hf 12.25551331636184 17.441666219449854 10.817845949563148
Hf 15.369459567657776 12.703687069658773 12.714276550922685
Hf 14.773793915840958 16.715966063966103 12.391971557086801
Hf 11.295818655072303 9.263704505162679 10.817602130999152
Hf 12.345781485030361 12.003962998570872 10.189982091411634
Hf 13.22647890288762 14.632095032762434 10.940247989426608
Hf 10.42098816176586 10.85706832822234 8.398890482096656
Hf 15.65925730582524 16.093781098939978 15.383165728963368
Hf 18.126313862966548 14.48079381274561 15.953361055484802
Hf 13.093445028714886 11.983617130392949 15.002003545423365
Hf 12.241247836144577 9.479938871896051 16.30733218765364
Hf 11.110723182506693 16.73335906207467 13.301524195040583
Hf 9.539894241964241 16.34818289154745 10.663419006493159
Hf 11.147205033289836 8.30338677487822 13.842708929903857
Hf 14.146276333854349 11.333182303973684 17.499040018194044
Hf 10.457990963075774 14.038808952963718 11.963098296746118
Hf 13.414138445347623 14.809736479628695 13.964172901992713
Hf 13.220527246611006 17.367821946388716 15.205573498940536
Hf 15.728429658552063 13.135480944902621 15.704198131807255
Hf 9.545015297813011 13.696710248420544 8.934734728832181
Hf 8.823118633564652 11.426092762224553 10.712120863859116
Hf 8.825428602420862 9.501840700547184 12.757944586298654
Hf 11.0268551523805 11.256129363060587 12.944309480130332
Hf 9.58323643241427 10.4160637146169 15.507636023665944
Hf 10.617617211212591 16.55079811915873 16.117074899939748
Hf 8.587310658939337 15.454160586795654 13.599892249818883
Hf 11.114082801633838 11.918352557368703 17.45375429191538
Hf 13.087342737668008 14.520659848534326 16.754563529001803
Hf 7.72144194138137 14.086124920867311 11.131927975062261
Hf 10.65053772889824 13.824794509285924 15.016005549713086
Hf 8.337955672466286 12.42418932112484 13.49980966755603
Hf 8.462287266488897 12.97862120759661 16.5264766528317
Hf 10.433365116842221 14.555449556147806 17.938703250861327
