54
Energy = -472.79855091 eV
Hf 12.820269802575666 14.093865972527944 17.61099847537122
Hf 10.547178331427162 11.707540474743615 17.232234330300827
Hf 13.478477722598855 11.430937616046979 16.586160853239367
Hf 15.700658313801409 13.335248997769977 16.32801466044538
Hf 12.1546162699645 9.111100928416151 17.283865493358313
Hf 14.135806050973528 15.665091141862263 15.490432981800671
Hf 16.911940402085335 15.382762190145696 14.66315418514701
Hf 9.094709316815623 13.878070866813918 15.78514293783495
Hf 8.050727192348218 11.132019695576382 15.29869802838012
Hf 9.381304596079511 8.993993178986905 16.71399465282262
Hf 16.152038899349918 10.596692657036245 15.416298330204096
Hf 11.27061976974809 16.27771535035221 15.66851245984432
Hf 11.948193913759589 13.494353266959543 14.987492896973793
Hf 11.17798250640884 10.197757420199594 14.782572864066971
Hf 15.666722978039415 17.432476323530377 13.164900696586477
Hf 17.354191014355305 12.730677944097105 13.749309703276284
Hf 7.220459054382448 13.42376230975824 13.647775593473845
Hf 13.800469547026662 9.050419533259896 14.446390577487133
Hf 15.093162780476764 14.672208206153583 12.30740845101337
Hf 13.133205533797584 18.188595403381356 14.478673580072702
Hf 17.631405693664192 15.397947441555823 11.792036152939874
Hf 8.847883495737655 8.55430243057501 13.888527104843964
Hf 11.225138595836283 7.352789819082817 15.351321684438657
Hf 9.742036332124318 12.321448741797823 13.126412681479351
Hf 7.472187760959605 10.892355985032234 12.267072575298934
Hf 9.335177158490998 15.441354816629131 13.377647374938448
Hf 14.380855942345374 12.18864196490878 13.910390036416384
Hf 11.721134290773772 7.846700221896122 12.663147147671884
Hf 12.391532431275715 15.719972191049559 12.96531434934483
Hf 10.698047818537772 18.008859553727675 13.242353959093377
Hf 16.008501365316494 10.263224001458395 12.397862668180887
Hf 15.56976538087223 16.939329477400097 10.390430991844257
Hf 12.486293990166905 10.580410926628366 12.177305663382311
Hf 14.228651272450694 12.36867807500001 10.883035977009051
Hf 17.16730455172363 12.477109586728952 10.91061125697155
Hf 14.117739332098232 8.355035218451542 10.963242652545809
Hf 8.506876370008928 14.078960352199527 10.979145819130144
Hf 10.522951598270538 16.405480475040342 10.788037334382812
Hf 9.824870084254691 9.460313149719045 11.304664613473003
Hf 13.170948342994897 18.114732762268932 11.565813486852159
Hf 11.47561778683727 13.462213786425862 11.083950316436137
Hf 11.522103998436291 7.420974031031725 9.579613878202878
Hf 13.13601722434189 15.546032897699892 9.676821965515648
Hf 15.30762696954751 10.541231385927283 9.141749330019472
Hf 15.818383728265855 14.316253642188151 9.366371833521193
Hf 12.178602515999513 10.239521790257227 9.18665238897156
Hf 9.490854609387146 11.799102616593798 9.646029663002809
Hf 14.017117125594057 8.162174144435074 8.148028459197873
Hf 10.465232065213321 14.330265628524069 8.575069809185738
Hf 9.459347261441717 9.188836021405189 8.448858341348528
Hf 12.946297657857347 12.9349193486735 8.235214437688686
Hf 11.601182394077458 8.513435088349844 6.817871585555718
Hf 13.551472757772174 10.54883889531574 6.643577600211883
Hf 10.706937669768347 11.345470691271222 6.908130559206586
