8
Energy = -59.92815005 eV
Hf 7.783789095107494 9.764288964568271 10.054183950470492
Hf 6.442555874003779 10.968339452623125 8.043778835113745
Hf 10.457660772605648 7.4108785328776206 8.708375862604676
Hf 10.487860613481235 7.410849797559714 6.010203053150504
Hf 7.972923074305821 7.035111874195041 9.814965622915626
Hf 8.448910930291527 6.0961987620907845 7.269792496638623
Hf 5.900494063080324 8.336498592073124 8.551858614923947
Hf 8.410867944301284 8.882896391189302 7.451903931359372
