 vasp.5.3.5 31Mar14 (build Feb 01 2018 12:10:03) gamma-only                     
  
 executed on             LinuxIFC date 2019.03.23  00:49:47
 running on   64 total cores
 distrk:  each k-point on   64 cores,    1 groups
 distr:  one band on NCORES_PER_BAND=  16 cores,    4 groups


--------------------------------------------------------------------------------------------------------


 INCAR:
 POTCAR:    PAW_PBE Ag 02Apr2005                  
 POTCAR:    PAW_PBE Ag 02Apr2005                  
   VRHFIN =Ag : s1 d10                                                          
   LEXCH  = PE                                                                  
   EATOM  =  1037.2675 eV,   76.2370 Ry                                         
                                                                                
   TITEL  = PAW_PBE Ag 02Apr2005                                                
   LULTRA =        F    use ultrasoft PP ?                                      
   IUNSCR =        1    unscreen: 0-lin 1-nonlin 2-no                           
   RPACOR =    2.000    partial core radius                                     
   POMASS =  107.868; ZVAL   =   11.000    mass and valenz                      
   RCORE  =    2.500    outmost cutoff radius                                   
   RWIGS  =    2.840; RWIGS  =    1.503    wigner-seitz radius (au A)           
   ENMAX  =  249.844; ENMIN  =  187.383 eV                                      
   ICORE  =        3    local potential                                         
   LCOR   =        T    correct aug charges                                     
   LPAW   =        T    paw PP                                                  
   EAUG   =  412.496                                                            
   DEXC   =    0.000                                                            
   RMAX   =    2.560    core radius for proj-oper                               
   RAUG   =    1.300    factor for augmentation sphere                          
   RDEP   =    2.576    radius for radial grids                                 
   RDEPT  =    2.072    core radius for aug-charge                              
                                                                                
   Atomic configuration                                                         
   12 entries                                                                   
     n  l   j            E        occ.                                          
     1  0  0.50    -25324.9161   2.0000                                         
     2  0  0.50     -3728.5341   2.0000                                         
     2  1  1.50     -3344.0404   6.0000                                         
     3  0  0.50      -683.5581   2.0000                                         
     3  1  1.50      -557.3225   6.0000                                         
     3  2  2.50      -358.3853  10.0000                                         
     4  0  0.50       -95.0341   2.0000                                         
     4  1  1.50       -58.5511   6.0000                                         
     4  2  2.50        -7.4440  10.0000                                         
     5  0  0.50        -4.4045   1.0000                                         
     5  1  0.50        -1.3606   0.0000                                         
     4  3  2.50        -1.3606   0.0000                                         
   Description                                                                  
     l       E           TYP  RCUT    TYP  RCUT                                 
     2     -7.4439781     23  2.400                                             
     2     -8.8045607     23  2.400                                             
     0     -4.4044681     23  2.400                                             
     0      1.9520038     23  2.400                                             
     1     -1.3605826     23  2.500                                             
     1     27.2116520     23  2.500                                             
     3     -4.0817478     23  2.400                                             
  local pseudopotential read in
  partial core-charges read in
  partial kinetic energy density read in
  atomic valenz-charges read in
  non local Contribution for L=           2  read in
    real space projection operators read in
  non local Contribution for L=           2  read in
    real space projection operators read in
  non local Contribution for L=           0  read in
    real space projection operators read in
  non local Contribution for L=           0  read in
    real space projection operators read in
  non local Contribution for L=           1  read in
    real space projection operators read in
  non local Contribution for L=           1  read in
    real space projection operators read in
    PAW grid and wavefunctions read in
 
   number of l-projection  operators is LMAX  =           6
   number of lm-projection operators is LMMAX =          18
 

 ----------------------------------------------------------------------------- 
|                                                                             |
|  ADVICE TO THIS USER RUNNING 'VASP/VAMP'   (HEAR YOUR MASTER'S VOICE ...):  |
|                                                                             |
|      You have a (more or less) 'large supercell' and for larger cells       |
|      it might be more efficient to use real space projection opertators     |
|      So try LREAL= Auto  in the INCAR   file.                               |
|      Mind: At the moment your POTCAR file does not contain real space       |
|       projectors, and has to be modified,  BUT if you                       |
|      want to do an extremely  accurate calculation you might also keep the  |
|      reciprocal projection scheme          (i.e. LREAL=.FALSE.)             |
|                                                                             |
 ----------------------------------------------------------------------------- 

  PAW_PBE Ag 02Apr2005                  :
 energy of atom  1       EATOM=-1037.2675
 kinetic energy error for atom=    0.0689 (will be added to EATOM!!)
 
 
 POSCAR: Al34, -106.31020529 <s> Ag </s>         
  positions in direct lattice
  No initial velocities read in
 exchange correlation table for  LEXCH =        8
   RHO(1)=    0.500       N(1)  =     2000
   RHO(2)=  100.500       N(2)  =     4000
 


--------------------------------------------------------------------------------------------------------


 ion  position               nearest neighbor table
   1  0.702  0.667  0.560-  10 2.66   2 2.67   3 2.92   6 3.28
   2  0.672  0.566  0.618-   4 2.65   1 2.67   9 2.70   3 2.76   6 2.78  12 3.13
   3  0.700  0.551  0.498-   5 2.76   2 2.76  13 2.82   1 2.92  10 2.95  12 3.27   4 3.28
   4  0.657  0.450  0.597-   2 2.65   7 2.69   5 2.75   9 2.82  12 2.89  11 2.97   3 3.28
   5  0.652  0.439  0.474-   8 2.73   4 2.75   3 2.76  13 2.81  16 2.90  14 2.99   7 3.03  12 3.09

   6  0.568  0.636  0.614-   2 2.78  10 2.89  27 2.91  15 2.92  26 2.94   9 2.96  12 3.02   1 3.28

   7  0.622  0.339  0.562-   4 2.69   8 2.72  11 2.77  14 2.84   5 3.03
   8  0.609  0.328  0.441-   7 2.72   5 2.73  19 2.73  14 2.79  16 2.85
   9  0.574  0.514  0.668-   2 2.70  15 2.71  11 2.78  12 2.80  17 2.81   4 2.82   6 2.96  27 3.24

  10  0.607  0.645  0.491-   1 2.66  25 2.76  26 2.79  13 2.81   6 2.89   3 2.95  12 3.15
  11  0.537  0.400  0.630-  17 2.68   7 2.77   9 2.78  14 2.85  21 2.86   4 2.97  12 3.35
  12  0.563  0.521  0.542-   9 2.80  23 2.88   4 2.89  13 2.91  26 2.91  14 2.94  21 3.02   6 3.02
                             5 3.09   2 3.13  10 3.15  27 3.20   3 3.27  11 3.35
  13  0.601  0.541  0.419-  16 2.75  24 2.77  25 2.79  10 2.81   5 2.81   3 2.82  12 2.91  23 2.92

  14  0.526  0.400  0.502-  21 2.69  20 2.76   8 2.79   7 2.84  11 2.85  19 2.86  12 2.94  16 2.96
                             5 2.99  23 3.01
  15  0.504  0.597  0.722-  27 2.66  18 2.70   9 2.71   6 2.92  17 3.11
  16  0.564  0.431  0.378-  22 2.73  24 2.73  13 2.75   8 2.85  19 2.85   5 2.90  14 2.96  23 3.06

  17  0.459  0.468  0.693-  11 2.68  18 2.76   9 2.81  21 2.84  27 2.94  15 3.11  29 3.19
  18  0.387  0.563  0.727-  29 2.64  15 2.70  17 2.76  27 2.85
  19  0.493  0.326  0.402-   8 2.73  20 2.76  22 2.76  16 2.85  14 2.86
  20  0.407  0.383  0.472-  28 2.69  14 2.76  19 2.76  21 2.83  22 2.92  31 2.96  23 3.30
  21  0.443  0.461  0.566-  14 2.69  27 2.80  28 2.81  20 2.83  17 2.84  11 2.86  29 2.98  23 3.00
                            12 3.02  33 3.10
  22  0.443  0.430  0.354-  32 2.70  16 2.73  19 2.76  23 2.83  20 2.92  31 2.94  24 2.96
  23  0.476  0.512  0.446-  31 2.83  22 2.83  26 2.85  12 2.88  13 2.92  24 2.93  21 3.00  34 3.00
                            14 3.01  16 3.06  33 3.20  25 3.22  20 3.30  32 3.33
  24  0.521  0.533  0.324-  16 2.73  13 2.77  32 2.77  25 2.86  23 2.93  30 2.95  22 2.96
  25  0.526  0.639  0.396-  30 2.68  26 2.75  10 2.76  13 2.79  24 2.86  34 2.87  23 3.22
  26  0.485  0.622  0.512-  27 2.64  25 2.75  10 2.79  33 2.84  34 2.85  23 2.85  12 2.91   6 2.94

  27  0.452  0.576  0.616-  26 2.64  15 2.66  33 2.78  21 2.80  18 2.85  29 2.88   6 2.91  17 2.94
                            12 3.20   9 3.24
  28  0.322  0.446  0.532-  20 2.69  29 2.69  31 2.70  21 2.81  33 2.97
  29  0.339  0.515  0.630-  18 2.64  28 2.69  33 2.76  27 2.88  21 2.98  17 3.19
  30  0.452  0.644  0.301-  25 2.68  32 2.71  34 2.87  24 2.95
  31  0.352  0.495  0.425-  32 2.68  28 2.70  33 2.78  23 2.83  22 2.94  20 2.96  34 2.99
  32  0.397  0.538  0.321-  31 2.68  22 2.70  30 2.71  24 2.77  34 2.79  23 3.33
  33  0.369  0.571  0.523-  34 2.70  29 2.76  27 2.78  31 2.78  26 2.84  28 2.97  21 3.10  23 3.20

  34  0.400  0.620  0.416-  33 2.70  32 2.79  26 2.85  30 2.87  25 2.87  31 2.99  23 3.00
 
  LATTYP: Found a simple cubic cell.
 ALAT       =    22.2107906468
  
  Lattice vectors:
  
 A1 = (  22.2107906468,   0.0000000000,   0.0000000000)
 A2 = (   0.0000000000,  22.2107906468,   0.0000000000)
 A3 = (   0.0000000000,   0.0000000000,  22.2107906468)


Analysis of symmetry for initial positions (statically):
=====================================================================
 Subroutine PRICEL returns:
 Original cell was already a primitive cell.
 

 Routine SETGRP: Setting up the symmetry group for a 
 simple cubic supercell.


 Subroutine GETGRP returns: Found  1 space group operations
 (whereof  1 operations were pure point group operations)
 out of a pool of 48 trial point group operations.


The static configuration has the point symmetry C_1 .


Analysis of symmetry for dynamics (positions and initial velocities):
=====================================================================
 Subroutine PRICEL returns:
 Original cell was already a primitive cell.
 

 Routine SETGRP: Setting up the symmetry group for a 
 simple cubic supercell.


 Subroutine GETGRP returns: Found  1 space group operations
 (whereof  1 operations were pure point group operations)
 out of a pool of 48 trial point group operations.


The dynamic configuration has the point symmetry C_1 .


Analysis of magnetic symmetry:
=====================================================================
 Subroutine PRICEL returns:
 Original cell was already a primitive cell.
 

 Subroutine MAGSYM returns: Found  1 space group operations
 (whereof  1 operations were pure point group operations)
 out of a pool of  1 trial space group operations
 (whereof  1 operations were pure point group operations)
 and found also     1 'primitive' translations


The magnetic configuration has the point symmetry C_1 .
 
 
 KPOINTS: Gamma-point only                        
  k-points in reciprocal lattice
Space group operators:
 irot       det(A)        alpha          n_x          n_y          n_z        tau_x        tau_y        tau_z
    1     1.000000     0.000000     1.000000     0.000000     0.000000     0.000000     0.000000     0.000000


--------------------------------------------------------------------------------------------------------




 Dimension of arrays:
   k-points           NKPTS =      1   k-points in BZ     NKDIM =      1   number of bands    NBANDS=    244
   number of dos      NEDOS =    301   number of ions     NIONS =     34
   non local maximal  LDIM  =      6   non local SUM 2l+1 LMDIM =     18
   total plane-waves  NPLWV = 729000
   max r-space proj   IRMAX =      1   max aug-charges    IRDMAX=   3470
   dimension x,y,z NGX =    90 NGY =   90 NGZ =   90
   dimension x,y,z NGXF=   180 NGYF=  180 NGZF=  180
   support grid    NGXF=   180 NGYF=  180 NGZF=  180
   ions per type =              34
 NGX,Y,Z   is equivalent  to a cutoff of   6.74,  6.74,  6.74 a.u.
 NGXF,Y,Z  is equivalent  to a cutoff of  13.47, 13.47, 13.47 a.u.


 I would recommend the setting:
   dimension x,y,z NGX =    86 NGY =   86 NGZ =   86
 SYSTEM =  unknown system                          
 POSCAR =  Al34, -106.31020529 <s> Ag </s>         

 Startparameter for this run:
   NWRITE =      2    write-flag & timer
   PREC   = normal    normal or accurate (medium, high low for compatibility)
   ISTART =      0    job   : 0-new  1-cont  2-samecut
   ICHARG =      2    charge: 1-file 2-atom 10-const
   ISPIN  =      2    spin polarized calculation?
   LNONCOLLINEAR =      F non collinear calculations
   LSORBIT =      F    spin-orbit coupling
   INIWAV =      1    electr: 0-lowe 1-rand  2-diag
   LASPH  =      F    aspherical Exc in radial PAW
   METAGGA=      F    non-selfconsistent MetaGGA calc.

 Electronic Relaxation 1
   ENCUT  =  249.8 eV  18.36 Ry    4.29 a.u.  28.63 28.63 28.63*2*pi/ulx,y,z
   ENINI  =  249.8     initial cutoff
   ENAUG  =  412.5 eV  augmentation charge cutoff
   NELM   =     60;   NELMIN=  2; NELMDL= -5     # of ELM steps 
   EDIFF  = 0.1E-03   stopping-criterion for ELM
   LREAL  =      F    real-space projection
   NLSPLINE    = F    spline interpolate recip. space projectors
   LCOMPAT=      F    compatible to vasp.4.4
   GGA_COMPAT  = T    GGA compatible to vasp.4.4-vasp.4.6
   LMAXPAW     = -100 max onsite density
   LMAXMIX     =    2 max onsite mixed and CHGCAR
   VOSKOWN=      0    Vosko Wilk Nusair interpolation
   ROPT   =    0.00000
 Ionic relaxation
   EDIFFG = 0.1E-02   stopping-criterion for IOM
   NSW    =   1000    number of steps for IOM
   NBLOCK =      1;   KBLOCK =   1000    inner block; outer block 
   IBRION =      2    ionic relax: 0-MD 1-quasi-New 2-CG
   NFREE  =      1    steps in history (QN), initial steepest desc. (CG)
   ISIF   =      2    stress and relaxation
   IWAVPR =     11    prediction:  0-non 1-charg 2-wave 3-comb
   ISYM   =      2    0-nonsym 1-usesym 2-fastsym
   LCORR  =      T    Harris-Foulkes like correction to forces

   POTIM  = 0.1000    time-step for ionic-motion
   TEIN   =    0.0    initial temperature
   TEBEG  =    0.0;   TEEND  =   0.0 temperature during run
   SMASS  =  -3.00    Nose mass-parameter (am)
   estimated Nose-frequenzy (Omega)   =  0.10E-29 period in steps =****** mass=  -0.113E-25a.u.
   SCALEE = 1.0000    scale energy and forces
   NPACO  =    256;   APACO  = 16.0  distance and # of slots for P.C.
   PSTRESS=    0.0 pullay stress

  Mass of Ions in am
   POMASS = 107.87
  Ionic Valenz
   ZVAL   =  11.00
  Atomic Wigner-Seitz radii
   RWIGS  =  -1.00
  virtual crystal weights 
   VCA    =   1.00
   NELECT =     374.0000    total number of electrons
   NUPDOWN=      -1.0000    fix difference up-down

 DOS related values:
   EMIN   =  10.00;   EMAX   =-10.00  energy-range for DOS
   EFERMI =   0.00
   ISMEAR =     0;   SIGMA  =   0.00  broadening in eV -4-tet -1-fermi 0-gaus

 Electronic relaxation 2 (details)
   IALGO  =     38    algorithm
   LDIAG  =      T    sub-space diagonalisation (order eigenvalues)
   LSUBROT=      F    optimize rotation matrix (better conditioning)
   TURBO    =      0    0=normal 1=particle mesh
   IRESTART =      0    0=no restart 2=restart with 2 vectors
   NREBOOT  =      0    no. of reboots
   NMIN     =      0    reboot dimension
   EREF     =   0.00    reference energy to select bands
   IMIX   =      4    mixing-type and parameters
     AMIX     =   0.40;   BMIX     =  1.00
     AMIX_MAG =   1.60;   BMIX_MAG =  1.00
     AMIN     =   0.10
     WC   =   100.;   INIMIX=   1;  MIXPRE=   1;  MAXMIX= -45

 Intra band minimization:
   WEIMIN = 0.0010     energy-eigenvalue tresh-hold
   EBREAK =  0.10E-06  absolut break condition
   DEPER  =   0.30     relativ break condition  

   TIME   =   0.40     timestep for ELM

  volume/ion in A,a.u.               =     322.26      2174.75
  Fermi-wavevector in a.u.,A,eV,Ry     =   0.531049  1.003537  3.837022  0.282013
  Thomas-Fermi vector in A             =   1.553893
 
 Write flags
   LWAVE  =      F    write WAVECAR
   LCHARG =      F    write CHGCAR
   LVTOT  =      F    write LOCPOT, total local potential
   LVHAR  =      F    write LOCPOT, Hartree potential only
   LELF   =      F    write electronic localiz. function (ELF)
   LORBIT =      0    0 simple, 1 ext, 2 COOP (PROOUT)


 Dipole corrections
   LMONO  =      F    monopole corrections only (constant potential shift)
   LDIPOL =      F    correct potential (dipole corrections)
   IDIPOL =      0    1-x, 2-y, 3-z, 4-all directions 
   EPSILON=  1.0000000 bulk dielectric constant

 Exchange correlation treatment:
   GGA     =    PE    GGA type
   LEXCH   =     8    internal setting for exchange type
   VOSKOWN=      0    Vosko Wilk Nusair interpolation
   LHFCALC =     F    Hartree Fock is set to
   LHFONE  =     F    Hartree Fock one center treatment
   AEXX    =    0.0000 exact exchange contribution

 Linear response parameters
   LEPSILON=     F    determine dielectric tensor
   LRPA    =     F    only Hartree local field effects (RPA)
   LNABLA  =     F    use nabla operator in PAW spheres
   LVEL    =     F    velocity operator in full k-point grid
   LINTERFAST=   F  fast interpolation
   KINTER  =     0    interpolate to denser k-point grid
   CSHIFT  =0.1000    complex shift for real part using Kramers Kronig
   OMEGAMAX=  -1.0    maximum frequency
   DEG_THRESHOLD= 0.2000000E-02 threshold for treating states as degnerate
   RTIME   =    0.100 relaxation time in fs

 Orbital magnetization related:
   ORBITALMAG=     F  switch on orbital magnetization
   LCHIMAG   =     F  perturbation theory with respect to B field
   DQ        =  0.001000  dq finite difference perturbation B field



--------------------------------------------------------------------------------------------------------


 conjugate gradient relaxation of ions
 charge density and potential will be updated during run
 spin polarized calculation
 Variant of blocked Davidson
 Davidson routine will perform the subspace rotation
 perform sub-space diagonalisation
    after iterative eigenvector-optimisation
 modified Broyden-mixing scheme, WC =      100.0
 initial mixing is a Kerker type mixing with AMIX =  0.4000 and BMIX =      1.0000
 Hartree-type preconditioning will be used
 using additional bands           57
 reciprocal scheme for non local part
 use partial core corrections
 calculate Harris-corrections to forces 
   (improved forces if not selfconsistent)
 use gradient corrections 
 use of overlap-Matrix (Vanderbilt PP)
 Gauss-broadening in eV      SIGMA  =   0.00


--------------------------------------------------------------------------------------------------------


  energy-cutoff  :      249.84
  volume of cell :    10957.01
      direct lattice vectors                 reciprocal lattice vectors
    22.210790647  0.000000000  0.000000000     0.045023161  0.000000000  0.000000000
     0.000000000 22.210790647  0.000000000     0.000000000  0.045023161  0.000000000
     0.000000000  0.000000000 22.210790647     0.000000000  0.000000000  0.045023161

  length of vectors
    22.210790647 22.210790647 22.210790647     0.045023161  0.045023161  0.045023161


 
 k-points in units of 2pi/SCALE and weight: Gamma-point only                        
   0.00000000  0.00000000  0.00000000       1.000
 
 k-points in reciprocal lattice and weights: Gamma-point only                        
   0.00000000  0.00000000  0.00000000       1.000
 
 position of ions in fractional coordinates (direct lattice) 
   0.70182140  0.66692220  0.56002016
   0.67213560  0.56627498  0.61829266
   0.69985671  0.55067062  0.49822726
   0.65695327  0.44967976  0.59682833
   0.65190048  0.43878867  0.47369530
   0.56819342  0.63608308  0.61429565
   0.62175771  0.33920389  0.56191723
   0.60929478  0.32847375  0.44060288
   0.57400019  0.51413850  0.66777874
   0.60688949  0.64509631  0.49059954
   0.53730782  0.40048493  0.63007025
   0.56256318  0.52076469  0.54233461
   0.60149300  0.54124207  0.41883567
   0.52608802  0.39988460  0.50216396
   0.50381159  0.59739160  0.72238920
   0.56367794  0.43079015  0.37789954
   0.45902627  0.46790226  0.69275181
   0.38739504  0.56333341  0.72663426
   0.49257256  0.32649657  0.40194825
   0.40696174  0.38325526  0.47178841
   0.44312523  0.46061946  0.56606244
   0.44286938  0.43003633  0.35442290
   0.47608674  0.51245787  0.44599333
   0.52147165  0.53301710  0.32380056
   0.52604909  0.63925287  0.39612802
   0.48520131  0.62218028  0.51196009
   0.45204535  0.57575726  0.61636117
   0.32212563  0.44566870  0.53162218
   0.33853007  0.51496400  0.62984962
   0.45230251  0.64433130  0.30098166
   0.35157538  0.49503501  0.42464663
   0.39679328  0.53778744  0.32140873
   0.36891988  0.57062929  0.52293354
   0.39986888  0.62020332  0.41641238
 
 position of ions in cartesian coordinates  (Angst):
  15.58800808 14.81286931 12.43849058
  14.92866314 12.57741500 13.73276894
  15.54437089 12.23082996 11.06602133
  14.59145161  9.98774303 13.25602916
  14.47922513  9.74584335 10.52114713
  12.62002516 14.12790821 13.64399203
  13.80973033  7.53398652 12.48062596
  13.53291884  7.29566169  9.78613832
  12.74899815 11.41942264 14.83189379
  13.47949534 14.32809913 10.89660357
  11.93403149  8.89508703 13.99435852
  12.49497293 11.56659541 12.04568041
  13.35963501 12.02141428  9.30267148
  11.68483091  8.88175321 11.15345860
  11.19005366 13.26853986 16.04483533
  12.51973267  9.56818988  8.39344749
  10.19533648 10.39247918 15.38656532
   8.60435008 12.51208036 16.13912141
  10.94042599  7.25174705  8.92758848
   9.03894202  8.51240235 10.47879355
   9.84216175 10.23072235 12.57269437
   9.83647908  9.55144679  7.87201283
  10.57426282 11.38209440  9.90586442
  11.58229770 11.83873130  7.19186648
  11.68396622 14.19831177  8.79831648
  10.77670481 13.81911603 11.37103835
  10.04028473 12.78802403 13.68986895
   7.15466495  9.89865417 11.80774901
   7.51902042 11.43775750 13.98945798
  10.04599636 14.31110772  6.68504073
   7.80876706 10.99511895  9.43173746
   8.81309255 11.94468416  7.13874208
   8.19400231 12.67412773 11.61476734
   8.88140399 13.77520616  9.24884830
 


--------------------------------------------------------------------------------------------------------


 use parallel FFT for wavefunctions z direction half grid
 k-point  1 :   0.0000 0.0000 0.0000  plane waves:   49145

 maximum and minimum number of plane-waves per node :      3081     3068

 maximum number of plane-waves:     49145
 maximum index in each direction: 
   IXMAX=   28   IYMAX=   28   IZMAX=   28
   IXMIN=  -28   IYMIN=  -28   IZMIN=    0

 WARNING: aliasing errors must be expected set NGX to 114 to avoid them
 WARNING: aliasing errors must be expected set NGY to 114 to avoid them
 WARNING: aliasing errors must be expected set NGZ to 114 to avoid them
 aliasing errors are usually negligible using standard VASP settings
 and one can safely disregard these warnings

 parallel 3D FFT for wavefunctions:
    minimum data exchange during FFTs selected (reduces bandwidth)
 parallel 3D FFT for charge:
    minimum data exchange during FFTs selected (reduces bandwidth)


 total amount of memory used by VASP on root node    53537. kBytes
========================================================================

   base      :      30000. kBytes
   nonl-proj :       2121. kBytes
   fftplans  :       4332. kBytes
   grid      :      10964. kBytes
   one-center:         46. kBytes
   wavefun   :       6074. kBytes
 
     INWAV:  cpu time    0.00: real time    0.00
 Broyden mixing: mesh for mixing (old mesh)
   NGX = 57   NGY = 57   NGZ = 57
  (NGX  =180   NGY  =180   NGZ  =180)
  gives a total of 185193 points

 initial charge density was supplied:
 charge density of overlapping atoms calculated
 number of electron     374.0000000 magnetization      34.0000000
 keeping initial charge density in first step


--------------------------------------------------------------------------------------------------------


 Maximum index for augmentation-charges          261 (set IRDMAX)


--------------------------------------------------------------------------------------------------------


 First call to EWALD:  gamma=   0.080
 Maximum number of real-space cells 3x 3x 3
 Maximum number of reciprocal cells 3x 3x 3

 FEWALD executed in parallel
    FEWALD:  cpu time    0.00: real time    0.00


----------------------------------------- Iteration    1(   1)  ---------------------------------------


    POTLOK:  cpu time    0.22: real time    0.22
    SETDIJ:  cpu time    0.01: real time    0.01
     EDDAV:  cpu time    3.20: real time    3.21
       DOS:  cpu time    0.00: real time    0.00
    --------------------------------------------
      LOOP:  cpu time    3.43: real time    3.47

 eigenvalue-minimisations  :  1008
 total energy-change (2. order) : 0.3176422E+04  (-0.7219893E+04)
 number of electron     374.0000000 magnetization      34.0000000
 augmentation part      374.0000000 magnetization      34.0000000

 Free energy of the ion-electron system (eV)
  ---------------------------------------------------
  alpha Z        PSCENC =        89.73873829
  Ewald energy   TEWEN  =     81247.23662836
  -Hartree energ DENC   =   -115089.98510941
  -exchange      EXHF   =         0.00000000
  -V(xc)+E(xc)   XCENC  =      -371.49726070
  PAW double counting   =     34114.65405437   -32546.99670188
  entropy T*S    EENTRO =        -0.00000000
  eigenvalues    EBANDS =       468.51846619
  atomic energy  EATOM  =     35264.75342294
  ---------------------------------------------------
  free energy    TOTEN  =      3176.42223815 eV

  energy without entropy =     3176.42223815  energy(sigma->0) =     3176.42223815


--------------------------------------------------------------------------------------------------------




----------------------------------------- Iteration    1(   2)  ---------------------------------------


     EDDAV:  cpu time    4.76: real time    4.76
       DOS:  cpu time    0.00: real time    0.00
    --------------------------------------------
      LOOP:  cpu time    4.76: real time    4.77

 eigenvalue-minimisations  :  1632
 total energy-change (2. order) :-0.2552332E+04  (-0.2286708E+04)
 number of electron     374.0000000 magnetization      34.0000000
 augmentation part      374.0000000 magnetization      34.0000000

 Free energy of the ion-electron system (eV)
  ---------------------------------------------------
  alpha Z        PSCENC =        89.73873829
  Ewald energy   TEWEN  =     81247.23662836
  -Hartree energ DENC   =   -115089.98510941
  -exchange      EXHF   =         0.00000000
  -V(xc)+E(xc)   XCENC  =      -371.49726070
  PAW double counting   =     34114.65405437   -32546.99670188
  entropy T*S    EENTRO =         0.00000000
  eigenvalues    EBANDS =     -2083.81338545
  atomic energy  EATOM  =     35264.75342294
  ---------------------------------------------------
  free energy    TOTEN  =       624.09038651 eV

  energy without entropy =      624.09038651  energy(sigma->0) =      624.09038651


--------------------------------------------------------------------------------------------------------




----------------------------------------- Iteration    1(   3)  ---------------------------------------


     EDDAV:  cpu time    3.89: real time    3.89
       DOS:  cpu time    0.00: real time    0.00
    --------------------------------------------
      LOOP:  cpu time    3.89: real time    3.90

 eigenvalue-minimisations  :  1264
 total energy-change (2. order) :-0.6657167E+03  (-0.6094254E+03)
 number of electron     374.0000000 magnetization      34.0000000
 augmentation part      374.0000000 magnetization      34.0000000

 Free energy of the ion-electron system (eV)
  ---------------------------------------------------
  alpha Z        PSCENC =        89.73873829
  Ewald energy   TEWEN  =     81247.23662836
  -Hartree energ DENC   =   -115089.98510941
  -exchange      EXHF   =         0.00000000
  -V(xc)+E(xc)   XCENC  =      -371.49726070
  PAW double counting   =     34114.65405437   -32546.99670188
  entropy T*S    EENTRO =         0.00000000
  eigenvalues    EBANDS =     -2749.53010231
  atomic energy  EATOM  =     35264.75342294
  ---------------------------------------------------
  free energy    TOTEN  =       -41.62633034 eV

  energy without entropy =      -41.62633034  energy(sigma->0) =      -41.62633034


--------------------------------------------------------------------------------------------------------




----------------------------------------- Iteration    1(   4)  ---------------------------------------


     EDDAV:  cpu time    3.36: real time    3.36
       DOS:  cpu time    0.00: real time    0.00
    --------------------------------------------
      LOOP:  cpu time    3.36: real time    3.37

 eigenvalue-minimisations  :  1056
 total energy-change (2. order) :-0.2960970E+02  (-0.2936079E+02)
 number of electron     374.0000000 magnetization      34.0000000
 augmentation part      374.0000000 magnetization      34.0000000

 Free energy of the ion-electron system (eV)
  ---------------------------------------------------
  alpha Z        PSCENC =        89.73873829
  Ewald energy   TEWEN  =     81247.23662836
  -Hartree energ DENC   =   -115089.98510941
  -exchange      EXHF   =         0.00000000
  -V(xc)+E(xc)   XCENC  =      -371.49726070
  PAW double counting   =     34114.65405437   -32546.99670188
  entropy T*S    EENTRO =         0.00000000
  eigenvalues    EBANDS =     -2779.13980268
  atomic energy  EATOM  =     35264.75342294
  ---------------------------------------------------
  free energy    TOTEN  =       -71.23603071 eV

  energy without entropy =      -71.23603071  energy(sigma->0) =      -71.23603071


--------------------------------------------------------------------------------------------------------




----------------------------------------- Iteration    1(   5)  ---------------------------------------


     EDDAV:  cpu time    3.53: real time    3.53
       DOS:  cpu time    0.00: real time    0.00
    CHARGE:  cpu time    0.10: real time    0.10
    MIXING:  cpu time    0.00: real time    0.00
    --------------------------------------------
      LOOP:  cpu time    3.64: real time    4.17

 eigenvalue-minimisations  :  1120
 total energy-change (2. order) :-0.4285911E+00  (-0.4280045E+00)
 number of electron     374.0000196 magnetization      30.2062614
 augmentation part      175.4908869 magnetization      29.0212879

 Broyden mixing:
  rms(total) = 0.33706E+01    rms(broyden)= 0.33700E+01
  rms(prec ) = 0.34252E+01
  weight for this iteration     100.00

 Free energy of the ion-electron system (eV)
  ---------------------------------------------------
  alpha Z        PSCENC =        89.73873829
  Ewald energy   TEWEN  =     81247.23662836
  -Hartree energ DENC   =   -115089.98510941
  -exchange      EXHF   =         0.00000000
  -V(xc)+E(xc)   XCENC  =      -371.49726070
  PAW double counting   =     34114.65405437   -32546.99670188
  entropy T*S    EENTRO =         0.00000000
  eigenvalues    EBANDS =     -2779.56839379
  atomic energy  EATOM  =     35264.75342294
  ---------------------------------------------------
  free energy    TOTEN  =       -71.66462183 eV

  energy without entropy =      -71.66462183  energy(sigma->0) =      -71.66462183


--------------------------------------------------------------------------------------------------------




----------------------------------------- Iteration    1(   6)  ---------------------------------------


    POTLOK:  cpu time    0.21: real time    0.21
    SETDIJ:  cpu time    0.01: real time    0.01
     EDDAV:  cpu time    3.24: real time    3.25
       DOS:  cpu time    0.00: real time    0.00
    CHARGE:  cpu time    0.10: real time    0.10
    MIXING:  cpu time    0.00: real time    0.00
    --------------------------------------------
      LOOP:  cpu time    3.57: real time    3.58

 eigenvalue-minimisations  :   988
 total energy-change (2. order) : 0.4411647E+02  (-0.1346049E+02)
 number of electron     374.0000201 magnetization      27.5106951
 augmentation part      179.6112871 magnetization      18.9693684

 Broyden mixing:
  rms(total) = 0.18115E+01    rms(broyden)= 0.18114E+01
  rms(prec ) = 0.18351E+01
  weight for this iteration     100.00

 eigenvalues of (default mixing * dielectric matrix)
  average eigenvalue GAMMA=   0.8556
  0.8556

 Free energy of the ion-electron system (eV)
  ---------------------------------------------------
  alpha Z        PSCENC =        89.73873829
  Ewald energy   TEWEN  =     81247.23662836
  -Hartree energ DENC   =   -114947.28756669
  -exchange      EXHF   =         0.00000000
  -V(xc)+E(xc)   XCENC  =      -351.40164083
  PAW double counting   =     35297.57558214   -33755.85458531
  entropy T*S    EENTRO =        -0.00000000
  eigenvalues    EBANDS =     -2872.30872769
  atomic energy  EATOM  =     35264.75342294
  ---------------------------------------------------
  free energy    TOTEN  =       -27.54814879 eV

  energy without entropy =      -27.54814879  energy(sigma->0) =      -27.54814879


--------------------------------------------------------------------------------------------------------




----------------------------------------- Iteration    1(   7)  ---------------------------------------


    POTLOK:  cpu time    0.22: real time    0.22
    SETDIJ:  cpu time    0.00: real time    0.01
     EDDAV:  cpu time    3.28: real time    3.28
       DOS:  cpu time    0.00: real time    0.00
    CHARGE:  cpu time    0.10: real time    0.10
    MIXING:  cpu time    0.00: real time    0.00
    --------------------------------------------
      LOOP:  cpu time    3.62: real time    3.62

 eigenvalue-minimisations  :  1032
 total energy-change (2. order) : 0.9637381E+01  (-0.8576155E+00)
 number of electron     374.0000201 magnetization      23.3643298
 augmentation part      179.6013544 magnetization      15.1455723

 Broyden mixing:
  rms(total) = 0.11109E+01    rms(broyden)= 0.11109E+01
  rms(prec ) = 0.11230E+01
  weight for this iteration     100.00

 eigenvalues of (default mixing * dielectric matrix)
  average eigenvalue GAMMA=   0.9948
  0.7537  1.2360

 Free energy of the ion-electron system (eV)
  ---------------------------------------------------
  alpha Z        PSCENC =        89.73873829
  Ewald energy   TEWEN  =     81247.23662836
  -Hartree energ DENC   =   -115029.69482488
  -exchange      EXHF   =         0.00000000
  -V(xc)+E(xc)   XCENC  =      -343.36250598
  PAW double counting   =     36013.78043702   -34488.78696554
  entropy T*S    EENTRO =         0.00000000
  eigenvalues    EBANDS =     -2771.57569785
  atomic energy  EATOM  =     35264.75342294
  ---------------------------------------------------
  free energy    TOTEN  =       -17.91076763 eV

  energy without entropy =      -17.91076763  energy(sigma->0) =      -17.91076763


--------------------------------------------------------------------------------------------------------




----------------------------------------- Iteration    1(   8)  ---------------------------------------


    POTLOK:  cpu time    0.23: real time    0.23
    SETDIJ:  cpu time    0.02: real time    0.02
     EDDAV:  cpu time    3.39: real time    3.39
       DOS:  cpu time    0.00: real time    0.00
    CHARGE:  cpu time    0.10: real time    0.10
    MIXING:  cpu time    0.00: real time    0.00
    --------------------------------------------
      LOOP:  cpu time    3.75: real time    3.76

 eigenvalue-minimisations  :  1036
 total energy-change (2. order) :-0.1617242E+01  (-0.2083429E+00)
 number of electron     374.0000201 magnetization      20.3837076
 augmentation part      179.3822040 magnetization      12.4067434

 Broyden mixing:
  rms(total) = 0.61116E+00    rms(broyden)= 0.61115E+00
  rms(prec ) = 0.61486E+00
  weight for this iteration     100.00

 eigenvalues of (default mixing * dielectric matrix)
  average eigenvalue GAMMA=   1.2617
  2.2610  0.9090  0.6149

 Free energy of the ion-electron system (eV)
  ---------------------------------------------------
  alpha Z        PSCENC =        89.73873829
  Ewald energy   TEWEN  =     81247.23662836
  -Hartree energ DENC   =   -115126.33362914
  -exchange      EXHF   =         0.00000000
  -V(xc)+E(xc)   XCENC  =      -344.19862929
  PAW double counting   =     36845.21495561   -35337.71210899
  entropy T*S    EENTRO =         0.00000000
  eigenvalues    EBANDS =     -2658.22738746
  atomic energy  EATOM  =     35264.75342294
  ---------------------------------------------------
  free energy    TOTEN  =       -19.52800968 eV

  energy without entropy =      -19.52800968  energy(sigma->0) =      -19.52800968


--------------------------------------------------------------------------------------------------------




----------------------------------------- Iteration    1(   9)  ---------------------------------------


    POTLOK:  cpu time    0.22: real time    0.22
    SETDIJ:  cpu time    0.00: real time    0.01
     EDDAV:  cpu time    3.40: real time    3.40
       DOS:  cpu time    0.00: real time    0.00
    CHARGE:  cpu time    0.10: real time    0.10
    MIXING:  cpu time    0.00: real time    0.00
    --------------------------------------------
      LOOP:  cpu time    3.74: real time    3.74

 eigenvalue-minimisations  :  1040
 total energy-change (2. order) :-0.5009179E+01  (-0.1170834E+00)
 number of electron     374.0000201 magnetization      17.2897874
 augmentation part      179.3043066 magnetization       9.5542589

 Broyden mixing:
  rms(total) = 0.37669E+00    rms(broyden)= 0.37668E+00
  rms(prec ) = 0.38028E+00
  weight for this iteration     100.00

 eigenvalues of (default mixing * dielectric matrix)
  average eigenvalue GAMMA=   1.2523
  2.2612  0.6159  0.8187  1.3132

 Free energy of the ion-electron system (eV)
  ---------------------------------------------------
  alpha Z        PSCENC =        89.73873829
  Ewald energy   TEWEN  =     81247.23662836
  -Hartree energ DENC   =   -115162.16694647
  -exchange      EXHF   =         0.00000000
  -V(xc)+E(xc)   XCENC  =      -347.62485311
  PAW double counting   =     37176.52220177   -35675.72151771
  entropy T*S    EENTRO =         0.00000000
  eigenvalues    EBANDS =     -2617.27486266
  atomic energy  EATOM  =     35264.75342294
  ---------------------------------------------------
  free energy    TOTEN  =       -24.53718858 eV

  energy without entropy =      -24.53718858  energy(sigma->0) =      -24.53718858


--------------------------------------------------------------------------------------------------------




----------------------------------------- Iteration    1(  10)  ---------------------------------------


    POTLOK:  cpu time    0.21: real time    0.21
    SETDIJ:  cpu time    0.02: real time    0.02
     EDDAV:  cpu time    3.22: real time    3.22
       DOS:  cpu time    0.00: real time    0.00
    CHARGE:  cpu time    0.10: real time    0.10
    MIXING:  cpu time    0.00: real time    0.01
    --------------------------------------------
      LOOP:  cpu time    3.56: real time    3.89

 eigenvalue-minimisations  :  1000
 total energy-change (2. order) :-0.1158705E+02  (-0.3785233E+00)
 number of electron     374.0000200 magnetization      14.5413121
 augmentation part      179.3303673 magnetization       9.2131809

 Broyden mixing:
  rms(total) = 0.33492E+00    rms(broyden)= 0.33483E+00
  rms(prec ) = 0.34205E+00
  weight for this iteration     100.00

 eigenvalues of (default mixing * dielectric matrix)
  average eigenvalue GAMMA=   1.2090
  2.4367  1.5420  0.8352  0.6156  0.6156

 Free energy of the ion-electron system (eV)
  ---------------------------------------------------
  alpha Z        PSCENC =        89.73873829
  Ewald energy   TEWEN  =     81247.23662836
  -Hartree energ DENC   =   -115161.98775901
  -exchange      EXHF   =         0.00000000
  -V(xc)+E(xc)   XCENC  =      -356.14303866
  PAW double counting   =     37176.59013118   -35675.86291094
  entropy T*S    EENTRO =         0.00000000
  eigenvalues    EBANDS =     -2620.44944698
  atomic energy  EATOM  =     35264.75342294
  ---------------------------------------------------
  free energy    TOTEN  =       -36.12423481 eV

  energy without entropy =      -36.12423481  energy(sigma->0) =      -36.12423481


--------------------------------------------------------------------------------------------------------




----------------------------------------- Iteration    1(  11)  ---------------------------------------


    POTLOK:  cpu time    0.27: real time    0.27
    SETDIJ:  cpu time    0.01: real time    0.01
     EDDAV:  cpu time    3.34: real time    3.34
       DOS:  cpu time    0.00: real time    0.00
    CHARGE:  cpu time    0.10: real time    0.10
    MIXING:  cpu time    0.00: real time    0.01
    --------------------------------------------
      LOOP:  cpu time    3.73: real time    3.73

 eigenvalue-minimisations  :  1032
 total energy-change (2. order) :-0.6344527E+01  (-0.2138367E+00)
 number of electron     374.0000200 magnetization      10.8503202
 augmentation part      179.2650133 magnetization       5.8601866

 Broyden mixing:
  rms(total) = 0.25285E+00    rms(broyden)= 0.25284E+00
  rms(prec ) = 0.25569E+00
  weight for this iteration     100.00

 eigenvalues of (default mixing * dielectric matrix)
  average eigenvalue GAMMA=   1.3831
  3.1430  2.0465  1.0151  0.9384  0.6386  0.5170

 Free energy of the ion-electron system (eV)
  ---------------------------------------------------
  alpha Z        PSCENC =        89.73873829
  Ewald energy   TEWEN  =     81247.23662836
  -Hartree energ DENC   =   -115173.61360036
  -exchange      EXHF   =         0.00000000
  -V(xc)+E(xc)   XCENC  =      -360.55943113
  PAW double counting   =     37207.96706322   -35708.04736315
  entropy T*S    EENTRO =         0.00000000
  eigenvalues    EBANDS =     -2609.94422038
  atomic energy  EATOM  =     35264.75342294
  ---------------------------------------------------
  free energy    TOTEN  =       -42.46876221 eV

  energy without entropy =      -42.46876221  energy(sigma->0) =      -42.46876221


--------------------------------------------------------------------------------------------------------




----------------------------------------- Iteration    1(  12)  ---------------------------------------


    POTLOK:  cpu time    0.21: real time    0.21
    SETDIJ:  cpu time    0.01: real time    0.01
     EDDAV:  cpu time    3.22: real time    3.22
       DOS:  cpu time    0.00: real time    0.00
    CHARGE:  cpu time    0.14: real time    0.14
    MIXING:  cpu time    0.00: real time    0.01
    --------------------------------------------
      LOOP:  cpu time    3.58: real time    3.59

 eigenvalue-minimisations  :   992
 total energy-change (2. order) :-0.1100219E+02  (-0.5312130E+00)
 number of electron     374.0000201 magnetization       8.8754069
 augmentation part      179.2379914 magnetization       6.2296025

 Broyden mixing:
  rms(total) = 0.22459E+00    rms(broyden)= 0.22447E+00
  rms(prec ) = 0.23397E+00
  weight for this iteration     100.00

 eigenvalues of (default mixing * dielectric matrix)
  average eigenvalue GAMMA=   1.3533
  3.6974  2.1292  1.0262  0.9420  0.6233  0.5276  0.5276

 Free energy of the ion-electron system (eV)
  ---------------------------------------------------
  alpha Z        PSCENC =        89.73873829
  Ewald energy   TEWEN  =     81247.23662836
  -Hartree energ DENC   =   -115174.99166737
  -exchange      EXHF   =         0.00000000
  -V(xc)+E(xc)   XCENC  =      -368.69137003
  PAW double counting   =     37149.98425674   -35649.56869872
  entropy T*S    EENTRO =        -0.00000000
  eigenvalues    EBANDS =     -2611.93226086
  atomic energy  EATOM  =     35264.75342294
  ---------------------------------------------------
  free energy    TOTEN  =       -53.47095065 eV

  energy without entropy =      -53.47095065  energy(sigma->0) =      -53.47095065


--------------------------------------------------------------------------------------------------------




----------------------------------------- Iteration    1(  13)  ---------------------------------------


    POTLOK:  cpu time    0.21: real time    0.21
    SETDIJ:  cpu time    0.01: real time    0.01
     EDDAV:  cpu time    3.32: real time    3.33
       DOS:  cpu time    0.00: real time    0.00
    CHARGE:  cpu time    0.10: real time    0.10
    MIXING:  cpu time    0.00: real time    0.01
    --------------------------------------------
      LOOP:  cpu time    3.66: real time    3.66

 eigenvalue-minimisations  :  1032
 total energy-change (2. order) :-0.3635008E+01  (-0.9596836E-01)
 number of electron     374.0000200 magnetization       6.7537303
 augmentation part      179.2295373 magnetization       4.3258581

 Broyden mixing:
  rms(total) = 0.16427E+00    rms(broyden)= 0.16426E+00
  rms(prec ) = 0.17166E+00
  weight for this iteration     100.00

 eigenvalues of (default mixing * dielectric matrix)
  average eigenvalue GAMMA=   1.4743
  4.8462  2.2137  1.0870  0.9924  0.7762  0.7762  0.6313  0.4715

 Free energy of the ion-electron system (eV)
  ---------------------------------------------------
  alpha Z        PSCENC =        89.73873829
  Ewald energy   TEWEN  =     81247.23662836
  -Hartree energ DENC   =   -115170.91677629
  -exchange      EXHF   =         0.00000000
  -V(xc)+E(xc)   XCENC  =      -371.50053408
  PAW double counting   =     37124.36986355   -35623.83932167
  entropy T*S    EENTRO =         0.00000000
  eigenvalues    EBANDS =     -2616.94797954
  atomic energy  EATOM  =     35264.75342294
  ---------------------------------------------------
  free energy    TOTEN  =       -57.10595843 eV

  energy without entropy =      -57.10595843  energy(sigma->0) =      -57.10595843


--------------------------------------------------------------------------------------------------------




----------------------------------------- Iteration    1(  14)  ---------------------------------------


    POTLOK:  cpu time    0.21: real time    0.21
    SETDIJ:  cpu time    0.01: real time    0.01
     EDDAV:  cpu time    3.23: real time    3.23
       DOS:  cpu time    0.00: real time    0.00
    CHARGE:  cpu time    0.10: real time    0.10
    MIXING:  cpu time    0.00: real time    0.01
    --------------------------------------------
      LOOP:  cpu time    3.56: real time    4.63

 eigenvalue-minimisations  :   992
 total energy-change (2. order) :-0.4704848E+01  (-0.1294213E+00)
 number of electron     374.0000200 magnetization       5.3603088
 augmentation part      179.2352401 magnetization       3.1234610

 Broyden mixing:
  rms(total) = 0.11747E+00    rms(broyden)= 0.11747E+00
  rms(prec ) = 0.12458E+00
  weight for this iteration     100.00

 eigenvalues of (default mixing * dielectric matrix)
  average eigenvalue GAMMA=   1.5626
  5.5727  2.2615  1.3415  1.3415  0.8670  0.8670  0.6263  0.6912  0.4945

 Free energy of the ion-electron system (eV)
  ---------------------------------------------------
  alpha Z        PSCENC =        89.73873829
  Ewald energy   TEWEN  =     81247.23662836
  -Hartree energ DENC   =   -115157.66862244
  -exchange      EXHF   =         0.00000000
  -V(xc)+E(xc)   XCENC  =      -375.42043899
  PAW double counting   =     37066.62313665   -35565.66101342
  entropy T*S    EENTRO =         0.00000000
  eigenvalues    EBANDS =     -2631.41265801
  atomic energy  EATOM  =     35264.75342294
  ---------------------------------------------------
  free energy    TOTEN  =       -61.81080663 eV

  energy without entropy =      -61.81080663  energy(sigma->0) =      -61.81080663


--------------------------------------------------------------------------------------------------------




----------------------------------------- Iteration    1(  15)  ---------------------------------------


    POTLOK:  cpu time    0.22: real time    0.23
    SETDIJ:  cpu time    0.01: real time    0.01
     EDDAV:  cpu time    3.25: real time    3.26
       DOS:  cpu time    0.00: real time    0.00
    CHARGE:  cpu time    0.10: real time    0.10
    MIXING:  cpu time    0.01: real time    0.01
    --------------------------------------------
      LOOP:  cpu time    3.60: real time    4.36

 eigenvalue-minimisations  :  1000
 total energy-change (2. order) :-0.3946063E+01  (-0.8925753E-01)
 number of electron     374.0000201 magnetization       4.8169773
 augmentation part      179.2353988 magnetization       4.5925291

 Broyden mixing:
  rms(total) = 0.15884E+00    rms(broyden)= 0.15872E+00
  rms(prec ) = 0.17326E+00
  weight for this iteration     100.00

 eigenvalues of (default mixing * dielectric matrix)
  average eigenvalue GAMMA=   1.4491
  5.8020  2.2511  1.3553  1.3553  0.8694  0.8694  0.6923  0.6367  0.4849  0.1744

 Free energy of the ion-electron system (eV)
  ---------------------------------------------------
  alpha Z        PSCENC =        89.73873829
  Ewald energy   TEWEN  =     81247.23662836
  -Hartree energ DENC   =   -115130.69798522
  -exchange      EXHF   =         0.00000000
  -V(xc)+E(xc)   XCENC  =      -379.00639246
  PAW double counting   =     37001.15959611   -35499.51697119
  entropy T*S    EENTRO =         0.00000000
  eigenvalues    EBANDS =     -2659.42390647
  atomic energy  EATOM  =     35264.75342294
  ---------------------------------------------------
  free energy    TOTEN  =       -65.75686963 eV

  energy without entropy =      -65.75686963  energy(sigma->0) =      -65.75686963


--------------------------------------------------------------------------------------------------------




----------------------------------------- Iteration    1(  16)  ---------------------------------------


    POTLOK:  cpu time    0.25: real time    0.26
    SETDIJ:  cpu time    0.01: real time    0.01
     EDDAV:  cpu time    3.52: real time    3.53
       DOS:  cpu time    0.00: real time    0.00
    CHARGE:  cpu time    0.10: real time    0.10
    MIXING:  cpu time    0.00: real time    0.01
    --------------------------------------------
      LOOP:  cpu time    3.89: real time    4.14

 eigenvalue-minimisations  :  1120
 total energy-change (2. order) :-0.3505130E+00  (-0.3412505E-02)
 number of electron     374.0000201 magnetization       3.3279348
 augmentation part      179.2439056 magnetization       3.1460465

 Broyden mixing:
  rms(total) = 0.13550E+00    rms(broyden)= 0.13549E+00
  rms(prec ) = 0.14888E+00
  weight for this iteration     100.00

 eigenvalues of (default mixing * dielectric matrix)
  average eigenvalue GAMMA=   1.5161
  6.6773  2.2316  1.8397  1.1440  0.8135  0.8135  0.6449  0.6449  0.7408  0.6109
  0.5160

 Free energy of the ion-electron system (eV)
  ---------------------------------------------------
  alpha Z        PSCENC =        89.73873829
  Ewald energy   TEWEN  =     81247.23662836
  -Hartree energ DENC   =   -115126.75902613
  -exchange      EXHF   =         0.00000000
  -V(xc)+E(xc)   XCENC  =      -379.36362510
  PAW double counting   =     36993.96976766   -35492.29933283
  entropy T*S    EENTRO =         0.00000000
  eigenvalues    EBANDS =     -2663.38395579
  atomic energy  EATOM  =     35264.75342294
  ---------------------------------------------------
  free energy    TOTEN  =       -66.10738261 eV

  energy without entropy =      -66.10738261  energy(sigma->0) =      -66.10738261


--------------------------------------------------------------------------------------------------------




----------------------------------------- Iteration    1(  17)  ---------------------------------------


    POTLOK:  cpu time    0.27: real time    0.27
    SETDIJ:  cpu time    0.02: real time    0.01
     EDDAV:  cpu time    3.23: real time    3.24
       DOS:  cpu time    0.00: real time    0.00
    CHARGE:  cpu time    0.10: real time    0.10
    MIXING:  cpu time    0.01: real time    0.01
    --------------------------------------------
      LOOP:  cpu time    3.64: real time    3.66

 eigenvalue-minimisations  :  1000
 total energy-change (2. order) :-0.1240241E+01  (-0.1729439E-01)
 number of electron     374.0000201 magnetization       1.5783490
 augmentation part      179.2624238 magnetization       1.4740151

 Broyden mixing:
  rms(total) = 0.91085E-01    rms(broyden)= 0.91080E-01
  rms(prec ) = 0.99925E-01
  weight for this iteration     100.00

 eigenvalues of (default mixing * dielectric matrix)
  average eigenvalue GAMMA=   1.6181
  7.7466  2.1749  2.1749  1.1156  1.1156  1.2249  0.8483  0.6556  0.6556  0.6298
  0.5379  0.5379

 Free energy of the ion-electron system (eV)
  ---------------------------------------------------
  alpha Z        PSCENC =        89.73873829
  Ewald energy   TEWEN  =     81247.23662836
  -Hartree energ DENC   =   -115113.14572836
  -exchange      EXHF   =         0.00000000
  -V(xc)+E(xc)   XCENC  =      -380.61940099
  PAW double counting   =     36975.26188567   -35473.43950144
  entropy T*S    EENTRO =         0.00000000
  eigenvalues    EBANDS =     -2677.13366805
  atomic energy  EATOM  =     35264.75342294
  ---------------------------------------------------
  free energy    TOTEN  =       -67.34762358 eV

  energy without entropy =      -67.34762358  energy(sigma->0) =      -67.34762358


--------------------------------------------------------------------------------------------------------




----------------------------------------- Iteration    1(  18)  ---------------------------------------


    POTLOK:  cpu time    0.22: real time    0.21
    SETDIJ:  cpu time    0.02: real time    0.02
     EDDAV:  cpu time    3.24: real time    3.24
       DOS:  cpu time    0.00: real time    0.00
    CHARGE:  cpu time    0.10: real time    0.10
    MIXING:  cpu time    0.01: real time    0.01
    --------------------------------------------
      LOOP:  cpu time    3.58: real time    3.64

 eigenvalue-minimisations  :   992
 total energy-change (2. order) :-0.1607517E+01  (-0.2290610E-01)
 number of electron     374.0000201 magnetization       0.6156519
 augmentation part      179.2620927 magnetization       0.5863694

 Broyden mixing:
  rms(total) = 0.39247E-01    rms(broyden)= 0.39229E-01
  rms(prec ) = 0.44090E-01
  weight for this iteration     100.00

 eigenvalues of (default mixing * dielectric matrix)
  average eigenvalue GAMMA=   1.7336
  9.1735  2.2195  2.1961  2.1961  1.0680  1.0680  0.8728  0.6958  0.6958  0.6273
  0.6273  0.5480  0.5480

 Free energy of the ion-electron system (eV)
  ---------------------------------------------------
  alpha Z        PSCENC =        89.73873829
  Ewald energy   TEWEN  =     81247.23662836
  -Hartree energ DENC   =   -115094.63354465
  -exchange      EXHF   =         0.00000000
  -V(xc)+E(xc)   XCENC  =      -382.29710555
  PAW double counting   =     36975.27293780   -35473.37692754
  entropy T*S    EENTRO =         0.00000000
  eigenvalues    EBANDS =     -2695.64929033
  atomic energy  EATOM  =     35264.75342294
  ---------------------------------------------------
  free energy    TOTEN  =       -68.95514069 eV

  energy without entropy =      -68.95514069  energy(sigma->0) =      -68.95514069


--------------------------------------------------------------------------------------------------------




----------------------------------------- Iteration    1(  19)  ---------------------------------------


    POTLOK:  cpu time    0.24: real time    0.25
    SETDIJ:  cpu time    0.01: real time    0.01
     EDDAV:  cpu time    3.37: real time    3.38
       DOS:  cpu time    0.00: real time    0.00
    CHARGE:  cpu time    0.10: real time    0.10
    MIXING:  cpu time    0.01: real time    0.01
    --------------------------------------------
      LOOP:  cpu time    3.74: real time    3.79

 eigenvalue-minimisations  :  1048
 total energy-change (2. order) :-0.9581153E+00  (-0.7596376E-02)
 number of electron     374.0000201 magnetization       0.4059977
 augmentation part      179.2786398 magnetization       0.4178906

 Broyden mixing:
  rms(total) = 0.31378E-01    rms(broyden)= 0.31366E-01
  rms(prec ) = 0.35608E-01
  weight for this iteration     100.00

 eigenvalues of (default mixing * dielectric matrix)
  average eigenvalue GAMMA=   1.7389
  9.4749  2.4410  2.4410  2.0199  1.1390  1.1390  0.9158  0.9158  0.8764  0.6286
  0.6286  0.6063  0.5593  0.5593

 Free energy of the ion-electron system (eV)
  ---------------------------------------------------
  alpha Z        PSCENC =        89.73873829
  Ewald energy   TEWEN  =     81247.23662836
  -Hartree energ DENC   =   -115080.04639506
  -exchange      EXHF   =         0.00000000
  -V(xc)+E(xc)   XCENC  =      -383.34637807
  PAW double counting   =     36971.37409829   -35469.26757660
  entropy T*S    EENTRO =         0.00000000
  eigenvalues    EBANDS =     -2710.35579415
  atomic energy  EATOM  =     35264.75342294
  ---------------------------------------------------
  free energy    TOTEN  =       -69.91325600 eV

  energy without entropy =      -69.91325600  energy(sigma->0) =      -69.91325600


--------------------------------------------------------------------------------------------------------




----------------------------------------- Iteration    1(  20)  ---------------------------------------


    POTLOK:  cpu time    0.21: real time    0.21
    SETDIJ:  cpu time    0.01: real time    0.01
     EDDAV:  cpu time    3.38: real time    3.38
       DOS:  cpu time    0.00: real time    0.00
    CHARGE:  cpu time    0.10: real time    0.10
    MIXING:  cpu time    0.01: real time    0.01
    --------------------------------------------
      LOOP:  cpu time    3.71: real time    3.72

 eigenvalue-minimisations  :  1024
 total energy-change (2. order) :-0.4821461E+00  (-0.1760797E-02)
 number of electron     374.0000201 magnetization       0.1890796
 augmentation part      179.2740378 magnetization       0.1952567

 Broyden mixing:
  rms(total) = 0.18844E-01    rms(broyden)= 0.18840E-01
  rms(prec ) = 0.22296E-01
  weight for this iteration     100.00

 eigenvalues of (default mixing * dielectric matrix)
  average eigenvalue GAMMA=   1.8264
 10.0761  3.5913  2.1222  2.1222  1.7430  1.0573  1.0573  0.9625  0.9625  0.6449
  0.6449  0.6786  0.6280  0.5525  0.5525

 Free energy of the ion-electron system (eV)
  ---------------------------------------------------
  alpha Z        PSCENC =        89.73873829
  Ewald energy   TEWEN  =     81247.23662836
  -Hartree energ DENC   =   -115069.09104720
  -exchange      EXHF   =         0.00000000
  -V(xc)+E(xc)   XCENC  =      -383.88371333
  PAW double counting   =     36979.29220050   -35477.15681516
  entropy T*S    EENTRO =         0.00000000
  eigenvalues    EBANDS =     -2721.28481653
  atomic energy  EATOM  =     35264.75342294
  ---------------------------------------------------
  free energy    TOTEN  =       -70.39540213 eV

  energy without entropy =      -70.39540213  energy(sigma->0) =      -70.39540213


--------------------------------------------------------------------------------------------------------




----------------------------------------- Iteration    1(  21)  ---------------------------------------


    POTLOK:  cpu time    0.22: real time    0.21
    SETDIJ:  cpu time    0.01: real time    0.01
     EDDAV:  cpu time    3.28: real time    3.28
       DOS:  cpu time    0.00: real time    0.00
    CHARGE:  cpu time    0.10: real time    0.10
    MIXING:  cpu time    0.01: real time    0.01
    --------------------------------------------
      LOOP:  cpu time    3.61: real time    3.62

 eigenvalue-minimisations  :  1016
 total energy-change (2. order) :-0.3033935E+00  (-0.1349895E-02)
 number of electron     374.0000201 magnetization       0.1701553
 augmentation part      179.2860746 magnetization       0.1740349

 Broyden mixing:
  rms(total) = 0.10846E-01    rms(broyden)= 0.10842E-01
  rms(prec ) = 0.13037E-01
  weight for this iteration     100.00

 eigenvalues of (default mixing * dielectric matrix)
  average eigenvalue GAMMA=   1.8083
 10.1651  3.9956  2.1014  2.1014  2.1487  1.1076  1.1076  0.8399  0.8399  0.6906
  0.6906  0.7040  0.7040  0.5590  0.5590  0.6180

 Free energy of the ion-electron system (eV)
  ---------------------------------------------------
  alpha Z        PSCENC =        89.73873829
  Ewald energy   TEWEN  =     81247.23662836
  -Hartree energ DENC   =   -115056.88899553
  -exchange      EXHF   =         0.00000000
  -V(xc)+E(xc)   XCENC  =      -384.26207029
  PAW double counting   =     36978.02847822   -35475.76226526
  entropy T*S    EENTRO =         0.00000000
  eigenvalues    EBANDS =     -2733.54273239
  atomic energy  EATOM  =     35264.75342294
  ---------------------------------------------------
  free energy    TOTEN  =       -70.69879566 eV

  energy without entropy =      -70.69879566  energy(sigma->0) =      -70.69879566


--------------------------------------------------------------------------------------------------------




----------------------------------------- Iteration    1(  22)  ---------------------------------------


    POTLOK:  cpu time    0.22: real time    0.22
    SETDIJ:  cpu time    0.00: real time    0.01
     EDDAV:  cpu time    2.76: real time    2.77
       DOS:  cpu time    0.00: real time    0.00
    CHARGE:  cpu time    0.10: real time    0.10
    MIXING:  cpu time    0.01: real time    0.01
    --------------------------------------------
      LOOP:  cpu time    3.11: real time    3.11

 eigenvalue-minimisations  :   804
 total energy-change (2. order) :-0.5542825E-01  (-0.1060579E-03)
 number of electron     374.0000201 magnetization       0.1343387
 augmentation part      179.2840372 magnetization       0.1353776

 Broyden mixing:
  rms(total) = 0.72483E-02    rms(broyden)= 0.72475E-02
  rms(prec ) = 0.92619E-02
  weight for this iteration     100.00

 eigenvalues of (default mixing * dielectric matrix)
  average eigenvalue GAMMA=   1.7978
 10.1431  4.1783  2.1997  2.1997  2.2430  1.1838  1.1838  0.9211  0.9211  0.9726
  0.7846  0.6409  0.6409  0.5543  0.5543  0.6508  0.5906

 Free energy of the ion-electron system (eV)
  ---------------------------------------------------
  alpha Z        PSCENC =        89.73873829
  Ewald energy   TEWEN  =     81247.23662836
  -Hartree energ DENC   =   -115054.00055271
  -exchange      EXHF   =         0.00000000
  -V(xc)+E(xc)   XCENC  =      -384.32870504
  PAW double counting   =     36982.76281121   -35480.55920772
  entropy T*S    EENTRO =         0.00000000
  eigenvalues    EBANDS =     -2736.35735923
  atomic energy  EATOM  =     35264.75342294
  ---------------------------------------------------
  free energy    TOTEN  =       -70.75422390 eV

  energy without entropy =      -70.75422390  energy(sigma->0) =      -70.75422390


--------------------------------------------------------------------------------------------------------




----------------------------------------- Iteration    1(  23)  ---------------------------------------


    POTLOK:  cpu time    0.22: real time    0.22
    SETDIJ:  cpu time    0.01: real time    0.01
     EDDAV:  cpu time    2.92: real time    2.92
       DOS:  cpu time    0.00: real time    0.00
    CHARGE:  cpu time    0.10: real time    0.10
    MIXING:  cpu time    0.01: real time    0.01
    --------------------------------------------
      LOOP:  cpu time    3.25: real time    5.57

 eigenvalue-minimisations  :   864
 total energy-change (2. order) :-0.5629920E-01  (-0.1608647E-03)
 number of electron     374.0000201 magnetization       0.0714024
 augmentation part      179.2843819 magnetization       0.0702174

 Broyden mixing:
  rms(total) = 0.34466E-02    rms(broyden)= 0.34455E-02
  rms(prec ) = 0.51880E-02
  weight for this iteration     100.00

 eigenvalues of (default mixing * dielectric matrix)
  average eigenvalue GAMMA=   1.8546
 10.1810  4.9051  2.4423  2.4423  2.3627  1.5690  1.1460  1.1460  0.9389  0.9389
  0.9205  0.7599  0.6442  0.6442  0.5549  0.5549  0.6238  0.6089

 Free energy of the ion-electron system (eV)
  ---------------------------------------------------
  alpha Z        PSCENC =        89.73873829
  Ewald energy   TEWEN  =     81247.23662836
  -Hartree energ DENC   =   -115049.44592276
  -exchange      EXHF   =         0.00000000
  -V(xc)+E(xc)   XCENC  =      -384.40379376
  PAW double counting   =     36986.78261743   -35484.60852102
  entropy T*S    EENTRO =         0.00000000
  eigenvalues    EBANDS =     -2740.86369258
  atomic energy  EATOM  =     35264.75342294
  ---------------------------------------------------
  free energy    TOTEN  =       -70.81052310 eV

  energy without entropy =      -70.81052310  energy(sigma->0) =      -70.81052310


--------------------------------------------------------------------------------------------------------




----------------------------------------- Iteration    1(  24)  ---------------------------------------


    POTLOK:  cpu time    0.25: real time    0.25
    SETDIJ:  cpu time    0.02: real time    0.02
     EDDAV:  cpu time    2.66: real time    2.66
       DOS:  cpu time    0.00: real time    0.00
    CHARGE:  cpu time    0.10: real time    0.10
    MIXING:  cpu time    0.01: real time    0.01
    --------------------------------------------
      LOOP:  cpu time    3.04: real time    3.11

 eigenvalue-minimisations  :   760
 total energy-change (2. order) :-0.1672631E-01  (-0.1349731E-03)
 number of electron     374.0000201 magnetization       0.0499092
 augmentation part      179.2857748 magnetization       0.0480686

 Broyden mixing:
  rms(total) = 0.26511E-02    rms(broyden)= 0.26500E-02
  rms(prec ) = 0.35656E-02
  weight for this iteration     100.00

 eigenvalues of (default mixing * dielectric matrix)
  average eigenvalue GAMMA=   1.8440
 10.2500  5.2623  2.6636  2.3237  2.3237  1.9231  1.1614  1.1614  1.0014  0.9289
  0.9289  0.8146  0.6477  0.6477  0.5550  0.5550  0.6499  0.6191  0.6191

 Free energy of the ion-electron system (eV)
  ---------------------------------------------------
  alpha Z        PSCENC =        89.73873829
  Ewald energy   TEWEN  =     81247.23662836
  -Hartree energ DENC   =   -115044.59790791
  -exchange      EXHF   =         0.00000000
  -V(xc)+E(xc)   XCENC  =      -384.44374452
  PAW double counting   =     36989.16729096   -35487.00089442
  entropy T*S    EENTRO =         0.00000000
  eigenvalues    EBANDS =     -2745.68078312
  atomic energy  EATOM  =     35264.75342294
  ---------------------------------------------------
  free energy    TOTEN  =       -70.82724942 eV

  energy without entropy =      -70.82724942  energy(sigma->0) =      -70.82724942


--------------------------------------------------------------------------------------------------------




----------------------------------------- Iteration    1(  25)  ---------------------------------------


    POTLOK:  cpu time    0.25: real time    0.25
    SETDIJ:  cpu time    0.00: real time    0.01
     EDDAV:  cpu time    2.50: real time    2.50
       DOS:  cpu time    0.00: real time    0.00
    CHARGE:  cpu time    0.11: real time    0.12
    MIXING:  cpu time    0.02: real time    0.01
    --------------------------------------------
      LOOP:  cpu time    2.88: real time    2.92

 eigenvalue-minimisations  :   700
 total energy-change (2. order) :-0.3655412E-02  (-0.1204080E-04)
 number of electron     374.0000201 magnetization       0.0292233
 augmentation part      179.2862827 magnetization       0.0277298

 Broyden mixing:
  rms(total) = 0.18332E-02    rms(broyden)= 0.18330E-02
  rms(prec ) = 0.25494E-02
  weight for this iteration     100.00

 eigenvalues of (default mixing * dielectric matrix)
  average eigenvalue GAMMA=   1.8391
 10.2581  5.4266  2.7600  2.3909  2.3909  2.1185  1.2361  1.2361  1.0056  1.0056
  0.9378  0.9378  0.6479  0.6479  0.7737  0.5548  0.5548  0.5995  0.6495  0.6495

 Free energy of the ion-electron system (eV)
  ---------------------------------------------------
  alpha Z        PSCENC =        89.73873829
  Ewald energy   TEWEN  =     81247.23662836
  -Hartree energ DENC   =   -115043.19407118
  -exchange      EXHF   =         0.00000000
  -V(xc)+E(xc)   XCENC  =      -384.45304141
  PAW double counting   =     36989.74843283   -35487.58750790
  entropy T*S    EENTRO =         0.00000000
  eigenvalues    EBANDS =     -2747.07350675
  atomic energy  EATOM  =     35264.75342294
  ---------------------------------------------------
  free energy    TOTEN  =       -70.83090483 eV

  energy without entropy =      -70.83090483  energy(sigma->0) =      -70.83090483


--------------------------------------------------------------------------------------------------------




----------------------------------------- Iteration    1(  26)  ---------------------------------------


    POTLOK:  cpu time    0.22: real time    0.21
    SETDIJ:  cpu time    0.00: real time    0.01
     EDDAV:  cpu time    2.43: real time    2.43
       DOS:  cpu time    0.00: real time    0.00
    CHARGE:  cpu time    0.12: real time    0.12
    MIXING:  cpu time    0.01: real time    0.01
    --------------------------------------------
      LOOP:  cpu time    2.78: real time    2.92

 eigenvalue-minimisations  :   696
 total energy-change (2. order) :-0.4927812E-02  (-0.1751740E-04)
 number of electron     374.0000201 magnetization       0.0139815
 augmentation part      179.2866263 magnetization       0.0129774

 Broyden mixing:
  rms(total) = 0.11811E-02    rms(broyden)= 0.11808E-02
  rms(prec ) = 0.16104E-02
  weight for this iteration     100.00

 eigenvalues of (default mixing * dielectric matrix)
  average eigenvalue GAMMA=   1.8533
 10.2700  5.6468  3.2246  2.4050  2.4050  2.3050  1.3570  1.1702  1.1702  1.1149
  0.9726  0.9726  0.8559  0.6476  0.6476  0.7373  0.5548  0.5548  0.6839  0.6272
  0.5959

 Free energy of the ion-electron system (eV)
  ---------------------------------------------------
  alpha Z        PSCENC =        89.73873829
  Ewald energy   TEWEN  =     81247.23662836
  -Hartree energ DENC   =   -115041.37633279
  -exchange      EXHF   =         0.00000000
  -V(xc)+E(xc)   XCENC  =      -384.46520590
  PAW double counting   =     36989.41710918   -35487.25321914
  entropy T*S    EENTRO =         0.00000000
  eigenvalues    EBANDS =     -2748.88697359
  atomic energy  EATOM  =     35264.75342294
  ---------------------------------------------------
  free energy    TOTEN  =       -70.83583264 eV

  energy without entropy =      -70.83583264  energy(sigma->0) =      -70.83583264


--------------------------------------------------------------------------------------------------------




----------------------------------------- Iteration    1(  27)  ---------------------------------------


    POTLOK:  cpu time    0.23: real time    0.23
    SETDIJ:  cpu time    0.01: real time    0.01
     EDDAV:  cpu time    2.52: real time    2.53
       DOS:  cpu time    0.00: real time    0.00
    CHARGE:  cpu time    0.12: real time    0.12
    MIXING:  cpu time    0.01: real time    0.01
    --------------------------------------------
      LOOP:  cpu time    2.90: real time    2.92

 eigenvalue-minimisations  :   680
 total energy-change (2. order) :-0.3392450E-02  (-0.9089847E-05)
 number of electron     374.0000201 magnetization       0.0147939
 augmentation part      179.2876557 magnetization       0.0144019

 Broyden mixing:
  rms(total) = 0.90171E-03    rms(broyden)= 0.90156E-03
  rms(prec ) = 0.11137E-02
  weight for this iteration     100.00

 eigenvalues of (default mixing * dielectric matrix)
  average eigenvalue GAMMA=   1.8526
 10.2239  6.0289  3.6867  2.3770  2.3770  2.0338  2.0338  1.1886  1.1886  0.9629
  0.9629  1.0130  0.9130  0.7580  0.7580  0.6461  0.6461  0.5553  0.5553  0.6086
  0.6086  0.6307

 Free energy of the ion-electron system (eV)
  ---------------------------------------------------
  alpha Z        PSCENC =        89.73873829
  Ewald energy   TEWEN  =     81247.23662836
  -Hartree energ DENC   =   -115040.04887361
  -exchange      EXHF   =         0.00000000
  -V(xc)+E(xc)   XCENC  =      -384.47417339
  PAW double counting   =     36988.93028865   -35486.76511524
  entropy T*S    EENTRO =         0.00000000
  eigenvalues    EBANDS =     -2750.21014109
  atomic energy  EATOM  =     35264.75342294
  ---------------------------------------------------
  free energy    TOTEN  =       -70.83922509 eV

  energy without entropy =      -70.83922509  energy(sigma->0) =      -70.83922509


--------------------------------------------------------------------------------------------------------




----------------------------------------- Iteration    1(  28)  ---------------------------------------


    POTLOK:  cpu time    0.22: real time    0.22
    SETDIJ:  cpu time    0.01: real time    0.01
     EDDAV:  cpu time    2.46: real time    2.47
       DOS:  cpu time    0.00: real time    0.00
    CHARGE:  cpu time    0.13: real time    0.14
    MIXING:  cpu time    0.01: real time    0.01
    --------------------------------------------
      LOOP:  cpu time    2.84: real time    2.87

 eigenvalue-minimisations  :   688
 total energy-change (2. order) :-0.1321138E-02  (-0.1265430E-05)
 number of electron     374.0000201 magnetization       0.0059774
 augmentation part      179.2873601 magnetization       0.0053899

 Broyden mixing:
  rms(total) = 0.70465E-03    rms(broyden)= 0.70458E-03
  rms(prec ) = 0.88318E-03
  weight for this iteration     100.00

 eigenvalues of (default mixing * dielectric matrix)
  average eigenvalue GAMMA=   1.8876
 10.1993  6.4511  4.1065  2.4070  2.4070  2.4670  2.0127  1.2700  1.2700  1.1448
  1.0469  1.0469  0.9189  0.9189  0.6472  0.6472  0.5547  0.5547  0.7502  0.7287
  0.5945  0.6349  0.6349

 Free energy of the ion-electron system (eV)
  ---------------------------------------------------
  alpha Z        PSCENC =        89.73873829
  Ewald energy   TEWEN  =     81247.23662836
  -Hartree energ DENC   =   -115039.76536669
  -exchange      EXHF   =         0.00000000
  -V(xc)+E(xc)   XCENC  =      -384.47562498
  PAW double counting   =     36989.15006733   -35486.98963353
  entropy T*S    EENTRO =         0.00000000
  eigenvalues    EBANDS =     -2750.48877795
  atomic energy  EATOM  =     35264.75342294
  ---------------------------------------------------
  free energy    TOTEN  =       -70.84054623 eV

  energy without entropy =      -70.84054623  energy(sigma->0) =      -70.84054623


--------------------------------------------------------------------------------------------------------




----------------------------------------- Iteration    1(  29)  ---------------------------------------


    POTLOK:  cpu time    0.22: real time    0.22
    SETDIJ:  cpu time    0.01: real time    0.01
     EDDAV:  cpu time    2.42: real time    2.42
       DOS:  cpu time    0.00: real time    0.00
    CHARGE:  cpu time    0.10: real time    0.10
    MIXING:  cpu time    0.01: real time    0.01
    --------------------------------------------
      LOOP:  cpu time    2.76: real time    3.41

 eigenvalue-minimisations  :   660
 total energy-change (2. order) :-0.1527970E-02  (-0.2323580E-05)
 number of electron     374.0000201 magnetization       0.0000042
 augmentation part      179.2872376 magnetization      -0.0002091

 Broyden mixing:
  rms(total) = 0.35023E-03    rms(broyden)= 0.35009E-03
  rms(prec ) = 0.47131E-03
  weight for this iteration     100.00

 eigenvalues of (default mixing * dielectric matrix)
  average eigenvalue GAMMA=   1.9314
 10.2166  7.1831  4.9017  2.5808  2.4419  2.4419  1.7904  1.7904  1.1939  1.1939
  0.9789  0.9789  1.0529  1.0529  0.7961  0.7961  0.6470  0.6470  0.7109  0.5548
  0.5548  0.6276  0.6276  0.5926

 Free energy of the ion-electron system (eV)
  ---------------------------------------------------
  alpha Z        PSCENC =        89.73873829
  Ewald energy   TEWEN  =     81247.23662836
  -Hartree energ DENC   =   -115039.27740762
  -exchange      EXHF   =         0.00000000
  -V(xc)+E(xc)   XCENC  =      -384.47815687
  PAW double counting   =     36989.16829185   -35487.00565318
  entropy T*S    EENTRO =         0.00000000
  eigenvalues    EBANDS =     -2750.97793797
  atomic energy  EATOM  =     35264.75342294
  ---------------------------------------------------
  free energy    TOTEN  =       -70.84207420 eV

  energy without entropy =      -70.84207420  energy(sigma->0) =      -70.84207420


--------------------------------------------------------------------------------------------------------




----------------------------------------- Iteration    1(  30)  ---------------------------------------


    POTLOK:  cpu time    0.21: real time    0.21
    SETDIJ:  cpu time    0.01: real time    0.01
     EDDAV:  cpu time    2.48: real time    2.48
       DOS:  cpu time    0.00: real time    0.00
    CHARGE:  cpu time    0.10: real time    0.10
    MIXING:  cpu time    0.01: real time    0.01
    --------------------------------------------
      LOOP:  cpu time    2.82: real time    2.87

 eigenvalue-minimisations  :   664
 total energy-change (2. order) :-0.2253823E-03  (-0.5444025E-06)
 number of electron     374.0000201 magnetization       0.0000539
 augmentation part      179.2871944 magnetization       0.0001145

 Broyden mixing:
  rms(total) = 0.19456E-03    rms(broyden)= 0.19446E-03
  rms(prec ) = 0.27251E-03
  weight for this iteration     100.00

 eigenvalues of (default mixing * dielectric matrix)
  average eigenvalue GAMMA=   1.9235
 10.1945  7.6030  5.0519  2.3984  2.3984  2.3797  2.0647  2.0647  1.2109  1.2109
  1.0258  1.0258  1.0685  0.9673  0.9673  0.6469  0.6469  0.7665  0.7665  0.5549
  0.5549  0.6736  0.5932  0.6258  0.6258

 Free energy of the ion-electron system (eV)
  ---------------------------------------------------
  alpha Z        PSCENC =        89.73873829
  Ewald energy   TEWEN  =     81247.23662836
  -Hartree energ DENC   =   -115039.13532524
  -exchange      EXHF   =         0.00000000
  -V(xc)+E(xc)   XCENC  =      -384.47860368
  PAW double counting   =     36989.35259878   -35487.19107471
  entropy T*S    EENTRO =         0.00000000
  eigenvalues    EBANDS =     -2751.11868433
  atomic energy  EATOM  =     35264.75342294
  ---------------------------------------------------
  free energy    TOTEN  =       -70.84229958 eV

  energy without entropy =      -70.84229958  energy(sigma->0) =      -70.84229958


--------------------------------------------------------------------------------------------------------




----------------------------------------- Iteration    1(  31)  ---------------------------------------


    POTLOK:  cpu time    0.22: real time    0.22
    SETDIJ:  cpu time    0.01: real time    0.01
     EDDAV:  cpu time    2.42: real time    2.43
       DOS:  cpu time    0.00: real time    0.00
    --------------------------------------------
[...]
 total charge-density along one line
 
 soft charge-density along one line, spin component           2
         0         1         2         3         4         5         6         7         8         9
 total charge-density along one line
 
 pseudopotential strength for first ion, spin component:           1
-10.112   0.001   0.013   0.003   0.001 -10.095   0.001   0.013
  0.001 -10.102   0.004  -0.015   0.001   0.001 -10.086   0.004
  0.013   0.004 -10.094   0.003  -0.001   0.013   0.004 -10.078
  0.003  -0.015   0.003 -10.099  -0.002   0.003  -0.014   0.003
  0.001   0.001  -0.001  -0.002 -10.119   0.001   0.001  -0.001
-10.095   0.001   0.013   0.003   0.001 -10.053   0.000   0.012
  0.001 -10.086   0.004  -0.014   0.001   0.000 -10.045   0.004
  0.013   0.004 -10.078   0.003  -0.001   0.012   0.004 -10.037
  0.003  -0.014   0.003 -10.083  -0.002   0.003  -0.014   0.003
  0.001   0.001  -0.001  -0.002 -10.102   0.001   0.001  -0.001
  0.006  -0.001  -0.004  -0.000  -0.001   0.006  -0.001  -0.004
  0.011  -0.001  -0.007  -0.001  -0.001   0.010  -0.001  -0.007
  0.022  -0.003  -0.015   0.000  -0.026   0.021  -0.003  -0.014
  0.000   0.026  -0.003   0.023   0.000   0.000   0.025  -0.003
  0.026   0.000  -0.013  -0.003   0.023   0.025   0.000  -0.012
  0.027  -0.004  -0.018   0.000  -0.031   0.026  -0.004  -0.017
  0.000   0.032  -0.004   0.028   0.000   0.000   0.030  -0.004
  0.031   0.000  -0.016  -0.004   0.028   0.030   0.000  -0.015
 pseudopotential strength for first ion, spin component:           2
-10.112   0.001   0.013   0.003   0.001 -10.095   0.001   0.013
  0.001 -10.102   0.004  -0.015   0.001   0.001 -10.086   0.004
  0.013   0.004 -10.094   0.003  -0.001   0.013   0.004 -10.078
  0.003  -0.015   0.003 -10.099  -0.002   0.003  -0.014   0.003
  0.001   0.001  -0.001  -0.002 -10.119   0.001   0.001  -0.001
-10.095   0.001   0.013   0.003   0.001 -10.053   0.000   0.012
  0.001 -10.086   0.004  -0.014   0.001   0.000 -10.045   0.004
  0.013   0.004 -10.078   0.003  -0.001   0.012   0.004 -10.037
  0.003  -0.014   0.003 -10.083  -0.002   0.003  -0.014   0.003
  0.001   0.001  -0.001  -0.002 -10.102   0.001   0.001  -0.001
  0.006  -0.001  -0.004  -0.000  -0.001   0.006  -0.001  -0.004
  0.011  -0.001  -0.007  -0.001  -0.001   0.010  -0.001  -0.007
  0.022  -0.003  -0.015   0.000  -0.026   0.021  -0.003  -0.014
  0.000   0.026  -0.003   0.023   0.000   0.000   0.025  -0.003
  0.026   0.000  -0.013  -0.003   0.023   0.025   0.000  -0.012
  0.027  -0.004  -0.018   0.000  -0.031   0.026  -0.004  -0.017
  0.000   0.032  -0.004   0.028   0.000   0.000   0.030  -0.004
  0.031   0.000  -0.016  -0.004   0.028   0.030   0.000  -0.015
 total augmentation occupancy for first ion, spin component:           1
  2.524  -0.029  -0.148  -0.018   0.004  -0.523   0.039   0.175   0.037   0.013  -0.530   0.122   0.087  -0.013   0.085   0.007
 -0.029   2.365   0.021   0.089   0.017   0.040  -0.388   0.020  -0.158   0.013   0.054  -0.015  -0.005   0.055  -0.012  -0.001
 -0.148   0.021   2.380   0.019   0.015   0.175   0.020  -0.347   0.021  -0.012   0.311  -0.077  -0.050  -0.008  -0.050  -0.005
 -0.018   0.089   0.019   2.372  -0.050   0.037  -0.158   0.021  -0.374   0.024   0.074  -0.012  -0.005   0.055  -0.013   0.001
  0.004   0.017   0.015  -0.050   2.430   0.013   0.014  -0.012   0.024  -0.526   0.050   0.000  -0.049  -0.007   0.048  -0.013
 -0.523   0.040   0.175   0.037   0.013   0.506  -0.049  -0.200  -0.053  -0.028   0.453  -0.098  -0.110   0.016  -0.105   0.009
  0.039  -0.388   0.020  -0.158   0.014  -0.049   0.389  -0.056   0.217  -0.039  -0.046   0.012   0.002  -0.088   0.015  -0.000
  0.175   0.020  -0.347   0.021  -0.012  -0.200  -0.056   0.298  -0.054   0.010  -0.261   0.057   0.063   0.022   0.064  -0.005
  0.037  -0.158   0.021  -0.374   0.024  -0.053   0.217  -0.054   0.355  -0.002  -0.068   0.013   0.010  -0.084   0.011  -0.001
  0.013   0.013  -0.012   0.024  -0.526  -0.028  -0.039   0.010  -0.002   0.586  -0.043  -0.001   0.086   0.007  -0.079  -0.006
 -0.530   0.054   0.311   0.074   0.050   0.453  -0.046  -0.261  -0.068  -0.043   1.761  -0.173  -0.191   0.023  -0.182   0.016
  0.122  -0.015  -0.077  -0.012   0.000  -0.098   0.012   0.057   0.013  -0.001  -0.173   0.033   0.031  -0.004   0.032  -0.002
  0.087  -0.005  -0.050  -0.005  -0.049  -0.110   0.002   0.063   0.010   0.086  -0.191   0.031   0.047  -0.002   0.020  -0.004
 -0.013   0.055  -0.008   0.055  -0.007   0.016  -0.088   0.022  -0.084   0.007   0.023  -0.004  -0.002   0.030  -0.004   0.000
  0.085  -0.012  -0.050  -0.013   0.048  -0.105   0.015   0.064   0.011  -0.079  -0.182   0.032   0.020  -0.004   0.047  -0.002
  0.007  -0.001  -0.005   0.001  -0.013   0.009  -0.000  -0.005  -0.001  -0.006   0.016  -0.002  -0.004   0.000  -0.002   0.001
  0.001   0.013  -0.002   0.011   0.000  -0.001   0.006  -0.002   0.005  -0.000  -0.002   0.000   0.000  -0.002   0.000  -0.000
  0.009   0.001  -0.004  -0.001   0.011   0.008  -0.001  -0.005  -0.001   0.005   0.016  -0.002  -0.002   0.000  -0.004   0.000
 total augmentation occupancy for first ion, spin component:           2
  0.000   0.000  -0.000  -0.000   0.000   0.000  -0.000   0.000   0.000  -0.000   0.000  -0.000  -0.000   0.000   0.000   0.000
  0.000  -0.000   0.000  -0.000   0.000  -0.000   0.000  -0.000   0.000  -0.000  -0.000   0.000  -0.000   0.000   0.000   0.000
 -0.000   0.000  -0.000  -0.000   0.000   0.000  -0.000   0.000   0.000  -0.000   0.000  -0.000   0.000   0.000   0.000   0.000
 -0.000  -0.000  -0.000   0.000   0.000   0.000   0.000   0.000  -0.000  -0.000   0.000  -0.000   0.000   0.000  -0.000  -0.000
  0.000   0.000   0.000   0.000  -0.000  -0.000  -0.000  -0.000  -0.000   0.000  -0.000   0.000   0.000   0.000  -0.000   0.000
  0.000  -0.000   0.000   0.000  -0.000  -0.000   0.000  -0.000  -0.000   0.000  -0.000   0.000   0.000  -0.000   0.000  -0.000
 -0.000   0.000  -0.000   0.000  -0.000   0.000  -0.000   0.000  -0.000   0.000   0.000  -0.000   0.000   0.000  -0.000  -0.000
  0.000  -0.000   0.000   0.000  -0.000  -0.000   0.000   0.000  -0.000  -0.000  -0.000   0.000   0.000  -0.000   0.000  -0.000
  0.000   0.000   0.000  -0.000  -0.000  -0.000  -0.000  -0.000   0.000   0.000  -0.000  -0.000   0.000  -0.000   0.000   0.000
 -0.000  -0.000  -0.000  -0.000   0.000   0.000   0.000  -0.000   0.000  -0.000   0.000   0.000  -0.000  -0.000  -0.000  -0.000
  0.000  -0.000   0.000   0.000  -0.000  -0.000   0.000  -0.000  -0.000   0.000   0.000  -0.000   0.000  -0.000   0.000   0.000
 -0.000   0.000  -0.000  -0.000   0.000   0.000  -0.000   0.000  -0.000   0.000  -0.000  -0.000   0.000   0.000  -0.000  -0.000
 -0.000  -0.000   0.000   0.000   0.000   0.000   0.000   0.000   0.000  -0.000   0.000   0.000  -0.000  -0.000  -0.000  -0.000
  0.000   0.000   0.000   0.000   0.000  -0.000   0.000  -0.000  -0.000  -0.000  -0.000   0.000  -0.000  -0.000   0.000   0.000
  0.000   0.000   0.000  -0.000  -0.000   0.000  -0.000   0.000   0.000  -0.000   0.000  -0.000  -0.000   0.000   0.000  -0.000
  0.000   0.000   0.000  -0.000   0.000  -0.000  -0.000  -0.000   0.000  -0.000   0.000  -0.000  -0.000   0.000  -0.000   0.000
 -0.000  -0.000  -0.000   0.000  -0.000   0.000   0.000   0.000  -0.000   0.000   0.000  -0.000  -0.000   0.000  -0.000  -0.000
 -0.000  -0.000  -0.000  -0.000   0.000  -0.000   0.000   0.000   0.000   0.000  -0.000   0.000   0.000   0.000   0.000  -0.000


------------------------ aborting loop because EDIFF is reached ----------------------------------------


    CHARGE:  cpu time    0.12: real time    0.11
    FORLOC:  cpu time    0.01: real time    0.01
    FORNL :  cpu time    1.99: real time    1.99
    STRESS:  cpu time    2.44: real time    2.44
    FORCOR:  cpu time    0.23: real time    0.23
    FORHAR:  cpu time    0.04: real time    0.03
    MIXING:  cpu time    0.00: real time    0.00
    OFIELD:  cpu time    0.00: real time    0.00

  FORCE on cell =-STRESS in cart. coord.  units (eV):
  Direction    XX          YY          ZZ          XY          YZ          ZX
  --------------------------------------------------------------------------------------
  Alpha Z    89.73874    89.73874    89.73874
  Ewald   27460.11930 17606.40893 33816.21730  1005.19755  3017.36397  3014.91454
  Hartree 38662.86733 29339.57644 44702.14824   854.65939  2764.52288  2763.37182
  E(xc)   -1971.63157 -1972.41707 -1971.13453     0.46586     0.47470     0.42690
  Local  -71677.60515-52500.04165-84072.49384 -1858.75469 -5779.40241 -5775.94474
  n-local  -354.44858  -356.30222  -353.32868     0.46685     0.34127     0.48225
  augment  3123.29357  3124.18278  3122.76269    -0.47687    -0.93866    -0.87738
  Kinetic  4655.28869  4656.71423  4653.89298    -1.45313    -2.25185    -2.44317
  Fock        0.00000     0.00000     0.00000     0.00000     0.00000     0.00000
  -------------------------------------------------------------------------------------
  Total     -12.37766   -12.13982   -12.19710     0.10496     0.10990    -0.06979
  in kB      -1.80991    -1.77513    -1.78351     0.01535     0.01607    -0.01020
  external pressure =       -1.79 kB  Pullay stress =        0.00 kB


 VOLUME and BASIS-vectors are now :
 -----------------------------------------------------------------------------
  energy-cutoff  :      249.84
  volume of cell :    10957.01
      direct lattice vectors                 reciprocal lattice vectors
    22.210790647  0.000000000  0.000000000     0.045023161  0.000000000  0.000000000
     0.000000000 22.210790647  0.000000000     0.000000000  0.045023161  0.000000000
     0.000000000  0.000000000 22.210790647     0.000000000  0.000000000  0.045023161

  length of vectors
    22.210790647 22.210790647 22.210790647     0.045023161  0.045023161  0.045023161


 FORCES acting on ions
    electron-ion (+dipol)            ewald-force                    non-local-force                 convergence-correction
 -----------------------------------------------------------------------------------------------
   -.107E+04 -.870E+03 0.102E+02   0.107E+04 0.865E+03 -.964E+01   0.461E+01 0.510E+01 -.581E+00   -.276E-03 -.972E-03 0.162E-02
   -.107E+04 -.584E+03 -.833E+03   0.107E+04 0.583E+03 0.831E+03   0.227E+01 0.780E+00 0.152E+01   0.166E-02 -.195E-04 -.156E-02
   -.143E+04 -.108E+03 0.338E+03   0.142E+04 0.108E+03 -.338E+03   0.259E+01 0.128E+00 -.103E-01   -.378E-03 -.993E-03 0.229E-02
   -.124E+04 0.505E+03 -.737E+03   0.124E+04 -.504E+03 0.735E+03   0.305E+01 -.121E+01 0.154E+01   0.707E-03 -.148E-03 -.132E-02
   -.121E+04 0.575E+03 0.418E+03   0.121E+04 -.573E+03 -.417E+03   0.916E+00 -.242E+01 -.257E+00   0.561E-04 0.129E-02 0.894E-03
   -.211E+03 -.123E+04 -.699E+03   0.210E+03 0.123E+04 0.699E+03   0.114E+01 0.277E+01 0.943E+00   -.179E-02 -.758E-03 0.797E-03
   -.738E+03 0.127E+04 -.483E+03   0.735E+03 -.126E+04 0.482E+03   0.228E+01 -.465E+01 0.123E+01   0.276E-03 -.427E-03 0.259E-03
   -.693E+03 0.127E+04 0.492E+03   0.690E+03 -.127E+04 -.490E+03   0.325E+01 -.495E+01 -.123E+01   -.144E-02 -.451E-03 0.715E-03
   -.616E+03 0.389E+02 -.131E+04   0.615E+03 -.388E+02 0.131E+04   0.999E+00 -.183E+00 0.259E+01   -.131E-02 0.601E-03 0.141E-02
   -.596E+03 -.125E+04 0.193E+03   0.594E+03 0.124E+04 -.193E+03   0.169E+01 0.207E+01 -.110E+00   0.186E-03 -.675E-03 -.309E-03
   -.131E+03 0.106E+04 -.101E+04   0.130E+03 -.105E+04 0.101E+04   0.869E+00 -.300E+01 0.410E+00   0.388E-03 -.388E-03 0.767E-03
   -.334E+03 -.604E+02 -.270E+03   0.334E+03 0.611E+02 0.269E+03   -.470E+00 -.704E+00 0.854E+00   0.513E-04 -.254E-03 -.100E-02
   -.911E+03 -.323E+03 0.902E+03   0.910E+03 0.322E+03 -.901E+03   0.727E+00 0.100E+01 -.102E+01   -.212E-02 -.538E-03 -.292E-03
   0.220E+02 0.112E+04 -.137E+03   -.227E+02 -.112E+04 0.138E+03   0.734E+00 -.162E+01 -.388E+00   0.111E-02 -.254E-04 -.220E-02
   -.573E+02 -.694E+03 -.127E+04   0.563E+02 0.692E+03 0.127E+04   0.101E+01 0.244E+01 0.476E+01   0.103E-02 -.496E-03 -.722E-03
   -.617E+03 0.563E+03 0.116E+04   0.616E+03 -.562E+03 -.116E+04   0.119E+01 -.165E+01 -.136E+01   0.868E-03 0.114E-02 0.115E-02
   0.287E+03 0.563E+03 -.121E+04   -.284E+03 -.563E+03 0.121E+04   -.213E+01 -.443E+00 0.221E+01   -.353E-03 0.913E-03 -.930E-04
   0.787E+03 -.257E+03 -.111E+04   -.784E+03 0.255E+03 0.111E+04   -.283E+01 0.202E+01 0.489E+01   -.247E-03 -.814E-03 -.121E-02
   0.221E+03 0.134E+04 0.702E+03   -.221E+03 -.134E+04 -.700E+03   -.479E+00 -.473E+01 -.143E+01   -.105E-03 -.940E-03 0.175E-02
   0.879E+03 0.117E+04 0.149E+03   -.877E+03 -.116E+04 -.149E+03   -.147E+01 -.188E+01 0.319E+00   0.352E-03 -.863E-03 -.103E-02
   0.570E+03 0.669E+03 -.543E+03   -.569E+03 -.669E+03 0.543E+03   -.151E+01 0.392E+00 0.295E+00   -.399E-03 0.327E-02 0.891E-03
   0.510E+03 0.685E+03 0.122E+04   -.510E+03 -.684E+03 -.121E+04   -.955E+00 -.135E+01 -.191E+01   -.154E-02 0.509E-03 -.120E-02
   0.230E+03 0.273E+02 0.358E+03   -.230E+03 -.276E+02 -.358E+03   -.790E+00 0.344E+00 -.447E+00   0.231E-02 -.251E-03 0.589E-03
   -.341E+03 -.181E+03 0.136E+04   0.341E+03 0.179E+03 -.135E+04   -.204E+00 0.141E+01 -.252E+01   0.134E-02 -.589E-03 0.424E-04
   -.339E+03 -.127E+04 0.681E+03   0.338E+03 0.126E+04 -.680E+03   0.111E+01 0.331E+01 -.140E+01   0.154E-02 -.110E-02 0.506E-03
   0.327E+03 -.122E+04 -.563E+02   -.327E+03 0.122E+04 0.572E+02   -.882E-01 0.128E+01 -.900E+00   0.533E-03 -.806E-03 0.104E-02
   0.700E+03 -.942E+03 -.578E+03   -.698E+03 0.942E+03 0.576E+03   -.182E+01 0.382E+00 0.193E+01   0.838E-03 -.199E-02 -.270E-03
   0.139E+04 0.607E+03 -.188E+03   -.138E+04 -.604E+03 0.188E+03   -.450E+01 -.250E+01 0.552E+00   -.932E-03 0.220E-02 -.604E-03
   0.123E+04 0.204E+03 -.712E+03   -.123E+04 -.203E+03 0.711E+03   -.316E+01 -.107E+01 0.916E+00   0.930E-03 0.119E-02 0.111E-03
   0.171E+03 -.963E+03 0.106E+04   -.171E+03 0.958E+03 -.105E+04   -.192E+00 0.455E+01 -.433E+01   -.740E-03 0.110E-02 -.184E-02
   0.137E+04 0.109E+03 0.563E+03   -.137E+04 -.108E+03 -.563E+03   -.284E+01 -.934E+00 -.414E+00   -.213E-02 0.683E-04 -.204E-03
   0.845E+03 -.158E+03 0.120E+04   -.843E+03 0.158E+03 -.120E+04   -.252E+01 0.423E+00 -.409E+01   -.107E-02 -.109E-02 -.134E-02
   0.121E+04 -.653E+03 -.103E+03   -.120E+04 0.653E+03 0.103E+03   -.316E+01 0.165E-01 0.361E+00   -.119E-02 -.668E-03 0.143E-02
   0.861E+03 -.101E+04 0.452E+03   -.860E+03 0.101E+04 -.451E+03   -.119E+01 0.215E+01 -.136E+01   -.209E-02 0.123E-02 0.190E-03
 -----------------------------------------------------------------------------------------------
   0.181E+01 0.270E+01 -.158E+01   -.239E-11 0.171E-11 -.114E-12   -.184E+01 -.275E+01 0.158E+01   -.396E-02 -.173E-02 0.126E-02
 
 
 POSITION                                       TOTAL-FORCE (eV/Angst)
 -----------------------------------------------------------------------------------
     16.28994     14.58592     11.83292        -0.009959      0.007309     -0.002157
     14.83496     13.06009     13.61146         0.005423      0.003706     -0.004926
     15.57648     12.04657     11.10772        -0.000405      0.005361     -0.001691
     14.81578     10.22218     13.35099         0.000212      0.000830     -0.003743
     14.37129      9.65664     10.58906        -0.003965      0.005361      0.001234
     12.19763     13.99622     13.80948        -0.001912      0.004654      0.001626
     13.98857      7.64333     12.49608         0.001348     -0.000609     -0.000723
     13.45096      7.17808      9.64009         0.007982      0.003054     -0.004511
     12.99485     11.60930     15.11103        -0.000277     -0.001491      0.001367
     13.57066     14.12866     11.27012        -0.003716      0.003127      0.000973
     12.16375      9.20246     13.95819         0.003162     -0.002236     -0.001388
     12.56375     11.52127     12.19679        -0.009838      0.002645      0.002640
     13.33384     11.97686      9.39777        -0.007622      0.002177      0.002632
     11.70831      8.69669     11.13822        -0.000159     -0.012268     -0.003674
     11.04813     13.33361     16.27676         0.006854     -0.001528      0.000224
     12.42461      9.53325      8.39055        -0.003519      0.004356      0.002704
     10.31805     10.77746     15.33690         0.002390      0.003495     -0.006087
      8.37490     12.41236     16.48514         0.007580     -0.002274      0.002540
     10.82478      7.26821      8.64198         0.003954     -0.001618     -0.004708
      9.03062      8.67965     10.20474        -0.003604     -0.007591     -0.008329
      9.83070     10.15999     12.61195        -0.010650     -0.020410      0.003619
      9.67889      9.61405      7.58249         0.002417     -0.000933     -0.003532
     10.62002     11.14209     10.03504        -0.002609     -0.005844      0.005253
     11.31694     11.93847      7.36506        -0.000831     -0.001762      0.009505
     11.85149     14.28882      8.93364        -0.000151      0.006201      0.000711
     10.75147     13.70205     11.45612         0.000704      0.007752      0.001806
      9.50519     13.24591     13.96200         0.002695      0.007329      0.004407
      7.07373      9.88177     11.73974         0.001271     -0.002908      0.000132
      7.65148     11.13251     14.16617         0.005548      0.002824     -0.000293
     10.15075     14.35558      6.65591        -0.002473      0.003970      0.000971
      7.71577     10.97039      9.16111         0.002695     -0.001177     -0.001999
      8.54577     12.03060      6.69113        -0.001203     -0.000295     -0.001737
      8.31421     12.37793     11.56570         0.006277     -0.006339      0.005840
      9.15001     13.40621      9.06620         0.002381     -0.004869      0.001316
 -----------------------------------------------------------------------------------
    total drift:                               -0.037012     -0.057048      0.001132


--------------------------------------------------------------------------------------------------------



  FREE ENERGIE OF THE ION-ELECTRON SYSTEM (eV)
  ---------------------------------------------------
  free  energy   TOTEN  =       -72.09323110 eV

  energy  without entropy=      -72.09323110  energy(sigma->0) =      -72.09323110
 
 d Force = 0.3786224E-05[ 0.663E-05, 0.947E-06]  d Energy = 0.5723603E-05-0.194E-05
 d Force = 0.1069615E+00[ 0.107E+00, 0.107E+00]  d Ewald  = 0.1069615E+00 0.125E-08


--------------------------------------------------------------------------------------------------------


    POTLOK:  cpu time    0.23: real time    0.23


--------------------------------------------------------------------------------------------------------




--------------------------------------------------------------------------------------------------------


  
 reached required accuracy - stopping structural energy minimisation
     LOOP+:  cpu time   11.05: real time   11.37
    4ORBIT:  cpu time    0.00: real time    0.00

 total amount of memory used by VASP on root node    53537. kBytes
========================================================================

   base      :      30000. kBytes
   nonl-proj :       2121. kBytes
   fftplans  :       4332. kBytes
   grid      :      10964. kBytes
   one-center:         46. kBytes
   wavefun   :       6074. kBytes
 
  
  
 General timing and accounting informations for this job:
 ========================================================
  
                  Total CPU time used (sec):      965.892
                            User time (sec):      959.084
                          System time (sec):        6.808
                         Elapsed time (sec):     1017.211
  
                   Maximum memory used (kb):       65680.
                   Average memory used (kb):           0.
  
                          Minor page faults:       592213
                          Major page faults:            0
                 Voluntary context switches:        28752
