   18   18 1000    2
  0.4327501E+03  0.1982302E-08  0.1982302E-08  0.1982302E-08  0.1000000E-15
  1.000000000000000E-004
  CAR 
 unknown system                          
    198      1    128
 
  0.0000000E+00  0.0000000E+00  0.0000000E+00  0.1000000E+01
    1       -9.401269     -9.401269
    2       -9.122224     -9.122224
    3       -8.954069     -8.954069
    4       -8.941276     -8.941276
    5       -8.895028     -8.895028
    6       -8.879343     -8.879343
    7       -8.817808     -8.817808
    8       -8.801316     -8.801316
    9       -8.756115     -8.756115
   10       -8.745459     -8.745459
   11       -8.564986     -8.564986
   12       -8.547867     -8.547867
   13       -8.525923     -8.525923
   14       -8.507942     -8.507942
   15       -8.463869     -8.463869
   16       -8.402141     -8.402141
   17       -8.400855     -8.400855
   18       -8.382537     -8.382537
   19       -8.370797     -8.370797
   20       -8.362604     -8.362604
   21       -8.352967     -8.352967
   22       -8.319941     -8.319941
   23       -8.308373     -8.308373
   24       -8.291859     -8.291859
   25       -8.279170     -8.279170
   26       -8.218059     -8.218059
   27       -8.213779     -8.213779
   28       -8.148478     -8.148478
   29       -8.112939     -8.112939
   30       -8.109008     -8.109008
   31       -8.094294     -8.094294
   32       -8.019649     -8.019649
   33       -7.967817     -7.967817
   34       -7.944119     -7.944119
   35       -7.829150     -7.829150
   36       -7.813693     -7.813693
   37       -7.805078     -7.805078
   38       -7.797773     -7.797773
   39       -7.655316     -7.655316
   40       -7.627035     -7.627035
   41       -7.593412     -7.593412
   42       -7.518854     -7.518854
   43       -7.496006     -7.496006
   44       -7.479652     -7.479652
   45       -7.423061     -7.423061
   46       -7.376555     -7.376555
   47       -7.370565     -7.370565
   48       -7.365821     -7.365821
   49       -7.341884     -7.341884
   50       -7.266613     -7.266613
   51       -7.235843     -7.235843
   52       -7.225872     -7.225872
   53       -7.194201     -7.194201
   54       -7.181940     -7.181940
   55       -7.101377     -7.101377
   56       -7.072078     -7.072078
   57       -7.064234     -7.064234
   58       -7.035995     -7.035995
   59       -7.024360     -7.024360
   60       -7.000904     -7.000904
   61       -6.982187     -6.982187
   62       -6.968054     -6.968054
   63       -6.956618     -6.956618
   64       -6.936305     -6.936305
   65       -6.928553     -6.928553
   66       -6.921268     -6.921268
   67       -6.894247     -6.894248
   68       -6.881249     -6.881249
   69       -6.858483     -6.858483
   70       -6.807296     -6.807296
   71       -6.801619     -6.801619
   72       -6.784668     -6.784668
   73       -6.775625     -6.775625
   74       -6.731194     -6.731194
   75       -6.714769     -6.714769
   76       -6.707101     -6.707101
   77       -6.699471     -6.699471
   78       -6.680560     -6.680560
   79       -6.651630     -6.651630
   80       -6.631785     -6.631784
   81       -6.610922     -6.610922
   82       -6.588991     -6.588991
   83       -6.574820     -6.574820
   84       -6.540784     -6.540784
   85       -6.537481     -6.537481
   86       -6.514398     -6.514398
   87       -6.484248     -6.484248
   88       -6.465419     -6.465419
   89       -6.424839     -6.424839
   90       -6.323289     -6.323289
   91       -6.296470     -6.296470
   92       -6.259808     -6.259808
   93       -6.071348     -6.071348
   94       -5.861017     -5.861017
   95       -4.921406     -4.921406
   96       -4.826516     -4.826516
   97       -4.283847     -4.283847
   98       -3.874674     -3.874674
   99       -3.868696     -3.868696
  100       -3.464199     -3.464199
  101       -2.856065     -2.856065
  102       -2.803886     -2.803886
  103       -2.342946     -2.342946
  104       -2.259196     -2.259196
  105       -2.213710     -2.213710
  106       -1.786777     -1.786777
  107       -1.746313     -1.746313
  108       -1.549179     -1.549179
  109       -1.519342     -1.519343
  110       -1.264046     -1.264046
  111       -1.054736     -1.054736
  112       -0.927787     -0.927788
  113       -0.542404     -0.542404
  114       -0.452926     -0.452927
  115       -0.344026     -0.344026
  116       -0.195776     -0.195777
  117        0.024472      0.024472
  118        0.074557      0.074556
  119        0.329061      0.329065
  120        0.385500      0.385505
  121        0.439066      0.439063
  122        0.462665      0.462665
  123        0.593611      0.593609
  124        0.661945      0.661945
  125        0.670972      0.670973
  126        0.754966      0.754959
  127        0.770297      0.770302
  128        0.774577      0.774588
