 vasp.5.3.5 31Mar14 (build Feb 01 2018 12:10:03) gamma-only                     
  
 executed on             LinuxIFC date 2019.03.22  02:36:43
 running on   32 total cores
 distrk:  each k-point on   32 cores,    1 groups
 distr:  one band on NCORES_PER_BAND=   8 cores,    4 groups


--------------------------------------------------------------------------------------------------------


 INCAR:
 POTCAR:    PAW_PBE Ag 02Apr2005                  
 POTCAR:    PAW_PBE Ag 02Apr2005                  
   VRHFIN =Ag : s1 d10                                                          
   LEXCH  = PE                                                                  
   EATOM  =  1037.2675 eV,   76.2370 Ry                                         
                                                                                
   TITEL  = PAW_PBE Ag 02Apr2005                                                
   LULTRA =        F    use ultrasoft PP ?                                      
   IUNSCR =        1    unscreen: 0-lin 1-nonlin 2-no                           
   RPACOR =    2.000    partial core radius                                     
   POMASS =  107.868; ZVAL   =   11.000    mass and valenz                      
   RCORE  =    2.500    outmost cutoff radius                                   
   RWIGS  =    2.840; RWIGS  =    1.503    wigner-seitz radius (au A)           
   ENMAX  =  249.844; ENMIN  =  187.383 eV                                      
   ICORE  =        3    local potential                                         
   LCOR   =        T    correct aug charges                                     
   LPAW   =        T    paw PP                                                  
   EAUG   =  412.496                                                            
   DEXC   =    0.000                                                            
   RMAX   =    2.560    core radius for proj-oper                               
   RAUG   =    1.300    factor for augmentation sphere                          
   RDEP   =    2.576    radius for radial grids                                 
   RDEPT  =    2.072    core radius for aug-charge                              
                                                                                
   Atomic configuration                                                         
   12 entries                                                                   
     n  l   j            E        occ.                                          
     1  0  0.50    -25324.9161   2.0000                                         
     2  0  0.50     -3728.5341   2.0000                                         
     2  1  1.50     -3344.0404   6.0000                                         
     3  0  0.50      -683.5581   2.0000                                         
     3  1  1.50      -557.3225   6.0000                                         
     3  2  2.50      -358.3853  10.0000                                         
     4  0  0.50       -95.0341   2.0000                                         
     4  1  1.50       -58.5511   6.0000                                         
     4  2  2.50        -7.4440  10.0000                                         
     5  0  0.50        -4.4045   1.0000                                         
     5  1  0.50        -1.3606   0.0000                                         
     4  3  2.50        -1.3606   0.0000                                         
   Description                                                                  
     l       E           TYP  RCUT    TYP  RCUT                                 
     2     -7.4439781     23  2.400                                             
     2     -8.8045607     23  2.400                                             
     0     -4.4044681     23  2.400                                             
     0      1.9520038     23  2.400                                             
     1     -1.3605826     23  2.500                                             
     1     27.2116520     23  2.500                                             
     3     -4.0817478     23  2.400                                             
  local pseudopotential read in
  partial core-charges read in
  partial kinetic energy density read in
  atomic valenz-charges read in
  non local Contribution for L=           2  read in
    real space projection operators read in
  non local Contribution for L=           2  read in
    real space projection operators read in
  non local Contribution for L=           0  read in
    real space projection operators read in
  non local Contribution for L=           0  read in
    real space projection operators read in
  non local Contribution for L=           1  read in
    real space projection operators read in
  non local Contribution for L=           1  read in
    real space projection operators read in
    PAW grid and wavefunctions read in
 
   number of l-projection  operators is LMAX  =           6
   number of lm-projection operators is LMMAX =          18
 

 ----------------------------------------------------------------------------- 
|                                                                             |
|  ADVICE TO THIS USER RUNNING 'VASP/VAMP'   (HEAR YOUR MASTER'S VOICE ...):  |
|                                                                             |
|      You have a (more or less) 'large supercell' and for larger cells       |
|      it might be more efficient to use real space projection opertators     |
|      So try LREAL= Auto  in the INCAR   file.                               |
|      Mind: At the moment your POTCAR file does not contain real space       |
|       projectors, and has to be modified,  BUT if you                       |
|      want to do an extremely  accurate calculation you might also keep the  |
|      reciprocal projection scheme          (i.e. LREAL=.FALSE.)             |
|                                                                             |
 ----------------------------------------------------------------------------- 

  PAW_PBE Ag 02Apr2005                  :
 energy of atom  1       EATOM=-1037.2675
 kinetic energy error for atom=    0.0689 (will be added to EATOM!!)
 
 
 POSCAR: Ti24, -155.55593529 <s> Ag </s>         
  positions in direct lattice
  No initial velocities read in
 exchange correlation table for  LEXCH =        8
   RHO(1)=    0.500       N(1)  =     2000
   RHO(2)=  100.500       N(2)  =     4000
 


--------------------------------------------------------------------------------------------------------


 ion  position               nearest neighbor table
   1  0.590  0.438  0.415-   3 2.74  11 2.82   7 2.84   5 2.87   4 2.90  13 2.93   2 2.94   6 2.95

   2  0.558  0.548  0.323-  11 2.56   4 2.61  12 2.74  10 2.75   5 2.82   1 2.94
   3  0.690  0.459  0.507-  13 2.55   8 2.70   9 2.73   1 2.74   5 2.88   6 2.92
   4  0.466  0.457  0.342-   2 2.61  11 2.63   7 2.68  12 2.71  16 2.74   1 2.90
   5  0.634  0.573  0.439-  11 2.77  13 2.79   9 2.81   2 2.82  15 2.86   1 2.87   3 2.88  10 2.89

   6  0.578  0.373  0.547-  13 2.61  14 2.69   3 2.92   8 2.93   7 2.95   1 2.95  17 3.10  22 3.33

   7  0.467  0.378  0.451-  22 2.65   4 2.68   1 2.84  14 2.84  19 2.88   6 2.95  16 3.21  11 3.37

   8  0.653  0.460  0.638-  13 2.55   3 2.70  18 2.71   9 2.74  17 2.78   6 2.93
   9  0.678  0.578  0.573-  13 2.58  18 2.59   3 2.73   8 2.74   5 2.81  15 2.99
  10  0.527  0.660  0.397-  11 2.53  12 2.70   2 2.75  15 2.76   5 2.89  21 2.95
  11  0.499  0.543  0.436-  10 2.53  22 2.53  12 2.54   2 2.56  21 2.62   4 2.63   5 2.77  13 2.80
                             1 2.82  15 2.89  16 2.90   7 3.37
  12  0.427  0.587  0.341-  11 2.54  10 2.70   4 2.71   2 2.74  16 2.76  21 2.94
  13  0.577  0.503  0.546-   3 2.55   8 2.55  22 2.56   9 2.58   6 2.61  18 2.63   5 2.79  11 2.80
                            15 2.81  17 2.86   1 2.93  23 3.32
  14  0.452  0.360  0.591-  19 2.63  22 2.65   6 2.69  17 2.70  20 2.71   7 2.84
  15  0.548  0.639  0.532-  10 2.76  23 2.81  13 2.81   5 2.86  11 2.89  18 2.92  21 2.96   9 2.99

  16  0.362  0.496  0.422-  24 2.71   4 2.74  12 2.76  19 2.79  22 2.89  11 2.90  21 3.03   7 3.21

  17  0.517  0.451  0.665-  14 2.70  18 2.72  20 2.76   8 2.78  13 2.86  22 2.98   6 3.10  23 3.12

  18  0.580  0.572  0.657-   9 2.59  13 2.63   8 2.71  17 2.72  23 2.72  15 2.92
  19  0.347  0.404  0.526-  22 2.58  14 2.63  20 2.72  24 2.72  16 2.79   7 2.88
  20  0.381  0.462  0.644-  22 2.61  24 2.62  14 2.71  19 2.72  17 2.76  23 2.85
  21  0.409  0.627  0.481-  11 2.62  24 2.70  12 2.94  10 2.95  15 2.96  23 2.97  16 3.03  22 3.26

  22  0.451  0.479  0.535-  11 2.53  13 2.56  19 2.58  20 2.61  24 2.63  14 2.65   7 2.65  23 2.66
                            16 2.89  17 2.98  21 3.26   6 3.33
  23  0.451  0.584  0.617-  22 2.66  18 2.72  15 2.81  20 2.85  24 2.87  21 2.97  17 3.12  13 3.32

  24  0.334  0.538  0.548-  20 2.62  22 2.63  21 2.70  16 2.71  19 2.72  23 2.87
 
  LATTYP: Found a simple cubic cell.
 ALAT       =    19.9944748423
  
  Lattice vectors:
  
 A1 = (  19.9944748423,   0.0000000000,   0.0000000000)
 A2 = (   0.0000000000,  19.9944748423,   0.0000000000)
 A3 = (   0.0000000000,   0.0000000000,  19.9944748423)


Analysis of symmetry for initial positions (statically):
=====================================================================
 Subroutine PRICEL returns:
 Original cell was already a primitive cell.
 

 Routine SETGRP: Setting up the symmetry group for a 
 simple cubic supercell.


 Subroutine GETGRP returns: Found  1 space group operations
 (whereof  1 operations were pure point group operations)
 out of a pool of 48 trial point group operations.


The static configuration has the point symmetry C_1 .


Analysis of symmetry for dynamics (positions and initial velocities):
=====================================================================
 Subroutine PRICEL returns:
 Original cell was already a primitive cell.
 

 Routine SETGRP: Setting up the symmetry group for a 
 simple cubic supercell.


 Subroutine GETGRP returns: Found  1 space group operations
 (whereof  1 operations were pure point group operations)
 out of a pool of 48 trial point group operations.


The dynamic configuration has the point symmetry C_1 .


Analysis of magnetic symmetry:
=====================================================================
 Subroutine PRICEL returns:
 Original cell was already a primitive cell.
 

 Subroutine MAGSYM returns: Found  1 space group operations
 (whereof  1 operations were pure point group operations)
 out of a pool of  1 trial space group operations
 (whereof  1 operations were pure point group operations)
 and found also     1 'primitive' translations


The magnetic configuration has the point symmetry C_1 .
 
 
 KPOINTS: Gamma-point only                        
  k-points in reciprocal lattice
Space group operators:
 irot       det(A)        alpha          n_x          n_y          n_z        tau_x        tau_y        tau_z
    1     1.000000     0.000001     1.000000     0.000000     0.000000     0.000000     0.000000     0.000000


--------------------------------------------------------------------------------------------------------




 Dimension of arrays:
   k-points           NKPTS =      1   k-points in BZ     NKDIM =      1   number of bands    NBANDS=    172
   number of dos      NEDOS =    301   number of ions     NIONS =     24
   non local maximal  LDIM  =      6   non local SUM 2l+1 LMDIM =     18
   total plane-waves  NPLWV = 512000
   max r-space proj   IRMAX =      1   max aug-charges    IRDMAX=   3349
   dimension x,y,z NGX =    80 NGY =   80 NGZ =   80
   dimension x,y,z NGXF=   160 NGYF=  160 NGZF=  160
   support grid    NGXF=   160 NGYF=  160 NGZF=  160
   ions per type =              24
 NGX,Y,Z   is equivalent  to a cutoff of   6.65,  6.65,  6.65 a.u.
 NGXF,Y,Z  is equivalent  to a cutoff of  13.30, 13.30, 13.30 a.u.


 I would recommend the setting:
   dimension x,y,z NGX =    77 NGY =   77 NGZ =   77
 SYSTEM =  unknown system                          
 POSCAR =  Ti24, -155.55593529 <s> Ag </s>         

 Startparameter for this run:
   NWRITE =      2    write-flag & timer
   PREC   = normal    normal or accurate (medium, high low for compatibility)
   ISTART =      0    job   : 0-new  1-cont  2-samecut
   ICHARG =      2    charge: 1-file 2-atom 10-const
   ISPIN  =      2    spin polarized calculation?
   LNONCOLLINEAR =      F non collinear calculations
   LSORBIT =      F    spin-orbit coupling
   INIWAV =      1    electr: 0-lowe 1-rand  2-diag
   LASPH  =      F    aspherical Exc in radial PAW
   METAGGA=      F    non-selfconsistent MetaGGA calc.

 Electronic Relaxation 1
   ENCUT  =  249.8 eV  18.36 Ry    4.29 a.u.  25.77 25.77 25.77*2*pi/ulx,y,z
   ENINI  =  249.8     initial cutoff
   ENAUG  =  412.5 eV  augmentation charge cutoff
   NELM   =     60;   NELMIN=  2; NELMDL= -5     # of ELM steps 
   EDIFF  = 0.1E-03   stopping-criterion for ELM
   LREAL  =      F    real-space projection
   NLSPLINE    = F    spline interpolate recip. space projectors
   LCOMPAT=      F    compatible to vasp.4.4
   GGA_COMPAT  = T    GGA compatible to vasp.4.4-vasp.4.6
   LMAXPAW     = -100 max onsite density
   LMAXMIX     =    2 max onsite mixed and CHGCAR
   VOSKOWN=      0    Vosko Wilk Nusair interpolation
   ROPT   =    0.00000
 Ionic relaxation
   EDIFFG = 0.1E-02   stopping-criterion for IOM
   NSW    =   1000    number of steps for IOM
   NBLOCK =      1;   KBLOCK =   1000    inner block; outer block 
   IBRION =      2    ionic relax: 0-MD 1-quasi-New 2-CG
   NFREE  =      1    steps in history (QN), initial steepest desc. (CG)
   ISIF   =      2    stress and relaxation
   IWAVPR =     11    prediction:  0-non 1-charg 2-wave 3-comb
   ISYM   =      2    0-nonsym 1-usesym 2-fastsym
   LCORR  =      T    Harris-Foulkes like correction to forces

   POTIM  = 0.1000    time-step for ionic-motion
   TEIN   =    0.0    initial temperature
   TEBEG  =    0.0;   TEEND  =   0.0 temperature during run
   SMASS  =  -3.00    Nose mass-parameter (am)
   estimated Nose-frequenzy (Omega)   =  0.10E-29 period in steps =****** mass=  -0.914E-26a.u.
   SCALEE = 1.0000    scale energy and forces
   NPACO  =    256;   APACO  = 16.0  distance and # of slots for P.C.
   PSTRESS=    0.0 pullay stress

  Mass of Ions in am
   POMASS = 107.87
  Ionic Valenz
   ZVAL   =  11.00
  Atomic Wigner-Seitz radii
   RWIGS  =  -1.00
  virtual crystal weights 
   VCA    =   1.00
   NELECT =     264.0000    total number of electrons
   NUPDOWN=      -1.0000    fix difference up-down

 DOS related values:
   EMIN   =  10.00;   EMAX   =-10.00  energy-range for DOS
   EFERMI =   0.00
   ISMEAR =     0;   SIGMA  =   0.00  broadening in eV -4-tet -1-fermi 0-gaus

 Electronic relaxation 2 (details)
   IALGO  =     38    algorithm
   LDIAG  =      T    sub-space diagonalisation (order eigenvalues)
   LSUBROT=      F    optimize rotation matrix (better conditioning)
   TURBO    =      0    0=normal 1=particle mesh
   IRESTART =      0    0=no restart 2=restart with 2 vectors
   NREBOOT  =      0    no. of reboots
   NMIN     =      0    reboot dimension
   EREF     =   0.00    reference energy to select bands
   IMIX   =      4    mixing-type and parameters
     AMIX     =   0.40;   BMIX     =  1.00
     AMIX_MAG =   1.60;   BMIX_MAG =  1.00
     AMIN     =   0.10
     WC   =   100.;   INIMIX=   1;  MIXPRE=   1;  MAXMIX= -45

 Intra band minimization:
   WEIMIN = 0.0010     energy-eigenvalue tresh-hold
   EBREAK =  0.15E-06  absolut break condition
   DEPER  =   0.30     relativ break condition  

   TIME   =   0.40     timestep for ELM

  volume/ion in A,a.u.               =     333.06      2247.58
  Fermi-wavevector in a.u.,A,eV,Ry     =   0.525250  0.992579  3.753680  0.275888
  Thomas-Fermi vector in A             =   1.545386
 
 Write flags
   LWAVE  =      F    write WAVECAR
   LCHARG =      F    write CHGCAR
   LVTOT  =      F    write LOCPOT, total local potential
   LVHAR  =      F    write LOCPOT, Hartree potential only
   LELF   =      F    write electronic localiz. function (ELF)
   LORBIT =      0    0 simple, 1 ext, 2 COOP (PROOUT)


 Dipole corrections
   LMONO  =      F    monopole corrections only (constant potential shift)
   LDIPOL =      F    correct potential (dipole corrections)
   IDIPOL =      0    1-x, 2-y, 3-z, 4-all directions 
   EPSILON=  1.0000000 bulk dielectric constant

 Exchange correlation treatment:
   GGA     =    PE    GGA type
   LEXCH   =     8    internal setting for exchange type
   VOSKOWN=      0    Vosko Wilk Nusair interpolation
   LHFCALC =     F    Hartree Fock is set to
   LHFONE  =     F    Hartree Fock one center treatment
   AEXX    =    0.0000 exact exchange contribution

 Linear response parameters
   LEPSILON=     F    determine dielectric tensor
   LRPA    =     F    only Hartree local field effects (RPA)
   LNABLA  =     F    use nabla operator in PAW spheres
   LVEL    =     F    velocity operator in full k-point grid
   LINTERFAST=   F  fast interpolation
   KINTER  =     0    interpolate to denser k-point grid
   CSHIFT  =0.1000    complex shift for real part using Kramers Kronig
   OMEGAMAX=  -1.0    maximum frequency
   DEG_THRESHOLD= 0.2000000E-02 threshold for treating states as degnerate
   RTIME   =    0.100 relaxation time in fs

 Orbital magnetization related:
   ORBITALMAG=     F  switch on orbital magnetization
   LCHIMAG   =     F  perturbation theory with respect to B field
   DQ        =  0.001000  dq finite difference perturbation B field



--------------------------------------------------------------------------------------------------------


 conjugate gradient relaxation of ions
 charge density and potential will be updated during run
 spin polarized calculation
 Variant of blocked Davidson
 Davidson routine will perform the subspace rotation
 perform sub-space diagonalisation
    after iterative eigenvector-optimisation
 modified Broyden-mixing scheme, WC =      100.0
 initial mixing is a Kerker type mixing with AMIX =  0.4000 and BMIX =      1.0000
 Hartree-type preconditioning will be used
 using additional bands           40
 reciprocal scheme for non local part
 use partial core corrections
 calculate Harris-corrections to forces 
   (improved forces if not selfconsistent)
 use gradient corrections 
 use of overlap-Matrix (Vanderbilt PP)
 Gauss-broadening in eV      SIGMA  =   0.00


--------------------------------------------------------------------------------------------------------


  energy-cutoff  :      249.84
  volume of cell :     7993.37
      direct lattice vectors                 reciprocal lattice vectors
    19.994474842  0.000000000  0.000000000     0.050013817  0.000000000  0.000000000
     0.000000000 19.994474842  0.000000000     0.000000000  0.050013817  0.000000000
     0.000000000  0.000000000 19.994474842     0.000000000  0.000000000  0.050013817

  length of vectors
    19.994474842 19.994474842 19.994474842     0.050013817  0.050013817  0.050013817


 
 k-points in units of 2pi/SCALE and weight: Gamma-point only                        
   0.00000000  0.00000000  0.00000000       1.000
 
 k-points in reciprocal lattice and weights: Gamma-point only                        
   0.00000000  0.00000000  0.00000000       1.000
 
 position of ions in fractional coordinates (direct lattice) 
   0.59049575  0.43803185  0.41496491
   0.55782344  0.54810298  0.32282502
   0.68961457  0.45855191  0.50733283
   0.46645874  0.45714951  0.34199884
   0.63417528  0.57251212  0.43916707
   0.57829706  0.37250107  0.54672768
   0.46673166  0.37826294  0.45066856
   0.65348830  0.45968627  0.63767301
   0.67776149  0.57792322  0.57274930
   0.52652416  0.65965350  0.39710019
   0.49882551  0.54285812  0.43641357
   0.42742821  0.58699391  0.34077450
   0.57654770  0.50277867  0.54561430
   0.45190799  0.35955280  0.59066222
   0.54779806  0.63948642  0.53177720
   0.36208784  0.49636398  0.42200023
   0.51722158  0.45144781  0.66510518
   0.58008058  0.57200735  0.65742464
   0.34650988  0.40430455  0.52570915
   0.38140812  0.46247493  0.64351984
   0.40940906  0.62746495  0.48084906
   0.45101424  0.47938525  0.53462349
   0.45063418  0.58428514  0.61673022
   0.33384247  0.53801973  0.54770297
 
 position of ions in cartesian coordinates  (Angst):
  11.80665242  8.75821689  8.29700536
  11.15338675 10.95903134  6.45471680
  13.78848115  9.16850472 10.14385341
   9.32659752  9.14046443  6.83808711
  12.68000161 11.44707918  8.78091490
  11.56274602  7.44796319 10.93153289
   9.33205447  7.56316879  9.01088126
  13.06615530  9.19118556 12.74993695
  13.55148514 11.55527123 11.45182141
  10.52757413 13.18942527  7.93980973
   9.97375416 10.85416300  8.72586020
   8.54620251 11.73663494  6.81360714
  11.52776849 10.05279540 10.90927140
   9.03566288  7.18906944 11.80998085
  10.95293444 12.78619512 10.63260580
   7.23975615  9.92453706  8.43767294
  10.34157391  9.02646195 13.29842877
  11.59840650 11.43698653 13.14486049
   6.92828313  8.08385714 10.51127831
   7.62605514  9.24694340 12.86684127
   8.18591907 12.54583222  9.61432447
   9.01779294  9.58505624 10.68951598
   9.01019372 11.68247448 12.33119684
   6.67500478 10.75742189 10.95103330
 


--------------------------------------------------------------------------------------------------------


 use parallel FFT for wavefunctions z direction half grid
 k-point  1 :   0.0000 0.0000 0.0000  plane waves:   35856

 maximum and minimum number of plane-waves per node :      4488     4477

 maximum number of plane-waves:     35856
 maximum index in each direction: 
   IXMAX=   25   IYMAX=   25   IZMAX=   25
   IXMIN=  -25   IYMIN=  -25   IZMIN=    0

 WARNING: aliasing errors must be expected set NGX to 102 to avoid them
 WARNING: aliasing errors must be expected set NGY to 102 to avoid them
 WARNING: aliasing errors must be expected set NGZ to 102 to avoid them
 aliasing errors are usually negligible using standard VASP settings
 and one can safely disregard these warnings

 parallel 3D FFT for wavefunctions:
    minimum data exchange during FFTs selected (reduces bandwidth)
 parallel 3D FFT for charge:
    minimum data exchange during FFTs selected (reduces bandwidth)


 total amount of memory used by VASP on root node    58837. kBytes
========================================================================

   base      :      30000. kBytes
   nonl-proj :       2365. kBytes
   fftplans  :       5772. kBytes
   grid      :      14451. kBytes
   one-center:         46. kBytes
   wavefun   :       6203. kBytes
 
     INWAV:  cpu time    0.00: real time    0.00
 Broyden mixing: mesh for mixing (old mesh)
   NGX = 51   NGY = 51   NGZ = 51
  (NGX  =160   NGY  =160   NGZ  =160)
  gives a total of 132651 points

 initial charge density was supplied:
 charge density of overlapping atoms calculated
 number of electron     264.0000000 magnetization      24.0000000
 keeping initial charge density in first step


--------------------------------------------------------------------------------------------------------


 Maximum index for augmentation-charges          246 (set IRDMAX)


--------------------------------------------------------------------------------------------------------


 First call to EWALD:  gamma=   0.089
 Maximum number of real-space cells 3x 3x 3
 Maximum number of reciprocal cells 3x 3x 3

 FEWALD executed in parallel
    FEWALD:  cpu time    0.00: real time    0.00


----------------------------------------- Iteration    1(   1)  ---------------------------------------


    POTLOK:  cpu time    0.25: real time    0.25
    SETDIJ:  cpu time    0.00: real time    0.01
     EDDAV:  cpu time    2.24: real time    2.25
       DOS:  cpu time    0.00: real time    0.00
    --------------------------------------------
      LOOP:  cpu time    2.50: real time    2.52

 eigenvalue-minimisations  :   688
 total energy-change (2. order) : 0.2334092E+04  (-0.5038050E+04)
 number of electron     264.0000000 magnetization      24.0000000
 augmentation part      264.0000000 magnetization      24.0000000

 Free energy of the ion-electron system (eV)
  ---------------------------------------------------
  alpha Z        PSCENC =        61.29240447
  Ewald energy   TEWEN  =     49561.21444113
  -Hartree energ DENC   =    -73393.57628145
  -exchange      EXHF   =         0.00000000
  -V(xc)+E(xc)   XCENC  =      -257.95582360
  PAW double counting   =     24080.93227367   -22974.35061309
  entropy T*S    EENTRO =         0.00000000
  eigenvalues    EBANDS =       363.76821581
  atomic energy  EATOM  =     24892.76712207
  ---------------------------------------------------
  free energy    TOTEN  =      2334.09173901 eV

  energy without entropy =     2334.09173901  energy(sigma->0) =     2334.09173901


--------------------------------------------------------------------------------------------------------




----------------------------------------- Iteration    1(   2)  ---------------------------------------


     EDDAV:  cpu time    3.48: real time    3.48
       DOS:  cpu time    0.00: real time    0.00
    --------------------------------------------
      LOOP:  cpu time    3.49: real time    3.50

 eigenvalue-minimisations  :  1168
 total energy-change (2. order) :-0.1857995E+04  (-0.1672512E+04)
 number of electron     264.0000000 magnetization      24.0000000
 augmentation part      264.0000000 magnetization      24.0000000

 Free energy of the ion-electron system (eV)
  ---------------------------------------------------
  alpha Z        PSCENC =        61.29240447
  Ewald energy   TEWEN  =     49561.21444113
  -Hartree energ DENC   =    -73393.57628145
  -exchange      EXHF   =         0.00000000
  -V(xc)+E(xc)   XCENC  =      -257.95582360
  PAW double counting   =     24080.93227367   -22974.35061309
  entropy T*S    EENTRO =         0.00000000
  eigenvalues    EBANDS =     -1494.22687637
  atomic energy  EATOM  =     24892.76712207
  ---------------------------------------------------
  free energy    TOTEN  =       476.09664683 eV

  energy without entropy =      476.09664683  energy(sigma->0) =      476.09664683


--------------------------------------------------------------------------------------------------------




----------------------------------------- Iteration    1(   3)  ---------------------------------------


     EDDAV:  cpu time    2.82: real time    2.82
       DOS:  cpu time    0.00: real time    0.00
    --------------------------------------------
      LOOP:  cpu time    2.82: real time    2.83

 eigenvalue-minimisations  :   904
 total energy-change (2. order) :-0.4987147E+03  (-0.4615025E+03)
 number of electron     264.0000000 magnetization      24.0000000
 augmentation part      264.0000000 magnetization      24.0000000

 Free energy of the ion-electron system (eV)
  ---------------------------------------------------
  alpha Z        PSCENC =        61.29240447
  Ewald energy   TEWEN  =     49561.21444113
  -Hartree energ DENC   =    -73393.57628145
  -exchange      EXHF   =         0.00000000
  -V(xc)+E(xc)   XCENC  =      -257.95582360
  PAW double counting   =     24080.93227367   -22974.35061309
  entropy T*S    EENTRO =         0.00000000
  eigenvalues    EBANDS =     -1992.94155623
  atomic energy  EATOM  =     24892.76712207
  ---------------------------------------------------
  free energy    TOTEN  =       -22.61803303 eV

  energy without entropy =      -22.61803303  energy(sigma->0) =      -22.61803303


--------------------------------------------------------------------------------------------------------




----------------------------------------- Iteration    1(   4)  ---------------------------------------


     EDDAV:  cpu time    2.44: real time    2.45
       DOS:  cpu time    0.00: real time    0.00
    --------------------------------------------
      LOOP:  cpu time    2.45: real time    2.45

 eigenvalue-minimisations  :   752
 total energy-change (2. order) :-0.2390488E+02  (-0.2369655E+02)
 number of electron     264.0000000 magnetization      24.0000000
 augmentation part      264.0000000 magnetization      24.0000000

 Free energy of the ion-electron system (eV)
  ---------------------------------------------------
  alpha Z        PSCENC =        61.29240447
  Ewald energy   TEWEN  =     49561.21444113
  -Hartree energ DENC   =    -73393.57628145
  -exchange      EXHF   =         0.00000000
  -V(xc)+E(xc)   XCENC  =      -257.95582360
  PAW double counting   =     24080.93227367   -22974.35061309
  entropy T*S    EENTRO =         0.00000000
  eigenvalues    EBANDS =     -2016.84643934
  atomic energy  EATOM  =     24892.76712207
  ---------------------------------------------------
  free energy    TOTEN  =       -46.52291614 eV

  energy without entropy =      -46.52291614  energy(sigma->0) =      -46.52291614


--------------------------------------------------------------------------------------------------------




----------------------------------------- Iteration    1(   5)  ---------------------------------------


     EDDAV:  cpu time    2.48: real time    2.48
       DOS:  cpu time    0.00: real time    0.00
    CHARGE:  cpu time    0.09: real time    0.09
    MIXING:  cpu time    0.01: real time    0.01
    --------------------------------------------
      LOOP:  cpu time    2.58: real time    2.59

 eigenvalue-minimisations  :   768
 total energy-change (2. order) :-0.3437561E+00  (-0.3432462E+00)
 number of electron     263.9999885 magnetization      20.8363876
 augmentation part      123.7418620 magnetization      19.3831030

 Broyden mixing:
  rms(total) = 0.34092E+01    rms(broyden)= 0.34088E+01
  rms(prec ) = 0.34594E+01
  weight for this iteration     100.00

 Free energy of the ion-electron system (eV)
  ---------------------------------------------------
  alpha Z        PSCENC =        61.29240447
  Ewald energy   TEWEN  =     49561.21444113
  -Hartree energ DENC   =    -73393.57628145
  -exchange      EXHF   =         0.00000000
  -V(xc)+E(xc)   XCENC  =      -257.95582360
  PAW double counting   =     24080.93227367   -22974.35061309
  entropy T*S    EENTRO =         0.00000000
  eigenvalues    EBANDS =     -2017.19019543
  atomic energy  EATOM  =     24892.76712207
  ---------------------------------------------------
  free energy    TOTEN  =       -46.86667223 eV

  energy without entropy =      -46.86667223  energy(sigma->0) =      -46.86667223


--------------------------------------------------------------------------------------------------------




----------------------------------------- Iteration    1(   6)  ---------------------------------------


    POTLOK:  cpu time    0.23: real time    0.23
    SETDIJ:  cpu time    0.00: real time    0.01
     EDDAV:  cpu time    2.31: real time    2.31
       DOS:  cpu time    0.00: real time    0.00
    CHARGE:  cpu time    0.09: real time    0.09
    MIXING:  cpu time    0.00: real time    0.01
    --------------------------------------------
      LOOP:  cpu time    2.64: real time    3.51

 eigenvalue-minimisations  :   700
 total energy-change (2. order) : 0.2859468E+02  (-0.8830621E+01)
 number of electron     263.9999881 magnetization      18.5339452
 augmentation part      126.5659159 magnetization      10.7523958

 Broyden mixing:
  rms(total) = 0.18403E+01    rms(broyden)= 0.18401E+01
  rms(prec ) = 0.18584E+01
  weight for this iteration     100.00

 eigenvalues of (default mixing * dielectric matrix)
  average eigenvalue GAMMA=   0.9033
  0.9033

 Free energy of the ion-electron system (eV)
  ---------------------------------------------------
  alpha Z        PSCENC =        61.29240447
  Ewald energy   TEWEN  =     49561.21444113
  -Hartree energ DENC   =    -73294.17716614
  -exchange      EXHF   =         0.00000000
  -V(xc)+E(xc)   XCENC  =      -245.39351538
  PAW double counting   =     25259.33612542   -24175.09383454
  entropy T*S    EENTRO =         0.00000000
  eigenvalues    EBANDS =     -2078.21756716
  atomic energy  EATOM  =     24892.76712207
  ---------------------------------------------------
  free energy    TOTEN  =       -18.27199012 eV

  energy without entropy =      -18.27199012  energy(sigma->0) =      -18.27199012


--------------------------------------------------------------------------------------------------------




----------------------------------------- Iteration    1(   7)  ---------------------------------------


    POTLOK:  cpu time    0.22: real time    0.23
    SETDIJ:  cpu time    0.01: real time    0.01
     EDDAV:  cpu time    2.44: real time    2.44
       DOS:  cpu time    0.00: real time    0.00
    CHARGE:  cpu time    0.09: real time    0.09
    MIXING:  cpu time    0.01: real time    0.01
    --------------------------------------------
      LOOP:  cpu time    2.78: real time    2.78

 eigenvalue-minimisations  :   752
 total energy-change (2. order) : 0.5711615E+01  (-0.6202933E+00)
 number of electron     263.9999880 magnetization      15.4421220
 augmentation part      126.5678671 magnetization       7.9482555

 Broyden mixing:
  rms(total) = 0.10111E+01    rms(broyden)= 0.10111E+01
  rms(prec ) = 0.10196E+01
  weight for this iteration     100.00

 eigenvalues of (default mixing * dielectric matrix)
  average eigenvalue GAMMA=   1.1368
  0.7602  1.5134

 Free energy of the ion-electron system (eV)
  ---------------------------------------------------
  alpha Z        PSCENC =        61.29240447
  Ewald energy   TEWEN  =     49561.21444113
  -Hartree energ DENC   =    -73349.53284829
  -exchange      EXHF   =         0.00000000
  -V(xc)+E(xc)   XCENC  =      -240.76137770
  PAW double counting   =     26032.40466141   -24963.90589919
  entropy T*S    EENTRO =         0.00000000
  eigenvalues    EBANDS =     -2006.03887914
  atomic energy  EATOM  =     24892.76712207
  ---------------------------------------------------
  free energy    TOTEN  =       -12.56037524 eV

  energy without entropy =      -12.56037524  energy(sigma->0) =      -12.56037524


--------------------------------------------------------------------------------------------------------




----------------------------------------- Iteration    1(   8)  ---------------------------------------


    POTLOK:  cpu time    0.23: real time    0.23
    SETDIJ:  cpu time    0.00: real time    0.01
     EDDAV:  cpu time    2.34: real time    2.34
       DOS:  cpu time    0.00: real time    0.00
    CHARGE:  cpu time    0.09: real time    0.09
    MIXING:  cpu time    0.01: real time    0.01
    --------------------------------------------
      LOOP:  cpu time    2.68: real time    2.68

 eigenvalue-minimisations  :   712
 total energy-change (2. order) :-0.6266308E+00  (-0.1681279E+00)
 number of electron     263.9999880 magnetization      13.8402191
 augmentation part      126.4747920 magnetization       6.5015479

 Broyden mixing:
  rms(total) = 0.43928E+00    rms(broyden)= 0.43927E+00
  rms(prec ) = 0.44301E+00
  weight for this iteration     100.00

 eigenvalues of (default mixing * dielectric matrix)
  average eigenvalue GAMMA=   1.2607
  2.2535  0.9027  0.6260

 Free energy of the ion-electron system (eV)
  ---------------------------------------------------
  alpha Z        PSCENC =        61.29240447
  Ewald energy   TEWEN  =     49561.21444113
  -Hartree energ DENC   =    -73405.54040137
  -exchange      EXHF   =         0.00000000
  -V(xc)+E(xc)   XCENC  =      -241.11078922
  PAW double counting   =     26786.79384745   -25732.56972309
  entropy T*S    EENTRO =         0.00000000
  eigenvalues    EBANDS =     -1936.03390747
  atomic energy  EATOM  =     24892.76712207
  ---------------------------------------------------
  free energy    TOTEN  =       -13.18700602 eV

  energy without entropy =      -13.18700602  energy(sigma->0) =      -13.18700602


--------------------------------------------------------------------------------------------------------




----------------------------------------- Iteration    1(   9)  ---------------------------------------


    POTLOK:  cpu time    0.23: real time    0.23
    SETDIJ:  cpu time    0.00: real time    0.01
     EDDAV:  cpu time    2.45: real time    2.45
       DOS:  cpu time    0.00: real time    0.00
    CHARGE:  cpu time    0.09: real time    0.09
    MIXING:  cpu time    0.00: real time    0.01
    --------------------------------------------
      LOOP:  cpu time    2.78: real time    2.79

 eigenvalue-minimisations  :   752
 total energy-change (2. order) :-0.3825699E+01  (-0.6888377E-01)
 number of electron     263.9999880 magnetization      11.9285533
 augmentation part      126.4233628 magnetization       4.7307060

 Broyden mixing:
  rms(total) = 0.25193E+00    rms(broyden)= 0.25193E+00
  rms(prec ) = 0.25642E+00
  weight for this iteration     100.00

 eigenvalues of (default mixing * dielectric matrix)
  average eigenvalue GAMMA=   1.2282
  2.2540  0.6179  0.8087  1.2321

 Free energy of the ion-electron system (eV)
  ---------------------------------------------------
  alpha Z        PSCENC =        61.29240447
  Ewald energy   TEWEN  =     49561.21444113
  -Hartree energ DENC   =    -73417.93249251
  -exchange      EXHF   =         0.00000000
  -V(xc)+E(xc)   XCENC  =      -243.99487903
  PAW double counting   =     26956.83895415   -25905.77918461
  entropy T*S    EENTRO =         0.00000000
  eigenvalues    EBANDS =     -1921.41907038
  atomic energy  EATOM  =     24892.76712207
  ---------------------------------------------------
  free energy    TOTEN  =       -17.01270470 eV

  energy without entropy =      -17.01270470  energy(sigma->0) =      -17.01270470


--------------------------------------------------------------------------------------------------------




----------------------------------------- Iteration    1(  10)  ---------------------------------------


    POTLOK:  cpu time    0.22: real time    0.23
    SETDIJ:  cpu time    0.01: real time    0.01
     EDDAV:  cpu time    2.33: real time    2.33
       DOS:  cpu time    0.00: real time    0.00
    CHARGE:  cpu time    0.09: real time    0.09
    MIXING:  cpu time    0.01: real time    0.01
    --------------------------------------------
      LOOP:  cpu time    2.66: real time    2.66

 eigenvalue-minimisations  :   704
 total energy-change (2. order) :-0.8825455E+01  (-0.2900186E+00)
 number of electron     263.9999880 magnetization       9.2731987
 augmentation part      126.3707513 magnetization       2.4215397

 Broyden mixing:
  rms(total) = 0.17442E+00    rms(broyden)= 0.17441E+00
  rms(prec ) = 0.17759E+00
  weight for this iteration     100.00

 eigenvalues of (default mixing * dielectric matrix)
  average eigenvalue GAMMA=   1.4993
  2.7865  2.1635  1.0103  0.9060  0.6301

 Free energy of the ion-electron system (eV)
  ---------------------------------------------------
  alpha Z        PSCENC =        61.29240447
  Ewald energy   TEWEN  =     49561.21444113
  -Hartree energ DENC   =    -73416.40444489
  -exchange      EXHF   =         0.00000000
  -V(xc)+E(xc)   XCENC  =      -250.87463190
  PAW double counting   =     26961.21509807   -25910.30891004
  entropy T*S    EENTRO =         0.00000000
  eigenvalues    EBANDS =     -1924.73923858
  atomic energy  EATOM  =     24892.76712207
  ---------------------------------------------------
  free energy    TOTEN  =       -25.83815965 eV

  energy without entropy =      -25.83815965  energy(sigma->0) =      -25.83815965


--------------------------------------------------------------------------------------------------------




----------------------------------------- Iteration    1(  11)  ---------------------------------------


    POTLOK:  cpu time    0.23: real time    0.23
    SETDIJ:  cpu time    0.01: real time    0.01
     EDDAV:  cpu time    2.33: real time    2.33
       DOS:  cpu time    0.00: real time    0.00
    CHARGE:  cpu time    0.09: real time    0.09
    MIXING:  cpu time    0.01: real time    0.01
    --------------------------------------------
      LOOP:  cpu time    2.66: real time    3.38

 eigenvalue-minimisations  :   704
 total energy-change (2. order) :-0.1095438E+02  (-0.5668843E+00)
 number of electron     263.9999881 magnetization       9.0233682
 augmentation part      126.3830818 magnetization       4.4897400

 Broyden mixing:
  rms(total) = 0.22110E+00    rms(broyden)= 0.22088E+00
  rms(prec ) = 0.23499E+00
  weight for this iteration     100.00

 eigenvalues of (default mixing * dielectric matrix)
  average eigenvalue GAMMA=   1.3190
  3.0906  2.1666  0.6304  0.9254  0.9254  0.1755

 Free energy of the ion-electron system (eV)
  ---------------------------------------------------
  alpha Z        PSCENC =        61.29240447
  Ewald energy   TEWEN  =     49561.21444113
  -Hartree energ DENC   =    -73405.77882319
  -exchange      EXHF   =         0.00000000
  -V(xc)+E(xc)   XCENC  =      -259.53101869
  PAW double counting   =     26934.01917109   -25883.18355322
  entropy T*S    EENTRO =        -0.00000000
  eigenvalues    EBANDS =     -1937.59228349
  atomic energy  EATOM  =     24892.76712207
  ---------------------------------------------------
  free energy    TOTEN  =       -36.79253983 eV

  energy without entropy =      -36.79253983  energy(sigma->0) =      -36.79253983


--------------------------------------------------------------------------------------------------------




----------------------------------------- Iteration    1(  12)  ---------------------------------------


    POTLOK:  cpu time    0.22: real time    0.23
    SETDIJ:  cpu time    0.01: real time    0.01
     EDDAV:  cpu time    2.70: real time    2.71
       DOS:  cpu time    0.00: real time    0.00
    CHARGE:  cpu time    0.09: real time    0.09
    MIXING:  cpu time    0.01: real time    0.01
    --------------------------------------------
      LOOP:  cpu time    3.04: real time    3.04

 eigenvalue-minimisations  :   856
 total energy-change (2. order) :-0.3480016E+00  (-0.1283149E-01)
 number of electron     263.9999881 magnetization       8.7915673
 augmentation part      126.3565379 magnetization       4.3173554

 Broyden mixing:
  rms(total) = 0.19485E+00    rms(broyden)= 0.19484E+00
  rms(prec ) = 0.20896E+00
  weight for this iteration     100.00

 eigenvalues of (default mixing * dielectric matrix)
  average eigenvalue GAMMA=   1.1707
  3.1104  2.1912  0.6301  0.9285  0.9285  0.2032  0.2032

 Free energy of the ion-electron system (eV)
  ---------------------------------------------------
  alpha Z        PSCENC =        61.29240447
  Ewald energy   TEWEN  =     49561.21444113
  -Hartree energ DENC   =    -73405.51817309
  -exchange      EXHF   =         0.00000000
  -V(xc)+E(xc)   XCENC  =      -259.77968825
  PAW double counting   =     26933.76200663   -25882.98492108
  entropy T*S    EENTRO =         0.00000000
  eigenvalues    EBANDS =     -1937.89373328
  atomic energy  EATOM  =     24892.76712207
  ---------------------------------------------------
  free energy    TOTEN  =       -37.14054140 eV

  energy without entropy =      -37.14054140  energy(sigma->0) =      -37.14054140


--------------------------------------------------------------------------------------------------------




----------------------------------------- Iteration    1(  13)  ---------------------------------------


    POTLOK:  cpu time    0.22: real time    0.23
    SETDIJ:  cpu time    0.01: real time    0.01
     EDDAV:  cpu time    2.41: real time    2.41
       DOS:  cpu time    0.00: real time    0.00
    CHARGE:  cpu time    0.09: real time    0.09
    MIXING:  cpu time    0.01: real time    0.01
    --------------------------------------------
      LOOP:  cpu time    2.75: real time    2.75

 eigenvalue-minimisations  :   736
 total energy-change (2. order) :-0.5543041E+00  (-0.3750536E-02)
 number of electron     263.9999881 magnetization       7.1052189
 augmentation part      126.3667754 magnetization       2.6608842

 Broyden mixing:
  rms(total) = 0.18346E+00    rms(broyden)= 0.18346E+00
  rms(prec ) = 0.19604E+00
  weight for this iteration     100.00

 eigenvalues of (default mixing * dielectric matrix)
  average eigenvalue GAMMA=   1.3194
  3.7168  2.1950  1.1479  0.7470  0.7470  0.9135  0.6340  0.4540

 Free energy of the ion-electron system (eV)
  ---------------------------------------------------
  alpha Z        PSCENC =        61.29240447
  Ewald energy   TEWEN  =     49561.21444113
  -Hartree energ DENC   =    -73402.80796679
  -exchange      EXHF   =         0.00000000
  -V(xc)+E(xc)   XCENC  =      -260.24895840
  PAW double counting   =     26916.96520711   -25866.08850379
  entropy T*S    EENTRO =         0.00000000
  eigenvalues    EBANDS =     -1940.78859126
  atomic energy  EATOM  =     24892.76712207
  ---------------------------------------------------
  free energy    TOTEN  =       -37.69484545 eV

  energy without entropy =      -37.69484545  energy(sigma->0) =      -37.69484545


--------------------------------------------------------------------------------------------------------




----------------------------------------- Iteration    1(  14)  ---------------------------------------


    POTLOK:  cpu time    0.22: real time    0.23
    SETDIJ:  cpu time    0.01: real time    0.01
     EDDAV:  cpu time    2.36: real time    2.36
       DOS:  cpu time    0.00: real time    0.00
    CHARGE:  cpu time    0.09: real time    0.09
    MIXING:  cpu time    0.01: real time    0.01
    --------------------------------------------
      LOOP:  cpu time    2.69: real time    2.73

 eigenvalue-minimisations  :   712
 total energy-change (2. order) :-0.3518661E+01  (-0.1211574E+00)
 number of electron     263.9999879 magnetization       6.8445477
 augmentation part      126.4100520 magnetization       4.4874188

 Broyden mixing:
  rms(total) = 0.23978E+00    rms(broyden)= 0.23961E+00
  rms(prec ) = 0.24706E+00
  weight for this iteration     100.00

 eigenvalues of (default mixing * dielectric matrix)
  average eigenvalue GAMMA=   1.2009
  3.8582  2.1864  0.7973  0.7973  1.0732  0.9207  0.6352  0.4301  0.1096

 Free energy of the ion-electron system (eV)
  ---------------------------------------------------
  alpha Z        PSCENC =        61.29240447
  Ewald energy   TEWEN  =     49561.21444113
  -Hartree energ DENC   =    -73388.55109803
  -exchange      EXHF   =         0.00000000
  -V(xc)+E(xc)   XCENC  =      -263.21298312
  PAW double counting   =     26848.28019975   -25797.46245144
  entropy T*S    EENTRO =         0.00000000
  eigenvalues    EBANDS =     -1955.54114141
  atomic energy  EATOM  =     24892.76712207
  ---------------------------------------------------
  free energy    TOTEN  =       -41.21350658 eV

  energy without entropy =      -41.21350658  energy(sigma->0) =      -41.21350658


--------------------------------------------------------------------------------------------------------




----------------------------------------- Iteration    1(  15)  ---------------------------------------


    POTLOK:  cpu time    0.23: real time    0.23
    SETDIJ:  cpu time    0.00: real time    0.01
     EDDAV:  cpu time    2.51: real time    2.51
       DOS:  cpu time    0.00: real time    0.00
    CHARGE:  cpu time    0.09: real time    0.09
    MIXING:  cpu time    0.01: real time    0.01
    --------------------------------------------
      LOOP:  cpu time    2.85: real time    5.07

 eigenvalue-minimisations  :   776
 total energy-change (2. order) :-0.2161532E+00  (-0.3480893E-02)
 number of electron     263.9999879 magnetization       6.0343277
 augmentation part      126.4099908 magnetization       3.7075934

 Broyden mixing:
  rms(total) = 0.21876E+00    rms(broyden)= 0.21875E+00
  rms(prec ) = 0.22609E+00
  weight for this iteration     100.00

 eigenvalues of (default mixing * dielectric matrix)
  average eigenvalue GAMMA=   1.2383
  4.5408  2.1571  1.1664  0.8935  0.8134  0.8134  0.6371  0.4977  0.4317  0.4317

 Free energy of the ion-electron system (eV)
  ---------------------------------------------------
  alpha Z        PSCENC =        61.29240447
  Ewald energy   TEWEN  =     49561.21444113
  -Hartree energ DENC   =    -73387.46492883
  -exchange      EXHF   =         0.00000000
  -V(xc)+E(xc)   XCENC  =      -263.40558603
  PAW double counting   =     26844.89674040   -25794.11052223
  entropy T*S    EENTRO =         0.00000000
  eigenvalues    EBANDS =     -1956.61933078
  atomic energy  EATOM  =     24892.76712207
  ---------------------------------------------------
  free energy    TOTEN  =       -41.42965979 eV

  energy without entropy =      -41.42965979  energy(sigma->0) =      -41.42965979


--------------------------------------------------------------------------------------------------------




----------------------------------------- Iteration    1(  16)  ---------------------------------------


    POTLOK:  cpu time    0.23: real time    0.23
    SETDIJ:  cpu time    0.00: real time    0.01
     EDDAV:  cpu time    2.36: real time    2.36
       DOS:  cpu time    0.00: real time    0.00
    CHARGE:  cpu time    0.09: real time    0.09
    MIXING:  cpu time    0.01: real time    0.01
    --------------------------------------------
      LOOP:  cpu time    2.70: real time    3.70

 eigenvalue-minimisations  :   712
 total energy-change (2. order) :-0.8659538E+00  (-0.1097478E-01)
 number of electron     263.9999879 magnetization       4.4845603
 augmentation part      126.4191161 magnetization       2.2206307

 Broyden mixing:
  rms(total) = 0.18180E+00    rms(broyden)= 0.18179E+00
  rms(prec ) = 0.18842E+00
  weight for this iteration     100.00

 eigenvalues of (default mixing * dielectric matrix)
  average eigenvalue GAMMA=   1.3468
  5.1785  2.0586  1.3726  1.3726  1.0633  0.8931  0.6654  0.6654  0.6296  0.4580
  0.4580

 Free energy of the ion-electron system (eV)
  ---------------------------------------------------
  alpha Z        PSCENC =        61.29240447
  Ewald energy   TEWEN  =     49561.21444113
  -Hartree energ DENC   =    -73384.00334396
  -exchange      EXHF   =         0.00000000
  -V(xc)+E(xc)   XCENC  =      -264.17286533
  PAW double counting   =     26830.98515055   -25780.21709160
  entropy T*S    EENTRO =        -0.00000000
  eigenvalues    EBANDS =     -1960.16143092
  atomic energy  EATOM  =     24892.76712207
  ---------------------------------------------------
  free energy    TOTEN  =       -42.29561359 eV

  energy without entropy =      -42.29561359  energy(sigma->0) =      -42.29561359


--------------------------------------------------------------------------------------------------------




----------------------------------------- Iteration    1(  17)  ---------------------------------------


    POTLOK:  cpu time    0.23: real time    0.23
    SETDIJ:  cpu time    0.00: real time    0.01
     EDDAV:  cpu time    2.34: real time    2.34
       DOS:  cpu time    0.00: real time    0.00
    CHARGE:  cpu time    0.09: real time    0.09
    MIXING:  cpu time    0.01: real time    0.01
    --------------------------------------------
      LOOP:  cpu time    2.68: real time    3.33

 eigenvalue-minimisations  :   704
 total energy-change (2. order) :-0.1357963E+01  (-0.3622308E-01)
 number of electron     263.9999880 magnetization       2.6599012
 augmentation part      126.3582641 magnetization       0.4734993

 Broyden mixing:
  rms(total) = 0.79202E-01    rms(broyden)= 0.79193E-01
  rms(prec ) = 0.82977E-01
  weight for this iteration     100.00

 eigenvalues of (default mixing * dielectric matrix)
  average eigenvalue GAMMA=   1.5664
  7.8008  2.3579  1.3884  1.3884  1.3691  0.9135  0.7236  0.7236  0.6165  0.6165
  0.4495  0.4495

 Free energy of the ion-electron system (eV)
  ---------------------------------------------------
  alpha Z        PSCENC =        61.29240447
  Ewald energy   TEWEN  =     49561.21444113
  -Hartree energ DENC   =    -73382.37864448
  -exchange      EXHF   =         0.00000000
  -V(xc)+E(xc)   XCENC  =      -265.31818504
  PAW double counting   =     26839.78288381   -25788.99282798
  entropy T*S    EENTRO =         0.00000000
  eigenvalues    EBANDS =     -1962.02077025
  atomic energy  EATOM  =     24892.76712207
  ---------------------------------------------------
  free energy    TOTEN  =       -43.65357626 eV

  energy without entropy =      -43.65357626  energy(sigma->0) =      -43.65357626


--------------------------------------------------------------------------------------------------------




----------------------------------------- Iteration    1(  18)  ---------------------------------------


    POTLOK:  cpu time    0.22: real time    0.22
    SETDIJ:  cpu time    0.01: real time    0.01
     EDDAV:  cpu time    2.30: real time    2.31
       DOS:  cpu time    0.00: real time    0.00
    CHARGE:  cpu time    0.09: real time    0.09
    MIXING:  cpu time    0.01: real time    0.01
    --------------------------------------------
      LOOP:  cpu time    2.64: real time    2.71

 eigenvalue-minimisations  :   696
 total energy-change (2. order) :-0.1082346E+01  (-0.2687219E-01)
 number of electron     263.9999880 magnetization       2.5057469
 augmentation part      126.4114394 magnetization       0.4337916

 Broyden mixing:
  rms(total) = 0.46873E-01    rms(broyden)= 0.46856E-01
  rms(prec ) = 0.50105E-01
  weight for this iteration     100.00

 eigenvalues of (default mixing * dielectric matrix)
  average eigenvalue GAMMA=   1.5437
  7.9444  1.9007  1.9007  1.4777  1.4777  0.9278  0.9278  0.7307  0.7307  0.6319
  0.5276  0.4455  0.4455

 Free energy of the ion-electron system (eV)
  ---------------------------------------------------
  alpha Z        PSCENC =        61.29240447
  Ewald energy   TEWEN  =     49561.21444113
  -Hartree energ DENC   =    -73367.42393664
  -exchange      EXHF   =         0.00000000
  -V(xc)+E(xc)   XCENC  =      -266.52579327
  PAW double counting   =     26805.89303340   -25754.62579803
  entropy T*S    EENTRO =         0.00000000
  eigenvalues    EBANDS =     -1977.32739570
  atomic energy  EATOM  =     24892.76712207
  ---------------------------------------------------
  free energy    TOTEN  =       -44.73592256 eV

  energy without entropy =      -44.73592256  energy(sigma->0) =      -44.73592256


--------------------------------------------------------------------------------------------------------




----------------------------------------- Iteration    1(  19)  ---------------------------------------


    POTLOK:  cpu time    0.23: real time    0.23
    SETDIJ:  cpu time    0.01: real time    0.01
     EDDAV:  cpu time    2.41: real time    2.41
       DOS:  cpu time    0.00: real time    0.00
    CHARGE:  cpu time    0.09: real time    0.09
    MIXING:  cpu time    0.01: real time    0.01
    --------------------------------------------
      LOOP:  cpu time    2.75: real time    2.77

 eigenvalue-minimisations  :   732
 total energy-change (2. order) :-0.2671815E+00  (-0.2311676E-02)
 number of electron     263.9999880 magnetization       2.2023046
 augmentation part      126.3787263 magnetization       0.1279754

 Broyden mixing:
  rms(total) = 0.26303E-01    rms(broyden)= 0.26299E-01
  rms(prec ) = 0.29861E-01
  weight for this iteration     100.00

 eigenvalues of (default mixing * dielectric matrix)
  average eigenvalue GAMMA=   1.6214
  8.8161  2.1968  2.1968  1.5834  1.5834  1.1541  0.8930  0.7561  0.7561  0.6778
  0.6363  0.5584  0.4454  0.4454

 Free energy of the ion-electron system (eV)
  ---------------------------------------------------
  alpha Z        PSCENC =        61.29240447
  Ewald energy   TEWEN  =     49561.21444113
  -Hartree energ DENC   =    -73366.06600470
  -exchange      EXHF   =         0.00000000
  -V(xc)+E(xc)   XCENC  =      -266.74932869
  PAW double counting   =     26830.84123228   -25779.71716632
  entropy T*S    EENTRO =         0.00000000
  eigenvalues    EBANDS =     -1978.58580430
  atomic energy  EATOM  =     24892.76712207
  ---------------------------------------------------
  free energy    TOTEN  =       -45.00310405 eV

  energy without entropy =      -45.00310405  energy(sigma->0) =      -45.00310405


--------------------------------------------------------------------------------------------------------




----------------------------------------- Iteration    1(  20)  ---------------------------------------


    POTLOK:  cpu time    0.23: real time    0.23
    SETDIJ:  cpu time    0.01: real time    0.01
     EDDAV:  cpu time    2.35: real time    2.35
       DOS:  cpu time    0.00: real time    0.00
    CHARGE:  cpu time    0.09: real time    0.09
    MIXING:  cpu time    0.01: real time    0.01
    --------------------------------------------
      LOOP:  cpu time    2.69: real time    2.72

 eigenvalue-minimisations  :   708
 total energy-change (2. order) :-0.3533232E+00  (-0.1407180E-02)
 number of electron     263.9999880 magnetization       2.1615710
 augmentation part      126.3775323 magnetization       0.0899467

 Broyden mixing:
  rms(total) = 0.18236E-01    rms(broyden)= 0.18233E-01
  rms(prec ) = 0.21244E-01
  weight for this iteration     100.00

 eigenvalues of (default mixing * dielectric matrix)
  average eigenvalue GAMMA=   1.6238
  8.9274  2.7752  1.9805  1.6255  1.6255  1.2887  0.9674  0.7309  0.7309  0.8478
  0.8011  0.4456  0.4456  0.6315  0.5332

 Free energy of the ion-electron system (eV)
  ---------------------------------------------------
  alpha Z        PSCENC =        61.29240447
  Ewald energy   TEWEN  =     49561.21444113
  -Hartree energ DENC   =    -73358.73078823
  -exchange      EXHF   =         0.00000000
  -V(xc)+E(xc)   XCENC  =      -267.14190010
  PAW double counting   =     26830.49919181   -25779.16830436
  entropy T*S    EENTRO =         0.00000000
  eigenvalues    EBANDS =     -1986.08859406
  atomic energy  EATOM  =     24892.76712207
  ---------------------------------------------------
  free energy    TOTEN  =       -45.35642727 eV

  energy without entropy =      -45.35642727  energy(sigma->0) =      -45.35642727


--------------------------------------------------------------------------------------------------------




----------------------------------------- Iteration    1(  21)  ---------------------------------------


    POTLOK:  cpu time    0.23: real time    0.23
    SETDIJ:  cpu time    0.00: real time    0.01
     EDDAV:  cpu time    2.40: real time    2.40
       DOS:  cpu time    0.00: real time    0.00
    CHARGE:  cpu time    0.09: real time    0.09
    MIXING:  cpu time    0.01: real time    0.01
    --------------------------------------------
      LOOP:  cpu time    2.74: real time    2.84

 eigenvalue-minimisations  :   732
 total energy-change (2. order) :-0.1424560E+00  (-0.4295029E-03)
 number of electron     263.9999880 magnetization       2.1273648
 augmentation part      126.3781271 magnetization       0.0518145

 Broyden mixing:
  rms(total) = 0.10936E-01    rms(broyden)= 0.10935E-01
  rms(prec ) = 0.13637E-01
  weight for this iteration     100.00

 eigenvalues of (default mixing * dielectric matrix)
  average eigenvalue GAMMA=   1.6148
  8.9796  3.0116  2.0409  1.6953  1.6953  1.2062  1.2062  1.0427  0.7192  0.7192
  0.8329  0.4454  0.4454  0.6270  0.6270  0.5429

 Free energy of the ion-electron system (eV)
  ---------------------------------------------------
  alpha Z        PSCENC =        61.29240447
  Ewald energy   TEWEN  =     49561.21444113
  -Hartree energ DENC   =    -73353.34551113
  -exchange      EXHF   =         0.00000000
  -V(xc)+E(xc)   XCENC  =      -267.30706273
  PAW double counting   =     26832.09942463   -25780.68232918
  entropy T*S    EENTRO =         0.00000000
  eigenvalues    EBANDS =     -1991.53737257
  atomic energy  EATOM  =     24892.76712207
  ---------------------------------------------------
  free energy    TOTEN  =       -45.49888332 eV

  energy without entropy =      -45.49888332  energy(sigma->0) =      -45.49888332


--------------------------------------------------------------------------------------------------------




----------------------------------------- Iteration    1(  22)  ---------------------------------------


    POTLOK:  cpu time    0.23: real time    0.23
    SETDIJ:  cpu time    0.00: real time    0.01
     EDDAV:  cpu time    1.98: real time    1.98
       DOS:  cpu time    0.00: real time    0.00
    CHARGE:  cpu time    0.10: real time    0.09
    MIXING:  cpu time    0.01: real time    0.01
    --------------------------------------------
      LOOP:  cpu time    2.33: real time    2.59

 eigenvalue-minimisations  :   560
 total energy-change (2. order) :-0.5072630E-01  (-0.1274671E-03)
 number of electron     263.9999880 magnetization       2.0725840
 augmentation part      126.3820511 magnetization      -0.0042903

 Broyden mixing:
  rms(total) = 0.71185E-02    rms(broyden)= 0.71181E-02
  rms(prec ) = 0.94313E-02
  weight for this iteration     100.00

 eigenvalues of (default mixing * dielectric matrix)
  average eigenvalue GAMMA=   1.6537
  8.9986  3.6635  2.2053  1.8922  1.8922  1.2747  1.2747  1.1292  0.7319  0.7319
  0.8879  0.4455  0.4455  0.6916  0.6762  0.6370  0.5350

 Free energy of the ion-electron system (eV)
  ---------------------------------------------------
  alpha Z        PSCENC =        61.29240447
  Ewald energy   TEWEN  =     49561.21444113
  -Hartree energ DENC   =    -73349.78707393
  -exchange      EXHF   =         0.00000000
  -V(xc)+E(xc)   XCENC  =      -267.38137243
  PAW double counting   =     26832.51108905   -25781.09963040
  entropy T*S    EENTRO =         0.00000000
  eigenvalues    EBANDS =     -1995.06658958
  atomic energy  EATOM  =     24892.76712207
  ---------------------------------------------------
  free energy    TOTEN  =       -45.54960962 eV

  energy without entropy =      -45.54960962  energy(sigma->0) =      -45.54960962


--------------------------------------------------------------------------------------------------------




----------------------------------------- Iteration    1(  23)  ---------------------------------------


    POTLOK:  cpu time    0.23: real time    0.23
    SETDIJ:  cpu time    0.01: real time    0.01
     EDDAV:  cpu time    2.16: real time    2.17
       DOS:  cpu time    0.00: real time    0.00
    CHARGE:  cpu time    0.09: real time    0.09
    MIXING:  cpu time    0.01: real time    0.01
    --------------------------------------------
      LOOP:  cpu time    2.50: real time    2.53

 eigenvalue-minimisations  :   636
 total energy-change (2. order) :-0.4364616E-01  (-0.2263619E-03)
 number of electron     263.9999880 magnetization       2.0578052
 augmentation part      126.3870104 magnetization      -0.0197705

 Broyden mixing:
  rms(total) = 0.43202E-02    rms(broyden)= 0.43191E-02
  rms(prec ) = 0.56211E-02
  weight for this iteration     100.00

 eigenvalues of (default mixing * dielectric matrix)
  average eigenvalue GAMMA=   1.6458
  8.9630  4.0385  2.1170  1.9844  1.9844  1.3296  1.3296  1.2077  0.9229  0.9229
  0.7303  0.7303  0.4455  0.4455  0.6731  0.6314  0.6314  0.5368

 Free energy of the ion-electron system (eV)
  ---------------------------------------------------
  alpha Z        PSCENC =        61.29240447
  Ewald energy   TEWEN  =     49561.21444113
  -Hartree energ DENC   =    -73344.30777530
  -exchange      EXHF   =         0.00000000
  -V(xc)+E(xc)   XCENC  =      -267.46168666
  PAW double counting   =     26832.78629441   -25781.37644522
  entropy T*S    EENTRO =         0.00000000
  eigenvalues    EBANDS =     -2000.50761068
  atomic energy  EATOM  =     24892.76712207
  ---------------------------------------------------
  free energy    TOTEN  =       -45.59325578 eV

  energy without entropy =      -45.59325578  energy(sigma->0) =      -45.59325578


--------------------------------------------------------------------------------------------------------




----------------------------------------- Iteration    1(  24)  ---------------------------------------


    POTLOK:  cpu time    0.22: real time    0.23
    SETDIJ:  cpu time    0.01: real time    0.01
     EDDAV:  cpu time    1.87: real time    1.87
       DOS:  cpu time    0.00: real time    0.00
    CHARGE:  cpu time    0.10: real time    0.09
    MIXING:  cpu time    0.01: real time    0.01
    --------------------------------------------
      LOOP:  cpu time    2.21: real time    2.22

 eigenvalue-minimisations  :   512
 total energy-change (2. order) :-0.3608013E-02  (-0.4791156E-04)
 number of electron     263.9999880 magnetization       2.0381821
 augmentation part      126.3903445 magnetization      -0.0388651

 Broyden mixing:
  rms(total) = 0.29408E-02    rms(broyden)= 0.29404E-02
  rms(prec ) = 0.38006E-02
  weight for this iteration     100.00

 eigenvalues of (default mixing * dielectric matrix)
  average eigenvalue GAMMA=   1.6673
  8.8388  4.6722  2.2694  1.9636  1.9636  1.3685  1.3685  1.3908  1.1813  1.0291
  0.7277  0.7277  0.4455  0.4455  0.8339  0.6441  0.6366  0.6366  0.5354

 Free energy of the ion-electron system (eV)
  ---------------------------------------------------
  alpha Z        PSCENC =        61.29240447
  Ewald energy   TEWEN  =     49561.21444113
  -Hartree energ DENC   =    -73341.66614008
  -exchange      EXHF   =         0.00000000
  -V(xc)+E(xc)   XCENC  =      -267.48305460
  PAW double counting   =     26832.18612846   -25780.78737392
  entropy T*S    EENTRO =         0.00000000
  eigenvalues    EBANDS =     -2003.12039132
  atomic energy  EATOM  =     24892.76712207
  ---------------------------------------------------
  free energy    TOTEN  =       -45.59686379 eV

  energy without entropy =      -45.59686379  energy(sigma->0) =      -45.59686379


--------------------------------------------------------------------------------------------------------




----------------------------------------- Iteration    1(  25)  ---------------------------------------


    POTLOK:  cpu time    0.22: real time    0.23
    SETDIJ:  cpu time    0.01: real time    0.01
     EDDAV:  cpu time    1.83: real time    1.83
       DOS:  cpu time    0.00: real time    0.00
    CHARGE:  cpu time    0.09: real time    0.09
    MIXING:  cpu time    0.02: real time    0.01
    --------------------------------------------
      LOOP:  cpu time    2.17: real time    2.21

 eigenvalue-minimisations  :   496
 total energy-change (2. order) :-0.2872073E-02  (-0.3705381E-04)
 number of electron     263.9999880 magnetization       2.0202690
 augmentation part      126.3916231 magnetization      -0.0559956

 Broyden mixing:
  rms(total) = 0.24221E-02    rms(broyden)= 0.24219E-02
  rms(prec ) = 0.28883E-02
  weight for this iteration     100.00

 eigenvalues of (default mixing * dielectric matrix)
  average eigenvalue GAMMA=   1.6879
  8.8155  5.2954  2.6524  1.9613  1.9613  1.7384  1.3334  1.3334  1.0532  1.0532
  0.9848  0.7278  0.7278  0.4455  0.4455  0.7892  0.5354  0.6412  0.6313  0.6313

 Free energy of the ion-electron system (eV)
  ---------------------------------------------------
  alpha Z        PSCENC =        61.29240447
  Ewald energy   TEWEN  =     49561.21444113
  -Hartree energ DENC   =    -73339.59233723
  -exchange      EXHF   =         0.00000000
  -V(xc)+E(xc)   XCENC  =      -267.49821566
  PAW double counting   =     26833.07971452   -25781.70302233
  entropy T*S    EENTRO =         0.00000000
  eigenvalues    EBANDS =     -2005.15984284
  atomic energy  EATOM  =     24892.76712207
  ---------------------------------------------------
  free energy    TOTEN  =       -45.59973587 eV

  energy without entropy =      -45.59973587  energy(sigma->0) =      -45.59973587


--------------------------------------------------------------------------------------------------------




----------------------------------------- Iteration    1(  26)  ---------------------------------------


    POTLOK:  cpu time    0.23: real time    0.23
    SETDIJ:  cpu time    0.01: real time    0.01
     EDDAV:  cpu time    1.86: real time    1.86
       DOS:  cpu time    0.00: real time    0.00
    CHARGE:  cpu time    0.09: real time    0.09
    MIXING:  cpu time    0.02: real time    0.02
    --------------------------------------------
      LOOP:  cpu time    2.20: real time    2.65

 eigenvalue-minimisations  :   504
 total energy-change (2. order) :-0.1165697E-02  (-0.8315972E-05)
 number of electron     263.9999880 magnetization       2.0030440
 augmentation part      126.3913397 magnetization      -0.0731011

 Broyden mixing:
  rms(total) = 0.16695E-02    rms(broyden)= 0.16695E-02
  rms(prec ) = 0.20512E-02
  weight for this iteration     100.00

 eigenvalues of (default mixing * dielectric matrix)
  average eigenvalue GAMMA=   1.6935
  8.7987  5.5750  2.8121  2.0325  2.0325  1.9201  1.3651  1.3651  1.1526  1.1526
  0.7277  0.7277  0.4455  0.4455  0.9412  0.9138  0.7228  0.5357  0.6460  0.6261
  0.6261

 Free energy of the ion-electron system (eV)
  ---------------------------------------------------
  alpha Z        PSCENC =        61.29240447
  Ewald energy   TEWEN  =     49561.21444113
  -Hartree energ DENC   =    -73338.73274206
  -exchange      EXHF   =         0.00000000
  -V(xc)+E(xc)   XCENC  =      -267.50316770
  PAW double counting   =     26834.12599324   -25782.75379943
  entropy T*S    EENTRO =         0.00000000
  eigenvalues    EBANDS =     -2006.01115329
  atomic energy  EATOM  =     24892.76712207
  ---------------------------------------------------
  free energy    TOTEN  =       -45.60090156 eV

  energy without entropy =      -45.60090156  energy(sigma->0) =      -45.60090156


--------------------------------------------------------------------------------------------------------




----------------------------------------- Iteration    1(  27)  ---------------------------------------


    POTLOK:  cpu time    0.23: real time    0.23
    SETDIJ:  cpu time    0.00: real time    0.01
     EDDAV:  cpu time    1.76: real time    1.75
       DOS:  cpu time    0.00: real time    0.00
    CHARGE:  cpu time    0.09: real time    0.09
    MIXING:  cpu time    0.02: real time    0.02
    --------------------------------------------
      LOOP:  cpu time    2.10: real time    2.12

 eigenvalue-minimisations  :   464
 total energy-change (2. order) :-0.2024167E-02  (-0.6666984E-05)
 number of electron     263.9999880 magnetization       1.9980564
 augmentation part      126.3912441 magnetization      -0.0770563

 Broyden mixing:
  rms(total) = 0.77479E-03    rms(broyden)= 0.77470E-03
  rms(prec ) = 0.10672E-02
  weight for this iteration     100.00

 eigenvalues of (default mixing * dielectric matrix)
  average eigenvalue GAMMA=   1.7124
  8.7812  5.8077  3.2694  2.2406  2.0660  2.0660  1.3763  1.3763  1.2549  1.2549
  0.9682  0.9682  0.7283  0.7283  0.4455  0.4455  0.7738  0.7220  0.5354  0.6363
  0.6145  0.6145

 Free energy of the ion-electron system (eV)
  ---------------------------------------------------
  alpha Z        PSCENC =        61.29240447
  Ewald energy   TEWEN  =     49561.21444113
  -Hartree energ DENC   =    -73337.93138677
  -exchange      EXHF   =         0.00000000
  -V(xc)+E(xc)   XCENC  =      -267.50825572
  PAW double counting   =     26834.36306112   -25782.98899771
  entropy T*S    EENTRO =         0.00000000
  eigenvalues    EBANDS =     -2006.81131432
  atomic energy  EATOM  =     24892.76712207
  ---------------------------------------------------
  free energy    TOTEN  =       -45.60292573 eV

  energy without entropy =      -45.60292573  energy(sigma->0) =      -45.60292573


--------------------------------------------------------------------------------------------------------




----------------------------------------- Iteration    1(  28)  ---------------------------------------


    POTLOK:  cpu time    0.23: real time    0.23
    SETDIJ:  cpu time    0.01: real time    0.01
     EDDAV:  cpu time    1.76: real time    1.76
       DOS:  cpu time    0.00: real time    0.00
    CHARGE:  cpu time    0.09: real time    0.09
    MIXING:  cpu time    0.02: real time    0.02
    --------------------------------------------
      LOOP:  cpu time    2.10: real time    2.16

 eigenvalue-minimisations  :   464
 total energy-change (2. order) :-0.6918531E-03  (-0.2808012E-05)
 number of electron     263.9999880 magnetization       1.9965262
 augmentation part      126.3913000 magnetization      -0.0782730

 Broyden mixing:
  rms(total) = 0.53541E-03    rms(broyden)= 0.53532E-03
  rms(prec ) = 0.70793E-03
  weight for this iteration     100.00

 eigenvalues of (default mixing * dielectric matrix)
  average eigenvalue GAMMA=   1.7512
  8.6713  6.3763  3.7970  2.3147  2.2056  2.2056  1.4043  1.4043  1.3211  1.3211
  1.1693  0.9391  0.9391  0.7281  0.7281  0.4455  0.4455  0.7755  0.5354  0.6767
  0.6446  0.6141  0.6141

 Free energy of the ion-electron system (eV)
  ---------------------------------------------------
  alpha Z        PSCENC =        61.29240447
  Ewald energy   TEWEN  =     49561.21444113
  -Hartree energ DENC   =    -73337.51178666
  -exchange      EXHF   =         0.00000000
  -V(xc)+E(xc)   XCENC  =      -267.50993153
  PAW double counting   =     26834.40886075   -25783.03303569
  entropy T*S    EENTRO =         0.00000000
  eigenvalues    EBANDS =     -2007.23169212
  atomic energy  EATOM  =     24892.76712207
  ---------------------------------------------------
  free energy    TOTEN  =       -45.60361758 eV

  energy without entropy =      -45.60361758  energy(sigma->0) =      -45.60361758


--------------------------------------------------------------------------------------------------------




----------------------------------------- Iteration    1(  29)  ---------------------------------------


    POTLOK:  cpu time    0.22: real time    0.23
    SETDIJ:  cpu time    0.01: real time    0.01
     EDDAV:  cpu time    1.76: real time    1.76
       DOS:  cpu time    0.00: real time    0.00
    --------------------------------------------
      LOOP:  cpu time    2.00: real time    2.01

 eigenvalue-minimisations  :   464
 total energy-change (2. order) : 0.6370345E-05  (-0.1188298E-05)
 number of electron     263.9999880 magnetization       1.9965262
 augmentation part      126.3913000 magnetization      -0.0782730

 Free energy of the ion-electron system (eV)
  ---------------------------------------------------
  alpha Z        PSCENC =        61.29240447
  Ewald energy   TEWEN  =     49561.21444113
  -Hartree energ DENC   =    -73337.23215536
  -exchange      EXHF   =         0.00000000
  -V(xc)+E(xc)   XCENC  =      -267.51001084
  PAW double counting   =     26834.65202344   -25783.27529638
  entropy T*S    EENTRO =         0.00000000
  eigenvalues    EBANDS =     -2007.51213975
  atomic energy  EATOM  =     24892.76712207
  ---------------------------------------------------
  free energy    TOTEN  =       -45.60361121 eV

  energy without entropy =      -45.60361121  energy(sigma->0) =      -45.60361121


--------------------------------------------------------------------------------------------------------




 average (electrostatic) potential at core
  the test charge radii are     1.1249
  (the norm of the test charge is              1.0000)
       1 -82.3989       2 -82.4429       3 -82.4265       4 -82.5011       5 -82.4031
       6 -82.3253       7 -82.3653       8 -82.4377       9 -82.4349      10 -82.4327
      11 -83.0739      12 -82.4445      13 -83.0507      14 -82.4329      15 -82.4209
      16 -82.3132      17 -82.3219      18 -82.4920      19 -82.5076      20 -82.5093
      21 -82.3239      22 -82.9734      23 -82.3626      24 -82.4215
 
 
 
 E-fermi :  -3.1609     XC(G=0):  -1.0785     alpha+bet : -0.6892


 spin component 1

 k-point     1 :       0.0000    0.0000    0.0000
  band No.  band energies     occupation 
      1     -10.6819      1.00000
      2     -10.1511      1.00000
      3     -10.1234      1.00000
      4     -10.1054      1.00000
      5     -10.0034      1.00000
      6      -9.8281      1.00000
      7      -9.7956      1.00000
      8      -9.7686      1.00000
      9      -9.7021      1.00000
     10      -9.6979      1.00000
     11      -9.6922      1.00000
     12      -9.5913      1.00000
     13      -9.5476      1.00000
     14      -9.4958      1.00000
     15      -9.4116      1.00000
     16      -9.3552      1.00000
     17      -9.2970      1.00000
     18      -9.1519      1.00000
     19      -8.9698      1.00000
     20      -8.9143      1.00000
     21      -8.8977      1.00000
     22      -8.8611      1.00000
     23      -8.8437      1.00000
     24      -8.8013      1.00000
     25      -8.7362      1.00000
     26      -8.7200      1.00000
     27      -8.6726      1.00000
     28      -8.6567      1.00000
     29      -8.6403      1.00000
     30      -8.6320      1.00000
     31      -8.6281      1.00000
     32      -8.5780      1.00000
     33      -8.5657      1.00000
     34      -8.5228      1.00000
     35      -8.5069      1.00000
     36      -8.4854      1.00000
     37      -8.4647      1.00000
     38      -8.4445      1.00000
     39      -8.4108      1.00000
     40      -8.3927      1.00000
     41      -8.3707      1.00000
     42      -8.3477      1.00000
     43      -8.3239      1.00000
     44      -8.2740      1.00000
     45      -8.2216      1.00000
     46      -8.2170      1.00000
     47      -8.1861      1.00000
     48      -8.1436      1.00000
     49      -8.1407      1.00000
     50      -8.0741      1.00000
     51      -8.0520      1.00000
     52      -8.0424      1.00000
     53      -8.0234      1.00000
     54      -7.9892      1.00000
     55      -7.9476      1.00000
     56      -7.8693      1.00000
     57      -7.8455      1.00000
     58      -7.8136      1.00000
     59      -7.7827      1.00000
     60      -7.7253      1.00000
     61      -7.7010      1.00000
     62      -7.6936      1.00000
     63      -7.6851      1.00000
     64      -7.6389      1.00000
     65      -7.5898      1.00000
     66      -7.5567      1.00000
     67      -7.5254      1.00000
     68      -7.5077      1.00000
     69      -7.4180      1.00000
     70      -7.3789      1.00000
     71      -7.3611      1.00000
     72      -7.3262      1.00000
     73      -7.2570      1.00000
     74      -7.2519      1.00000
     75      -7.2012      1.00000
     76      -7.1985      1.00000
     77      -7.1870      1.00000
     78      -7.1720      1.00000
     79      -7.1513      1.00000
     80      -7.1329      1.00000
     81      -7.1052      1.00000
     82      -7.0752      1.00000
     83      -7.0652      1.00000
     84      -7.0451      1.00000
     85      -7.0221      1.00000
     86      -6.9951      1.00000
     87      -6.9861      1.00000
     88      -6.9448      1.00000
     89      -6.9383      1.00000
     90      -6.9354      1.00000
     91      -6.9201      1.00000
     92      -6.8712      1.00000
     93      -6.8609      1.00000
     94      -6.8335      1.00000
     95      -6.8315      1.00000
     96      -6.8061      1.00000
     97      -6.7927      1.00000
     98      -6.7813      1.00000
     99      -6.7284      1.00000
    100      -6.7210      1.00000
    101      -6.7132      1.00000
    102      -6.6973      1.00000
    103      -6.6951      1.00000
    104      -6.6679      1.00000
    105      -6.6639      1.00000
    106      -6.6523      1.00000
    107      -6.6273      1.00000
    108      -6.6028      1.00000
    109      -6.5839      1.00000
    110      -6.5718      1.00000
    111      -6.5469      1.00000
[...]
    117      -6.3757      1.00000
    118      -6.3668      1.00000
    119      -6.3205      1.00000
    120      -6.3174      1.00000
    121      -6.3147      1.00000
    122      -6.3091      1.00000
    123      -6.2800      1.00000
    124      -6.0942      1.00000
    125      -5.2128      1.00000
    126      -5.2067      1.00000
    127      -4.9169      1.00000
    128      -4.7188      1.00000
    129      -4.6926      1.00000
    130      -3.6776      1.00000
    131      -3.5556      1.00000
    132      -3.0471      0.00000
    133      -3.0315      0.00000
    134      -2.9239      0.00000
    135      -2.8112      0.00000
    136      -2.7513      0.00000
    137      -2.7357      0.00000
    138      -2.1586      0.00000
    139      -2.1503      0.00000
    140      -1.6085      0.00000
    141      -1.4331      0.00000
    142      -1.4013      0.00000
    143      -1.2064      0.00000
    144      -1.1433      0.00000
    145      -1.1003      0.00000
    146      -1.0286      0.00000
    147      -0.9990      0.00000
    148      -0.9848      0.00000
    149      -0.7508      0.00000
    150      -0.6964      0.00000
    151      -0.6492      0.00000
    152      -0.4477      0.00000
    153       0.0559      0.00000
    154       0.1104      0.00000
    155       0.2578      0.00000
    156       0.2766      0.00000
    157       0.2859      0.00000
    158       0.5419      0.00000
    159       0.6090      0.00000
    160       0.6328      0.00000
    161       0.7657      0.00000
    162       0.7751      0.00000
    163       0.8237      0.00000
    164       0.8792      0.00000
    165       0.8860      0.00000
    166       0.8984      0.00000
    167       0.9806      0.00000
    168       1.0830      0.00000
    169       1.1198      0.00000
    170       1.1437      0.00000
    171       1.2031      0.00000
    172       1.2262      0.00000


--------------------------------------------------------------------------------------------------------


 soft charge-density along one line, spin component           1
         0         1         2         3         4         5         6         7         8         9
 total charge-density along one line
 
 soft charge-density along one line, spin component           2
         0         1         2         3         4         5         6         7         8         9
 total charge-density along one line
 
 pseudopotential strength for first ion, spin component:           1
-10.310   0.002   0.002   0.003  -0.002 -10.284   0.002   0.002
  0.002 -10.300   0.003  -0.004  -0.003   0.002 -10.275   0.003
  0.002   0.003 -10.306  -0.001   0.005   0.002   0.003 -10.281
  0.003  -0.004  -0.001 -10.310  -0.004   0.003  -0.004  -0.001
 -0.002  -0.003   0.005  -0.004 -10.305  -0.002  -0.003   0.005
-10.284   0.002   0.002   0.003  -0.002 -10.235   0.002   0.002
  0.002 -10.275   0.003  -0.004  -0.003   0.002 -10.226   0.003
  0.002   0.003 -10.281  -0.001   0.005   0.002   0.003 -10.231
  0.003  -0.004  -0.001 -10.284  -0.003   0.003  -0.004  -0.001
 -0.002  -0.003   0.005  -0.003 -10.280  -0.002  -0.003   0.004
  0.002  -0.003  -0.000   0.004   0.003   0.002  -0.003  -0.000
  0.003  -0.005  -0.001   0.006   0.004   0.003  -0.005  -0.001
  0.009  -0.012   0.004   0.000   0.007   0.009  -0.012   0.003
  0.000  -0.007  -0.014   0.010   0.000   0.000  -0.007  -0.013
 -0.006   0.000  -0.005  -0.012   0.010  -0.006   0.000  -0.005
  0.011  -0.015   0.004   0.000   0.009   0.011  -0.014   0.004
  0.000  -0.009  -0.017   0.013   0.000   0.000  -0.008  -0.016
 -0.008   0.000  -0.006  -0.015   0.012  -0.007   0.000  -0.006
 pseudopotential strength for first ion, spin component:           2
-10.311   0.002   0.002   0.002  -0.002 -10.285   0.002   0.002
  0.002 -10.300   0.003  -0.003  -0.002   0.002 -10.275   0.003
  0.002   0.003 -10.307  -0.001   0.005   0.002   0.003 -10.282
  0.002  -0.003  -0.001 -10.309  -0.002   0.002  -0.003  -0.001
 -0.002  -0.002   0.005  -0.002 -10.305  -0.002  -0.002   0.005
-10.285   0.002   0.002   0.002  -0.002 -10.235   0.002   0.002
  0.002 -10.275   0.003  -0.003  -0.002   0.002 -10.226   0.003
  0.002   0.003 -10.282  -0.001   0.005   0.002   0.003 -10.232
  0.002  -0.003  -0.001 -10.283  -0.002   0.002  -0.002  -0.001
 -0.002  -0.002   0.005  -0.002 -10.280  -0.002  -0.002   0.004
  0.002  -0.002  -0.000   0.003   0.002   0.001  -0.002  -0.000
  0.003  -0.004  -0.001   0.005   0.004   0.002  -0.004  -0.001
  0.009  -0.012   0.004   0.001   0.007   0.008  -0.012   0.003
  0.001  -0.007  -0.014   0.009  -0.000   0.001  -0.007  -0.014
 -0.006   0.001  -0.005  -0.012   0.010  -0.006   0.001  -0.005
  0.011  -0.015   0.004   0.001   0.009   0.010  -0.014   0.004
  0.001  -0.009  -0.018   0.012  -0.000   0.001  -0.008  -0.017
 -0.008   0.001  -0.006  -0.015   0.012  -0.007   0.001  -0.006
 total augmentation occupancy for first ion, spin component:           1
  2.746  -0.014   0.112   0.043   0.019  -0.768   0.014  -0.104  -0.030  -0.046  -0.023  -0.017   0.101  -0.041  -0.072  -0.001
 -0.014   2.940  -0.027  -0.082  -0.025   0.014  -0.875   0.061   0.059   0.007   0.206  -0.009  -0.082  -0.086  -0.030  -0.003
  0.112  -0.027   2.797   0.023   0.017  -0.104   0.061  -0.773  -0.048   0.007   0.001  -0.008   0.079  -0.110  -0.089  -0.003
  0.043  -0.082   0.023   2.957   0.075  -0.030   0.059  -0.048  -0.944  -0.141  -0.360   0.031  -0.003   0.035  -0.082   0.002
  0.019  -0.025   0.017   0.075   2.953  -0.046   0.007   0.007  -0.142  -0.898  -0.172   0.020   0.127  -0.018   0.088  -0.004
 -0.768   0.014  -0.104  -0.030  -0.046   0.749  -0.016   0.102   0.020   0.069   0.007   0.018  -0.112   0.038   0.080   0.006
  0.014  -0.875   0.061   0.059   0.007  -0.016   0.783  -0.089  -0.041   0.006  -0.175   0.008   0.092   0.082   0.028  -0.005
 -0.104   0.061  -0.773  -0.048   0.007   0.102  -0.089   0.714   0.069  -0.026  -0.007   0.007  -0.083   0.116   0.090   0.005
 -0.030   0.059  -0.048  -0.944  -0.142   0.020  -0.041   0.069   0.899   0.197   0.333  -0.041   0.007  -0.043   0.095  -0.002
 -0.046   0.007   0.007  -0.141  -0.898   0.069   0.006  -0.026   0.197   0.815   0.159  -0.018  -0.129   0.015  -0.087   0.008
 -0.023   0.206   0.001  -0.360  -0.172   0.007  -0.175  -0.007   0.333   0.159   1.818  -0.293   0.092   0.108  -0.094  -0.010
 -0.017  -0.009  -0.008   0.031   0.020   0.018   0.008   0.007  -0.041  -0.018  -0.293   0.062  -0.031  -0.025   0.026   0.003
  0.101  -0.082   0.079  -0.003   0.127  -0.112   0.092  -0.083   0.007  -0.129   0.092  -0.031   0.098  -0.011   0.004  -0.006
 -0.041  -0.086  -0.110   0.035  -0.018   0.038   0.082   0.116  -0.043   0.015   0.108  -0.025  -0.011   0.099   0.035   0.001
 -0.072  -0.030  -0.089  -0.082   0.088   0.080   0.028   0.090   0.095  -0.087  -0.094   0.026   0.004   0.035   0.116  -0.000
 -0.001  -0.003  -0.003   0.002  -0.004   0.006  -0.005   0.005  -0.002   0.008  -0.010   0.003  -0.006   0.001  -0.000   0.000
  0.003   0.001  -0.001   0.003   0.001  -0.003  -0.005  -0.008   0.002  -0.001  -0.010   0.002   0.001  -0.006  -0.002  -0.000
  0.002   0.003   0.002  -0.003  -0.000  -0.005  -0.003  -0.006  -0.005   0.006   0.009  -0.002  -0.000  -0.002  -0.007  -0.000
 total augmentation occupancy for first ion, spin component:           2
 -0.014  -0.017  -0.004  -0.018  -0.013   0.004   0.011   0.005   0.014   0.010   0.001   0.004  -0.004   0.007   0.005   0.000
 -0.017   0.021  -0.001   0.031   0.032   0.011  -0.019   0.002  -0.024  -0.025  -0.007  -0.004   0.010  -0.002   0.013  -0.000
 -0.004  -0.001  -0.016  -0.000   0.004   0.005   0.002   0.007  -0.001  -0.000   0.000  -0.000  -0.002  -0.002  -0.008   0.000
 -0.018   0.031  -0.000   0.031   0.037   0.014  -0.024  -0.000  -0.033  -0.033  -0.033  -0.001   0.009  -0.013  -0.005  -0.000
 -0.013   0.032   0.004   0.037   0.013   0.010  -0.025   0.000  -0.033  -0.018  -0.023  -0.001   0.008  -0.005   0.008  -0.000
  0.004   0.011   0.005   0.014   0.010   0.006  -0.006  -0.006  -0.011  -0.007  -0.001  -0.003   0.004  -0.005  -0.004  -0.000
  0.011  -0.019   0.002  -0.024  -0.025  -0.006   0.019  -0.002   0.019   0.020   0.007   0.002  -0.007   0.001  -0.010   0.000
  0.005   0.002   0.007  -0.000   0.000  -0.006  -0.002   0.002   0.001  -0.003  -0.002   0.001   0.002   0.002   0.005  -0.000
  0.014  -0.024  -0.001  -0.033  -0.033  -0.011   0.019   0.001   0.036   0.029   0.030  -0.001  -0.007   0.011   0.005   0.000
  0.010  -0.025  -0.000  -0.033  -0.018  -0.007   0.020  -0.003   0.029   0.023   0.023  -0.001  -0.006   0.004  -0.005   0.000
  0.001  -0.007   0.000  -0.033  -0.023  -0.001   0.007  -0.002   0.030   0.023   0.022  -0.004  -0.002   0.010   0.013   0.000
  0.004  -0.004  -0.000  -0.001  -0.001  -0.003   0.002   0.001  -0.001  -0.001  -0.004   0.001  -0.000   0.001   0.001   0.000
 -0.004   0.010  -0.002   0.009   0.008   0.004  -0.007   0.002  -0.007  -0.006  -0.002  -0.000   0.002  -0.000   0.003  -0.000
  0.007  -0.002  -0.002  -0.013  -0.005  -0.005   0.001   0.002   0.011   0.004   0.010   0.001  -0.000   0.007   0.011   0.000
  0.005   0.013  -0.008  -0.005   0.008  -0.004  -0.010   0.005   0.005  -0.005   0.013   0.001   0.003   0.011   0.023  -0.000
  0.000  -0.000   0.000  -0.000  -0.000  -0.000   0.000  -0.000   0.000   0.000   0.000   0.000  -0.000   0.000  -0.000   0.000
 -0.000   0.000   0.000   0.000   0.000   0.000  -0.000  -0.000  -0.000  -0.000  -0.000  -0.000   0.000  -0.000  -0.000  -0.000
 -0.000  -0.000   0.000   0.000  -0.000   0.000   0.000  -0.000  -0.000   0.000  -0.000  -0.000  -0.000  -0.000  -0.001   0.000


------------------------ aborting loop because EDIFF is reached ----------------------------------------


    CHARGE:  cpu time    0.09: real time    0.09
    FORLOC:  cpu time    0.01: real time    0.01
    FORNL :  cpu time    1.45: real time    1.45
    STRESS:  cpu time    1.78: real time    1.78
    FORCOR:  cpu time    0.23: real time    0.23
    FORHAR:  cpu time    0.04: real time    0.04
    MIXING:  cpu time    0.01: real time    0.01
    OFIELD:  cpu time    0.00: real time    0.00

  FORCE on cell =-STRESS in cart. coord.  units (eV):
  Direction    XX          YY          ZZ          XY          YZ          ZX
  --------------------------------------------------------------------------------------
  Alpha Z    61.29240    61.29240    61.29240
  Ewald   17629.20612 10428.75134 16832.17103  1705.22153 -2321.27267   622.15131
  Hartree 25369.07714 18774.77927 24615.52167  1516.55428 -2073.67949   548.14423
  E(xc)   -1390.96990 -1392.23409 -1391.02420     0.44633    -0.55532     0.17365
  Local  -46905.02827-33123.31666-45353.66051 -3216.76155  4389.10649 -1168.00977
  n-local  -261.41127  -260.88274  -261.51665    -0.32140     0.26631    -0.05984
  augment  2203.94391  2208.22142  2203.86830    -1.56643     1.88846    -0.68505
  Kinetic  3285.33550  3295.19874  3285.07256    -3.66878     4.34653    -1.58209
  Fock        0.00000     0.00000     0.00000     0.00000     0.00000     0.00000
  -------------------------------------------------------------------------------------
  Total      -8.55436    -8.19031    -8.27539    -0.09603     0.10030     0.13244
  in kB      -1.71462    -1.64165    -1.65871    -0.01925     0.02010     0.02655
  external pressure =       -1.67 kB  Pullay stress =        0.00 kB


 VOLUME and BASIS-vectors are now :
 -----------------------------------------------------------------------------
  energy-cutoff  :      249.84
  volume of cell :     7993.37
      direct lattice vectors                 reciprocal lattice vectors
    19.994474842  0.000000000  0.000000000     0.050013817  0.000000000  0.000000000
     0.000000000 19.994474842  0.000000000     0.000000000  0.050013817  0.000000000
     0.000000000  0.000000000 19.994474842     0.000000000  0.000000000  0.050013817

  length of vectors
    19.994474842 19.994474842 19.994474842     0.050013817  0.050013817  0.050013817


 FORCES acting on ions
    electron-ion (+dipol)            ewald-force                    non-local-force                 convergence-correction
 -----------------------------------------------------------------------------------------------
   -.710E+03 0.804E+03 0.817E+03   0.708E+03 -.803E+03 -.815E+03   0.137E+01 -.818E+00 -.194E+01   0.847E-03 0.375E-02 0.429E-03
   -.540E+03 -.221E+03 0.126E+04   0.540E+03 0.221E+03 -.126E+04   0.440E+00 0.783E-02 -.495E+01   0.411E-02 -.417E-02 -.337E-02
   -.129E+04 0.522E+03 0.175E+03   0.128E+04 -.521E+03 -.175E+03   0.489E+01 -.110E+01 -.103E+00   0.305E-02 0.648E-03 -.393E-02
   0.269E+03 0.616E+03 0.123E+04   -.268E+03 -.615E+03 -.123E+04   -.136E+01 -.124E+01 -.446E+01   0.130E-02 -.942E-03 -.339E-02
   -.107E+04 -.558E+03 0.588E+03   0.107E+04 0.556E+03 -.586E+03   0.299E+01 0.168E+01 -.165E+01   0.283E-02 0.155E-02 -.265E-02
   -.560E+03 0.123E+04 -.197E+03   0.558E+03 -.123E+04 0.196E+03   0.166E+01 -.213E+01 0.953E+00   -.497E-02 -.352E-03 0.355E-02
   0.279E+03 0.121E+04 0.552E+03   -.278E+03 -.121E+04 -.551E+03   -.141E+01 -.213E+01 -.688E+00   -.451E-02 0.282E-02 -.135E-02
   -.943E+03 0.427E+03 -.937E+03   0.939E+03 -.426E+03 0.935E+03   0.426E+01 -.159E+01 0.199E+01   0.662E-02 0.370E-02 0.339E-02
   -.118E+04 -.661E+03 -.334E+03   0.118E+04 0.659E+03 0.332E+03   0.342E+01 0.226E+01 0.270E+01   0.312E-02 0.176E-02 -.138E-02
   -.160E+03 -.125E+04 0.625E+03   0.159E+03 0.125E+04 -.622E+03   0.910E+00 0.392E+01 -.294E+01   0.669E-02 0.642E-03 0.222E-02
   0.350E+02 -.201E+03 0.495E+03   -.348E+02 0.200E+03 -.494E+03   -.143E+00 0.425E+00 -.142E+01   0.625E-02 0.708E-02 0.986E-02
   0.669E+03 -.580E+03 0.108E+04   -.668E+03 0.577E+03 -.108E+04   -.101E+01 0.312E+01 -.379E+01   0.199E-02 0.678E-03 -.489E-02
   -.465E+03 -.214E+02 -.262E+03   0.464E+03 0.213E+02 0.261E+03   0.122E+01 0.139E+00 0.815E+00   -.376E-02 0.679E-02 -.105E-01
   0.299E+03 0.126E+04 -.542E+03   -.298E+03 -.126E+04 0.539E+03   -.183E+01 -.383E+01 0.226E+01   -.418E-02 0.205E-03 -.239E-04
   -.253E+03 -.129E+04 -.292E+03   0.252E+03 0.129E+04 0.292E+03   0.128E+01 0.223E+01 0.415E+00   0.568E-03 -.406E-02 -.155E-02
   0.114E+04 0.112E+03 0.684E+03   -.114E+04 -.111E+03 -.682E+03   -.326E+01 -.684E+00 -.216E+01   0.460E-04 -.321E-02 0.261E-02
   -.815E+02 0.446E+03 -.126E+04   0.813E+02 -.445E+03 0.125E+04   0.120E+00 -.110E+01 0.398E+01   -.382E-02 0.169E-02 -.356E-02
   -.388E+03 -.688E+03 -.116E+04   0.386E+03 0.686E+03 0.116E+04   0.207E+01 0.158E+01 0.406E+01   -.438E-03 0.767E-03 0.308E-02
   0.117E+04 0.762E+03 0.127E+02   -.116E+04 -.758E+03 -.136E+02   -.332E+01 -.343E+01 0.870E+00   -.530E-02 0.202E-02 0.626E-02
   0.816E+03 0.263E+03 -.110E+04   -.812E+03 -.262E+03 0.110E+04   -.370E+01 -.337E+00 0.307E+01   -.258E-03 -.187E-02 -.649E-03
   0.778E+03 -.112E+04 0.730E+02   -.777E+03 0.111E+04 -.720E+02   -.150E+01 0.218E+01 -.957E+00   -.268E-02 -.859E-02 0.274E-02
   0.417E+03 0.217E+03 -.226E+03   -.416E+03 -.217E+03 0.225E+03   -.112E+01 -.595E+00 0.621E+00   0.182E-02 0.691E-02 0.289E-02
   0.486E+03 -.821E+03 -.961E+03   -.484E+03 0.820E+03 0.959E+03   -.126E+01 0.788E+00 0.209E+01   0.160E-02 -.665E-02 -.136E-02
   0.128E+04 -.459E+03 -.326E+03   -.128E+04 0.459E+03 0.325E+03   -.463E+01 0.615E+00 0.127E+01   0.155E-03 -.316E-02 -.344E-02
 -----------------------------------------------------------------------------------------------
   -.587E-01 -.979E-02 -.116E-01   0.000E+00 0.284E-12 -.153E-11   0.811E-01 -.239E-01 0.439E-01   0.111E-01 0.802E-02 -.504E-02
 
 
 POSITION                                       TOTAL-FORCE (eV/Angst)
 -----------------------------------------------------------------------------------
     11.78752      8.61123      8.20917         0.003140     -0.015170     -0.014288
     11.44581     11.03444      6.29178        -0.001775      0.014638     -0.000559
     13.87368      9.04647     10.03919        -0.009505     -0.001452      0.007228
      9.40248      8.97954      6.61480        -0.005667     -0.011187     -0.008553
     12.78448     11.47932      8.70538        -0.015864     -0.007129      0.011013
     11.49820      7.46144     10.84646         0.011519     -0.003144     -0.020959
      9.25283      7.47113      8.97848         0.007515     -0.011073      0.001677
     13.15403      9.22266     12.90319         0.003275     -0.016286      0.011294
     13.82480     11.71910     11.29427        -0.001908      0.005037      0.001951
     10.55325     13.33380      7.97330        -0.015073     -0.013896      0.005063
     10.05165     10.73158      8.64982        -0.000573     -0.024168      0.012241
      8.43959     11.75310      6.69098        -0.016011      0.005008     -0.007957
     11.55190     10.21416     10.91638        -0.024492      0.010786     -0.000170
      8.91574      6.89440     11.80290         0.016160      0.000315     -0.003376
     10.95799     12.92078     10.72887         0.004458      0.009133      0.002394
      7.33138      9.91079      8.50465        -0.002856      0.000725     -0.000737
     10.34976      9.04054     13.18563        -0.004053     -0.001587      0.009485
     11.62738     11.69533     13.25346         0.003075      0.013352      0.003188
      6.55364      8.04220     10.49425         0.011931     -0.006132     -0.021223
      7.51250      9.08268     13.17931         0.004532      0.002434      0.000948
      8.27293     12.55264      9.70231         0.012159      0.015145      0.000962
      8.87137      9.48832     10.82440         0.005104      0.008590      0.005843
      8.94471     11.73938     12.43319         0.003539      0.008534     -0.007969
      6.49680     10.90371     11.11289         0.011368      0.017528      0.012505
 -----------------------------------------------------------------------------------
    total drift:                                0.033432     -0.025693      0.027330


--------------------------------------------------------------------------------------------------------



  FREE ENERGIE OF THE ION-ELECTRON SYSTEM (eV)
  ---------------------------------------------------
  free  energy   TOTEN  =       -48.12050994 eV

  energy  without entropy=      -48.12050994  energy(sigma->0) =      -48.12050994
 
 d Force =-0.2758659E-04[-0.108E-03, 0.526E-04]  d Energy = 0.8963227E-05-0.365E-04
 d Force = 0.1192239E+01[ 0.119E+01, 0.119E+01]  d Ewald  = 0.1192238E+01 0.117E-05


--------------------------------------------------------------------------------------------------------


    POTLOK:  cpu time    0.24: real time    0.24


--------------------------------------------------------------------------------------------------------




--------------------------------------------------------------------------------------------------------


  
 reached required accuracy - stopping structural energy minimisation
     LOOP+:  cpu time    8.58: real time    9.21
    4ORBIT:  cpu time    0.00: real time    0.00

 total amount of memory used by VASP on root node    58837. kBytes
========================================================================

   base      :      30000. kBytes
   nonl-proj :       2365. kBytes
   fftplans  :       5772. kBytes
   grid      :      14451. kBytes
   one-center:         46. kBytes
   wavefun   :       6203. kBytes
 
  
  
 General timing and accounting informations for this job:
 ========================================================
  
                  Total CPU time used (sec):      650.085
                            User time (sec):      645.520
                          System time (sec):        4.564
                         Elapsed time (sec):      698.944
  
                   Maximum memory used (kb):       67332.
                   Average memory used (kb):           0.
  
                          Minor page faults:       740478
                          Major page faults:            0
                 Voluntary context switches:         7141
