  14  14   0   0
  0.5257373E+03  0.1945206E-08  0.1945206E-08  0.1945206E-08  0.1000000E-15
  1.000000000000000E-004
  CAR 
 unknown system                          
      1.15713021     -9.75023334  301     -3.73300445      1.00000000
     -9.750  0.0000E+00  0.0000E+00  0.0000E+00  0.0000E+00
     -9.714  0.0000E+00  0.0000E+00  0.0000E+00  0.0000E+00
     -9.678  0.0000E+00  0.0000E+00  0.0000E+00  0.0000E+00
     -9.641  0.0000E+00  0.0000E+00  0.0000E+00  0.0000E+00
     -9.605  0.0000E+00  0.0000E+00  0.0000E+00  0.0000E+00
     -9.568  0.0000E+00  0.0000E+00  0.0000E+00  0.0000E+00
     -9.532  0.0000E+00  0.0000E+00  0.0000E+00  0.0000E+00
     -9.496  0.0000E+00  0.0000E+00  0.0000E+00  0.0000E+00
     -9.459  0.0000E+00  0.0000E+00  0.0000E+00  0.0000E+00
     -9.423  0.0000E+00  0.0000E+00  0.0000E+00  0.0000E+00
     -9.387  0.0000E+00  0.0000E+00  0.0000E+00  0.0000E+00
     -9.350  0.0000E+00  0.0000E+00  0.0000E+00  0.0000E+00
     -9.314  0.0000E+00  0.0000E+00  0.0000E+00  0.0000E+00
     -9.278  0.0000E+00  0.0000E+00  0.0000E+00  0.0000E+00
     -9.241  0.0000E+00  0.0000E+00  0.1000E-02  0.1000E-02
     -9.205  0.0000E+00  0.0000E+00  0.1000E-02  0.1000E-02
     -9.169  0.0000E+00  0.0000E+00  0.1000E-02  0.1000E-02
     -9.132  0.0000E+00  0.0000E+00  0.1000E-02  0.1000E-02
     -9.096  0.0000E+00  0.0000E+00  0.1000E-02  0.1000E-02
     -9.059  0.0000E+00  0.0000E+00  0.2000E-02  0.2000E-02
     -9.023  0.0000E+00  0.0000E+00  0.3000E-02  0.3000E-02
     -8.987  0.0000E+00  0.0000E+00  0.3000E-02  0.3000E-02
     -8.950  0.0000E+00  0.0000E+00  0.3000E-02  0.3000E-02
     -8.914  0.0000E+00  0.0000E+00  0.3000E-02  0.3000E-02
     -8.878  0.0000E+00  0.0000E+00  0.3000E-02  0.3000E-02
     -8.841  0.0000E+00  0.0000E+00  0.4000E-02  0.4000E-02
     -8.805  0.0000E+00  0.0000E+00  0.5000E-02  0.5000E-02
     -8.769  0.0000E+00  0.0000E+00  0.6000E-02  0.6000E-02
     -8.732  0.0000E+00  0.0000E+00  0.7000E-02  0.7000E-02
     -8.696  0.0000E+00  0.0000E+00  0.7000E-02  0.7000E-02
     -8.659  0.0000E+00  0.0000E+00  0.8000E-02  0.8000E-02
     -8.623  0.0000E+00  0.0000E+00  0.8000E-02  0.8000E-02
     -8.587  0.0000E+00  0.0000E+00  0.9000E-02  0.9000E-02
     -8.550  0.2750E-01  0.2750E-01  0.1000E-01  0.1000E-01
     -8.514  0.0000E+00  0.0000E+00  0.1000E-01  0.1000E-01
     -8.478  0.0000E+00  0.0000E+00  0.1100E-01  0.1100E-01
     -8.441  0.0000E+00  0.0000E+00  0.1200E-01  0.1200E-01
     -8.405  0.0000E+00  0.0000E+00  0.1300E-01  0.1300E-01
     -8.369  0.0000E+00  0.0000E+00  0.1400E-01  0.1400E-01
     -8.332  0.0000E+00  0.0000E+00  0.1400E-01  0.1400E-01
     -8.296  0.0000E+00  0.0000E+00  0.1500E-01  0.1500E-01
     -8.260  0.0000E+00  0.0000E+00  0.1600E-01  0.1600E-01
     -8.223  0.0000E+00  0.0000E+00  0.1600E-01  0.1600E-01
     -8.187  0.0000E+00  0.0000E+00  0.1700E-01  0.1700E-01
     -8.150  0.0000E+00  0.0000E+00  0.1700E-01  0.1700E-01
     -8.114  0.0000E+00  0.0000E+00  0.1800E-01  0.1800E-01
     -8.078  0.0000E+00  0.0000E+00  0.1800E-01  0.1800E-01
     -8.041  0.0000E+00  0.0000E+00  0.1900E-01  0.1900E-01
     -8.005  0.0000E+00  0.0000E+00  0.2000E-01  0.2000E-01
     -7.969  0.0000E+00  0.0000E+00  0.2100E-01  0.2100E-01
     -7.932  0.0000E+00  0.0000E+00  0.2200E-01  0.2200E-01
     -7.896  0.0000E+00  0.0000E+00  0.2200E-01  0.2200E-01
     -7.860  0.0000E+00  0.0000E+00  0.2400E-01  0.2400E-01
     -7.823  0.0000E+00  0.0000E+00  0.2500E-01  0.2500E-01
     -7.787  0.0000E+00  0.0000E+00  0.2700E-01  0.2700E-01
     -7.751  0.0000E+00  0.0000E+00  0.2700E-01  0.2700E-01
     -7.714  0.0000E+00  0.0000E+00  0.2800E-01  0.2800E-01
     -7.678  0.0000E+00  0.0000E+00  0.2800E-01  0.2800E-01
     -7.641  0.0000E+00  0.0000E+00  0.2900E-01  0.2900E-01
     -7.605  0.0000E+00  0.0000E+00  0.2900E-01  0.2900E-01
     -7.569  0.0000E+00  0.0000E+00  0.3000E-01  0.3000E-01
     -7.532  0.0000E+00  0.0000E+00  0.3100E-01  0.3100E-01
     -7.496  0.0000E+00  0.0000E+00  0.3200E-01  0.3200E-01
     -7.460  0.0000E+00  0.0000E+00  0.3300E-01  0.3300E-01
     -7.423  0.0000E+00  0.0000E+00  0.3400E-01  0.3400E-01
     -7.387  0.0000E+00  0.0000E+00  0.3600E-01  0.3600E-01
     -7.351  0.0000E+00  0.0000E+00  0.3700E-01  0.3700E-01
     -7.314  0.0000E+00  0.0000E+00  0.3700E-01  0.3700E-01
     -7.278  0.0000E+00  0.0000E+00  0.3800E-01  0.3800E-01
     -7.242  0.2700E-01  0.2700E-01  0.3998E-01  0.3998E-01
     -7.205  0.0000E+00  0.0000E+00  0.4200E-01  0.4200E-01
     -7.169  0.0000E+00  0.0000E+00  0.4200E-01  0.4200E-01
     -7.132  0.0000E+00  0.0000E+00  0.4300E-01  0.4300E-01
     -7.096  0.1511E-01  0.1511E-01  0.4455E-01  0.4455E-01
     -7.060  0.0000E+00  0.0000E+00  0.4600E-01  0.4600E-01
     -7.023  0.0000E+00  0.0000E+00  0.4700E-01  0.4700E-01
     -6.987  0.0000E+00  0.0000E+00  0.4800E-01  0.4800E-01
     -6.951  0.0000E+00  0.0000E+00  0.4900E-01  0.4900E-01
     -6.914  0.0000E+00  0.0000E+00  0.5000E-01  0.5000E-01
     -6.878  0.0000E+00  0.0000E+00  0.5000E-01  0.5000E-01
     -6.842  0.0000E+00  0.0000E+00  0.5300E-01  0.5300E-01
     -6.805  0.0000E+00  0.0000E+00  0.5500E-01  0.5500E-01
     -6.769  0.0000E+00  0.0000E+00  0.5700E-01  0.5700E-01
     -6.733  0.0000E+00  0.0000E+00  0.5700E-01  0.5700E-01
     -6.696  0.0000E+00  0.0000E+00  0.5900E-01  0.5900E-01
     -6.660  0.0000E+00  0.0000E+00  0.5900E-01  0.5900E-01
     -6.623  0.0000E+00  0.0000E+00  0.6000E-01  0.6000E-01
     -6.587  0.0000E+00  0.0000E+00  0.6200E-01  0.6200E-01
     -6.551  0.2750E-01  0.2750E-01  0.6400E-01  0.6400E-01
     -6.514  0.0000E+00  0.0000E+00  0.6400E-01  0.6400E-01
     -6.478  0.0000E+00  0.0000E+00  0.6500E-01  0.6500E-01
     -6.442  0.0000E+00  0.0000E+00  0.6500E-01  0.6500E-01
     -6.405  0.0000E+00  0.0000E+00  0.6600E-01  0.6600E-01
     -6.369  0.0000E+00  0.0000E+00  0.6800E-01  0.6800E-01
     -6.333  0.0000E+00  0.0000E+00  0.6800E-01  0.6800E-01
     -6.296  0.0000E+00  0.0000E+00  0.7000E-01  0.7000E-01
     -6.260  0.0000E+00  0.0000E+00  0.7100E-01  0.7100E-01
     -6.224  0.0000E+00  0.0000E+00  0.7100E-01  0.7100E-01
     -6.187  0.0000E+00  0.0000E+00  0.7100E-01  0.7100E-01
     -6.151  0.6136E-02  0.6138E-02  0.7122E-01  0.7122E-01
     -6.114  0.0000E+00  0.0000E+00  0.7200E-01  0.7200E-01
     -6.078  0.0000E+00  0.0000E+00  0.7200E-01  0.7200E-01
     -6.042  0.0000E+00  0.0000E+00  0.7200E-01  0.7200E-01
     -6.005  0.0000E+00  0.0000E+00  0.7200E-01  0.7200E-01
     -5.969  0.0000E+00  0.0000E+00  0.7200E-01  0.7200E-01
     -5.933  0.0000E+00  0.0000E+00  0.7200E-01  0.7200E-01
     -5.896  0.0000E+00  0.0000E+00  0.7200E-01  0.7200E-01
     -5.860  0.0000E+00  0.0000E+00  0.7200E-01  0.7200E-01
     -5.824  0.0000E+00  0.0000E+00  0.7200E-01  0.7200E-01
     -5.787  0.0000E+00  0.0000E+00  0.7200E-01  0.7200E-01
     -5.751  0.0000E+00  0.0000E+00  0.7200E-01  0.7200E-01
     -5.715  0.0000E+00  0.0000E+00  0.7300E-01  0.7300E-01
     -5.678  0.0000E+00  0.0000E+00  0.7300E-01  0.7300E-01
     -5.642  0.0000E+00  0.0000E+00  0.7300E-01  0.7300E-01
     -5.605  0.0000E+00  0.0000E+00  0.7300E-01  0.7300E-01
     -5.569  0.0000E+00  0.0000E+00  0.7300E-01  0.7300E-01
     -5.533  0.0000E+00  0.0000E+00  0.7300E-01  0.7300E-01
     -5.496  0.0000E+00  0.0000E+00  0.7400E-01  0.7400E-01
     -5.460  0.0000E+00  0.0000E+00  0.7400E-01  0.7400E-01
     -5.424  0.0000E+00  0.0000E+00  0.7400E-01  0.7400E-01
     -5.387  0.0000E+00  0.0000E+00  0.7400E-01  0.7400E-01
     -5.351  0.0000E+00  0.0000E+00  0.7400E-01  0.7400E-01
     -5.315  0.0000E+00  0.0000E+00  0.7400E-01  0.7400E-01
     -5.278  0.0000E+00  0.0000E+00  0.7400E-01  0.7400E-01
     -5.242  0.0000E+00  0.0000E+00  0.7400E-01  0.7400E-01
     -5.205  0.0000E+00  0.0000E+00  0.7400E-01  0.7400E-01
     -5.169  0.0000E+00  0.0000E+00  0.7400E-01  0.7400E-01
     -5.133  0.0000E+00  0.0000E+00  0.7400E-01  0.7400E-01
     -5.096  0.0000E+00  0.0000E+00  0.7400E-01  0.7400E-01
     -5.060  0.0000E+00  0.0000E+00  0.7400E-01  0.7400E-01
     -5.024  0.0000E+00  0.0000E+00  0.7400E-01  0.7400E-01
     -4.987  0.0000E+00  0.0000E+00  0.7400E-01  0.7400E-01
     -4.951  0.0000E+00  0.0000E+00  0.7400E-01  0.7400E-01
     -4.915  0.0000E+00  0.0000E+00  0.7400E-01  0.7400E-01
     -4.878  0.0000E+00  0.0000E+00  0.7400E-01  0.7400E-01
     -4.842  0.0000E+00  0.0000E+00  0.7400E-01  0.7400E-01
     -4.806  0.0000E+00  0.0000E+00  0.7400E-01  0.7400E-01
     -4.769  0.0000E+00  0.0000E+00  0.7400E-01  0.7400E-01
     -4.733  0.0000E+00  0.0000E+00  0.7400E-01  0.7400E-01
     -4.696  0.0000E+00  0.0000E+00  0.7400E-01  0.7400E-01
     -4.660  0.0000E+00  0.0000E+00  0.7400E-01  0.7400E-01
     -4.624  0.0000E+00  0.0000E+00  0.7400E-01  0.7400E-01
     -4.587  0.0000E+00  0.0000E+00  0.7400E-01  0.7400E-01
     -4.551  0.0000E+00  0.0000E+00  0.7400E-01  0.7400E-01
     -4.515  0.0000E+00  0.0000E+00  0.7400E-01  0.7400E-01
     -4.478  0.0000E+00  0.0000E+00  0.7400E-01  0.7400E-01
     -4.442  0.0000E+00  0.0000E+00  0.7500E-01  0.7500E-01
     -4.406  0.0000E+00  0.0000E+00  0.7500E-01  0.7500E-01
     -4.369  0.0000E+00  0.0000E+00  0.7500E-01  0.7500E-01
     -4.333  0.0000E+00  0.0000E+00  0.7500E-01  0.7500E-01
     -4.297  0.0000E+00  0.0000E+00  0.7500E-01  0.7500E-01
     -4.260  0.0000E+00  0.0000E+00  0.7500E-01  0.7500E-01
     -4.224  0.0000E+00  0.0000E+00  0.7500E-01  0.7500E-01
     -4.187  0.0000E+00  0.0000E+00  0.7500E-01  0.7500E-01
     -4.151  0.0000E+00  0.0000E+00  0.7500E-01  0.7500E-01
     -4.115  0.0000E+00  0.0000E+00  0.7500E-01  0.7500E-01
     -4.078  0.0000E+00  0.0000E+00  0.7500E-01  0.7500E-01
     -4.042  0.0000E+00  0.0000E+00  0.7600E-01  0.7600E-01
     -4.006  0.0000E+00  0.0000E+00  0.7600E-01  0.7600E-01
     -3.969  0.0000E+00  0.0000E+00  0.7600E-01  0.7600E-01
     -3.933  0.0000E+00  0.0000E+00  0.7600E-01  0.7600E-01
     -3.897  0.0000E+00  0.0000E+00  0.7600E-01  0.7600E-01
     -3.860  0.0000E+00  0.0000E+00  0.7600E-01  0.7600E-01
     -3.824  0.0000E+00  0.0000E+00  0.7600E-01  0.7600E-01
     -3.788  0.0000E+00  0.0000E+00  0.7600E-01  0.7600E-01
     -3.751  0.0000E+00  0.0000E+00  0.7600E-01  0.7600E-01
     -3.715  0.0000E+00  0.0000E+00  0.7700E-01  0.7700E-01
     -3.678  0.0000E+00  0.0000E+00  0.7700E-01  0.7700E-01
     -3.642  0.0000E+00  0.0000E+00  0.7700E-01  0.7700E-01
     -3.606  0.0000E+00  0.0000E+00  0.7700E-01  0.7700E-01
     -3.569  0.0000E+00  0.0000E+00  0.7700E-01  0.7700E-01
     -3.533  0.0000E+00  0.0000E+00  0.7700E-01  0.7700E-01
     -3.497  0.0000E+00  0.0000E+00  0.7700E-01  0.7700E-01
     -3.460  0.0000E+00  0.0000E+00  0.7700E-01  0.7700E-01
     -3.424  0.0000E+00  0.0000E+00  0.7700E-01  0.7700E-01
     -3.388  0.0000E+00  0.0000E+00  0.7700E-01  0.7700E-01
     -3.351  0.0000E+00  0.0000E+00  0.7700E-01  0.7700E-01
     -3.315  0.0000E+00  0.0000E+00  0.7700E-01  0.7700E-01
     -3.279  0.0000E+00  0.0000E+00  0.7800E-01  0.7800E-01
     -3.242  0.0000E+00  0.0000E+00  0.7800E-01  0.7800E-01
     -3.206  0.0000E+00  0.0000E+00  0.7800E-01  0.7800E-01
     -3.169  0.0000E+00  0.0000E+00  0.7800E-01  0.7800E-01
     -3.133  0.0000E+00  0.0000E+00  0.7800E-01  0.7800E-01
     -3.097  0.0000E+00  0.0000E+00  0.7800E-01  0.7800E-01
     -3.060  0.0000E+00  0.0000E+00  0.7800E-01  0.7800E-01
     -3.024  0.0000E+00  0.0000E+00  0.7800E-01  0.7800E-01
     -2.988  0.0000E+00  0.0000E+00  0.7800E-01  0.7800E-01
     -2.951  0.0000E+00  0.0000E+00  0.7800E-01  0.7800E-01
     -2.915  0.0000E+00  0.0000E+00  0.7900E-01  0.7900E-01
     -2.879  0.0000E+00  0.0000E+00  0.7900E-01  0.7900E-01
     -2.842  0.0000E+00  0.0000E+00  0.7900E-01  0.7900E-01
     -2.806  0.0000E+00  0.0000E+00  0.8000E-01  0.8000E-01
     -2.770  0.0000E+00  0.0000E+00  0.8000E-01  0.8000E-01
     -2.733  0.0000E+00  0.0000E+00  0.8000E-01  0.8000E-01
     -2.697  0.0000E+00  0.0000E+00  0.8000E-01  0.8000E-01
     -2.660  0.0000E+00  0.0000E+00  0.8000E-01  0.8000E-01
     -2.624  0.0000E+00  0.0000E+00  0.8000E-01  0.8000E-01
     -2.588  0.0000E+00  0.0000E+00  0.8000E-01  0.8000E-01
     -2.551  0.0000E+00  0.0000E+00  0.8000E-01  0.8000E-01
     -2.515  0.0000E+00  0.0000E+00  0.8000E-01  0.8000E-01
     -2.479  0.0000E+00  0.0000E+00  0.8000E-01  0.8000E-01
     -2.442  0.0000E+00  0.0000E+00  0.8000E-01  0.8000E-01
     -2.406  0.0000E+00  0.0000E+00  0.8100E-01  0.8100E-01
     -2.370  0.0000E+00  0.0000E+00  0.8100E-01  0.8100E-01
     -2.333  0.0000E+00  0.0000E+00  0.8100E-01  0.8100E-01
     -2.297  0.0000E+00  0.0000E+00  0.8100E-01  0.8100E-01
     -2.261  0.0000E+00  0.0000E+00  0.8200E-01  0.8200E-01
     -2.224  0.0000E+00  0.0000E+00  0.8200E-01  0.8200E-01
     -2.188  0.0000E+00  0.0000E+00  0.8200E-01  0.8200E-01
     -2.151  0.0000E+00  0.0000E+00  0.8200E-01  0.8200E-01
     -2.115  0.0000E+00  0.0000E+00  0.8200E-01  0.8200E-01
     -2.079  0.0000E+00  0.0000E+00  0.8200E-01  0.8200E-01
     -2.042  0.0000E+00  0.0000E+00  0.8200E-01  0.8200E-01
     -2.006  0.0000E+00  0.0000E+00  0.8200E-01  0.8200E-01
     -1.970  0.0000E+00  0.0000E+00  0.8200E-01  0.8200E-01
     -1.933  0.0000E+00  0.0000E+00  0.8200E-01  0.8200E-01
     -1.897  0.0000E+00  0.0000E+00  0.8200E-01  0.8200E-01
     -1.861  0.0000E+00  0.0000E+00  0.8300E-01  0.8300E-01
     -1.824  0.0000E+00  0.0000E+00  0.8300E-01  0.8300E-01
     -1.788  0.0000E+00  0.0000E+00  0.8300E-01  0.8300E-01
     -1.752  0.0000E+00  0.0000E+00  0.8300E-01  0.8300E-01
     -1.715  0.0000E+00  0.0000E+00  0.8300E-01  0.8300E-01
     -1.679  0.0000E+00  0.0000E+00  0.8300E-01  0.8300E-01
     -1.642  0.0000E+00  0.0000E+00  0.8300E-01  0.8300E-01
     -1.606  0.0000E+00  0.0000E+00  0.8300E-01  0.8300E-01
     -1.570  0.0000E+00  0.0000E+00  0.8400E-01  0.8400E-01
     -1.533  0.0000E+00  0.0000E+00  0.8400E-01  0.8400E-01
     -1.497  0.0000E+00  0.0000E+00  0.8400E-01  0.8400E-01
     -1.461  0.0000E+00  0.0000E+00  0.8400E-01  0.8400E-01
     -1.424  0.0000E+00  0.0000E+00  0.8400E-01  0.8400E-01
     -1.388  0.0000E+00  0.0000E+00  0.8400E-01  0.8400E-01
     -1.352  0.0000E+00  0.0000E+00  0.8400E-01  0.8400E-01
     -1.315  0.0000E+00  0.0000E+00  0.8400E-01  0.8400E-01
     -1.279  0.0000E+00  0.0000E+00  0.8400E-01  0.8400E-01
     -1.242  0.0000E+00  0.0000E+00  0.8400E-01  0.8400E-01
     -1.206  0.0000E+00  0.0000E+00  0.8500E-01  0.8500E-01
     -1.170  0.0000E+00  0.0000E+00  0.8600E-01  0.8600E-01
     -1.133  0.0000E+00  0.0000E+00  0.8600E-01  0.8600E-01
     -1.097  0.0000E+00  0.0000E+00  0.8600E-01  0.8600E-01
     -1.061  0.0000E+00  0.0000E+00  0.8600E-01  0.8600E-01
     -1.024  0.0000E+00  0.0000E+00  0.8600E-01  0.8600E-01
     -0.988  0.0000E+00  0.0000E+00  0.8600E-01  0.8600E-01
     -0.952  0.0000E+00  0.0000E+00  0.8600E-01  0.8600E-01
     -0.915  0.0000E+00  0.0000E+00  0.8700E-01  0.8700E-01
     -0.879  0.0000E+00  0.0000E+00  0.8700E-01  0.8700E-01
     -0.843  0.0000E+00  0.0000E+00  0.8800E-01  0.8800E-01
     -0.806  0.0000E+00  0.0000E+00  0.8800E-01  0.8800E-01
     -0.770  0.0000E+00  0.0000E+00  0.8800E-01  0.8800E-01
     -0.733  0.0000E+00  0.0000E+00  0.8800E-01  0.8800E-01
     -0.697  0.0000E+00  0.0000E+00  0.8800E-01  0.8800E-01
     -0.661  0.0000E+00  0.0000E+00  0.8800E-01  0.8800E-01
     -0.624  0.0000E+00  0.0000E+00  0.8800E-01  0.8800E-01
     -0.588  0.0000E+00  0.0000E+00  0.8900E-01  0.8900E-01
     -0.552  0.0000E+00  0.0000E+00  0.9000E-01  0.9000E-01
     -0.515  0.0000E+00  0.0000E+00  0.9000E-01  0.9000E-01
     -0.479  0.0000E+00  0.0000E+00  0.9000E-01  0.9000E-01
     -0.443  0.0000E+00  0.0000E+00  0.9100E-01  0.9100E-01
     -0.406  0.0000E+00  0.0000E+00  0.9100E-01  0.9100E-01
     -0.370  0.0000E+00  0.0000E+00  0.9100E-01  0.9100E-01
     -0.334  0.0000E+00  0.0000E+00  0.9100E-01  0.9100E-01
     -0.297  0.0000E+00  0.0000E+00  0.9100E-01  0.9100E-01
     -0.261  0.0000E+00  0.0000E+00  0.9200E-01  0.9200E-01
     -0.224  0.0000E+00  0.0000E+00  0.9200E-01  0.9200E-01
     -0.188  0.0000E+00  0.0000E+00  0.9200E-01  0.9200E-01
     -0.152  0.0000E+00  0.0000E+00  0.9300E-01  0.9300E-01
     -0.115  0.0000E+00  0.0000E+00  0.9300E-01  0.9300E-01
     -0.079  0.0000E+00  0.0000E+00  0.9300E-01  0.9300E-01
     -0.043  0.0000E+00  0.0000E+00  0.9300E-01  0.9300E-01
     -0.006  0.0000E+00  0.0000E+00  0.9400E-01  0.9400E-01
      0.030  0.0000E+00  0.0000E+00  0.9400E-01  0.9400E-01
      0.066  0.0000E+00  0.0000E+00  0.9400E-01  0.9400E-01
      0.103  0.0000E+00  0.0000E+00  0.9400E-01  0.9400E-01
      0.139  0.0000E+00  0.0000E+00  0.9400E-01  0.9400E-01
      0.175  0.0000E+00  0.0000E+00  0.9400E-01  0.9400E-01
      0.212  0.0000E+00  0.0000E+00  0.9400E-01  0.9400E-01
      0.248  0.0000E+00  0.0000E+00  0.9400E-01  0.9400E-01
      0.285  0.0000E+00  0.0000E+00  0.9400E-01  0.9400E-01
      0.321  0.0000E+00  0.0000E+00  0.9500E-01  0.9500E-01
      0.357  0.0000E+00  0.0000E+00  0.9500E-01  0.9500E-01
      0.394  0.0000E+00  0.0000E+00  0.9500E-01  0.9500E-01
      0.430  0.0000E+00  0.0000E+00  0.9500E-01  0.9500E-01
      0.466  0.0000E+00  0.0000E+00  0.9600E-01  0.9600E-01
      0.503  0.0000E+00  0.0000E+00  0.9600E-01  0.9600E-01
      0.539  0.0000E+00  0.0000E+00  0.9600E-01  0.9600E-01
      0.575  0.0000E+00  0.0000E+00  0.9800E-01  0.9800E-01
      0.612  0.0000E+00  0.0000E+00  0.9800E-01  0.9800E-01
      0.648  0.0000E+00  0.0000E+00  0.9900E-01  0.9900E-01
      0.684  0.0000E+00  0.0000E+00  0.1000E+00  0.1000E+00
      0.721  0.0000E+00  0.0000E+00  0.1000E+00  0.1000E+00
      0.757  0.0000E+00  0.0000E+00  0.1000E+00  0.1000E+00
      0.794  0.0000E+00  0.0000E+00  0.1000E+00  0.1000E+00
      0.830  0.0000E+00  0.0000E+00  0.1000E+00  0.1000E+00
      0.866  0.0000E+00  0.0000E+00  0.1000E+00  0.1000E+00
      0.903  0.0000E+00  0.0000E+00  0.1000E+00  0.1000E+00
      0.939  0.0000E+00  0.0000E+00  0.1000E+00  0.1000E+00
      0.975  0.0000E+00  0.0000E+00  0.1000E+00  0.1000E+00
      1.012  0.0000E+00  0.0000E+00  0.1000E+00  0.1000E+00
      1.048  0.0000E+00  0.0000E+00  0.1000E+00  0.1000E+00
      1.084  0.0000E+00  0.0000E+00  0.1000E+00  0.1000E+00
      1.121  0.0000E+00  0.0000E+00  0.1000E+00  0.1000E+00
      1.157  0.0000E+00  0.0000E+00  0.1000E+00  0.1000E+00
