unknown system                          
           1
    20.002330    0.000000    0.000000
     0.000000   20.002330    0.000000
     0.000000    0.000000   20.002330
   Ag
  14
Direct configuration=     1
   0.46448569  0.56879514  0.44846226
   0.60236892  0.56565540  0.46851073
   0.56903756  0.51200005  0.34004289
   0.51841520  0.56856296  0.57988310
   0.48158480  0.43143704  0.57988310
   0.56903756  0.48359861  0.68330595
   0.43096244  0.51640139  0.68330595
   0.67503786  0.45351552  0.42176662
   0.53551431  0.43120486  0.44846226
   0.43096244  0.48799995  0.34004289
   0.62628739  0.45838575  0.55802845
   0.39763108  0.43434460  0.46851073
   0.37371261  0.54161425  0.55802845
   0.32496214  0.54648448  0.42176662
Direct configuration=     2
   0.46449193  0.56866415  0.44850011
   0.60226291  0.56549300  0.46851750
   0.56899479  0.51195742  0.34018657
   0.51839279  0.56841678  0.57982269
   0.48160721  0.43158322  0.57982269
   0.56896680  0.48362294  0.68317477
   0.43103320  0.51637706  0.68317477
   0.67490006  0.45357349  0.42182480
   0.53550807  0.43133585  0.44850011
   0.43100521  0.48804258  0.34018657
   0.62616369  0.45845843  0.55797355
   0.39773709  0.43450700  0.46851750
   0.37383631  0.54154157  0.55797355
   0.32509994  0.54642651  0.42182480
Direct configuration=     3
   0.46451067  0.56827121  0.44861366
   0.60194487  0.56500580  0.46853784
   0.56886648  0.51182954  0.34061762
   0.51832554  0.56797822  0.57964145
   0.48167446  0.43202178  0.57964145
   0.56875453  0.48369593  0.68278123
   0.43124547  0.51630407  0.68278123
   0.67448668  0.45374740  0.42199935
   0.53548933  0.43172879  0.44861366
   0.43113352  0.48817046  0.34061762
   0.62579259  0.45867648  0.55780885
   0.39805513  0.43499420  0.46853784
   0.37420741  0.54132352  0.55780885
   0.32551332  0.54625260  0.42199935
Direct configuration=     4
   0.46454815  0.56748532  0.44884075
   0.60130880  0.56403140  0.46857851
   0.56860986  0.51157378  0.34147971
   0.51819104  0.56710112  0.57927898
   0.48180896  0.43289888  0.57927898
   0.56832998  0.48384191  0.68199414
   0.43167002  0.51615809  0.68199414
   0.67365991  0.45409522  0.42234845
   0.53545185  0.43251468  0.44884075
   0.43139014  0.48842622  0.34147971
   0.62505039  0.45911257  0.55747945
   0.39869120  0.43596860  0.46857851
   0.37494961  0.54088743  0.55747945
   0.32634009  0.54590478  0.42234845
Direct configuration=     5
   0.46462310  0.56591354  0.44929494
   0.60003665  0.56208260  0.46865986
   0.56809662  0.51106226  0.34320390
   0.51792205  0.56534690  0.57855404
   0.48207795  0.43465310  0.57855404
   0.56748089  0.48413388  0.68041997
   0.43251911  0.51586612  0.68041997
   0.67200636  0.45479085  0.42304664
   0.53537690  0.43408646  0.44929494
   0.43190338  0.48893774  0.34320390
   0.62356599  0.45998476  0.55682065
   0.39996335  0.43791740  0.46865986
   0.37643401  0.54001524  0.55682065
   0.32799364  0.54520915  0.42304664
Direct configuration=     6
   0.46458666  0.56667772  0.44907412
   0.60065516  0.56303009  0.46862031
   0.56834615  0.51131096  0.34236562
   0.51805283  0.56619979  0.57890650
   0.48194717  0.43380021  0.57890650
   0.56789371  0.48399193  0.68118531
   0.43210629  0.51600807  0.68118531
   0.67281030  0.45445264  0.42270718
   0.53541334  0.43332228  0.44907412
   0.43165385  0.48868904  0.34236562
   0.62428769  0.45956071  0.55714095
   0.39934484  0.43696991  0.46862031
   0.37571231  0.54043929  0.55714095
   0.32718970  0.54554736  0.42270718
Direct configuration=     7
   0.46467923  0.56666081  0.44919910
   0.60053313  0.56312122  0.46863067
   0.56827039  0.51134111  0.34233341
   0.51810052  0.56628645  0.57878105
   0.48189948  0.43371355  0.57878105
   0.56787332  0.48401057  0.68109535
   0.43212668  0.51598943  0.68109535
   0.67277470  0.45441061  0.42276671
   0.53532077  0.43333919  0.44919910
   0.43172961  0.48865889  0.34233341
   0.62418621  0.45956396  0.55719371
   0.39946687  0.43687878  0.46863067
   0.37581379  0.54043604  0.55719371
   0.32722530  0.54558939  0.42276671
Direct configuration=     8
   0.46484914  0.56662978  0.44942847
   0.60030916  0.56328846  0.46864967
   0.56813135  0.51139647  0.34227430
   0.51818806  0.56644551  0.57855080
   0.48181194  0.43355449  0.57855080
   0.56783589  0.48404479  0.68093024
   0.43216411  0.51595521  0.68093024
   0.67270936  0.45433347  0.42287596
   0.53515086  0.43337022  0.44942847
   0.43186865  0.48860353  0.34227430
   0.62399998  0.45956992  0.55729055
   0.39969084  0.43671154  0.46864967
   0.37600002  0.54043008  0.55729055
   0.32729064  0.54566653  0.42287596
Direct configuration=     9
   0.46480182  0.56660151  0.44943531
   0.60033126  0.56334534  0.46859214
   0.56808709  0.51140436  0.34229019
   0.51821909  0.56650213  0.57856515
   0.48178091  0.43349787  0.57856515
   0.56779683  0.48407348  0.68084716
   0.43220317  0.51592652  0.68084716
   0.67260791  0.45431722  0.42296972
   0.53519818  0.43339849  0.44943531
   0.43191291  0.48859564  0.34229019
   0.62393516  0.45958055  0.55730032
   0.39966874  0.43665466  0.46859214
   0.37606484  0.54041945  0.55730032
   0.32739209  0.54568278  0.42296972
Direct configuration=    10
   0.46465985  0.56651670  0.44945581
   0.60039755  0.56351599  0.46841956
   0.56795431  0.51142805  0.34233786
   0.51831219  0.56667200  0.57860820
   0.48168781  0.43332800  0.57860820
   0.56767967  0.48415953  0.68059794
   0.43232033  0.51584047  0.68059794
   0.67230357  0.45426846  0.42325099
   0.53534015  0.43348330  0.44945581
   0.43204569  0.48857195  0.34233786
   0.62374071  0.45961243  0.55732964
   0.39960245  0.43648401  0.46841956
   0.37625929  0.54038757  0.55732964
   0.32769643  0.54573154  0.42325099
Direct configuration=    11
   0.46480420  0.56653266  0.44953026
   0.60031345  0.56359679  0.46845937
   0.56797487  0.51146395  0.34229324
   0.51834768  0.56667097  0.57848387
   0.48165232  0.43332903  0.57848387
   0.56772075  0.48415746  0.68064457
   0.43227925  0.51584254  0.68064457
   0.67235893  0.45421244  0.42326818
   0.53519580  0.43346734  0.44953026
   0.43202513  0.48853605  0.34229324
   0.62372698  0.45964866  0.55732051
   0.39968655  0.43640321  0.46845937
   0.37627302  0.54035134  0.55732051
   0.32764107  0.54578756  0.42326818
Direct configuration=    12
   0.46477592  0.56652953  0.44951567
   0.60032993  0.56358096  0.46845157
   0.56797084  0.51145692  0.34230199
   0.51834073  0.56667118  0.57850823
   0.48165927  0.43332882  0.57850823
   0.56771270  0.48415787  0.68063543
   0.43228730  0.51584213  0.68063543
   0.67234808  0.45422341  0.42326481
   0.53522408  0.43347047  0.44951567
   0.43202916  0.48854308  0.34230199
   0.62372967  0.45964156  0.55732230
   0.39967007  0.43641904  0.46845157
   0.37627033  0.54035844  0.55732230
   0.32765192  0.54577659  0.42326481
