 vasp.5.3.5 31Mar14 (build Feb 01 2018 12:10:03) gamma-only                     
  
 executed on             LinuxIFC date 2019.04.02  05:05:45
 running on   32 total cores
 distrk:  each k-point on   32 cores,    1 groups
 distr:  one band on NCORES_PER_BAND=   8 cores,    4 groups


--------------------------------------------------------------------------------------------------------


 INCAR:
 POTCAR:    PAW_PBE Cu 22Jun2005                  
 POTCAR:    PAW_PBE Cu 22Jun2005                  
   VRHFIN =Cu: d10 p1                                                           
   LEXCH  = PE                                                                  
   EATOM  =  1390.9808 eV,  102.2342 Ry                                         
                                                                                
   TITEL  = PAW_PBE Cu 22Jun2005                                                
   LULTRA =        F    use ultrasoft PP ?                                      
   IUNSCR =        1    unscreen: 0-lin 1-nonlin 2-no                           
   RPACOR =    2.000    partial core radius                                     
   POMASS =   63.546; ZVAL   =   11.000    mass and valenz                      
   RCORE  =    2.300    outmost cutoff radius                                   
   RWIGS  =    2.200; RWIGS  =    1.164    wigner-seitz radius (au A)           
   ENMAX  =  295.446; ENMIN  =  221.585 eV                                      
   ICORE  =        3    local potential                                         
   LCOR   =        T    correct aug charges                                     
   LPAW   =        T    paw PP                                                  
   EAUG   =  586.980                                                            
   DEXC   =    0.000                                                            
   RMAX   =    2.344    core radius for proj-oper                               
   RAUG   =    1.300    factor for augmentation sphere                          
   RDEP   =    2.302    radius for radial grids                                 
   RDEPT  =    1.771    core radius for aug-charge                              
                                                                                
   Atomic configuration                                                         
    9 entries                                                                   
     n  l   j            E        occ.                                          
     1  0  0.50     -8850.2468   2.0000                                         
     2  0  0.50     -1062.3498   2.0000                                         
     2  1  1.50      -916.8226   6.0000                                         
     3  0  0.50      -114.6929   2.0000                                         
     3  1  1.50       -72.1325   6.0000                                         
     3  2  2.50        -5.0394  10.0000                                         
     4  0  0.50        -4.6097   1.0000                                         
     4  1  0.50        -4.0817   0.0000                                         
     4  3  2.50        -1.3606   0.0000                                         
   Description                                                                  
     l       E           TYP  RCUT    TYP  RCUT                                 
     2     -5.0393973     23  2.200                                             
     2     10.8846608     23  2.200                                             
     0     -4.6097109     23  2.200                                             
     0      8.2520465     23  2.200                                             
     1     -2.7211652     23  2.200                                             
     1     21.7055443     23  2.200                                             
     3      2.7211652     23  2.300                                             
  local pseudopotential read in
  partial core-charges read in
  partial kinetic energy density read in
  atomic valenz-charges read in
  non local Contribution for L=           2  read in
    real space projection operators read in
  non local Contribution for L=           2  read in
    real space projection operators read in
  non local Contribution for L=           0  read in
    real space projection operators read in
  non local Contribution for L=           0  read in
    real space projection operators read in
  non local Contribution for L=           1  read in
    real space projection operators read in
  non local Contribution for L=           1  read in
    real space projection operators read in
    PAW grid and wavefunctions read in
 
   number of l-projection  operators is LMAX  =           6
   number of lm-projection operators is LMMAX =          18
 
  PAW_PBE Cu 22Jun2005                  :
 energy of atom  1       EATOM=-1390.9808
 kinetic energy error for atom=    0.0452 (will be added to EATOM!!)
 
 
 POSCAR: Ag11, -948.0 <s> Cu </s>                
  positions in direct lattice
  No initial velocities read in
 exchange correlation table for  LEXCH =        8
   RHO(1)=    0.500       N(1)  =     2000
   RHO(2)=  100.500       N(2)  =     4000
 


--------------------------------------------------------------------------------------------------------


 ion  position               nearest neighbor table
   1  0.500  0.500  0.609-   2 2.47   4 2.47   5 2.47   9 2.47
   2  0.562  0.560  0.527-   3 2.46   1 2.47   9 2.48   8 2.49   7 2.52   4 2.56
   3  0.500  0.661  0.538-   7 2.46   4 2.46   2 2.46
   4  0.438  0.560  0.527-   3 2.46   1 2.47   5 2.48   6 2.49   7 2.52   2 2.56
   5  0.438  0.440  0.527-  11 2.46   1 2.47   4 2.48   6 2.49  10 2.52   9 2.56
   6  0.440  0.500  0.422-   8 2.47   5 2.49   4 2.49   7 2.53  10 2.53
   7  0.500  0.606  0.432-   3 2.46   2 2.52   4 2.52   6 2.53   8 2.53
   8  0.560  0.500  0.422-   6 2.47   2 2.49   9 2.49   7 2.53  10 2.53
   9  0.562  0.440  0.527-  11 2.46   1 2.47   2 2.48   8 2.49  10 2.52   5 2.56
  10  0.500  0.394  0.432-  11 2.46   9 2.52   5 2.52   6 2.53   8 2.53
  11  0.500  0.339  0.538-  10 2.46   9 2.46   5 2.46
 
  LATTYP: Found a simple cubic cell.
 ALAT       =    20.6401160000
  
  Lattice vectors:
  
 A1 = (  20.6401160000,   0.0000000000,   0.0000000000)
 A2 = (   0.0000000000,  20.6401160000,   0.0000000000)
 A3 = (   0.0000000000,   0.0000000000,  20.6401160000)


Analysis of symmetry for initial positions (statically):
=====================================================================
 Subroutine PRICEL returns:
 Original cell was already a primitive cell.
 

 Routine SETGRP: Setting up the symmetry group for a 
 simple cubic supercell.


 Subroutine GETGRP returns: Found  4 space group operations
 (whereof  4 operations were pure point group operations)
 out of a pool of 48 trial point group operations.


The static configuration has the point symmetry C_2v.


Analysis of symmetry for dynamics (positions and initial velocities):
=====================================================================
 Subroutine PRICEL returns:
 Original cell was already a primitive cell.
 

 Routine SETGRP: Setting up the symmetry group for a 
 simple cubic supercell.


 Subroutine GETGRP returns: Found  4 space group operations
 (whereof  4 operations were pure point group operations)
 out of a pool of 48 trial point group operations.


The dynamic configuration has the point symmetry C_2v.


Analysis of magnetic symmetry:
=====================================================================
 Subroutine PRICEL returns:
 Original cell was already a primitive cell.
 

 Subroutine MAGSYM returns: Found  4 space group operations
 (whereof  4 operations were pure point group operations)
 out of a pool of  4 trial space group operations
 (whereof  4 operations were pure point group operations)
 and found also     1 'primitive' translations


The magnetic configuration has the point symmetry C_2v.
 
 
 KPOINTS: Gamma-point only                        
  k-points in reciprocal lattice
Space group operators:
 irot       det(A)        alpha          n_x          n_y          n_z        tau_x        tau_y        tau_z
    1     1.000000     0.000001     1.000000     0.000000     0.000000     0.000000     0.000000     0.000000
    2     1.000000   180.000000     0.000000     0.000000     1.000000     0.000000     0.000000     0.000000
    3    -1.000000   180.000000     1.000000     0.000000     0.000000     0.000000     0.000000     0.000000
    4    -1.000000   180.000000     0.000000     1.000000     0.000000     0.000000     0.000000     0.000000


--------------------------------------------------------------------------------------------------------




 Dimension of arrays:
   k-points           NKPTS =      1   k-points in BZ     NKDIM =      1   number of bands    NBANDS=     80
   number of dos      NEDOS =    301   number of ions     NIONS =     11
   non local maximal  LDIM  =      6   non local SUM 2l+1 LMDIM =     18
   total plane-waves  NPLWV = 729000
   max r-space proj   IRMAX =      1   max aug-charges    IRDMAX=   2601
   dimension x,y,z NGX =    90 NGY =   90 NGZ =   90
   dimension x,y,z NGXF=   180 NGYF=  180 NGZF=  180
   support grid    NGXF=   180 NGYF=  180 NGZF=  180
   ions per type =              11
 NGX,Y,Z   is equivalent  to a cutoff of   7.25,  7.25,  7.25 a.u.
 NGXF,Y,Z  is equivalent  to a cutoff of  14.50, 14.50, 14.50 a.u.


 I would recommend the setting:
   dimension x,y,z NGX =    87 NGY =   87 NGZ =   87
 SYSTEM =  unknown system                          
 POSCAR =  Ag11, -948.0 <s> Cu </s>                

 Startparameter for this run:
   NWRITE =      2    write-flag & timer
   PREC   = normal    normal or accurate (medium, high low for compatibility)
   ISTART =      0    job   : 0-new  1-cont  2-samecut
   ICHARG =      2    charge: 1-file 2-atom 10-const
   ISPIN  =      2    spin polarized calculation?
   LNONCOLLINEAR =      F non collinear calculations
   LSORBIT =      F    spin-orbit coupling
   INIWAV =      1    electr: 0-lowe 1-rand  2-diag
   LASPH  =      F    aspherical Exc in radial PAW
   METAGGA=      F    non-selfconsistent MetaGGA calc.

 Electronic Relaxation 1
   ENCUT  =  295.4 eV  21.71 Ry    4.66 a.u.  28.93 28.93 28.93*2*pi/ulx,y,z
   ENINI  =  295.4     initial cutoff
   ENAUG  =  587.0 eV  augmentation charge cutoff
   NELM   =     60;   NELMIN=  2; NELMDL= -5     # of ELM steps 
   EDIFF  = 0.1E-03   stopping-criterion for ELM
   LREAL  =      F    real-space projection
   NLSPLINE    = F    spline interpolate recip. space projectors
   LCOMPAT=      F    compatible to vasp.4.4
   GGA_COMPAT  = T    GGA compatible to vasp.4.4-vasp.4.6
   LMAXPAW     = -100 max onsite density
   LMAXMIX     =    2 max onsite mixed and CHGCAR
   VOSKOWN=      0    Vosko Wilk Nusair interpolation
   ROPT   =    0.00000
 Ionic relaxation
   EDIFFG = 0.1E-02   stopping-criterion for IOM
   NSW    =   1000    number of steps for IOM
   NBLOCK =      1;   KBLOCK =   1000    inner block; outer block 
   IBRION =      2    ionic relax: 0-MD 1-quasi-New 2-CG
   NFREE  =      1    steps in history (QN), initial steepest desc. (CG)
   ISIF   =      2    stress and relaxation
   IWAVPR =     11    prediction:  0-non 1-charg 2-wave 3-comb
   ISYM   =      2    0-nonsym 1-usesym 2-fastsym
   LCORR  =      T    Harris-Foulkes like correction to forces

   POTIM  = 0.1000    time-step for ionic-motion
   TEIN   =    0.0    initial temperature
   TEBEG  =    0.0;   TEEND  =   0.0 temperature during run
   SMASS  =  -3.00    Nose mass-parameter (am)
   estimated Nose-frequenzy (Omega)   =  0.10E-29 period in steps =****** mass=  -0.974E-26a.u.
   SCALEE = 1.0000    scale energy and forces
   NPACO  =    256;   APACO  = 16.0  distance and # of slots for P.C.
   PSTRESS=    0.0 pullay stress

  Mass of Ions in am
   POMASS =  63.55
  Ionic Valenz
   ZVAL   =  11.00
  Atomic Wigner-Seitz radii
   RWIGS  =  -1.00
  virtual crystal weights 
   VCA    =   1.00
   NELECT =     121.0000    total number of electrons
   NUPDOWN=      -1.0000    fix difference up-down

 DOS related values:
   EMIN   =  10.00;   EMAX   =-10.00  energy-range for DOS
   EFERMI =   0.00
   ISMEAR =     0;   SIGMA  =   0.00  broadening in eV -4-tet -1-fermi 0-gaus

 Electronic relaxation 2 (details)
   IALGO  =     38    algorithm
   LDIAG  =      T    sub-space diagonalisation (order eigenvalues)
   LSUBROT=      F    optimize rotation matrix (better conditioning)
   TURBO    =      0    0=normal 1=particle mesh
   IRESTART =      0    0=no restart 2=restart with 2 vectors
   NREBOOT  =      0    no. of reboots
   NMIN     =      0    reboot dimension
   EREF     =   0.00    reference energy to select bands
   IMIX   =      4    mixing-type and parameters
     AMIX     =   0.40;   BMIX     =  1.00
     AMIX_MAG =   1.60;   BMIX_MAG =  1.00
     AMIN     =   0.10
     WC   =   100.;   INIMIX=   1;  MIXPRE=   1;  MAXMIX= -45

 Intra band minimization:
   WEIMIN = 0.0010     energy-eigenvalue tresh-hold
   EBREAK =  0.31E-06  absolut break condition
   DEPER  =   0.30     relativ break condition  

   TIME   =   0.40     timestep for ELM

  volume/ion in A,a.u.               =     799.36      5394.36
  Fermi-wavevector in a.u.,A,eV,Ry     =   0.392306  0.741350  2.093987  0.153904
  Thomas-Fermi vector in A             =   1.335568
 
 Write flags
   LWAVE  =      F    write WAVECAR
   LCHARG =      F    write CHGCAR
   LVTOT  =      F    write LOCPOT, total local potential
   LVHAR  =      F    write LOCPOT, Hartree potential only
   LELF   =      F    write electronic localiz. function (ELF)
   LORBIT =      0    0 simple, 1 ext, 2 COOP (PROOUT)


 Dipole corrections
   LMONO  =      F    monopole corrections only (constant potential shift)
   LDIPOL =      F    correct potential (dipole corrections)
   IDIPOL =      0    1-x, 2-y, 3-z, 4-all directions 
   EPSILON=  1.0000000 bulk dielectric constant

 Exchange correlation treatment:
   GGA     =    PE    GGA type
   LEXCH   =     8    internal setting for exchange type
   VOSKOWN=      0    Vosko Wilk Nusair interpolation
   LHFCALC =     F    Hartree Fock is set to
   LHFONE  =     F    Hartree Fock one center treatment
   AEXX    =    0.0000 exact exchange contribution

 Linear response parameters
   LEPSILON=     F    determine dielectric tensor
   LRPA    =     F    only Hartree local field effects (RPA)
   LNABLA  =     F    use nabla operator in PAW spheres
   LVEL    =     F    velocity operator in full k-point grid
   LINTERFAST=   F  fast interpolation
   KINTER  =     0    interpolate to denser k-point grid
   CSHIFT  =0.1000    complex shift for real part using Kramers Kronig
   OMEGAMAX=  -1.0    maximum frequency
   DEG_THRESHOLD= 0.2000000E-02 threshold for treating states as degnerate
   RTIME   =    0.100 relaxation time in fs

 Orbital magnetization related:
   ORBITALMAG=     F  switch on orbital magnetization
   LCHIMAG   =     F  perturbation theory with respect to B field
   DQ        =  0.001000  dq finite difference perturbation B field



--------------------------------------------------------------------------------------------------------


 conjugate gradient relaxation of ions
 charge density and potential will be updated during run
 spin polarized calculation
 Variant of blocked Davidson
 Davidson routine will perform the subspace rotation
 perform sub-space diagonalisation
    after iterative eigenvector-optimisation
 modified Broyden-mixing scheme, WC =      100.0
 initial mixing is a Kerker type mixing with AMIX =  0.4000 and BMIX =      1.0000
 Hartree-type preconditioning will be used
 using additional bands           19
 reciprocal scheme for non local part
 use partial core corrections
 calculate Harris-corrections to forces 
   (improved forces if not selfconsistent)
 use gradient corrections 
 use of overlap-Matrix (Vanderbilt PP)
 Gauss-broadening in eV      SIGMA  =   0.00


--------------------------------------------------------------------------------------------------------


  energy-cutoff  :      295.45
  volume of cell :     8792.99
      direct lattice vectors                 reciprocal lattice vectors
    20.640116000  0.000000000  0.000000000     0.048449340  0.000000000  0.000000000
     0.000000000 20.640116000  0.000000000     0.000000000  0.048449340  0.000000000
     0.000000000  0.000000000 20.640116000     0.000000000  0.000000000  0.048449340

  length of vectors
    20.640116000 20.640116000 20.640116000     0.048449340  0.048449340  0.048449340


 
 k-points in units of 2pi/SCALE and weight: Gamma-point only                        
   0.00000000  0.00000000  0.00000000       1.000
 
 k-points in reciprocal lattice and weights: Gamma-point only                        
   0.00000000  0.00000000  0.00000000       1.000
 
 position of ions in fractional coordinates (direct lattice) 
   0.50000000  0.50000000  0.60927899
   0.56211988  0.56009861  0.52654519
   0.50000000  0.66141677  0.53799293
   0.43788012  0.56009861  0.52654519
   0.43788012  0.43990139  0.52654519
   0.44008064  0.50000000  0.42188736
   0.50000000  0.60645853  0.43238985
   0.55991936  0.50000000  0.42188736
   0.56211988  0.43990139  0.52654519
   0.50000000  0.39354147  0.43238985
   0.50000000  0.33858323  0.53799293
 
 position of ions in cartesian coordinates  (Angst):
  10.32005800 10.32005800 12.57558894
  11.60221949 11.56050022 10.86795379
  10.32005800 13.65171884 11.10423647
   9.03789651 11.56050022 10.86795379
   9.03789651  9.07961578 10.86795379
   9.08331543 10.32005800  8.70780398
  10.32005800 12.51737445  8.92457669
  11.55680057 10.32005800  8.70780398
  11.60221949  9.07961578 10.86795379
  10.32005800  8.12274155  8.92457669
  10.32005800  6.98839716 11.10423647
 


--------------------------------------------------------------------------------------------------------


 use parallel FFT for wavefunctions z direction half grid
 k-point  1 :   0.0000 0.0000 0.0000  plane waves:   50657

 maximum and minimum number of plane-waves per node :      6336     6327

 maximum number of plane-waves:     50657
 maximum index in each direction: 
   IXMAX=   28   IYMAX=   28   IZMAX=   28
   IXMIN=  -28   IYMIN=  -28   IZMIN=    0

 WARNING: aliasing errors must be expected set NGX to 114 to avoid them
 WARNING: aliasing errors must be expected set NGY to 114 to avoid them
 WARNING: aliasing errors must be expected set NGZ to 114 to avoid them
 aliasing errors are usually negligible using standard VASP settings
 and one can safely disregard these warnings

 parallel 3D FFT for wavefunctions:
    minimum data exchange during FFTs selected (reduces bandwidth)
 parallel 3D FFT for charge:
    minimum data exchange during FFTs selected (reduces bandwidth)


 total amount of memory used by VASP on root node    66631. kBytes
========================================================================

   base      :      30000. kBytes
   nonl-proj :       2027. kBytes
   fftplans  :       8579. kBytes
   grid      :      21928. kBytes
   one-center:         31. kBytes
   wavefun   :       4066. kBytes
 
     INWAV:  cpu time    0.00: real time    0.00
 Broyden mixing: mesh for mixing (old mesh)
   NGX = 57   NGY = 57   NGZ = 57
  (NGX  =180   NGY  =180   NGZ  =180)
  gives a total of 185193 points

 initial charge density was supplied:
 charge density of overlapping atoms calculated
 number of electron     121.0000000 magnetization      11.0000000
 keeping initial charge density in first step


--------------------------------------------------------------------------------------------------------


 Maximum index for augmentation-charges          141 (set IRDMAX)


--------------------------------------------------------------------------------------------------------


 First call to EWALD:  gamma=   0.086
 Maximum number of real-space cells 3x 3x 3
 Maximum number of reciprocal cells 3x 3x 3

 FEWALD executed in parallel
    FEWALD:  cpu time    0.00: real time    0.00


----------------------------------------- Iteration    1(   1)  ---------------------------------------


    POTLOK:  cpu time    0.37: real time    0.37
    SETDIJ:  cpu time    0.01: real time    0.01
     EDDAV:  cpu time    1.12: real time    1.12
       DOS:  cpu time    0.00: real time    0.00
    --------------------------------------------
      LOOP:  cpu time    1.50: real time    1.53

 eigenvalue-minimisations  :   320
 total energy-change (2. order) : 0.7899004E+03  (-0.1938444E+04)
 number of electron     121.0000000 magnetization      11.0000000
 augmentation part      121.0000000 magnetization      11.0000000

 Free energy of the ion-electron system (eV)
  ---------------------------------------------------
  alpha Z        PSCENC =        10.06378135
  Ewald energy   TEWEN  =     16257.01502702
  -Hartree energ DENC   =    -30210.90264608
  -exchange      EXHF   =         0.00000000
  -V(xc)+E(xc)   XCENC  =       493.12864781
  PAW double counting   =     13509.07245654   -14673.13024677
  entropy T*S    EENTRO =         0.00000000
  eigenvalues    EBANDS =       104.36190252
  atomic energy  EATOM  =     15300.29143124
  ---------------------------------------------------
  free energy    TOTEN  =       789.90035362 eV

  energy without entropy =      789.90035362  energy(sigma->0) =      789.90035362


--------------------------------------------------------------------------------------------------------




----------------------------------------- Iteration    1(   2)  ---------------------------------------


     EDDAV:  cpu time    1.18: real time    1.18
       DOS:  cpu time    0.00: real time    0.00
    --------------------------------------------
      LOOP:  cpu time    1.18: real time    1.18

 eigenvalue-minimisations  :   336
 total energy-change (2. order) :-0.6027727E+03  (-0.5317901E+03)
 number of electron     121.0000000 magnetization      11.0000000
 augmentation part      121.0000000 magnetization      11.0000000

 Free energy of the ion-electron system (eV)
  ---------------------------------------------------
  alpha Z        PSCENC =        10.06378135
  Ewald energy   TEWEN  =     16257.01502702
  -Hartree energ DENC   =    -30210.90264608
  -exchange      EXHF   =         0.00000000
  -V(xc)+E(xc)   XCENC  =       493.12864781
  PAW double counting   =     13509.07245654   -14673.13024677
  entropy T*S    EENTRO =         0.00000000
  eigenvalues    EBANDS =      -498.41082713
  atomic energy  EATOM  =     15300.29143124
  ---------------------------------------------------
  free energy    TOTEN  =       187.12762397 eV

  energy without entropy =      187.12762397  energy(sigma->0) =      187.12762397


--------------------------------------------------------------------------------------------------------




----------------------------------------- Iteration    1(   3)  ---------------------------------------


     EDDAV:  cpu time    1.36: real time    1.37
       DOS:  cpu time    0.00: real time    0.00
    --------------------------------------------
      LOOP:  cpu time    1.37: real time    1.37

 eigenvalue-minimisations  :   408
 total energy-change (2. order) :-0.1842931E+03  (-0.1740972E+03)
 number of electron     121.0000000 magnetization      11.0000000
 augmentation part      121.0000000 magnetization      11.0000000

 Free energy of the ion-electron system (eV)
  ---------------------------------------------------
  alpha Z        PSCENC =        10.06378135
  Ewald energy   TEWEN  =     16257.01502702
  -Hartree energ DENC   =    -30210.90264608
  -exchange      EXHF   =         0.00000000
  -V(xc)+E(xc)   XCENC  =       493.12864781
  PAW double counting   =     13509.07245654   -14673.13024677
  entropy T*S    EENTRO =         0.00000000
  eigenvalues    EBANDS =      -682.70395876
  atomic energy  EATOM  =     15300.29143124
  ---------------------------------------------------
  free energy    TOTEN  =         2.83449234 eV

  energy without entropy =        2.83449234  energy(sigma->0) =        2.83449234


--------------------------------------------------------------------------------------------------------




----------------------------------------- Iteration    1(   4)  ---------------------------------------


     EDDAV:  cpu time    1.28: real time    1.29
       DOS:  cpu time    0.00: real time    0.00
    --------------------------------------------
      LOOP:  cpu time    1.29: real time    1.30

 eigenvalue-minimisations  :   376
 total energy-change (2. order) :-0.3146374E+02  (-0.2807196E+02)
 number of electron     121.0000000 magnetization      11.0000000
 augmentation part      121.0000000 magnetization      11.0000000

 Free energy of the ion-electron system (eV)
  ---------------------------------------------------
  alpha Z        PSCENC =        10.06378135
  Ewald energy   TEWEN  =     16257.01502702
  -Hartree energ DENC   =    -30210.90264608
  -exchange      EXHF   =         0.00000000
  -V(xc)+E(xc)   XCENC  =       493.12864781
  PAW double counting   =     13509.07245654   -14673.13024677
  entropy T*S    EENTRO =         0.00000000
  eigenvalues    EBANDS =      -714.16769978
  atomic energy  EATOM  =     15300.29143124
  ---------------------------------------------------
  free energy    TOTEN  =       -28.62924869 eV

  energy without entropy =      -28.62924869  energy(sigma->0) =      -28.62924869


--------------------------------------------------------------------------------------------------------




----------------------------------------- Iteration    1(   5)  ---------------------------------------


     EDDAV:  cpu time    1.30: real time    1.30
       DOS:  cpu time    0.00: real time    0.00
    CHARGE:  cpu time    0.22: real time    0.22
    MIXING:  cpu time    0.01: real time    0.01
    --------------------------------------------
      LOOP:  cpu time    1.54: real time    1.55

 eigenvalue-minimisations  :   384
 total energy-change (2. order) :-0.1277636E+01  (-0.1266438E+01)
 number of electron     121.0002373 magnetization       9.6430413
 augmentation part       74.4055554 magnetization       9.7445444

 Broyden mixing:
  rms(total) = 0.25577E+01    rms(broyden)= 0.25570E+01
  rms(prec ) = 0.26394E+01
  weight for this iteration     100.00

 Free energy of the ion-electron system (eV)
  ---------------------------------------------------
  alpha Z        PSCENC =        10.06378135
  Ewald energy   TEWEN  =     16257.01502702
  -Hartree energ DENC   =    -30210.90264608
  -exchange      EXHF   =         0.00000000
  -V(xc)+E(xc)   XCENC  =       493.12864781
  PAW double counting   =     13509.07245654   -14673.13024677
  entropy T*S    EENTRO =         0.00000000
  eigenvalues    EBANDS =      -715.44533602
  atomic energy  EATOM  =     15300.29143124
  ---------------------------------------------------
  free energy    TOTEN  =       -29.90688492 eV

  energy without entropy =      -29.90688492  energy(sigma->0) =      -29.90688492


--------------------------------------------------------------------------------------------------------




----------------------------------------- Iteration    1(   6)  ---------------------------------------


    POTLOK:  cpu time    0.36: real time    0.36
    SETDIJ:  cpu time    0.01: real time    0.01
     EDDAV:  cpu time    1.18: real time    1.18
       DOS:  cpu time    0.00: real time    0.00
    CHARGE:  cpu time    0.22: real time    0.22
    MIXING:  cpu time    0.01: real time    0.01
    --------------------------------------------
      LOOP:  cpu time    1.79: real time    1.80

 eigenvalue-minimisations  :   336
 total energy-change (2. order) : 0.1807036E+02  (-0.1040093E+02)
 number of electron     121.0002551 magnetization       8.7726133
 augmentation part       80.4480827 magnetization       6.6657445

 Broyden mixing:
  rms(total) = 0.11303E+01    rms(broyden)= 0.11298E+01
  rms(prec ) = 0.12168E+01
  weight for this iteration     100.00

 eigenvalues of (default mixing * dielectric matrix)
  average eigenvalue GAMMA=   0.8366
  0.8366

 Free energy of the ion-electron system (eV)
  ---------------------------------------------------
  alpha Z        PSCENC =        10.06378135
  Ewald energy   TEWEN  =     16257.01502702
  -Hartree energ DENC   =    -30042.66407816
  -exchange      EXHF   =         0.00000000
  -V(xc)+E(xc)   XCENC  =       495.35443303
  PAW double counting   =     13601.78179567   -14729.44689470
  entropy T*S    EENTRO =         0.00000000
  eigenvalues    EBANDS =      -904.23201834
  atomic energy  EATOM  =     15300.29143124
  ---------------------------------------------------
  free energy    TOTEN  =       -11.83652290 eV

  energy without entropy =      -11.83652290  energy(sigma->0) =      -11.83652290


--------------------------------------------------------------------------------------------------------




----------------------------------------- Iteration    1(   7)  ---------------------------------------


    POTLOK:  cpu time    0.36: real time    0.36
    SETDIJ:  cpu time    0.01: real time    0.01
     EDDAV:  cpu time    1.32: real time    1.33
       DOS:  cpu time    0.00: real time    0.00
    CHARGE:  cpu time    0.22: real time    0.22
    MIXING:  cpu time    0.01: real time    0.01
    --------------------------------------------
      LOOP:  cpu time    1.93: real time    1.93

 eigenvalue-minimisations  :   392
 total energy-change (2. order) : 0.5637883E+01  (-0.2767876E+01)
 number of electron     121.0002470 magnetization       7.5226756
 augmentation part       77.7451895 magnetization       5.1860021

 Broyden mixing:
  rms(total) = 0.48519E+00    rms(broyden)= 0.48497E+00
  rms(prec ) = 0.51285E+00
  weight for this iteration     100.00

 eigenvalues of (default mixing * dielectric matrix)
  average eigenvalue GAMMA=   0.9096
  0.6400  1.1793

 Free energy of the ion-electron system (eV)
  ---------------------------------------------------
  alpha Z        PSCENC =        10.06378135
  Ewald energy   TEWEN  =     16257.01502702
  -Hartree energ DENC   =    -30178.32865491
  -exchange      EXHF   =         0.00000000
  -V(xc)+E(xc)   XCENC  =       503.23609971
  PAW double counting   =     13855.64022622   -15026.99806292
  entropy T*S    EENTRO =         0.00000000
  eigenvalues    EBANDS =      -727.11848759
  atomic energy  EATOM  =     15300.29143124
  ---------------------------------------------------
  free energy    TOTEN  =        -6.19863989 eV

  energy without entropy =       -6.19863989  energy(sigma->0) =       -6.19863989


--------------------------------------------------------------------------------------------------------




----------------------------------------- Iteration    1(   8)  ---------------------------------------


    POTLOK:  cpu time    0.36: real time    0.36
    SETDIJ:  cpu time    0.00: real time    0.01
     EDDAV:  cpu time    1.34: real time    1.35
       DOS:  cpu time    0.00: real time    0.00
    CHARGE:  cpu time    0.22: real time    0.22
    MIXING:  cpu time    0.01: real time    0.01
    --------------------------------------------
      LOOP:  cpu time    1.95: real time    2.14

 eigenvalue-minimisations  :   400
 total energy-change (2. order) : 0.9450815E+00  (-0.3480017E+00)
 number of electron     121.0002462 magnetization       6.8787528
 augmentation part       77.5833963 magnetization       4.4692050

 Broyden mixing:
  rms(total) = 0.38370E+00    rms(broyden)= 0.38359E+00
  rms(prec ) = 0.40419E+00
  weight for this iteration     100.00

 eigenvalues of (default mixing * dielectric matrix)
  average eigenvalue GAMMA=   0.8217
  1.2065  0.6292  0.6292

 Free energy of the ion-electron system (eV)
  ---------------------------------------------------
  alpha Z        PSCENC =        10.06378135
  Ewald energy   TEWEN  =     16257.01502702
  -Hartree energ DENC   =    -30208.25998533
  -exchange      EXHF   =         0.00000000
  -V(xc)+E(xc)   XCENC  =       503.72225373
  PAW double counting   =     14036.57984201   -15214.48714525
  entropy T*S    EENTRO =         0.00000000
  eigenvalues    EBANDS =      -690.17876316
  atomic energy  EATOM  =     15300.29143124
  ---------------------------------------------------
  free energy    TOTEN  =        -5.25355839 eV

  energy without entropy =       -5.25355839  energy(sigma->0) =       -5.25355839


--------------------------------------------------------------------------------------------------------




----------------------------------------- Iteration    1(   9)  ---------------------------------------


    POTLOK:  cpu time    0.36: real time    0.36
    SETDIJ:  cpu time    0.01: real time    0.01
     EDDAV:  cpu time    1.41: real time    1.41
       DOS:  cpu time    0.00: real time    0.00
    CHARGE:  cpu time    0.22: real time    0.22
    MIXING:  cpu time    0.01: real time    0.01
    --------------------------------------------
      LOOP:  cpu time    2.02: real time    2.02

 eigenvalue-minimisations  :   424
 total energy-change (2. order) :-0.2181020E+01  (-0.1115141E+00)
 number of electron     121.0002465 magnetization       5.3549600
 augmentation part       77.6303745 magnetization       3.0693928

 Broyden mixing:
  rms(total) = 0.25328E+00    rms(broyden)= 0.25323E+00
  rms(prec ) = 0.26196E+00
  weight for this iteration     100.00

 eigenvalues of (default mixing * dielectric matrix)
  average eigenvalue GAMMA=   1.0205
  1.4633  1.4633  0.6809  0.4745

 Free energy of the ion-electron system (eV)
  ---------------------------------------------------
  alpha Z        PSCENC =        10.06378135
  Ewald energy   TEWEN  =     16257.01502702
  -Hartree energ DENC   =    -30211.90656131
  -exchange      EXHF   =         0.00000000
  -V(xc)+E(xc)   XCENC  =       501.71219488
  PAW double counting   =     14080.10508105   -15257.79738987
  entropy T*S    EENTRO =         0.00000000
  eigenvalues    EBANDS =      -686.91814324
  atomic energy  EATOM  =     15300.29143124
  ---------------------------------------------------
  free energy    TOTEN  =        -7.43457888 eV

  energy without entropy =       -7.43457888  energy(sigma->0) =       -7.43457888


--------------------------------------------------------------------------------------------------------




----------------------------------------- Iteration    1(  10)  ---------------------------------------


    POTLOK:  cpu time    0.36: real time    0.36
    SETDIJ:  cpu time    0.01: real time    0.01
     EDDAV:  cpu time    1.34: real time    1.35
       DOS:  cpu time    0.00: real time    0.00
    CHARGE:  cpu time    0.22: real time    0.22
    MIXING:  cpu time    0.01: real time    0.01
    --------------------------------------------
      LOOP:  cpu time    1.95: real time    1.96

 eigenvalue-minimisations  :   400
 total energy-change (2. order) :-0.7135060E+01  (-0.4858296E+00)
 number of electron     121.0002473 magnetization       4.6478727
 augmentation part       77.9514576 magnetization       2.8997187

 Broyden mixing:
  rms(total) = 0.19580E+00    rms(broyden)= 0.19574E+00
  rms(prec ) = 0.20350E+00
  weight for this iteration     100.00

 eigenvalues of (default mixing * dielectric matrix)
  average eigenvalue GAMMA=   1.0611
  1.7869  1.7869  0.5747  0.5747  0.5824

 Free energy of the ion-electron system (eV)
  ---------------------------------------------------
  alpha Z        PSCENC =        10.06378135
  Ewald energy   TEWEN  =     16257.01502702
  -Hartree energ DENC   =    -30211.61455254
  -exchange      EXHF   =         0.00000000
  -V(xc)+E(xc)   XCENC  =       495.72064511
  PAW double counting   =     14113.84411295   -15288.04642040
  entropy T*S    EENTRO =         0.00000000
  eigenvalues    EBANDS =      -691.84366392
  atomic energy  EATOM  =     15300.29143124
  ---------------------------------------------------
  free energy    TOTEN  =       -14.56963921 eV

  energy without entropy =      -14.56963921  energy(sigma->0) =      -14.56963921


--------------------------------------------------------------------------------------------------------




----------------------------------------- Iteration    1(  11)  ---------------------------------------


    POTLOK:  cpu time    0.36: real time    0.36
    SETDIJ:  cpu time    0.01: real time    0.01
     EDDAV:  cpu time    1.41: real time    1.41
       DOS:  cpu time    0.00: real time    0.00
    CHARGE:  cpu time    0.22: real time    0.22
    MIXING:  cpu time    0.01: real time    0.01
    --------------------------------------------
      LOOP:  cpu time    2.02: real time    2.02

 eigenvalue-minimisations  :   424
 total energy-change (2. order) :-0.3070164E+01  (-0.1378881E+00)
 number of electron     121.0002473 magnetization       3.8971267
 augmentation part       77.9022170 magnetization       2.3643783

 Broyden mixing:
  rms(total) = 0.13223E+00    rms(broyden)= 0.13219E+00
  rms(prec ) = 0.13747E+00
  weight for this iteration     100.00

 eigenvalues of (default mixing * dielectric matrix)
  average eigenvalue GAMMA=   1.1143
  2.0043  2.0043  0.7736  0.7736  0.5650  0.5650

 Free energy of the ion-electron system (eV)
  ---------------------------------------------------
  alpha Z        PSCENC =        10.06378135
  Ewald energy   TEWEN  =     16257.01502702
  -Hartree energ DENC   =    -30215.54766769
  -exchange      EXHF   =         0.00000000
  -V(xc)+E(xc)   XCENC  =       493.48941773
  PAW double counting   =     14114.65872406   -15289.17339478
  entropy T*S    EENTRO =         0.00000000
  eigenvalues    EBANDS =      -688.43712257
  atomic energy  EATOM  =     15300.29143124
  ---------------------------------------------------
  free energy    TOTEN  =       -17.63980365 eV

  energy without entropy =      -17.63980365  energy(sigma->0) =      -17.63980365


--------------------------------------------------------------------------------------------------------




----------------------------------------- Iteration    1(  12)  ---------------------------------------


    POTLOK:  cpu time    0.36: real time    0.36
    SETDIJ:  cpu time    0.01: real time    0.01
     EDDAV:  cpu time    1.55: real time    1.55
       DOS:  cpu time    0.00: real time    0.00
    CHARGE:  cpu time    0.22: real time    0.22
    MIXING:  cpu time    0.01: real time    0.01
    --------------------------------------------
      LOOP:  cpu time    2.16: real time    2.16

 eigenvalue-minimisations  :   480
 total energy-change (2. order) :-0.2940198E+01  (-0.1239550E+00)
 number of electron     121.0002469 magnetization       3.0177611
 augmentation part       77.7863916 magnetization       1.6785393

 Broyden mixing:
  rms(total) = 0.95497E-01    rms(broyden)= 0.95463E-01
  rms(prec ) = 0.99685E-01
  weight for this iteration     100.00

 eigenvalues of (default mixing * dielectric matrix)
  average eigenvalue GAMMA=   1.2311
  2.5587  2.5587  1.1584  0.6491  0.5967  0.5967  0.4996

 Free energy of the ion-electron system (eV)
  ---------------------------------------------------
  alpha Z        PSCENC =        10.06378135
  Ewald energy   TEWEN  =     16257.01502702
  -Hartree energ DENC   =    -30215.74056110
  -exchange      EXHF   =         0.00000000
  -V(xc)+E(xc)   XCENC  =       491.38438486
  PAW double counting   =     14091.38622934   -15267.00282969
  entropy T*S    EENTRO =         0.00000000
  eigenvalues    EBANDS =      -687.97746490
  atomic energy  EATOM  =     15300.29143124
  ---------------------------------------------------
  free energy    TOTEN  =       -20.58000189 eV

  energy without entropy =      -20.58000189  energy(sigma->0) =      -20.58000189


--------------------------------------------------------------------------------------------------------




----------------------------------------- Iteration    1(  13)  ---------------------------------------


    POTLOK:  cpu time    0.36: real time    0.36
    SETDIJ:  cpu time    0.01: real time    0.01
     EDDAV:  cpu time    1.39: real time    1.39
       DOS:  cpu time    0.00: real time    0.00
    CHARGE:  cpu time    0.22: real time    0.22
    MIXING:  cpu time    0.01: real time    0.01
    --------------------------------------------
      LOOP:  cpu time    2.00: real time    2.00

 eigenvalue-minimisations  :   416
 total energy-change (2. order) :-0.2515196E+01  (-0.1011793E+00)
 number of electron     121.0002469 magnetization       2.4607192
 augmentation part       77.7602179 magnetization       1.3164587

 Broyden mixing:
  rms(total) = 0.69199E-01    rms(broyden)= 0.69171E-01
  rms(prec ) = 0.73505E-01
  weight for this iteration     100.00

 eigenvalues of (default mixing * dielectric matrix)
  average eigenvalue GAMMA=   1.2482
  2.6702  2.6702  1.1479  1.1479  0.6409  0.6409  0.5813  0.4861

 Free energy of the ion-electron system (eV)
  ---------------------------------------------------
  alpha Z        PSCENC =        10.06378135
  Ewald energy   TEWEN  =     16257.01502702
  -Hartree energ DENC   =    -30209.90975656
  -exchange      EXHF   =         0.00000000
  -V(xc)+E(xc)   XCENC  =       489.29853389
  PAW double counting   =     14057.36826971   -15233.07803740
  entropy T*S    EENTRO =         0.00000000
  eigenvalues    EBANDS =      -694.14444719
  atomic energy  EATOM  =     15300.29143124
  ---------------------------------------------------
  free energy    TOTEN  =       -23.09519796 eV

  energy without entropy =      -23.09519796  energy(sigma->0) =      -23.09519796


--------------------------------------------------------------------------------------------------------




----------------------------------------- Iteration    1(  14)  ---------------------------------------


    POTLOK:  cpu time    0.36: real time    0.37
    SETDIJ:  cpu time    0.01: real time    0.01
     EDDAV:  cpu time    1.58: real time    1.57
       DOS:  cpu time    0.00: real time    0.00
    CHARGE:  cpu time    0.22: real time    0.22
    MIXING:  cpu time    0.01: real time    0.01
    --------------------------------------------
      LOOP:  cpu time    2.19: real time    2.52

 eigenvalue-minimisations  :   488
 total energy-change (2. order) :-0.1163402E+01  (-0.2768716E-01)
 number of electron     121.0002471 magnetization       1.9226485
 augmentation part       77.8208281 magnetization       0.8571302

 Broyden mixing:
  rms(total) = 0.49635E-01    rms(broyden)= 0.49617E-01
  rms(prec ) = 0.52977E-01
  weight for this iteration     100.00

 eigenvalues of (default mixing * dielectric matrix)
  average eigenvalue GAMMA=   1.3477
  3.8735  2.4796  1.6011  1.2589  0.6358  0.6358  0.6412  0.5016  0.5016

 Free energy of the ion-electron system (eV)
  ---------------------------------------------------
  alpha Z        PSCENC =        10.06378135
  Ewald energy   TEWEN  =     16257.01502702
  -Hartree energ DENC   =    -30202.74887075
  -exchange      EXHF   =         0.00000000
  -V(xc)+E(xc)   XCENC  =       488.08763068
  PAW double counting   =     14044.44504387   -15219.70462765
  entropy T*S    EENTRO =         0.00000000
  eigenvalues    EBANDS =      -701.70801548
  atomic energy  EATOM  =     15300.29143124
  ---------------------------------------------------
  free energy    TOTEN  =       -24.25859973 eV

  energy without entropy =      -24.25859973  energy(sigma->0) =      -24.25859973


--------------------------------------------------------------------------------------------------------




----------------------------------------- Iteration    1(  15)  ---------------------------------------


    POTLOK:  cpu time    0.36: real time    0.36
    SETDIJ:  cpu time    0.01: real time    0.01
     EDDAV:  cpu time    1.36: real time    1.37
       DOS:  cpu time    0.00: real time    0.00
    CHARGE:  cpu time    0.22: real time    0.22
    MIXING:  cpu time    0.02: real time    0.01
    --------------------------------------------
      LOOP:  cpu time    1.98: real time    1.98

 eigenvalue-minimisations  :   408
 total energy-change (2. order) :-0.1073488E+01  (-0.1508880E-01)
 number of electron     121.0002472 magnetization       1.5065756
 augmentation part       77.8786156 magnetization       0.4926619

 Broyden mixing:
  rms(total) = 0.39670E-01    rms(broyden)= 0.39660E-01
  rms(prec ) = 0.42537E-01
  weight for this iteration     100.00

 eigenvalues of (default mixing * dielectric matrix)
  average eigenvalue GAMMA=   1.4294
  4.8524  2.2585  2.2585  0.9853  0.9853  0.7620  0.6048  0.6048  0.4914  0.4914

 Free energy of the ion-electron system (eV)
  ---------------------------------------------------
  alpha Z        PSCENC =        10.06378135
  Ewald energy   TEWEN  =     16257.01502702
  -Hartree energ DENC   =    -30194.59641512
  -exchange      EXHF   =         0.00000000
  -V(xc)+E(xc)   XCENC  =       486.93983000
  PAW double counting   =     14024.75911425   -15199.90966557
  entropy T*S    EENTRO =         0.00000000
  eigenvalues    EBANDS =      -709.89519103
  atomic energy  EATOM  =     15300.29143124
  ---------------------------------------------------
  free energy    TOTEN  =       -25.33208786 eV

  energy without entropy =      -25.33208786  energy(sigma->0) =      -25.33208786


--------------------------------------------------------------------------------------------------------




----------------------------------------- Iteration    1(  16)  ---------------------------------------


    POTLOK:  cpu time    0.36: real time    0.36
    SETDIJ:  cpu time    0.01: real time    0.01
     EDDAV:  cpu time    1.37: real time    1.37
       DOS:  cpu time    0.00: real time    0.00
    CHARGE:  cpu time    0.22: real time    0.22
    MIXING:  cpu time    0.02: real time    0.01
    --------------------------------------------
      LOOP:  cpu time    1.98: real time    1.98

 eigenvalue-minimisations  :   408
 total energy-change (2. order) :-0.9390397E+00  (-0.6564531E-02)
 number of electron     121.0002471 magnetization       1.2978608
 augmentation part       77.8338537 magnetization       0.3138784

 Broyden mixing:
  rms(total) = 0.20534E-01    rms(broyden)= 0.20522E-01
  rms(prec ) = 0.22544E-01
  weight for this iteration     100.00

 eigenvalues of (default mixing * dielectric matrix)
  average eigenvalue GAMMA=   1.4577
  5.4121  2.3072  2.3072  1.2001  1.2001  0.7304  0.6739  0.6739  0.5117  0.5117
  0.5058

 Free energy of the ion-electron system (eV)
  ---------------------------------------------------
  alpha Z        PSCENC =        10.06378135
  Ewald energy   TEWEN  =     16257.01502702
  -Hartree energ DENC   =    -30191.55989919
  -exchange      EXHF   =         0.00000000
  -V(xc)+E(xc)   XCENC  =       486.09554167
  PAW double counting   =     14018.47059857   -15194.67876723
  entropy T*S    EENTRO =         0.00000000
  eigenvalues    EBANDS =      -711.96884100
  atomic energy  EATOM  =     15300.29143124
  ---------------------------------------------------
  free energy    TOTEN  =       -26.27112758 eV

  energy without entropy =      -26.27112758  energy(sigma->0) =      -26.27112758


--------------------------------------------------------------------------------------------------------




----------------------------------------- Iteration    1(  17)  ---------------------------------------


    POTLOK:  cpu time    0.36: real time    0.36
    SETDIJ:  cpu time    0.01: real time    0.01
     EDDAV:  cpu time    1.47: real time    1.47
       DOS:  cpu time    0.00: real time    0.00
    CHARGE:  cpu time    0.22: real time    0.22
    MIXING:  cpu time    0.02: real time    0.01
    --------------------------------------------
      LOOP:  cpu time    2.08: real time    2.09

 eigenvalue-minimisations  :   448
 total energy-change (2. order) :-0.3649868E+00  (-0.1514158E-02)
 number of electron     121.0002470 magnetization       1.1518986
 augmentation part       77.8085602 magnetization       0.1880515

 Broyden mixing:
  rms(total) = 0.19192E-01    rms(broyden)= 0.19188E-01
  rms(prec ) = 0.21166E-01
  weight for this iteration     100.00

 eigenvalues of (default mixing * dielectric matrix)
  average eigenvalue GAMMA=   1.5046
  5.9645  2.4676  2.4676  1.7175  0.9145  0.8679  0.8679  0.6110  0.6110  0.5866
  0.4899  0.4899

 Free energy of the ion-electron system (eV)
  ---------------------------------------------------
  alpha Z        PSCENC =        10.06378135
  Ewald energy   TEWEN  =     16257.01502702
  -Hartree energ DENC   =    -30189.24725096
  -exchange      EXHF   =         0.00000000
  -V(xc)+E(xc)   XCENC  =       485.74485062
  PAW double counting   =     14021.47255586   -15197.90302348
  entropy T*S    EENTRO =         0.00000000
  eigenvalues    EBANDS =      -714.07348600
  atomic energy  EATOM  =     15300.29143124
  ---------------------------------------------------
  free energy    TOTEN  =       -26.63611435 eV

  energy without entropy =      -26.63611435  energy(sigma->0) =      -26.63611435


--------------------------------------------------------------------------------------------------------




----------------------------------------- Iteration    1(  18)  ---------------------------------------


    POTLOK:  cpu time    0.36: real time    0.37
    SETDIJ:  cpu time    0.01: real time    0.01
     EDDAV:  cpu time    1.41: real time    1.41
       DOS:  cpu time    0.00: real time    0.00
    CHARGE:  cpu time    0.22: real time    0.22
    MIXING:  cpu time    0.02: real time    0.01
    --------------------------------------------
      LOOP:  cpu time    2.02: real time    5.39

 eigenvalue-minimisations  :   424
 total energy-change (2. order) :-0.1642640E+00  (-0.6987688E-03)
 number of electron     121.0002471 magnetization       1.0972364
 augmentation part       77.8194288 magnetization       0.1375378

 Broyden mixing:
  rms(total) = 0.11191E-01    rms(broyden)= 0.11188E-01
  rms(prec ) = 0.12341E-01
  weight for this iteration     100.00

 eigenvalues of (default mixing * dielectric matrix)
  average eigenvalue GAMMA=   1.5024
  6.3471  2.5723  2.5723  1.8719  1.0629  0.8481  0.8481  0.6617  0.6617  0.5563
  0.5563  0.4861  0.4861

 Free energy of the ion-electron system (eV)
  ---------------------------------------------------
  alpha Z        PSCENC =        10.06378135
  Ewald energy   TEWEN  =     16257.01502702
  -Hartree energ DENC   =    -30186.33229515
  -exchange      EXHF   =         0.00000000
  -V(xc)+E(xc)   XCENC  =       485.52743369
  PAW double counting   =     14025.48169091   -15201.75124750
  entropy T*S    EENTRO =         0.00000000
  eigenvalues    EBANDS =      -717.09619994
  atomic energy  EATOM  =     15300.29143124
  ---------------------------------------------------
  free energy    TOTEN  =       -26.80037839 eV

  energy without entropy =      -26.80037839  energy(sigma->0) =      -26.80037839


--------------------------------------------------------------------------------------------------------




----------------------------------------- Iteration    1(  19)  ---------------------------------------


    POTLOK:  cpu time    0.36: real time    0.37
    SETDIJ:  cpu time    0.01: real time    0.01
     EDDAV:  cpu time    1.51: real time    1.51
       DOS:  cpu time    0.00: real time    0.00
    CHARGE:  cpu time    0.22: real time    0.22
    MIXING:  cpu time    0.02: real time    0.02
    --------------------------------------------
      LOOP:  cpu time    2.13: real time    2.60

 eigenvalue-minimisations  :   464
 total energy-change (2. order) :-0.4408319E-01  (-0.1869622E-03)
 number of electron     121.0002471 magnetization       1.0387857
 augmentation part       77.8279351 magnetization       0.0774526

 Broyden mixing:
  rms(total) = 0.59890E-02    rms(broyden)= 0.59872E-02
  rms(prec ) = 0.70752E-02
  weight for this iteration     100.00

 eigenvalues of (default mixing * dielectric matrix)
  average eigenvalue GAMMA=   1.5642
  6.7871  3.2403  2.2759  2.2759  1.1927  0.9180  0.9180  0.9242  0.6331  0.6331
  0.6175  0.4969  0.4969  0.4895

 Free energy of the ion-electron system (eV)
  ---------------------------------------------------
  alpha Z        PSCENC =        10.06378135
  Ewald energy   TEWEN  =     16257.01502702
  -Hartree energ DENC   =    -30184.93810929
  -exchange      EXHF   =         0.00000000
  -V(xc)+E(xc)   XCENC  =       485.46076520
  PAW double counting   =     14026.34016845   -15202.55451635
  entropy T*S    EENTRO =         0.00000000
  eigenvalues    EBANDS =      -718.52300919
  atomic energy  EATOM  =     15300.29143124
  ---------------------------------------------------
  free energy    TOTEN  =       -26.84446158 eV

  energy without entropy =      -26.84446158  energy(sigma->0) =      -26.84446158


--------------------------------------------------------------------------------------------------------




----------------------------------------- Iteration    1(  20)  ---------------------------------------


    POTLOK:  cpu time    0.36: real time    0.36
    SETDIJ:  cpu time    0.01: real time    0.01
     EDDAV:  cpu time    1.46: real time    1.46
       DOS:  cpu time    0.00: real time    0.00
    CHARGE:  cpu time    0.22: real time    0.22
    MIXING:  cpu time    0.02: real time    0.02
    --------------------------------------------
      LOOP:  cpu time    2.07: real time    2.10

 eigenvalue-minimisations  :   440
 total energy-change (2. order) :-0.3892939E-01  (-0.2268637E-03)
 number of electron     121.0002471 magnetization       1.0242453
 augmentation part       77.8365991 magnetization       0.0618055

 Broyden mixing:
  rms(total) = 0.34447E-02    rms(broyden)= 0.34428E-02
  rms(prec ) = 0.42192E-02
  weight for this iteration     100.00

 eigenvalues of (default mixing * dielectric matrix)
  average eigenvalue GAMMA=   1.5598
  6.9413  3.5987  2.2803  2.2803  1.5075  1.0056  0.8505  0.8505  0.7032  0.7032
  0.5992  0.5992  0.4971  0.4971  0.4836

 Free energy of the ion-electron system (eV)
  ---------------------------------------------------
  alpha Z        PSCENC =        10.06378135
  Ewald energy   TEWEN  =     16257.01502702
  -Hartree energ DENC   =    -30183.13658662
  -exchange      EXHF   =         0.00000000
  -V(xc)+E(xc)   XCENC  =       485.40150140
  PAW double counting   =     14027.17743071   -15203.28009213
  entropy T*S    EENTRO =         0.00000000
  eigenvalues    EBANDS =      -720.41588393
  atomic energy  EATOM  =     15300.29143124
  ---------------------------------------------------
  free energy    TOTEN  =       -26.88339098 eV

  energy without entropy =      -26.88339098  energy(sigma->0) =      -26.88339098


--------------------------------------------------------------------------------------------------------




----------------------------------------- Iteration    1(  21)  ---------------------------------------


    POTLOK:  cpu time    0.36: real time    0.36
    SETDIJ:  cpu time    0.01: real time    0.01
     EDDAV:  cpu time    1.05: real time    1.05
       DOS:  cpu time    0.00: real time    0.00
    CHARGE:  cpu time    0.22: real time    0.22
    MIXING:  cpu time    0.02: real time    0.02
    --------------------------------------------
      LOOP:  cpu time    1.66: real time    1.94

 eigenvalue-minimisations  :   280
 total energy-change (2. order) :-0.6407697E-02  (-0.3210660E-04)
 number of electron     121.0002471 magnetization       1.0101515
 augmentation part       77.8364874 magnetization       0.0473575

 Broyden mixing:
  rms(total) = 0.26841E-02    rms(broyden)= 0.26838E-02
  rms(prec ) = 0.32652E-02
  weight for this iteration     100.00

 eigenvalues of (default mixing * dielectric matrix)
  average eigenvalue GAMMA=   1.5657
  7.0705  3.5843  2.4400  2.4400  1.6194  1.0706  1.0706  0.8432  0.8432  0.7563
  0.6156  0.6156  0.5971  0.4978  0.4978  0.4886

 Free energy of the ion-electron system (eV)
  ---------------------------------------------------
  alpha Z        PSCENC =        10.06378135
  Ewald energy   TEWEN  =     16257.01502702
  -Hartree energ DENC   =    -30182.66346012
  -exchange      EXHF   =         0.00000000
  -V(xc)+E(xc)   XCENC  =       485.39432600
  PAW double counting   =     14028.18928738   -15204.29416927
  entropy T*S    EENTRO =         0.00000000
  eigenvalues    EBANDS =      -720.88602226
  atomic energy  EATOM  =     15300.29143124
  ---------------------------------------------------
  free energy    TOTEN  =       -26.88979867 eV

  energy without entropy =      -26.88979867  energy(sigma->0) =      -26.88979867


--------------------------------------------------------------------------------------------------------




----------------------------------------- Iteration    1(  22)  ---------------------------------------


    POTLOK:  cpu time    0.36: real time    0.36
    SETDIJ:  cpu time    0.01: real time    0.01
     EDDAV:  cpu time    1.13: real time    1.13
       DOS:  cpu time    0.00: real time    0.00
    CHARGE:  cpu time    0.22: real time    0.22
    MIXING:  cpu time    0.02: real time    0.02
    --------------------------------------------
      LOOP:  cpu time    1.75: real time    1.75

 eigenvalue-minimisations  :   312
 total energy-change (2. order) :-0.1766518E-02  (-0.5120518E-04)
 number of electron     121.0002471 magnetization       1.0057611
 augmentation part       77.8338556 magnetization       0.0446724

 Broyden mixing:
  rms(total) = 0.12589E-02    rms(broyden)= 0.12585E-02
  rms(prec ) = 0.18496E-02
  weight for this iteration     100.00

 eigenvalues of (default mixing * dielectric matrix)
  average eigenvalue GAMMA=   1.5678
  7.1181  3.7861  2.6926  2.1473  2.1473  1.1525  1.1525  0.8715  0.8715  0.7160
  0.7160  0.6324  0.5871  0.5871  0.4963  0.4963  0.4824

 Free energy of the ion-electron system (eV)
  ---------------------------------------------------
  alpha Z        PSCENC =        10.06378135
  Ewald energy   TEWEN  =     16257.01502702
  -Hartree energ DENC   =    -30182.08973726
  -exchange      EXHF   =         0.00000000
  -V(xc)+E(xc)   XCENC  =       485.39511538
  PAW double counting   =     14027.63195459   -15203.76332797
  entropy T*S    EENTRO =         0.00000000
  eigenvalues    EBANDS =      -721.43580953
  atomic energy  EATOM  =     15300.29143124
  ---------------------------------------------------
  free energy    TOTEN  =       -26.89156519 eV

  energy without entropy =      -26.89156519  energy(sigma->0) =      -26.89156519


--------------------------------------------------------------------------------------------------------




----------------------------------------- Iteration    1(  23)  ---------------------------------------


    POTLOK:  cpu time    0.36: real time    0.36
    SETDIJ:  cpu time    0.01: real time    0.01
     EDDAV:  cpu time    0.97: real time    0.97
       DOS:  cpu time    0.00: real time    0.00
    CHARGE:  cpu time    0.22: real time    0.22
    MIXING:  cpu time    0.02: real time    0.02
    --------------------------------------------
      LOOP:  cpu time    1.59: real time    1.59

 eigenvalue-minimisations  :   248
 total energy-change (2. order) :-0.6180091E-03  (-0.1084612E-04)
 number of electron     121.0002471 magnetization       1.0020381
 augmentation part       77.8321750 magnetization       0.0413089

 Broyden mixing:
  rms(total) = 0.10137E-02    rms(broyden)= 0.10134E-02
  rms(prec ) = 0.14306E-02
  weight for this iteration     100.00

 eigenvalues of (default mixing * dielectric matrix)
  average eigenvalue GAMMA=   1.5664
  7.1695  3.9524  2.9991  2.1610  2.1610  1.2392  1.0346  1.0346  0.8721  0.8721
  0.7106  0.7106  0.4833  0.4970  0.4970  0.5895  0.5895  0.6217

 Free energy of the ion-electron system (eV)
  ---------------------------------------------------
  alpha Z        PSCENC =        10.06378135
  Ewald energy   TEWEN  =     16257.01502702
  -Hartree energ DENC   =    -30181.66006758
  -exchange      EXHF   =         0.00000000
  -V(xc)+E(xc)   XCENC  =       485.39518528
  PAW double counting   =     14027.78468449   -15203.94488701
  entropy T*S    EENTRO =         0.00000000
  eigenvalues    EBANDS =      -721.83733799
  atomic energy  EATOM  =     15300.29143124
  ---------------------------------------------------
  free energy    TOTEN  =       -26.89218320 eV

  energy without entropy =      -26.89218320  energy(sigma->0) =      -26.89218320


--------------------------------------------------------------------------------------------------------




----------------------------------------- Iteration    1(  24)  ---------------------------------------


    POTLOK:  cpu time    0.36: real time    0.36
    SETDIJ:  cpu time    0.01: real time    0.01
     EDDAV:  cpu time    0.97: real time    0.97
       DOS:  cpu time    0.00: real time    0.00
    CHARGE:  cpu time    0.22: real time    0.22
    MIXING:  cpu time    0.02: real time    0.02
    --------------------------------------------
      LOOP:  cpu time    1.59: real time    1.59

 eigenvalue-minimisations  :   248
 total energy-change (2. order) :-0.7045281E-03  (-0.8457961E-05)
 number of electron     121.0002471 magnetization       1.0004769
 augmentation part       77.8337829 magnetization       0.0398776

 Broyden mixing:
  rms(total) = 0.68803E-03    rms(broyden)= 0.68774E-03
  rms(prec ) = 0.93418E-03
  weight for this iteration     100.00

 eigenvalues of (default mixing * dielectric matrix)
  average eigenvalue GAMMA=   1.5777
  7.2233  4.2937  3.0815  2.2633  2.2633  1.3313  1.3313  0.8707  0.8707  0.8937
  0.8937  0.7649  0.6460  0.6460  0.4835  0.4962  0.4962  0.5632  0.5632

 Free energy of the ion-electron system (eV)
  ---------------------------------------------------
  alpha Z        PSCENC =        10.06378135
  Ewald energy   TEWEN  =     16257.01502702
  -Hartree energ DENC   =    -30181.11795307
  -exchange      EXHF   =         0.00000000
  -V(xc)+E(xc)   XCENC  =       485.38952846
  PAW double counting   =     14027.65251036   -15203.80600593
  entropy T*S    EENTRO =         0.00000000
  eigenvalues    EBANDS =      -722.38120714
  atomic energy  EATOM  =     15300.29143124
  ---------------------------------------------------
  free energy    TOTEN  =       -26.89288773 eV

  energy without entropy =      -26.89288773  energy(sigma->0) =      -26.89288773


--------------------------------------------------------------------------------------------------------




----------------------------------------- Iteration    1(  25)  ---------------------------------------


    POTLOK:  cpu time    0.36: real time    0.36
    SETDIJ:  cpu time    0.00: real time    0.01
     EDDAV:  cpu time    0.90: real time    0.91
       DOS:  cpu time    0.00: real time    0.00
    CHARGE:  cpu time    0.22: real time    0.22
    MIXING:  cpu time    0.02: real time    0.02
    --------------------------------------------
      LOOP:  cpu time    1.52: real time    1.53

 eigenvalue-minimisations  :   224
 total energy-change (2. order) :-0.7872279E-03  (-0.7015462E-05)
 number of electron     121.0002471 magnetization       0.9999268
 augmentation part       77.8327601 magnetization       0.0394264

 Broyden mixing:
  rms(total) = 0.74076E-03    rms(broyden)= 0.74057E-03
  rms(prec ) = 0.85932E-03
  weight for this iteration     100.00

 eigenvalues of (default mixing * dielectric matrix)
  average eigenvalue GAMMA=   1.5909
  7.2673  4.6492  3.2770  2.3207  2.3207  1.6977  1.1069  1.1069  1.0873  0.8435
  0.8435  0.7133  0.7133  0.6377  0.6377  0.5607  0.5607  0.4959  0.4959  0.4829

 Free energy of the ion-electron system (eV)
  ---------------------------------------------------
  alpha Z        PSCENC =        10.06378135
  Ewald energy   TEWEN  =     16257.01502702
  -Hartree energ DENC   =    -30180.77692513
  -exchange      EXHF   =         0.00000000
  -V(xc)+E(xc)   XCENC  =       485.38776901
  PAW double counting   =     14027.73890198   -15203.91518062
  entropy T*S    EENTRO =         0.00000000
  eigenvalues    EBANDS =      -722.69847980
  atomic energy  EATOM  =     15300.29143124
  ---------------------------------------------------
  free energy    TOTEN  =       -26.89367495 eV

  energy without entropy =      -26.89367495  energy(sigma->0) =      -26.89367495


--------------------------------------------------------------------------------------------------------




----------------------------------------- Iteration    1(  26)  ---------------------------------------


    POTLOK:  cpu time    0.36: real time    0.36
    SETDIJ:  cpu time    0.01: real time    0.01
     EDDAV:  cpu time    0.95: real time    0.95
       DOS:  cpu time    0.00: real time    0.00
    CHARGE:  cpu time    0.22: real time    0.22
    MIXING:  cpu time    0.02: real time    0.02
    --------------------------------------------
      LOOP:  cpu time    1.57: real time    1.57

 eigenvalue-minimisations  :   240
 total energy-change (2. order) :-0.3978278E-03  (-0.2913981E-05)
 number of electron     121.0002471 magnetization       1.0003818
 augmentation part       77.8336597 magnetization       0.0400921

 Broyden mixing:
  rms(total) = 0.32825E-03    rms(broyden)= 0.32803E-03
  rms(prec ) = 0.43694E-03
  weight for this iteration     100.00

 eigenvalues of (default mixing * dielectric matrix)
  average eigenvalue GAMMA=   1.6435
  7.2630  5.5324  3.3801  2.4682  2.4682  1.6431  1.6431  1.2804  1.0239  0.8724
  0.8724  0.8040  0.7396  0.7396  0.6132  0.6132  0.5778  0.4955  0.4955  0.4810
  0.5076

 Free energy of the ion-electron system (eV)
  ---------------------------------------------------
  alpha Z        PSCENC =        10.06378135
  Ewald energy   TEWEN  =     16257.01502702
  -Hartree energ DENC   =    -30180.58459111
  -exchange      EXHF   =         0.00000000
  -V(xc)+E(xc)   XCENC  =       485.38540737
  PAW double counting   =     14027.69275790   -15203.86415638
  entropy T*S    EENTRO =         0.00000000
  eigenvalues    EBANDS =      -722.89373017
  atomic energy  EATOM  =     15300.29143124
  ---------------------------------------------------
  free energy    TOTEN  =       -26.89407278 eV

  energy without entropy =      -26.89407278  energy(sigma->0) =      -26.89407278


--------------------------------------------------------------------------------------------------------




----------------------------------------- Iteration    1(  27)  ---------------------------------------


    POTLOK:  cpu time    0.36: real time    0.36
    SETDIJ:  cpu time    0.01: real time    0.01
     EDDAV:  cpu time    0.89: real time    0.89
       DOS:  cpu time    0.00: real time    0.00
    CHARGE:  cpu time    0.22: real time    0.22
    MIXING:  cpu time    0.02: real time    0.02
    --------------------------------------------
      LOOP:  cpu time    1.51: real time    1.51

 eigenvalue-minimisations  :   216
 total energy-change (2. order) :-0.2215500E-03  (-0.1733423E-05)
 number of electron     121.0002471 magnetization       1.0003261
 augmentation part       77.8336081 magnetization       0.0400180

 Broyden mixing:
  rms(total) = 0.28587E-03    rms(broyden)= 0.28571E-03
  rms(prec ) = 0.34367E-03
  weight for this iteration     100.00

 eigenvalues of (default mixing * dielectric matrix)
  average eigenvalue GAMMA=   1.6607
  7.1967  6.1871  3.5316  2.5645  2.5645  1.7918  1.7918  1.2160  0.9731  0.9731
  0.8824  0.8824  0.7564  0.7564  0.6871  0.6149  0.6149  0.5836  0.4962  0.4962
  0.4803  0.4951

 Free energy of the ion-electron system (eV)
  ---------------------------------------------------
  alpha Z        PSCENC =        10.06378135
  Ewald energy   TEWEN  =     16257.01502702
  -Hartree energ DENC   =    -30180.47536281
  -exchange      EXHF   =         0.00000000
  -V(xc)+E(xc)   XCENC  =       485.38432830
  PAW double counting   =     14027.85700564   -15204.03019449
  entropy T*S    EENTRO =        -0.00000000
  eigenvalues    EBANDS =      -723.00031058
  atomic energy  EATOM  =     15300.29143124
  ---------------------------------------------------
  free energy    TOTEN  =       -26.89429433 eV

  energy without entropy =      -26.89429433  energy(sigma->0) =      -26.89429433


--------------------------------------------------------------------------------------------------------




----------------------------------------- Iteration    1(  28)  ---------------------------------------


    POTLOK:  cpu time    0.36: real time    0.36
    SETDIJ:  cpu time    0.01: real time    0.01
     EDDAV:  cpu time    0.91: real time    0.91
       DOS:  cpu time    0.00: real time    0.00
    --------------------------------------------
      LOOP:  cpu time    1.28: real time    1.29

 eigenvalue-minimisations  :   224
 total energy-change (2. order) :-0.2570936E-04  (-0.7574885E-06)
 number of electron     121.0002471 magnetization       1.0003261
 augmentation part       77.8336081 magnetization       0.0400180

 Free energy of the ion-electron system (eV)
  ---------------------------------------------------
  alpha Z        PSCENC =        10.06378135
  Ewald energy   TEWEN  =     16257.01502702
  -Hartree energ DENC   =    -30180.42923583
  -exchange      EXHF   =         0.00000000
  -V(xc)+E(xc)   XCENC  =       485.38403264
  PAW double counting   =     14027.91298029   -15204.08523447
  entropy T*S    EENTRO =         0.00000000
  eigenvalues    EBANDS =      -723.04710227
  atomic energy  EATOM  =     15300.29143124
  ---------------------------------------------------
  free energy    TOTEN  =       -26.89432004 eV

  energy without entropy =      -26.89432004  energy(sigma->0) =      -26.89432004


--------------------------------------------------------------------------------------------------------




 average (electrostatic) potential at core
  the test charge radii are     0.9430
  (the norm of the test charge is              1.0000)
       1 -74.3443       2 -74.5019       3 -74.1823       4 -74.5019       5 -74.5019
       6 -74.3758       7 -74.3893       8 -74.3758       9 -74.5019      10 -74.3893
      11 -74.1823
 
 
 
 E-fermi :  -3.8763     XC(G=0):  -0.4846     alpha+bet : -0.1983


 spin component 1

 k-point     1 :       0.0000    0.0000    0.0000
  band No.  band energies     occupation 
      1      -9.7983      1.00000
      2      -8.3552      1.00000
      3      -7.7816      1.00000
      4      -7.5371      1.00000
      5      -7.4546      1.00000
      6      -7.0568      1.00000
      7      -6.9923      1.00000
      8      -6.9614      1.00000
      9      -6.8892      1.00000
     10      -6.8838      1.00000
     11      -6.8328      1.00000
     12      -6.8186      1.00000
     13      -6.7911      1.00000
     14      -6.6943      1.00000
     15      -6.6419      1.00000
     16      -6.4610      1.00000
     17      -6.4131      1.00000
     18      -6.3477      1.00000
     19      -6.3177      1.00000
     20      -6.3167      1.00000
     21      -6.1593      1.00000
     22      -6.1338      1.00000
     23      -6.0958      1.00000
     24      -6.0769      1.00000
     25      -6.0229      1.00000
     26      -6.0106      1.00000
     27      -5.9362      1.00000
     28      -5.9333      1.00000
     29      -5.8157      1.00000
     30      -5.7638      1.00000
     31      -5.6972      1.00000
     32      -5.6443      1.00000
     33      -5.6415      1.00000
     34      -5.5785      1.00000
     35      -5.5744      1.00000
     36      -5.5608      1.00000
     37      -5.5379      1.00000
     38      -5.4760      1.00000
     39      -5.4616      1.00000
     40      -5.4408      1.00000
     41      -5.4204      1.00000
     42      -5.4024      1.00000
     43      -5.3803      1.00000
     44      -5.3561      1.00000
     45      -5.3482      1.00000
     46      -5.3345      1.00000
     47      -5.2883      1.00000
     48      -5.2777      1.00000
     49      -5.2326      1.00000
     50      -5.2115      1.00000
     51      -5.2079      1.00000
     52      -5.1541      1.00000
     53      -5.1504      1.00000
     54      -5.1396      1.00000
     55      -5.1125      1.00000
     56      -5.0859      1.00000
     57      -5.0617      1.00000
     58      -5.0038      1.00000
     59      -4.7746      1.00000
     60      -4.6745      1.00000
     61      -3.9027      1.00000
     62      -3.1578      0.00000
     63      -3.1481      0.00000
     64      -2.8689      0.00000
     65      -2.5172      0.00000
     66      -2.2533      0.00000
     67      -1.9356      0.00000
     68      -1.2857      0.00000
     69      -1.0053      0.00000
     70      -0.8288      0.00000
     71      -0.7978      0.00000
     72      -0.5010      0.00000
     73      -0.4259      0.00000
     74      -0.2485      0.00000
     75      -0.0374      0.00000
     76       0.0095      0.00000
     77       0.1009      0.00000
     78       0.3577      0.00000
     79       0.3603      0.00000
     80       0.4488      0.00000

 spin component 2

 k-point     1 :       0.0000    0.0000    0.0000
  band No.  band energies     occupation 
      1      -9.7544      1.00000
      2      -8.3055      1.00000
      3      -7.7192      1.00000
      4      -7.5123      1.00000
      5      -7.4358      1.00000
      6      -7.0079      1.00000
      7      -6.9547      1.00000
      8      -6.9244      1.00000
      9      -6.8538      1.00000
     10      -6.8532      1.00000
     11      -6.8123      1.00000
     12      -6.7798      1.00000
     13      -6.7577      1.00000
     14      -6.6642      1.00000
     15      -6.5952      1.00000
     16      -6.4279      1.00000
     17      -6.3919      1.00000
     18      -6.3313      1.00000
     19      -6.2872      1.00000
     20      -6.2741      1.00000
     21      -6.1393      1.00000
     22      -6.0935      1.00000
     23      -6.0636      1.00000
     24      -6.0395      1.00000
     25      -5.9952      1.00000
     26      -5.9923      1.00000
     27      -5.9024      1.00000
     28      -5.8999      1.00000
     29      -5.7888      1.00000
     30      -5.7464      1.00000
     31      -5.6591      1.00000
     32      -5.6225      1.00000
     33      -5.6198      1.00000
     34      -5.5572      1.00000
     35      -5.5497      1.00000
     36      -5.5153      1.00000
     37      -5.5074      1.00000
     38      -5.4476      1.00000
     39      -5.4367      1.00000
     40      -5.4086      1.00000
     41      -5.3870      1.00000
     42      -5.3818      1.00000
     43      -5.3579      1.00000
     44      -5.3356      1.00000
     45      -5.3143      1.00000
     46      -5.2919      1.00000
     47      -5.2678      1.00000
     48      -5.2599      1.00000
     49      -5.1887      1.00000
     50      -5.1880      1.00000
     51      -5.1798      1.00000
     52      -5.1418      1.00000
     53      -5.1183      1.00000
     54      -5.1150      1.00000
     55      -5.0948      1.00000
     56      -5.0338      1.00000
     57      -4.9841      1.00000
     58      -4.9802      1.00000
     59      -4.7437      1.00000
     60      -4.6286      1.00000
     61      -3.6611      0.00000
     62      -3.0757      0.00000
     63      -3.0580      0.00000
     64      -2.7961      0.00000
     65      -2.4322      0.00000
     66      -2.2057      0.00000
     67      -1.7636      0.00000
     68      -1.2273      0.00000
     69      -0.7884      0.00000
     70      -0.7554      0.00000
     71      -0.7248      0.00000
     72      -0.3421      0.00000
     73      -0.2577      0.00000
     74      -0.2021      0.00000
     75       0.0395      0.00000
     76       0.0652      0.00000
     77       0.1028      0.00000
     78       0.3796      0.00000
     79       0.3936      0.00000
     80       0.4411      0.00000


--------------------------------------------------------------------------------------------------------


 soft charge-density along one line, spin component           1
         0         1         2         3         4         5         6         7         8         9
 total charge-density along one line
 
 soft charge-density along one line, spin component           2
         0         1         2         3         4         5         6         7         8         9
 total charge-density along one line
 
 pseudopotential strength for first ion, spin component:           1
-10.583   0.000  -0.000  -0.000   0.000   1.056  -0.000   0.000
  0.000 -10.601  -0.000   0.000   0.000  -0.000   1.069   0.000
 -0.000  -0.000 -10.595  -0.000   0.009   0.000   0.000   1.064
 -0.000   0.000  -0.000 -10.608  -0.000   0.000  -0.000   0.000
  0.000   0.000   0.009  -0.000 -10.571  -0.000  -0.000  -0.006
  1.056  -0.000   0.000   0.000  -0.000   6.276   0.000  -0.000
 -0.000   1.069   0.000  -0.000  -0.000   0.000   6.270  -0.000
  0.000   0.000   1.064   0.000  -0.006  -0.000  -0.000   6.274
  0.000  -0.000   0.000   1.073   0.000  -0.000   0.000  -0.000
 -0.000  -0.000  -0.006   0.000   1.047   0.000   0.000   0.004
 -0.000   0.000   0.002   0.000   0.001  -0.000   0.000   0.002
 -0.000   0.000   0.003   0.000   0.002  -0.000   0.000   0.005
  0.000   0.026   0.000  -0.000   0.000  -0.000  -0.014  -0.000
 -0.000  -0.000   0.033   0.000   0.000  -0.000  -0.000  -0.019
 -0.000  -0.000  -0.000   0.027   0.000   0.000  -0.000   0.000
  0.000   0.028   0.000   0.000   0.000   0.000  -0.012  -0.000
  0.000  -0.000   0.036   0.000   0.000  -0.000  -0.000  -0.017
 -0.000   0.000  -0.000   0.029   0.000  -0.000  -0.000  -0.000
 pseudopotential strength for first ion, spin component:           2
-10.584   0.000  -0.000  -0.000   0.000   1.056  -0.000   0.000
  0.000 -10.587  -0.000   0.000   0.000  -0.000   1.058   0.000
 -0.000  -0.000 -10.595  -0.000   0.008   0.000   0.000   1.063
 -0.000   0.000  -0.000 -10.608  -0.000   0.000  -0.000   0.000
  0.000   0.000   0.008  -0.000 -10.570  -0.000  -0.000  -0.006
  1.056  -0.000   0.000   0.000  -0.000   6.275   0.000  -0.000
 -0.000   1.058   0.000  -0.000  -0.000   0.000   6.276  -0.000
  0.000   0.000   1.063   0.000  -0.006  -0.000  -0.000   6.274
  0.000  -0.000   0.000   1.073   0.000  -0.000   0.000  -0.000
 -0.000  -0.000  -0.006   0.000   1.046   0.000   0.000   0.004
 -0.000   0.000   0.001   0.000   0.002  -0.000   0.000   0.003
 -0.000   0.000   0.001   0.000   0.004  -0.000   0.000   0.006
  0.000   0.029   0.000  -0.000   0.000  -0.000  -0.017  -0.000
 -0.000  -0.000   0.034   0.000  -0.001  -0.000  -0.000  -0.019
 -0.000  -0.000  -0.000   0.028   0.000   0.000  -0.000   0.000
  0.000   0.032   0.000   0.000   0.000   0.000  -0.016  -0.000
  0.000  -0.000   0.037   0.000  -0.001  -0.000  -0.000  -0.017
 -0.000   0.000  -0.000   0.030   0.000  -0.000  -0.000  -0.000
 total augmentation occupancy for first ion, spin component:           1
  1.949   0.000   0.000   0.000   0.000  -0.009   0.000   0.000   0.000   0.000   0.000   0.000   0.000   0.000   0.000   0.000
  0.000   1.955   0.000   0.000   0.000   0.000  -0.007   0.000   0.000   0.000   0.000   0.000  -0.083   0.000   0.000   0.042
  0.000   0.000   1.966   0.000   0.002   0.000   0.000  -0.018   0.000  -0.002  -0.010   0.003   0.000  -0.060   0.000   0.000
  0.000   0.000   0.000   1.952   0.000   0.000   0.000   0.000  -0.004   0.000   0.000   0.000   0.000   0.000  -0.095   0.000
  0.000   0.000   0.002   0.000   1.963   0.000   0.000  -0.002   0.000  -0.025  -0.030   0.001   0.000  -0.002   0.000   0.000
 -0.009   0.000   0.000   0.000   0.000   0.004   0.000   0.000   0.000   0.000   0.000   0.000   0.000   0.000   0.000   0.000
  0.000  -0.007   0.000   0.000   0.000   0.000   0.010   0.000   0.000   0.000   0.000   0.000  -0.025   0.000   0.000   0.001
[...]
     26      -6.0907      1.00000
     27      -6.0413      1.00000
     28      -6.0175      1.00000
     29      -5.9348      1.00000
     30      -5.8721      1.00000
     31      -5.7957      1.00000
     32      -5.7354      1.00000
     33      -5.7270      1.00000
     34      -5.6589      1.00000
     35      -5.6512      1.00000
     36      -5.6420      1.00000
     37      -5.6112      1.00000
     38      -5.5400      1.00000
     39      -5.5262      1.00000
     40      -5.4885      1.00000
     41      -5.4883      1.00000
     42      -5.4618      1.00000
     43      -5.4351      1.00000
     44      -5.3939      1.00000
     45      -5.3760      1.00000
     46      -5.3730      1.00000
     47      -5.3471      1.00000
     48      -5.3044      1.00000
     49      -5.2570      1.00000
     50      -5.2489      1.00000
     51      -5.2136      1.00000
     52      -5.1881      1.00000
     53      -5.1694      1.00000
     54      -5.1589      1.00000
     55      -5.1215      1.00000
     56      -5.1004      1.00000
     57      -5.0971      1.00000
     58      -5.0180      1.00000
     59      -4.7680      1.00000
     60      -4.7111      1.00000
     61      -3.9120      1.00000
     62      -3.1439      0.00000
     63      -3.1200      0.00000
     64      -2.7982      0.00000
     65      -2.5137      0.00000
     66      -2.2244      0.00000
     67      -1.8920      0.00000
     68      -1.2477      0.00000
     69      -0.9791      0.00000
     70      -0.8296      0.00000
     71      -0.7567      0.00000
     72      -0.4236      0.00000
     73      -0.3965      0.00000
     74      -0.1579      0.00000
     75       0.0658      0.00000
     76       0.0884      0.00000
     77       0.0943      0.00000
     78       0.3618      0.00000
     79       0.4248      0.00000
     80       0.4449      0.00000

 spin component 2

 k-point     1 :       0.0000    0.0000    0.0000
  band No.  band energies     occupation 
      1     -10.0664      1.00000
      2      -8.5908      1.00000
      3      -7.9579      1.00000
      4      -7.7261      1.00000
      5      -7.6866      1.00000
      6      -7.2658      1.00000
      7      -7.1658      1.00000
      8      -7.1459      1.00000
      9      -7.0816      1.00000
     10      -7.0325      1.00000
     11      -7.0182      1.00000
     12      -6.9580      1.00000
     13      -6.9548      1.00000
     14      -6.8648      1.00000
     15      -6.7989      1.00000
     16      -6.6284      1.00000
     17      -6.5528      1.00000
     18      -6.4507      1.00000
     19      -6.4469      1.00000
     20      -6.4412      1.00000
     21      -6.2533      1.00000
     22      -6.2046      1.00000
     23      -6.1659      1.00000
     24      -6.1511      1.00000
     25      -6.1258      1.00000
     26      -6.0751      1.00000
     27      -6.0055      1.00000
     28      -5.9872      1.00000
     29      -5.9076      1.00000
     30      -5.8545      1.00000
     31      -5.7560      1.00000
     32      -5.7118      1.00000
     33      -5.7058      1.00000
     34      -5.6342      1.00000
     35      -5.6198      1.00000
     36      -5.6038      1.00000
     37      -5.5791      1.00000
     38      -5.5122      1.00000
     39      -5.5010      1.00000
     40      -5.4570      1.00000
     41      -5.4544      1.00000
     42      -5.4390      1.00000
     43      -5.4126      1.00000
     44      -5.3608      1.00000
     45      -5.3501      1.00000
     46      -5.3329      1.00000
     47      -5.3267      1.00000
     48      -5.2888      1.00000
     49      -5.2165      1.00000
     50      -5.2134      1.00000
     51      -5.1938      1.00000
     52      -5.1562      1.00000
     53      -5.1550      1.00000
     54      -5.1347      1.00000
     55      -5.1045      1.00000
     56      -5.0487      1.00000
     57      -5.0176      1.00000
     58      -4.9935      1.00000
     59      -4.7356      1.00000
     60      -4.6666      1.00000
     61      -3.6681      0.00000
     62      -3.0455      0.00000
     63      -3.0393      0.00000
     64      -2.7230      0.00000
     65      -2.4275      0.00000
     66      -2.1821      0.00000
     67      -1.7149      0.00000
     68      -1.1896      0.00000
     69      -0.7639      0.00000
     70      -0.7582      0.00000
     71      -0.6868      0.00000
     72      -0.2660      0.00000
     73      -0.2235      0.00000
     74      -0.1153      0.00000
     75       0.1124      0.00000
     76       0.1405      0.00000
     77       0.1683      0.00000
     78       0.4015      0.00000
     79       0.4472      0.00000
     80       0.4816      0.00000


--------------------------------------------------------------------------------------------------------


 soft charge-density along one line, spin component           1
         0         1         2         3         4         5         6         7         8         9
 total charge-density along one line
 
 soft charge-density along one line, spin component           2
         0         1         2         3         4         5         6         7         8         9
 total charge-density along one line
 
 pseudopotential strength for first ion, spin component:           1
-10.632   0.000  -0.000  -0.000   0.000   1.095  -0.000   0.000
  0.000 -10.656  -0.000   0.000   0.000  -0.000   1.112   0.000
 -0.000  -0.000 -10.649   0.000   0.009   0.000   0.000   1.106
 -0.000   0.000   0.000 -10.660   0.000   0.000  -0.000  -0.000
  0.000   0.000   0.009   0.000 -10.619  -0.000  -0.000  -0.006
  1.095  -0.000   0.000   0.000  -0.000   6.248   0.000  -0.000
 -0.000   1.112   0.000  -0.000  -0.000   0.000   6.239  -0.000
  0.000   0.000   1.106  -0.000  -0.006  -0.000  -0.000   6.244
  0.000  -0.000  -0.000   1.115  -0.000  -0.000   0.000   0.000
 -0.000  -0.000  -0.006  -0.000   1.086   0.000   0.000   0.004
 -0.000   0.000   0.002  -0.000   0.001  -0.000   0.000   0.003
 -0.000   0.000   0.003  -0.000   0.002  -0.000   0.000   0.006
  0.000   0.025   0.000  -0.000   0.000  -0.000  -0.015  -0.000
 -0.000  -0.000   0.031   0.000   0.000  -0.000   0.000  -0.019
 -0.000  -0.000  -0.000   0.025   0.000   0.000  -0.000  -0.000
  0.000   0.026   0.000   0.000   0.000   0.000  -0.013  -0.000
  0.000  -0.000   0.034   0.000   0.001  -0.000  -0.000  -0.018
 -0.000   0.000  -0.000   0.027   0.000  -0.000  -0.000  -0.000
 pseudopotential strength for first ion, spin component:           2
-10.632   0.000  -0.000  -0.000   0.000   1.095  -0.000   0.000
  0.000 -10.641  -0.000   0.000   0.000  -0.000   1.100   0.000
 -0.000  -0.000 -10.648   0.000   0.008   0.000   0.000   1.105
 -0.000   0.000   0.000 -10.660   0.000   0.000  -0.000  -0.000
  0.000   0.000   0.008   0.000 -10.619  -0.000  -0.000  -0.006
  1.095  -0.000   0.000   0.000  -0.000   6.247   0.000  -0.000
 -0.000   1.100   0.000  -0.000  -0.000   0.000   6.246  -0.000
  0.000   0.000   1.105  -0.000  -0.006  -0.000  -0.000   6.244
  0.000  -0.000  -0.000   1.114  -0.000  -0.000   0.000   0.000
 -0.000  -0.000  -0.006  -0.000   1.085   0.000   0.000   0.004
 -0.000   0.000   0.001  -0.000   0.002  -0.000   0.000   0.003
 -0.000   0.000   0.002  -0.000   0.003  -0.000   0.000   0.007
  0.000   0.027   0.000  -0.000   0.000  -0.000  -0.017  -0.000
 -0.000  -0.000   0.032   0.000  -0.001  -0.000   0.000  -0.019
 -0.000  -0.000  -0.000   0.026   0.000   0.000  -0.000  -0.000
  0.000   0.030   0.000   0.000   0.000   0.000  -0.017  -0.000
  0.000  -0.000   0.035   0.000  -0.001  -0.000  -0.000  -0.018
 -0.000   0.000  -0.000   0.028   0.000  -0.000  -0.000  -0.000
 total augmentation occupancy for first ion, spin component:           1
  1.951   0.000   0.000   0.000   0.000  -0.008   0.000   0.000   0.000   0.000   0.000   0.000   0.000   0.000   0.000   0.000
  0.000   1.955   0.000   0.000   0.000   0.000  -0.003   0.000   0.000   0.000   0.000   0.000  -0.088   0.000   0.000   0.041
  0.000   0.000   1.966   0.000   0.003   0.000   0.000  -0.017   0.000  -0.002  -0.010   0.004   0.000  -0.062   0.000   0.000
  0.000   0.000   0.000   1.954   0.000   0.000   0.000   0.000  -0.002   0.000   0.000   0.000   0.000   0.000  -0.098   0.000
  0.000   0.000   0.003   0.000   1.961   0.000   0.000  -0.002   0.000  -0.024  -0.028   0.001   0.000  -0.000   0.000   0.000
 -0.008   0.000   0.000   0.000   0.000   0.005   0.000   0.000   0.000   0.000   0.000   0.000   0.000   0.000   0.000   0.000
  0.000  -0.003   0.000   0.000   0.000   0.000   0.012   0.000   0.000   0.000   0.000   0.000  -0.029   0.000   0.000   0.001
  0.000   0.000  -0.017   0.000  -0.002   0.000   0.000   0.008   0.000   0.001   0.024  -0.004   0.000  -0.020   0.000   0.000
  0.000   0.000   0.000  -0.002   0.000   0.000   0.000   0.000   0.011   0.000   0.000   0.000   0.000   0.000  -0.028   0.000
  0.000   0.000  -0.002   0.000  -0.024   0.000   0.000   0.001   0.000   0.006   0.010   0.001   0.000  -0.001   0.000   0.000
  0.000   0.000  -0.010   0.000  -0.028   0.000   0.000   0.024   0.000   0.010   1.611  -0.104   0.000  -0.298   0.000   0.000
  0.000   0.000   0.004   0.000   0.001   0.000   0.000  -0.004   0.000   0.001  -0.104   0.011   0.000   0.029   0.000   0.000
  0.000  -0.088   0.000   0.000   0.000   0.000  -0.029   0.000   0.000   0.000   0.000   0.000   0.103   0.000   0.000  -0.007
  0.000   0.000  -0.062   0.000  -0.000   0.000   0.000  -0.020   0.000  -0.001  -0.298   0.029   0.000   0.102   0.000   0.000
  0.000   0.000   0.000  -0.098   0.000   0.000   0.000   0.000  -0.028   0.000   0.000   0.000   0.000   0.000   0.090   0.000
  0.000   0.041   0.000   0.000   0.000   0.000   0.001   0.000   0.000   0.000   0.000   0.000  -0.007   0.000   0.000   0.001
  0.000   0.000   0.044   0.000   0.000   0.000   0.000   0.001   0.000   0.000   0.036  -0.003   0.000  -0.011   0.000   0.000
  0.000   0.000   0.000   0.042   0.000   0.000   0.000   0.000   0.001   0.000   0.000   0.000   0.000   0.000  -0.006   0.000
 total augmentation occupancy for first ion, spin component:           2
 -0.001   0.000   0.000   0.000   0.000   0.001   0.000   0.000   0.000   0.000   0.000   0.000   0.000   0.000   0.000   0.000
  0.000   0.008   0.000   0.000   0.000   0.000  -0.001   0.000   0.000   0.000   0.000   0.000   0.014   0.000   0.000   0.001
  0.000   0.000  -0.001   0.000  -0.000   0.000   0.000   0.000   0.000   0.001  -0.003   0.000   0.000  -0.001   0.000   0.000
  0.000   0.000   0.000  -0.001   0.000   0.000   0.000   0.000   0.000   0.000   0.000   0.000   0.000   0.000  -0.001   0.000
  0.000   0.000  -0.000   0.000  -0.001   0.000   0.000   0.001   0.000   0.001  -0.002   0.000   0.000  -0.001   0.000   0.000
  0.001   0.000   0.000   0.000   0.000   0.000   0.000   0.000   0.000   0.000   0.000   0.000   0.000   0.000   0.000   0.000
  0.000  -0.001   0.000   0.000   0.000   0.000   0.000   0.000   0.000   0.000   0.000   0.000  -0.003   0.000   0.000   0.000
  0.000   0.000   0.000   0.000   0.001   0.000   0.000   0.000   0.000   0.000  -0.001   0.000   0.000   0.000   0.000   0.000
  0.000   0.000   0.000   0.000   0.000   0.000   0.000   0.000  -0.000   0.000   0.000   0.000   0.000   0.000   0.000   0.000
  0.000   0.000   0.001   0.000   0.001   0.000   0.000   0.000   0.000  -0.000  -0.001   0.000   0.000   0.000   0.000   0.000
  0.000   0.000  -0.003   0.000  -0.002   0.000   0.000  -0.001   0.000  -0.001  -0.004  -0.001   0.000  -0.000   0.000   0.000
  0.000   0.000   0.000   0.000   0.000   0.000   0.000   0.000   0.000   0.000  -0.001   0.000   0.000  -0.000   0.000   0.000
  0.000   0.014   0.000   0.000   0.000   0.000  -0.003   0.000   0.000   0.000   0.000   0.000   0.024   0.000   0.000  -0.000
  0.000   0.000  -0.001   0.000  -0.001   0.000   0.000   0.000   0.000   0.000  -0.000  -0.000   0.000  -0.000   0.000   0.000
  0.000   0.000   0.000  -0.001   0.000   0.000   0.000   0.000   0.000   0.000   0.000   0.000   0.000   0.000  -0.000   0.000
  0.000   0.001   0.000   0.000   0.000   0.000   0.000   0.000   0.000   0.000   0.000   0.000  -0.000   0.000   0.000   0.000
  0.000   0.000  -0.000   0.000  -0.000   0.000   0.000  -0.000   0.000  -0.000  -0.000  -0.000   0.000  -0.000   0.000   0.000
  0.000   0.000   0.000   0.000   0.000   0.000   0.000   0.000   0.000   0.000   0.000   0.000   0.000   0.000  -0.000   0.000


------------------------ aborting loop because EDIFF is reached ----------------------------------------


    CHARGE:  cpu time    0.22: real time    0.22
    FORLOC:  cpu time    0.01: real time    0.01
    FORNL :  cpu time    0.45: real time    0.45
    STRESS:  cpu time    0.61: real time    0.61
    FORCOR:  cpu time    0.36: real time    0.36
    FORHAR:  cpu time    0.05: real time    0.05
    MIXING:  cpu time    0.01: real time    0.01
    OFIELD:  cpu time    0.00: real time    0.00

  FORCE on cell =-STRESS in cart. coord.  units (eV):
  Direction    XX          YY          ZZ          XY          YZ          ZX
  --------------------------------------------------------------------------------------
  Alpha Z    10.06378    10.06378    10.06378
  Ewald    2139.45884  9866.06663  4918.30171    -0.00000     0.00000     0.00000
  Hartree  7188.39193 14067.80334  9575.83321    -0.00000    -0.00000    -0.00000
  E(xc)    -706.68470  -704.95007  -705.84107    -0.00000    -0.00000    -0.00000
  Local  -10398.29651-24995.00918-15555.30438    -0.00000    -0.00000    -0.00000
  n-local  -268.99400  -264.29742  -268.22618    -0.00000    -0.00000    -0.00000
  augment  1034.97352  1027.15265  1029.65408     0.00000     0.00000    -0.00000
  Kinetic   998.04289   989.60538   992.51714     0.00000     0.00000     0.00000
  Fock        0.00000     0.00000     0.00000     0.00000     0.00000     0.00000
  -------------------------------------------------------------------------------------
  Total      -3.04424    -3.56489    -3.00170     0.00000     0.00000     0.00000
  in kB      -0.55469    -0.64956    -0.54694     0.00000     0.00000     0.00000
  external pressure =       -0.58 kB  Pullay stress =        0.00 kB


 VOLUME and BASIS-vectors are now :
 -----------------------------------------------------------------------------
  energy-cutoff  :      295.45
  volume of cell :     8792.99
      direct lattice vectors                 reciprocal lattice vectors
    20.640116000  0.000000000  0.000000000     0.048449340  0.000000000  0.000000000
     0.000000000 20.640116000  0.000000000     0.000000000  0.048449340  0.000000000
     0.000000000  0.000000000 20.640116000     0.000000000  0.000000000  0.048449340

  length of vectors
    20.640116000 20.640116000 20.640116000     0.048449340  0.048449340  0.048449340


 FORCES acting on ions
    electron-ion (+dipol)            ewald-force                    non-local-force                 convergence-correction
 -----------------------------------------------------------------------------------------------
   0.248E-12 -.799E-11 -.131E+04   0.251E-16 -.568E-13 0.130E+04   -.569E-27 -.253E-26 0.113E+02   0.914E-11 -.732E-12 0.123E-01
   -.995E+03 -.529E+03 -.374E+03   0.991E+03 0.526E+03 0.373E+03   0.369E+01 0.309E+01 0.842E+00   -.373E-01 -.158E+00 0.578E-02
   0.315E-12 -.115E+04 -.404E+03   -.389E-13 0.114E+04 0.399E+03   -.766E-27 0.980E+01 0.531E+01   0.368E-12 0.241E-03 0.332E-01
   0.995E+03 -.529E+03 -.374E+03   -.991E+03 0.526E+03 0.373E+03   -.369E+01 0.309E+01 0.842E+00   0.373E-01 -.158E+00 0.578E-02
   0.995E+03 0.529E+03 -.374E+03   -.991E+03 -.526E+03 0.373E+03   -.369E+01 -.309E+01 0.842E+00   0.373E-01 0.158E+00 0.578E-02
   0.860E+03 0.123E-11 0.942E+03   -.855E+03 -.284E-13 -.936E+03   -.483E+01 0.778E-26 -.632E+01   0.122E+00 0.190E-12 0.854E-01
   0.468E-12 -.928E+03 0.864E+03   0.570E-13 0.923E+03 -.858E+03   -.214E-25 0.496E+01 -.561E+01   -.777E-11 -.678E-01 -.140E+00
   -.860E+03 -.434E-11 0.942E+03   0.855E+03 0.426E-13 -.936E+03   0.483E+01 0.142E-26 -.632E+01   -.122E+00 -.111E-11 0.854E-01
   -.995E+03 0.529E+03 -.374E+03   0.991E+03 -.526E+03 0.373E+03   0.369E+01 -.309E+01 0.842E+00   -.373E-01 0.158E+00 0.578E-02
   0.399E-12 0.928E+03 0.864E+03   -.219E-16 -.923E+03 -.858E+03   0.195E-25 -.496E+01 -.561E+01   -.679E-11 0.678E-01 -.140E+00
   0.331E-12 0.115E+04 -.404E+03   -.191E-16 -.114E+04 0.399E+03   0.331E-27 -.980E+01 0.531E+01   -.100E-11 -.241E-03 0.332E-01
 -----------------------------------------------------------------------------------------------
   0.282E-10 -.369E-10 -.146E+01   0.114E-12 0.455E-12 -.625E-12   0.133E-14 0.000E+00 0.142E+01   -.167E-10 -.825E-11 -.699E-02
 
 
 POSITION                                       TOTAL-FORCE (eV/Angst)
 -----------------------------------------------------------------------------------
     10.32006     10.32006     12.53066        -0.000000     -0.000000      0.045371
     11.55026     11.54854     10.85229         0.005764     -0.008462      0.006427
     10.32006     13.61331     11.08569        -0.000000     -0.023297     -0.002587
      9.08986     11.54854     10.85229        -0.005764     -0.008462      0.006427
      9.08986      9.09158     10.85229        -0.005764      0.008462      0.006427
      9.12534     10.32006      8.73966         0.002306     -0.000000     -0.005153
     10.32006     12.48135      8.96506         0.000000     -0.000870     -0.027800
     11.51478     10.32006      8.73966        -0.002306     -0.000000     -0.005153
     11.55026      9.09158     10.85229         0.005764      0.008462      0.006427
     10.32006      8.15877      8.96506         0.000000      0.000870     -0.027800
     10.32006      7.02681     11.08569        -0.000000      0.023297     -0.002587
 -----------------------------------------------------------------------------------
    total drift:                                0.000000     -0.000000     -0.039606


--------------------------------------------------------------------------------------------------------



  FREE ENERGIE OF THE ION-ELECTRON SYSTEM (eV)
  ---------------------------------------------------
  free  energy   TOTEN  =       -27.05109214 eV

  energy  without entropy=      -27.05109214  energy(sigma->0) =      -27.05109214
 
 d Force = 0.5847981E-03[ 0.221E-03, 0.948E-03]  d Energy = 0.8182457E-03-0.233E-03
 d Force =-0.9521228E+01[-0.954E+01,-0.950E+01]  d Ewald  =-0.9521227E+01-0.162E-05


--------------------------------------------------------------------------------------------------------


    POTLOK:  cpu time    0.38: real time    0.38


--------------------------------------------------------------------------------------------------------




--------------------------------------------------------------------------------------------------------


  
 reached required accuracy - stopping structural energy minimisation
     LOOP+:  cpu time    7.50: real time    9.13
    4ORBIT:  cpu time    0.00: real time    0.00

 total amount of memory used by VASP on root node    66631. kBytes
========================================================================

   base      :      30000. kBytes
   nonl-proj :       2027. kBytes
   fftplans  :       8579. kBytes
   grid      :      21928. kBytes
   one-center:         31. kBytes
   wavefun   :       4066. kBytes
 
  
  
 General timing and accounting informations for this job:
 ========================================================
  
                  Total CPU time used (sec):      105.963
                            User time (sec):      102.842
                          System time (sec):        3.120
                         Elapsed time (sec):      123.372
  
                   Maximum memory used (kb):       84476.
                   Average memory used (kb):           0.
  
                          Minor page faults:       644702
                          Major page faults:            0
                 Voluntary context switches:         3252
