 running on   32 total cores
 distrk:  each k-point on   32 cores,    1 groups
 distr:  one band on    8 cores,    4 groups
 using from now: INCAR     
 vasp.5.3.5 31Mar14 (build Feb 01 2018 12:10:03) gamma-only                     
  
 POSCAR found type information on POSCAR  Ag
 POSCAR found :  1 types and      17 ions
 scaLAPACK will be used

 ----------------------------------------------------------------------------- 
|                                                                             |
|  ADVICE TO THIS USER RUNNING 'VASP/VAMP'   (HEAR YOUR MASTER'S VOICE ...):  |
|                                                                             |
|      You have a (more or less) 'large supercell' and for larger cells       |
|      it might be more efficient to use real space projection opertators     |
|      So try LREAL= Auto  in the INCAR   file.                               |
|      Mind: At the moment your POTCAR file does not contain real space       |
|       projectors, and has to be modified,  BUT if you                       |
|      want to do an extremely  accurate calculation you might also keep the  |
|      reciprocal projection scheme          (i.e. LREAL=.FALSE.)             |
|                                                                             |
 ----------------------------------------------------------------------------- 

 LDA part: xc-table for Pade appr. of Perdew
 POSCAR, INCAR and KPOINTS ok, starting setup
 WARNING: small aliasing (wrap around) errors must be expected
 FFT: planning ...
 WAVECAR not read
 entering main loop
       N       E                     dE             d eps       ncg     rms          rms(c)
DAV:   1     0.166495195668E+04    0.16650E+04   -0.31267E+04   496   0.556E+02
DAV:   2     0.476067549574E+03   -0.11889E+04   -0.10431E+04   896   0.123E+02
DAV:   3     0.692126181215E+00   -0.47538E+03   -0.43784E+03   696   0.891E+01
DAV:   4    -0.315116792705E+02   -0.32204E+02   -0.31775E+02   552   0.264E+01
DAV:   5    -0.319690931944E+02   -0.45741E+00   -0.45664E+00   552   0.371E+00    0.237E+01
DAV:   6    -0.782414655664E+01    0.24145E+02   -0.70738E+01   496   0.158E+01    0.122E+01
DAV:   7    -0.285204196513E+01    0.49721E+01   -0.45507E+00   512   0.457E+00    0.719E+00
DAV:   8    -0.641738056463E+01   -0.35653E+01   -0.18989E+00   532   0.286E+00    0.362E+00
DAV:   9    -0.107577706900E+02   -0.43404E+01   -0.11388E+00   544   0.193E+00    0.208E+00
DAV:  10    -0.176733932768E+02   -0.69156E+01   -0.25423E+00   512   0.277E+00    0.142E+00
DAV:  11    -0.242633589504E+02   -0.65900E+01   -0.29324E+00   512   0.250E+00    0.207E+00
DAV:  12    -0.242476637561E+02    0.15695E-01   -0.50163E-02   568   0.368E-01    0.201E+00
DAV:  13    -0.244206495766E+02   -0.17299E+00   -0.62223E-03   552   0.166E-01    0.198E+00
DAV:  14    -0.270997765176E+02   -0.26791E+01   -0.91565E-01   528   0.191E+00    0.183E+00
DAV:  15    -0.294045995397E+02   -0.23048E+01   -0.10273E+00   512   0.201E+00    0.167E+00
DAV:  16    -0.298775132393E+02   -0.47291E+00   -0.75593E-02   536   0.553E-01    0.123E+00
DAV:  17    -0.303333295915E+02   -0.45582E+00   -0.28180E-02   516   0.254E-01    0.992E-01
DAV:  18    -0.311473865854E+02   -0.81406E+00   -0.12559E-01   520   0.637E-01    0.227E-01
DAV:  19    -0.312725552665E+02   -0.12517E+00   -0.43991E-03   552   0.129E-01    0.204E-01
DAV:  20    -0.313790129406E+02   -0.10646E+00   -0.29005E-03   528   0.117E-01    0.168E-01
DAV:  21    -0.314299306933E+02   -0.50918E-01   -0.30591E-03   524   0.130E-01    0.106E-01
DAV:  22    -0.314362755280E+02   -0.63448E-02   -0.29276E-04   368   0.396E-02    0.782E-02
DAV:  23    -0.314412721247E+02   -0.49966E-02   -0.60675E-04   392   0.366E-02    0.302E-02
DAV:  24    -0.314421056796E+02   -0.83355E-03   -0.31464E-04   384   0.262E-02    0.246E-02
DAV:  25    -0.314429749760E+02   -0.86930E-03   -0.52142E-05   376   0.147E-02    0.230E-02
DAV:  26    -0.314441619287E+02   -0.11870E-02   -0.10316E-04   348   0.218E-02    0.805E-03
DAV:  27    -0.314442761294E+02   -0.11420E-03   -0.12335E-05   376   0.704E-03    0.461E-03
DAV:  28    -0.314444136455E+02   -0.13752E-03   -0.67149E-06   352   0.376E-03    0.301E-03
DAV:  29    -0.314445140447E+02   -0.10040E-03   -0.69027E-06   356   0.402E-03    0.238E-03
DAV:  30    -0.314445264334E+02   -0.12389E-04   -0.12982E-06   336   0.192E-03
   1 F= -.31444526E+02 E0= -.31444526E+02  d E =-.314445E+02  mag=     0.9997
 curvature:   0.00 expect dE= 0.000E+00 dE for cont linesearch  0.000E+00
 trial: gam= 0.00000 g(F)=  0.508E-01 g(S)=  0.000E+00 ort = 0.000E+00 (trialstep = 0.100E+01)
 search vector abs. value=  0.508E-01
 bond charge predicted
       N       E                     dE             d eps       ncg     rms          rms(c)
DAV:   1    -0.314916971664E+02   -0.47183E-01   -0.34353E+00   520   0.446E+00    0.185E-01
DAV:   2    -0.314933403309E+02   -0.16432E-02   -0.16592E-02   544   0.431E-01    0.131E-01
DAV:   3    -0.314933018542E+02    0.38477E-04   -0.36516E-04   480   0.618E-02
   2 F= -.31493302E+02 E0= -.31493302E+02  d E =-.487754E-01  mag=     0.9999
 ZBRENT: can't locate minimum, use default step
 trial-energy change:   -0.048775  1 .order   -0.048501   -0.050766   -0.046237
 step:   4.0000(harm= 11.2084)  dis= 0.02491  next Energy=   -31.729030 (dE=-0.285E+00)
 bond charge predicted
       N       E                     dE             d eps       ncg     rms          rms(c)
DAV:   1    -0.316019218416E+02   -0.10858E+00   -0.30987E+01   504   0.134E+01    0.513E-01
DAV:   2    -0.316165226203E+02   -0.14601E-01   -0.14899E-01   540   0.129E+00    0.380E-01
DAV:   3    -0.316162535568E+02    0.26906E-03   -0.29960E-03   540   0.177E-01    0.215E-01
DAV:   4    -0.316161432146E+02    0.11034E-03   -0.10531E-03   544   0.966E-02    0.289E-02
DAV:   5    -0.316161272769E+02    0.15938E-04   -0.67371E-05   336   0.276E-02
   3 F= -.31616127E+02 E0= -.31616127E+02  d E =-.171601E+00  mag=     1.0000
 curvature:  -2.81 expect dE=-0.722E-01 dE for cont linesearch -0.699E-01
 ZBRENT: increasing intervall
 opt :  10.0000  next Energy=   -31.765174 (dE=-0.321E+00)
 bond charge predicted
       N       E                     dE             d eps       ncg     rms          rms(c)
DAV:   1    -0.317122840896E+02   -0.96141E-01   -0.12428E+02   496   0.270E+01    0.874E-01
DAV:   2    -0.317701308589E+02   -0.57847E-01   -0.58880E-01   512   0.260E+00    0.713E-01
DAV:   3    -0.317692819145E+02    0.84894E-03   -0.10234E-02   520   0.329E-01    0.466E-01
DAV:   4    -0.317684989470E+02    0.78297E-03   -0.57125E-03   544   0.203E-01    0.775E-02
DAV:   5    -0.317684671244E+02    0.31823E-04   -0.20261E-04   348   0.536E-02
   4 F= -.31768467E+02 E0= -.31768467E+02  d E =-.323941E+00  mag=     1.0000
 curvature:  -5.99 expect dE=-0.559E-01 dE for cont linesearch -0.319E-01
 ZBRENT: increasing intervall
 opt :  22.0000  next Energy=   -31.736703 (dE=-0.292E+00)
 bond charge predicted
       N       E                     dE             d eps       ncg     rms          rms(c)
DAV:   1    -0.315479889074E+02    0.22051E+00   -0.50463E+02   496   0.550E+01    0.133E+00
DAV:   2    -0.317848185287E+02   -0.23683E+00   -0.24056E+00   512   0.538E+00    0.131E+00
DAV:   3    -0.317845637811E+02    0.25475E-03   -0.37392E-02   544   0.632E-01    0.994E-01
DAV:   4    -0.317790884851E+02    0.54753E-02   -0.17967E-02   528   0.352E-01    0.422E-01
DAV:   5    -0.317794682963E+02   -0.37981E-03   -0.25064E-03   544   0.149E-01    0.127E-01
DAV:   6    -0.317793494886E+02    0.11881E-03   -0.47022E-04   524   0.517E-02    0.648E-02
DAV:   7    -0.317794173517E+02   -0.67863E-04   -0.99090E-05   340   0.291E-02
   5 F= -.31779417E+02 E0= -.31779417E+02  d E =-.334891E+00  mag=     1.0000
 curvature:   5.96 expect dE= 0.943E-01 dE for cont linesearch  0.184E-01
 ZBRENT: bracketing found
 ZBRENT: interpolating
 opt :  16.8100  next Energy=   -31.811942 (dE=-0.367E+00)
 bond charge predicted
       N       E                     dE             d eps       ncg     rms          rms(c)
DAV:   1    -0.317720989203E+02    0.72506E-02   -0.92858E+01   496   0.232E+01    0.710E-01
DAV:   2    -0.318170169010E+02   -0.44918E-01   -0.46415E-01   536   0.226E+00    0.400E-01
DAV:   3    -0.318163294853E+02    0.68742E-03   -0.85320E-03   528   0.286E-01    0.258E-01
DAV:   4    -0.318161984657E+02    0.13102E-03   -0.30129E-03   540   0.155E-01    0.499E-02
DAV:   5    -0.318161938052E+02    0.46605E-05   -0.15237E-04   376   0.416E-02
   6 F= -.31816194E+02 E0= -.31816194E+02  d E =-.371667E+00  mag=     1.0000
 curvature: -10.51 expect dE=-0.933E-01 dE for cont linesearch -0.552E-03
 trial: gam= 0.20695 g(F)=  0.887E-02 g(S)=  0.000E+00 ort =-0.163E-02 (trialstep = 0.416E+01)
 search vector abs. value=  0.104E-01
 bond charge predicted
       N       E                     dE             d eps       ncg     rms          rms(c)
DAV:   1    -0.318416103168E+02   -0.25412E-01   -0.12144E+01   496   0.836E+00    0.188E-01
DAV:   2    -0.318473237593E+02   -0.57134E-02   -0.57962E-02   536   0.803E-01    0.158E-01
DAV:   3    -0.318472724040E+02    0.51355E-04   -0.93347E-04   544   0.950E-02
   7 F= -.31847272E+02 E0= -.31847272E+02  d E =-.310786E-01  mag=     1.0000
 trial-energy change:   -0.031079  1 .order   -0.030888   -0.035523   -0.026253
 step:  15.9483(harm= 15.9483)  dis= 0.06736  next Energy=   -31.884254 (dE=-0.681E-01)
 bond charge predicted
       N       E                     dE             d eps       ncg     rms          rms(c)
DAV:   1    -0.318420979954E+02    0.52258E-02   -0.97837E+01   496   0.238E+01    0.517E-01
DAV:   2    -0.318878846085E+02   -0.45787E-01   -0.46704E-01   544   0.229E+00    0.447E-01
DAV:   3    -0.318874488463E+02    0.43576E-03   -0.72612E-03   544   0.266E-01    0.316E-01
DAV:   4    -0.318863291954E+02    0.11197E-02   -0.33018E-03   544   0.154E-01    0.113E-01
DAV:   5    -0.318863450449E+02   -0.15849E-04   -0.32853E-04   440   0.603E-02
   8 F= -.31886345E+02 E0= -.31886345E+02  d E =-.701512E-01  mag=     1.0000
 curvature:  -9.69 expect dE=-0.243E-01 dE for cont linesearch -0.416E-03
 trial: gam= 0.18016 g(F)=  0.251E-02 g(S)=  0.000E+00 ort = 0.668E-03 (trialstep = 0.652E+01)
 search vector abs. value=  0.309E-02
 bond charge predicted
       N       E                     dE             d eps       ncg     rms          rms(c)
DAV:   1    -0.318977560641E+02   -0.11427E-01   -0.88269E+00   496   0.713E+00    0.131E-01
DAV:   2    -0.319020848919E+02   -0.43288E-02   -0.43092E-02   536   0.695E-01    0.985E-02
DAV:   3    -0.319020815998E+02    0.32921E-05   -0.67231E-04   552   0.854E-02
   9 F= -.31902082E+02 E0= -.31902082E+02  d E =-.157366E-01  mag=     1.0000
 ZBRENT: can't locate minimum, use default step
 trial-energy change:   -0.015737  1 .order   -0.015551   -0.017163   -0.013940
 step:  26.0771(harm= 34.7178)  dis= 0.03744  next Energy=   -31.932044 (dE=-0.457E-01)
 bond charge predicted
       N       E                     dE             d eps       ncg     rms          rms(c)
DAV:   1    -0.318929259103E+02    0.91590E-02   -0.79795E+01   496   0.215E+01    0.451E-01
DAV:   2    -0.319317654738E+02   -0.38840E-01   -0.38952E-01   516   0.210E+00    0.309E-01
DAV:   3    -0.319312105782E+02    0.55490E-03   -0.62126E-03   540   0.259E-01    0.213E-01
DAV:   4    -0.319304536197E+02    0.75696E-03   -0.25408E-03   540   0.132E-01    0.682E-02
DAV:   5    -0.319305520871E+02   -0.98467E-04   -0.21416E-04   372   0.462E-02
  10 F= -.31930552E+02 E0= -.31930552E+02  d E =-.442070E-01  mag=     1.0000
 curvature: -18.46 expect dE=-0.241E-01 dE for cont linesearch -0.415E-02
 ZBRENT: increasing intervall
 opt :  65.1927  next Energy=   -31.912147 (dE=-0.258E-01)
 bond charge predicted
       N       E                     dE             d eps       ncg     rms          rms(c)
DAV:   1    -0.317418452501E+02    0.18861E+00   -0.32212E+02   496   0.435E+01    0.111E+00
DAV:   2    -0.319044594939E+02   -0.16261E+00   -0.16231E+00   524   0.430E+00    0.593E-01
DAV:   3    -0.319023735415E+02    0.20860E-02   -0.26504E-02   540   0.548E-01    0.397E-01
DAV:   4    -0.319000269308E+02    0.23466E-02   -0.85157E-03   540   0.245E-01    0.127E-01
DAV:   5    -0.319002872059E+02   -0.26028E-03   -0.67182E-04   524   0.777E-02    0.472E-02
DAV:   6    -0.319004832903E+02   -0.19608E-03   -0.16935E-04   364   0.330E-02    0.257E-02
DAV:   7    -0.319007574106E+02   -0.27412E-03   -0.65423E-05   364   0.208E-02    0.852E-03
DAV:   8    -0.319010404619E+02   -0.28305E-03   -0.11887E-05   368   0.712E-03    0.393E-03
DAV:   9    -0.319012378915E+02   -0.19743E-03   -0.50935E-06   368   0.375E-03    0.249E-03
DAV:  10    -0.319014896912E+02   -0.25180E-03   -0.74760E-06   368   0.298E-03    0.164E-03
DAV:  11    -0.319017554088E+02   -0.26572E-03   -0.13243E-05   368   0.334E-03    0.104E-03
DAV:  12    -0.319018353287E+02   -0.79920E-04   -0.25283E-06   376   0.175E-03
  11 F= -.31901835E+02 E0= -.31901835E+02  d E =-.154903E-01  mag=     1.0000
 curvature:  81.78 expect dE= 0.905E+00 dE for cont linesearch  0.141E+00
 ZBRENT: bracketing found
 ZBRENT: interpolating
 opt :  36.4535  next Energy=   -31.934878 (dE=-0.485E-01)
 bond charge predicted
       N       E                     dE             d eps       ncg     rms          rms(c)
DAV:   1    -0.318536333078E+02    0.48122E-01   -0.17285E+02   496   0.318E+01    0.552E-01
DAV:   2    -0.319373654644E+02   -0.83732E-01   -0.82787E-01   536   0.309E+00    0.554E-01
DAV:   3    -0.319371526253E+02    0.21284E-03   -0.12787E-02   552   0.373E-01    0.419E-01
DAV:   4    -0.319349989837E+02    0.21536E-02   -0.40642E-03   544   0.167E-01    0.234E-01
DAV:   5    -0.319348439452E+02    0.15504E-03   -0.25984E-03   544   0.132E-01    0.801E-02
DAV:   6    -0.319348369102E+02    0.70350E-05   -0.96286E-05   364   0.253E-02
  12 F= -.31934837E+02 E0= -.31934837E+02  d E =-.484919E-01  mag=     1.0000
 curvature:  -2.51 expect dE=-0.570E-02 dE for cont linesearch -0.428E-05
 trial: gam= 0.99868 g(F)=  0.228E-02 g(S)=  0.000E+00 ort =-0.726E-04 (trialstep = 0.741E+01)
 search vector abs. value=  0.521E-02
 bond charge predicted
       N       E                     dE             d eps       ncg     rms          rms(c)
DAV:   1    -0.319401086033E+02   -0.52647E-02   -0.19263E+01   496   0.105E+01    0.148E-01
DAV:   2    -0.319495124876E+02   -0.94039E-02   -0.92121E-02   540   0.102E+00    0.142E-01
DAV:   3    -0.319494954995E+02    0.16988E-04   -0.14041E-03   552   0.121E-01    0.110E-01
DAV:   4    -0.319493347976E+02    0.16070E-03   -0.35763E-04   464   0.500E-02    0.605E-02
DAV:   5    -0.319493876255E+02   -0.52828E-04   -0.42582E-04   540   0.526E-02
  13 F= -.31949388E+02 E0= -.31949388E+02  d E =-.145507E-01  mag=     1.0000
 ZBRENT: can't locate minimum, use default step
 trial-energy change:   -0.014551  1 .order   -0.014377   -0.016331   -0.012423
 step:  29.6558(harm= 30.9810)  dis= 0.06311  next Energy=   -31.968958 (dE=-0.341E-01)
 bond charge predicted
       N       E                     dE             d eps       ncg     rms          rms(c)
DAV:   1    -0.318806672113E+02    0.68668E-01   -0.17436E+02   496   0.319E+01    0.537E-01
DAV:   2    -0.319674229313E+02   -0.86756E-01   -0.85048E-01   544   0.311E+00    0.423E-01
DAV:   3    -0.319668525882E+02    0.57034E-03   -0.13029E-02   544   0.368E-01    0.304E-01
DAV:   4    -0.319649850821E+02    0.18675E-02   -0.35790E-03   544   0.156E-01    0.148E-01
DAV:   5    -0.319648770387E+02    0.10804E-03   -0.18080E-03   544   0.108E-01    0.485E-02
DAV:   6    -0.319649398497E+02   -0.62811E-04   -0.69316E-05   376   0.212E-02
  14 F= -.31964940E+02 E0= -.31964940E+02  d E =-.301029E-01  mag=     1.0000
 curvature: -36.53 expect dE=-0.978E-01 dE for cont linesearch -0.136E-03
 trial: gam= 1.20261 g(F)=  0.268E-02 g(S)=  0.000E+00 ort =-0.139E-03 (trialstep = 0.626E+01)
 search vector abs. value=  0.988E-02
 bond charge predicted
       N       E                     dE             d eps       ncg     rms          rms(c)
DAV:   1    -0.319665686908E+02   -0.16917E-02   -0.25963E+01   496   0.122E+01    0.172E-01
DAV:   2    -0.319790750185E+02   -0.12506E-01   -0.12239E-01   544   0.117E+00    0.167E-01
DAV:   3    -0.319790211984E+02    0.53820E-04   -0.18021E-03   544   0.135E-01    0.131E-01
DAV:   4    -0.319787034732E+02    0.31773E-03   -0.53909E-04   536   0.594E-02    0.704E-02
DAV:   5    -0.319787197767E+02   -0.16304E-04   -0.48590E-04   544   0.555E-02
  15 F= -.31978720E+02 E0= -.31978720E+02  d E =-.137799E-01  mag=     1.0000
 ZBRENT: can't locate minimum, use default step
 trial-energy change:   -0.013780  1 .order   -0.014064   -0.015701   -0.012426
 step:  25.0323(harm= 30.0078)  dis= 0.08022  next Energy=   -32.002583 (dE=-0.376E-01)
 bond charge predicted
       N       E                     dE             d eps       ncg     rms          rms(c)
DAV:   1    -0.318864215907E+02    0.92282E-01   -0.23676E+02   496   0.371E+01    0.556E-01
DAV:   2    -0.320013125082E+02   -0.11489E+00   -0.11270E+00   540   0.358E+00    0.533E-01
DAV:   3    -0.320006698549E+02    0.64265E-03   -0.16673E-02   540   0.412E-01    0.403E-01
DAV:   4    -0.319978015222E+02    0.28683E-02   -0.38530E-03   528   0.161E-01    0.243E-01
DAV:   5    -0.319972450918E+02    0.55643E-03   -0.40385E-03   540   0.158E-01    0.785E-02
DAV:   6    -0.319973510806E+02   -0.10599E-03   -0.64512E-05   364   0.236E-02    0.475E-02
DAV:   7    -0.319974539224E+02   -0.10284E-03   -0.51022E-05   364   0.177E-02    0.189E-02
DAV:   8    -0.319975370658E+02   -0.83143E-04   -0.21519E-05   360   0.125E-02
  16 F= -.31997537E+02 E0= -.31997537E+02  d E =-.325972E-01  mag=     1.0000
 curvature: -56.48 expect dE=-0.121E+00 dE for cont linesearch -0.356E-04
 trial: gam= 0.54839 g(F)=  0.214E-02 g(S)=  0.000E+00 ort = 0.789E-04 (trialstep = 0.100E+02)
 search vector abs. value=  0.520E-02
 bond charge predicted
       N       E                     dE             d eps       ncg     rms          rms(c)
DAV:   1    -0.320012978764E+02   -0.38440E-02   -0.35063E+01   496   0.142E+01    0.198E-01
DAV:   2    -0.320180573835E+02   -0.16760E-01   -0.16535E-01   532   0.137E+00    0.208E-01
DAV:   3    -0.320179853816E+02    0.72002E-04   -0.25034E-03   544   0.162E-01    0.163E-01
DAV:   4    -0.320175039890E+02    0.48139E-03   -0.66166E-04   544   0.654E-02    0.966E-02
DAV:   5    -0.320174315472E+02    0.72442E-04   -0.86749E-04   544   0.736E-02
  17 F= -.32017432E+02 E0= -.32017432E+02  d E =-.198945E-01  mag=     1.0000
 ZBRENT: can't locate minimum, use default step
 trial-energy change:   -0.019894  1 .order   -0.020306   -0.021906   -0.018706
 step:  40.0516(harm= 68.5550)  dis= 0.07297  next Energy=   -32.072528 (dE=-0.750E-01)
 bond charge predicted
       N       E                     dE             d eps       ncg     rms          rms(c)
DAV:   1    -0.319022523209E+02    0.11525E+00   -0.32145E+02   496   0.433E+01    0.703E-01
DAV:   2    -0.320602380928E+02   -0.15799E+00   -0.15475E+00   524   0.423E+00    0.663E-01
DAV:   3    -0.320595491306E+02    0.68896E-03   -0.23648E-02   544   0.499E-01    0.486E-01
DAV:   4    -0.320557278342E+02    0.38213E-02   -0.51388E-03   544   0.187E-01    0.301E-01
DAV:   5    -0.320548646541E+02    0.86318E-03   -0.53190E-03   544   0.182E-01    0.954E-02
DAV:   6    -0.320549653116E+02   -0.10066E-03   -0.87449E-05   368   0.282E-02    0.545E-02
DAV:   7    -0.320550787826E+02   -0.11347E-03   -0.54433E-05   368   0.187E-02    0.223E-02
DAV:   8    -0.320551822035E+02   -0.10342E-03   -0.22569E-05   368   0.129E-02    0.711E-03
DAV:   9    -0.320552995184E+02   -0.11731E-03   -0.70863E-06   368   0.662E-03    0.316E-03
DAV:  10    -0.320553657853E+02   -0.66267E-04   -0.23672E-06   360   0.287E-03
  18 F= -.32055366E+02 E0= -.32055366E+02  d E =-.578287E-01  mag=     1.0000
 curvature: -62.18 expect dE=-0.192E+00 dE for cont linesearch -0.636E-02
 ZBRENT: increasing intervall
 opt : 100.1290  next Energy=   -32.030782 (dE=-0.332E-01)
 bond charge predicted
       N       E                     dE             d eps       ncg     rms          rms(c)
DAV:   1    -0.313047529065E+02    0.75055E+00   -0.13649E+03   496   0.918E+01    0.239E+00
DAV:   2    -0.320264965229E+02   -0.72174E+00   -0.71629E+00   536   0.938E+00    0.165E+00
DAV:   3    -0.320227923922E+02    0.37041E-02   -0.11304E-01   540   0.112E+00    0.106E+00
DAV:   4    -0.320116608542E+02    0.11132E-01   -0.14965E-02   552   0.340E-01    0.726E-01
DAV:   5    -0.320080110496E+02    0.36498E-02   -0.16392E-02   524   0.322E-01    0.202E-01
DAV:   6    -0.320082930795E+02   -0.28203E-03   -0.26481E-04   400   0.548E-02    0.113E-01
DAV:   7    -0.320086003697E+02   -0.30729E-03   -0.86056E-05   368   0.265E-02    0.481E-02
DAV:   8    -0.320088525985E+02   -0.25223E-03   -0.37357E-05   368   0.178E-02    0.147E-02
DAV:   9    -0.320090863724E+02   -0.23377E-03   -0.15880E-05   368   0.957E-03    0.574E-03
DAV:  10    -0.320092439957E+02   -0.15762E-03   -0.70414E-06   376   0.449E-03    0.294E-03
DAV:  11    -0.320093667358E+02   -0.12274E-03   -0.56385E-06   368   0.356E-03    0.261E-03
DAV:  12    -0.320095128865E+02   -0.14615E-03   -0.97571E-06   364   0.351E-03    0.174E-03
DAV:  13    -0.320095714936E+02   -0.58607E-04   -0.39894E-06   376   0.206E-03
  19 F= -.32009571E+02 E0= -.32009571E+02  d E =-.120344E-01  mag=     1.0000
 curvature: 240.29 expect dE= 0.449E+01 dE for cont linesearch  0.243E+00
 ZBRENT: bracketing found
 ZBRENT: interpolating
 opt :  54.5541  next Energy=   -32.060656 (dE=-0.631E-01)
 bond charge predicted
       N       E                     dE             d eps       ncg     rms          rms(c)
DAV:   1    -0.316675542567E+02    0.34196E+00   -0.75997E+02   496   0.674E+01    0.162E+00
DAV:   2    -0.320715378702E+02   -0.40398E+00   -0.40085E+00   536   0.686E+00    0.982E-01
DAV:   3    -0.320686590167E+02    0.28789E-02   -0.65659E-02   540   0.862E-01    0.647E-01
DAV:   4    -0.320619969547E+02    0.66621E-02   -0.97031E-03   544   0.257E-01    0.393E-01
DAV:   5    -0.320603967507E+02    0.16002E-02   -0.80305E-03   544   0.225E-01    0.961E-02
DAV:   6    -0.320605547675E+02   -0.15802E-03   -0.15347E-04   368   0.407E-02    0.577E-02
DAV:   7    -0.320607305042E+02   -0.17574E-03   -0.48653E-05   364   0.181E-02    0.236E-02
DAV:   8    -0.320608934518E+02   -0.16295E-03   -0.16165E-05   348   0.110E-02    0.748E-03
DAV:   9    -0.320610434738E+02   -0.15002E-03   -0.69700E-06   360   0.575E-03    0.298E-03
DAV:  10    -0.320611348407E+02   -0.91367E-04   -0.31238E-06   352   0.292E-03
  20 F= -.32061135E+02 E0= -.32061135E+02  d E =-.635978E-01  mag=     1.0000
 curvature:  -5.24 expect dE=-0.283E-01 dE for cont linesearch -0.180E-05
 trial: gam= 2.67039 g(F)=  0.541E-02 g(S)=  0.000E+00 ort = 0.423E-04 (trialstep = 0.230E+01)
 search vector abs. value=  0.427E-01
 bond charge predicted
       N       E                     dE             d eps       ncg     rms          rms(c)
DAV:   1    -0.320666032288E+02   -0.55598E-02   -0.15207E+01   496   0.931E+00    0.116E-01
DAV:   2    -0.320738713236E+02   -0.72681E-02   -0.71508E-02   544   0.902E-01    0.127E-01
DAV:   3    -0.320738531397E+02    0.18184E-04   -0.10886E-03   552   0.108E-01    0.100E-01
DAV:   4    -0.320736851811E+02    0.16796E-03   -0.18080E-04   384   0.357E-02    0.677E-02
DAV:   5    -0.320736502654E+02    0.34916E-04   -0.58894E-04   540   0.619E-02
  21 F= -.32073650E+02 E0= -.32073650E+02  d E =-.125154E-01  mag=     1.0000
 ZBRENT: can't locate minimum, use default step
 trial-energy change:   -0.012515  1 .order   -0.012627   -0.012723   -0.012530
 step:   9.2135(harm=152.1939)  dis= 0.05795  next Energy=   -32.481465 (dE=-0.420E+00)
 bond charge predicted
       N       E                     dE             d eps       ncg     rms          rms(c)
DAV:   1    -0.320407785525E+02    0.32907E-01   -0.13792E+02   496   0.281E+01    0.399E-01
DAV:   2    -0.321074523664E+02   -0.66674E-01   -0.65439E-01   528   0.274E+00    0.390E-01
DAV:   3    -0.321070377864E+02    0.41458E-03   -0.99611E-03   544   0.328E-01    0.292E-01
DAV:   4    -0.321053054356E+02    0.17324E-02   -0.20056E-03   544   0.115E-01    0.184E-01
DAV:   5    -0.321047510646E+02    0.55437E-03   -0.30329E-03   544   0.136E-01    0.585E-02
DAV:   6    -0.321047945111E+02   -0.43446E-04   -0.40862E-05   352   0.190E-02
  22 F= -.32104795E+02 E0= -.32104795E+02  d E =-.436597E-01  mag=     1.0000
 curvature: -53.03 expect dE=-0.278E+00 dE for cont linesearch -0.220E-01
 ZBRENT: increasing intervall
 opt :  23.0337  next Energy=   -32.145963 (dE=-0.848E-01)
 bond charge predicted
       N       E                     dE             d eps       ncg     rms          rms(c)
DAV:   1    -0.318625195779E+02    0.24223E+00   -0.56650E+02   496   0.579E+01    0.111E+00
DAV:   2    -0.321448521187E+02   -0.28233E+00   -0.27716E+00   536   0.572E+00    0.861E-01
DAV:   3    -0.321425192391E+02    0.23329E-02   -0.42760E-02   544   0.683E-01    0.586E-01
DAV:   4    -0.321362176574E+02    0.63016E-02   -0.84071E-03   544   0.237E-01    0.361E-01
DAV:   5    -0.321346543200E+02    0.15633E-02   -0.72089E-03   536   0.213E-01    0.109E-01
DAV:   6    -0.321348614423E+02   -0.20712E-03   -0.11661E-04   376   0.348E-02    0.626E-02
DAV:   7    -0.321350841140E+02   -0.22267E-03   -0.43687E-05   368   0.175E-02    0.264E-02
DAV:   8    -0.321352775701E+02   -0.19346E-03   -0.18252E-05   368   0.111E-02    0.856E-03
DAV:   9    -0.321354871576E+02   -0.20959E-03   -0.11355E-05   376   0.690E-03    0.363E-03
DAV:  10    -0.321356005739E+02   -0.11342E-03   -0.41479E-06   376   0.327E-03    0.223E-03
DAV:  11    -0.321357035631E+02   -0.10299E-03   -0.41308E-06   368   0.289E-03    0.176E-03
DAV:  12    -0.321358301713E+02   -0.12661E-03   -0.90030E-06   368   0.323E-03    0.124E-03
DAV:  13    -0.321358580122E+02   -0.27841E-04   -0.13254E-06   360   0.147E-03
  23 F= -.32135858E+02 E0= -.32135858E+02  d E =-.747232E-01  mag=     1.0000
 curvature: -99.28 expect dE=-0.760E+00 dE for cont linesearch -0.515E-05
 trial: gam= 0.64614 g(F)=  0.765E-02 g(S)=  0.000E+00 ort =-0.471E-04 (trialstep = 0.645E+01)
 search vector abs. value=  0.254E-01
 bond charge predicted
       N       E                     dE             d eps       ncg     rms          rms(c)
DAV:   1    -0.321475496833E+02   -0.11720E-01   -0.71151E+01   496   0.203E+01    0.299E-01
DAV:   2    -0.321817001991E+02   -0.34151E-01   -0.33674E-01   544   0.197E+00    0.272E-01
DAV:   3    -0.321813463947E+02    0.35380E-03   -0.50893E-03   544   0.237E-01    0.204E-01
DAV:   4    -0.321803501343E+02    0.99626E-03   -0.13677E-03   540   0.928E-02    0.112E-01
DAV:   5    -0.321801364352E+02    0.21370E-03   -0.13029E-03   544   0.917E-02    0.363E-02
DAV:   6    -0.321801607420E+02   -0.24307E-04   -0.26669E-05   352   0.149E-02
  24 F= -.32180161E+02 E0= -.32180161E+02  d E =-.443027E-01  mag=     1.0000
 ZBRENT: can't locate minimum, use default step
 trial-energy change:   -0.044303  1 .order   -0.044799   -0.049160   -0.040439
 step:  25.7977(harm= 36.3535)  dis= 0.11293  next Energy=   -32.274409 (dE=-0.139E+00)
 bond charge predicted
       N       E                     dE             d eps       ncg     rms          rms(c)
DAV:   1    -0.319384895307E+02    0.24165E+00   -0.65857E+02   496   0.630E+01    0.137E+00
DAV:   2    -0.322659834239E+02   -0.32749E+00   -0.32368E+00   560   0.618E+00    0.878E-01
DAV:   3    -0.322618195132E+02    0.41639E-02   -0.50483E-02   544   0.758E-01    0.580E-01
DAV:   4    -0.322546252446E+02    0.71943E-02   -0.11335E-02   536   0.272E-01    0.315E-01
DAV:   5    -0.322535209861E+02    0.11043E-02   -0.60523E-03   544   0.199E-01    0.867E-02
DAV:   6    -0.322537919439E+02   -0.27096E-03   -0.14134E-04   364   0.378E-02    0.530E-02
DAV:   7    -0.322540858523E+02   -0.29391E-03   -0.50798E-05   368   0.177E-02    0.203E-02
DAV:   8    -0.322543552852E+02   -0.26943E-03   -0.18417E-05   372   0.108E-02    0.653E-03
DAV:   9    -0.322545882818E+02   -0.23300E-03   -0.10383E-05   368   0.581E-03    0.291E-03
DAV:  10    -0.322547435855E+02   -0.15530E-03   -0.54520E-06   376   0.339E-03    0.217E-03
DAV:  11    -0.322549016138E+02   -0.15803E-03   -0.67920E-06   368   0.294E-03    0.160E-03
DAV:  12    -0.322550444476E+02   -0.14283E-03   -0.89303E-06   368   0.327E-03    0.940E-04
DAV:  13    -0.322550774708E+02   -0.33023E-04   -0.13429E-06   360   0.155E-03
  25 F= -.32255077E+02 E0= -.32255077E+02  d E =-.119219E+00  mag=     1.0000
 curvature: -53.09 expect dE=-0.424E+00 dE for cont linesearch -0.450E-02
 trial: gam= 0.59953 g(F)=  0.798E-02 g(S)=  0.000E+00 ort = 0.147E-02 (trialstep = 0.103E+02)
 search vector abs. value=  0.189E-01
 bond charge predicted
       N       E                     dE             d eps       ncg     rms          rms(c)
DAV:   1    -0.322655521372E+02   -0.10508E-01   -0.13585E+02   496   0.282E+01    0.530E-01
DAV:   2    -0.323311315685E+02   -0.65579E-01   -0.65631E-01   524   0.273E+00    0.409E-01
DAV:   3    -0.323301299944E+02    0.10016E-02   -0.10179E-02   544   0.341E-01    0.291E-01
DAV:   4    -0.323282896207E+02    0.18404E-02   -0.40572E-03   544   0.161E-01    0.119E-01
DAV:   5    -0.323282180193E+02    0.71601E-04   -0.93859E-04   544   0.852E-02
  26 F= -.32328218E+02 E0= -.32328218E+02  d E =-.731405E-01  mag=     1.0000
 trial-energy change:   -0.073141  1 .order   -0.073724   -0.091434   -0.056015
 step:  34.8126(harm= 26.6386)  dis= 0.14010  next Energy=   -32.386888 (dE=-0.132E+00)
 bond charge predicted
       N       E                     dE             d eps       ncg     rms          rms(c)
DAV:   1    -0.319495431562E+02    0.37875E+00   -0.78782E+02   496   0.692E+01    0.180E+00
DAV:   2    -0.323524331431E+02   -0.40289E+00   -0.40327E+00   528   0.692E+00    0.105E+00
DAV:   3    -0.323477352354E+02    0.46979E-02   -0.65708E-02   544   0.903E-01    0.676E-01
DAV:   4    -0.323401547393E+02    0.75805E-02   -0.16637E-02   544   0.337E-01    0.314E-01
DAV:   5    -0.323398609707E+02    0.29377E-03   -0.42912E-03   540   0.180E-01    0.873E-02
DAV:   6    -0.323401847497E+02   -0.32378E-03   -0.32738E-04   460   0.501E-02    0.529E-02
DAV:   7    -0.323405812377E+02   -0.39649E-03   -0.74912E-05   372   0.226E-02    0.189E-02
DAV:   8    -0.323409638240E+02   -0.38259E-03   -0.20932E-05   368   0.109E-02    0.652E-03
DAV:   9    -0.323412663266E+02   -0.30250E-03   -0.10570E-05   372   0.569E-03    0.346E-03
DAV:  10    -0.323415147848E+02   -0.24846E-03   -0.77853E-06   360   0.377E-03    0.256E-03
DAV:  11    -0.323418272185E+02   -0.31243E-03   -0.15625E-05   368   0.395E-03    0.170E-03
DAV:  12    -0.323420041122E+02   -0.17689E-03   -0.86431E-06   368   0.316E-03    0.111E-03
DAV:  13    -0.323420600095E+02   -0.55897E-04   -0.17803E-06   360   0.165E-03
  27 F= -.32342060E+02 E0= -.32342060E+02  d E =-.869825E-01  mag=     1.0000
 curvature: -21.26 expect dE=-0.317E+00 dE for cont linesearch -0.206E-01
 ZBRENT: interpolating
 opt :  24.0237  next Energy=   -32.365112 (dE=-0.110E+00)
 bond charge predicted
       N       E                     dE             d eps       ncg     rms          rms(c)
DAV:   1    -0.322953210396E+02    0.46683E-01   -0.14862E+02   496   0.295E+01    0.533E-01
DAV:   2    -0.323674971931E+02   -0.72176E-01   -0.70687E-01   544   0.285E+00    0.475E-01
DAV:   3    -0.323668305183E+02    0.66667E-03   -0.10837E-02   544   0.344E-01    0.352E-01
DAV:   4    -0.323646654210E+02    0.21651E-02   -0.45997E-03   540   0.175E-01    0.159E-01
DAV:   5    -0.323645882274E+02    0.77194E-04   -0.14178E-03   544   0.104E-01    0.578E-02
DAV:   6    -0.323646147962E+02   -0.26569E-04   -0.93541E-05   356   0.257E-02
  28 F= -.32364615E+02 E0= -.32364615E+02  d E =-.109537E+00  mag=     1.0000
 curvature: -23.84 expect dE=-0.137E+00 dE for cont linesearch -0.667E-05
 trial: gam= 0.79960 g(F)=  0.574E-02 g(S)=  0.000E+00 ort =-0.727E-04 (trialstep = 0.131E+02)
 search vector abs. value=  0.177E-01
 bond charge predicted
       N       E                     dE             d eps       ncg     rms          rms(c)
DAV:   1    -0.323312093461E+02    0.33379E-01   -0.20466E+02   496   0.345E+01    0.604E-01
DAV:   2    -0.324326068306E+02   -0.10140E+00   -0.10011E+00   532   0.341E+00    0.483E-01
DAV:   3    -0.324314074106E+02    0.11994E-02   -0.15874E-02   544   0.432E-01    0.338E-01
DAV:   4    -0.324288645761E+02    0.25428E-02   -0.42711E-03   544   0.167E-01    0.181E-01
DAV:   5    -0.324285405806E+02    0.32400E-03   -0.27722E-03   544   0.136E-01    0.565E-02
DAV:   6    -0.324285697486E+02   -0.29168E-04   -0.83311E-05   368   0.249E-02
  29 F= -.32428570E+02 E0= -.32428570E+02  d E =-.639550E-01  mag=     1.0000
 trial-energy change:   -0.063955  1 .order   -0.064291   -0.074251   -0.054330
 step:  48.6786(harm= 48.6786)  dis= 0.20478  next Energy=   -32.502993 (dE=-0.138E+00)
 bond charge predicted
       N       E                     dE             d eps       ncg     rms          rms(c)
DAV:   1    -0.315535793113E+02    0.87496E+00   -0.16292E+03   496   0.102E+02    0.321E+00
DAV:   2    -0.324593891301E+02   -0.90581E+00   -0.90239E+00   528   0.106E+01    0.173E+00
DAV:   3    -0.324525654912E+02    0.68236E-02   -0.15637E-01   544   0.143E+00    0.994E-01
DAV:   4    -0.324394645061E+02    0.13101E-01   -0.22010E-02   536   0.396E-01    0.626E-01
DAV:   5    -0.324368459410E+02    0.26186E-02   -0.15088E-02   544   0.320E-01    0.155E-01
DAV:   6    -0.324372674711E+02   -0.42153E-03   -0.34803E-04   420   0.645E-02    0.934E-02
DAV:   7    -0.324376873779E+02   -0.41991E-03   -0.91971E-05   360   0.259E-02    0.392E-02
DAV:   8    -0.324380294511E+02   -0.34207E-03   -0.31551E-05   364   0.159E-02    0.132E-02
DAV:   9    -0.324383795791E+02   -0.35013E-03   -0.20587E-05   348   0.843E-03    0.464E-03
DAV:  10    -0.324386350418E+02   -0.25546E-03   -0.13832E-05   360   0.505E-03    0.356E-03
DAV:  11    -0.324388547261E+02   -0.21968E-03   -0.12526E-05   368   0.399E-03    0.297E-03
DAV:  12    -0.324390706818E+02   -0.21596E-03   -0.19983E-05   368   0.426E-03    0.156E-03
DAV:  13    -0.324391247233E+02   -0.54041E-04   -0.30368E-06   368   0.206E-03
  30 F= -.32439125E+02 E0= -.32439125E+02  d E =-.745099E-01  mag=     1.0000
 curvature: -75.77 expect dE=-0.128E+01 dE for cont linesearch -0.104E+00
 ZBRENT: interpolating
 opt :  29.3455  next Energy=   -32.462444 (dE=-0.978E-01)
 bond charge predicted
       N       E                     dE             d eps       ncg     rms          rms(c)
DAV:   1    -0.322535093893E+02    0.18556E+00   -0.45444E+02   496   0.520E+01    0.902E-01
DAV:   2    -0.324787583112E+02   -0.22525E+00   -0.22048E+00   536   0.510E+00    0.856E-01
DAV:   3    -0.324774248731E+02    0.13334E-02   -0.34590E-02   544   0.614E-01    0.632E-01
DAV:   4    -0.324715623164E+02    0.58626E-02   -0.85692E-03   536   0.247E-01    0.388E-01
DAV:   5    -0.324705365781E+02    0.10257E-02   -0.79165E-03   540   0.229E-01    0.123E-01
DAV:   6    -0.324706437293E+02   -0.10715E-03   -0.17059E-04   360   0.385E-02    0.719E-02
DAV:   7    -0.324707758659E+02   -0.13214E-03   -0.11983E-04   356   0.292E-02    0.278E-02
DAV:   8    -0.324708803301E+02   -0.10446E-03   -0.29175E-05   344   0.163E-02    0.113E-02
DAV:   9    -0.324710037490E+02   -0.12342E-03   -0.11149E-05   352   0.899E-03    0.326E-03
DAV:  10    -0.324710788855E+02   -0.75137E-04   -0.35372E-06   352   0.371E-03
  31 F= -.32471079E+02 E0= -.32471079E+02  d E =-.106464E+00  mag=     1.0000
 curvature: -24.58 expect dE=-0.151E+00 dE for cont linesearch -0.148E-02
 trial: gam= 0.55364 g(F)=  0.615E-02 g(S)=  0.000E+00 ort = 0.103E-02 (trialstep = 0.163E+02)
 search vector abs. value=  0.127E-01
 bond charge predicted
       N       E                     dE             d eps       ncg     rms          rms(c)
DAV:   1    -0.324420181394E+02    0.28986E-01   -0.23038E+02   496   0.366E+01    0.640E-01
DAV:   2    -0.325557335592E+02   -0.11372E+00   -0.11198E+00   532   0.359E+00    0.584E-01
DAV:   3    -0.325551428692E+02    0.59069E-03   -0.17753E-02   544   0.446E-01    0.415E-01
DAV:   4    -0.325524492426E+02    0.26936E-02   -0.45917E-03   536   0.181E-01    0.244E-01
DAV:   5    -0.325521313963E+02    0.31785E-03   -0.33966E-03   544   0.150E-01    0.789E-02
DAV:   6    -0.325521436428E+02   -0.12246E-04   -0.81699E-05   368   0.247E-02
  32 F= -.32552144E+02 E0= -.32552144E+02  d E =-.810648E-01  mag=     1.0000
 trial-energy change:   -0.081065  1 .order   -0.081447   -0.109729   -0.053166
 step:  31.6543(harm= 31.6543)  dis= 0.13909  next Energy=   -32.577513 (dE=-0.106E+00)
 bond charge predicted
       N       E                     dE             d eps       ncg     rms          rms(c)
DAV:   1    -0.324773045030E+02    0.74827E-01   -0.20317E+02   496   0.344E+01    0.597E-01
DAV:   2    -0.325758565473E+02   -0.98552E-01   -0.98421E-01   516   0.337E+00    0.532E-01
DAV:   3    -0.325752504356E+02    0.60611E-03   -0.15557E-02   528   0.419E-01    0.374E-01
DAV:   4    -0.325729310982E+02    0.23193E-02   -0.39145E-03   536   0.168E-01    0.219E-01
DAV:   5    -0.325726930691E+02    0.23803E-03   -0.28755E-03   540   0.138E-01    0.705E-02
DAV:   6    -0.325727379164E+02   -0.44847E-04   -0.75436E-05   344   0.234E-02
  33 F= -.32572738E+02 E0= -.32572738E+02  d E =-.101659E+00  mag=     1.0000
 curvature: -29.94 expect dE=-0.168E+00 dE for cont linesearch -0.235E-03
 trial: gam= 0.93243 g(F)=  0.563E-02 g(S)=  0.000E+00 ort =-0.316E-03 (trialstep = 0.153E+02)
 search vector abs. value=  0.161E-01
 bond charge predicted
       N       E                     dE             d eps       ncg     rms          rms(c)
DAV:   1    -0.325035747576E+02    0.69118E-01   -0.25616E+02   496   0.388E+01    0.632E-01
DAV:   2    -0.326291983424E+02   -0.12562E+00   -0.12333E+00   524   0.374E+00    0.541E-01
DAV:   3    -0.326282352886E+02    0.96305E-03   -0.18496E-02   540   0.445E-01    0.392E-01
DAV:   4    -0.326253652597E+02    0.28700E-02   -0.44799E-03   532   0.175E-01    0.223E-01
DAV:   5    -0.326250097148E+02    0.35554E-03   -0.36029E-03   524   0.154E-01    0.701E-02
DAV:   6    -0.326251048375E+02   -0.95123E-04   -0.65810E-05   364   0.245E-02
  34 F= -.32625105E+02 E0= -.32625105E+02  d E =-.523669E-01  mag=     1.0000
 trial-energy change:   -0.052367  1 .order   -0.054763   -0.081682   -0.027844
 step:  23.2421(harm= 23.2421)  dis= 0.10571  next Energy=   -32.634701 (dE=-0.620E-01)
 bond charge predicted
       N       E                     dE             d eps       ncg     rms          rms(c)
DAV:   1    -0.325982024222E+02    0.26807E-01   -0.67841E+01   496   0.198E+01    0.293E-01
DAV:   2    -0.326314272676E+02   -0.33225E-01   -0.32289E-01   516   0.190E+00    0.264E-01
DAV:   3    -0.326312886992E+02    0.13857E-03   -0.47540E-03   520   0.222E-01    0.199E-01
DAV:   4    -0.326305451175E+02    0.74358E-03   -0.13171E-03   532   0.947E-02    0.108E-01
DAV:   5    -0.326305514416E+02   -0.63241E-05   -0.10703E-03   524   0.843E-02    0.372E-02
DAV:   6    -0.326306082501E+02   -0.56808E-04   -0.20108E-05   348   0.131E-02
  35 F= -.32630608E+02 E0= -.32630608E+02  d E =-.578703E-01  mag=     1.0000
 curvature: -35.09 expect dE=-0.125E+00 dE for cont linesearch -0.568E-04
 trial: gam= 0.34661 g(F)=  0.357E-02 g(S)=  0.000E+00 ort =-0.162E-03 (trialstep = 0.169E+02)
 search vector abs. value=  0.539E-02
 bond charge predicted
       N       E                     dE             d eps       ncg     rms          rms(c)
DAV:   1    -0.326247725199E+02    0.57789E-02   -0.10382E+02   496   0.246E+01    0.428E-01
DAV:   2    -0.326755887844E+02   -0.50816E-01   -0.50039E-01   540   0.237E+00    0.318E-01
DAV:   3    -0.326750666321E+02    0.52215E-03   -0.74904E-03   552   0.275E-01    0.233E-01
DAV:   4    -0.326739230461E+02    0.11436E-02   -0.28730E-03   544   0.137E-01    0.867E-02
DAV:   5    -0.326739600760E+02   -0.37030E-04   -0.63626E-04   536   0.680E-02
  36 F= -.32673960E+02 E0= -.32673960E+02  d E =-.433518E-01  mag=     1.0000
 trial-energy change:   -0.043352  1 .order   -0.044276   -0.059433   -0.029118
 step:  33.1406(harm= 33.1406)  dis= 0.05642  next Energy=   -32.688869 (dE=-0.583E-01)
 bond charge predicted
       N       E                     dE             d eps       ncg     rms          rms(c)
DAV:   1    -0.326392866375E+02    0.34636E-01   -0.95731E+01   496   0.236E+01    0.438E-01
DAV:   2    -0.326867727020E+02   -0.47486E-01   -0.46360E-01   540   0.228E+00    0.315E-01
DAV:   3    -0.326862648449E+02    0.50786E-03   -0.69926E-03   544   0.266E-01    0.226E-01
DAV:   4    -0.326852918392E+02    0.97301E-03   -0.28724E-03   544   0.137E-01    0.758E-02
DAV:   5    -0.326853951923E+02   -0.10335E-03   -0.41221E-04   544   0.572E-02    0.324E-02
DAV:   6    -0.326854790810E+02   -0.83889E-04   -0.52151E-05   348   0.194E-02
  37 F= -.32685479E+02 E0= -.32685479E+02  d E =-.548708E-01  mag=     1.0000
 curvature: -25.42 expect dE=-0.881E-01 dE for cont linesearch -0.464E-03
 trial: gam= 1.04351 g(F)=  0.347E-02 g(S)=  0.000E+00 ort =-0.314E-03 (trialstep = 0.125E+02)
 search vector abs. value=  0.868E-02
 bond charge predicted
       N       E                     dE             d eps       ncg     rms          rms(c)
DAV:   1    -0.326732017411E+02    0.12193E-01   -0.91327E+01   496   0.231E+01    0.357E-01
DAV:   2    -0.327169748544E+02   -0.43773E-01   -0.42637E-01   536   0.220E+00    0.303E-01
DAV:   3    -0.327163784339E+02    0.59642E-03   -0.62802E-03   548   0.257E-01    0.229E-01
DAV:   4    -0.327150624402E+02    0.13160E-02   -0.23766E-03   532   0.124E-01    0.106E-01
DAV:   5    -0.327150221872E+02    0.40253E-04   -0.11979E-03   540   0.893E-02    0.384E-02
DAV:   6    -0.327151030918E+02   -0.80905E-04   -0.34356E-05   348   0.169E-02
  38 F= -.32715103E+02 E0= -.32715103E+02  d E =-.296240E-01  mag=     1.0000
 trial-energy change:   -0.029624  1 .order   -0.029857   -0.039283   -0.020430
 step:  26.0787(harm= 26.0787)  dis= 0.07401  next Energy=   -32.726406 (dE=-0.409E-01)
 bond charge predicted
       N       E                     dE             d eps       ncg     rms          rms(c)
DAV:   1    -0.326744228008E+02    0.40599E-01   -0.10732E+02   496   0.251E+01    0.402E-01
DAV:   2    -0.327257991028E+02   -0.51376E-01   -0.50109E-01   540   0.239E+00    0.329E-01
DAV:   3    -0.327250127557E+02    0.78635E-03   -0.73599E-03   536   0.277E-01    0.246E-01
DAV:   4    -0.327234433688E+02    0.15694E-02   -0.30765E-03   544   0.141E-01    0.105E-01
DAV:   5    -0.327234242991E+02    0.19070E-04   -0.11173E-03   516   0.869E-02    0.396E-02
DAV:   6    -0.327235128521E+02   -0.88553E-04   -0.40402E-05   352   0.180E-02
  39 F= -.32723513E+02 E0= -.32723513E+02  d E =-.380338E-01  mag=     1.0000
 curvature: -36.08 expect dE=-0.149E+00 dE for cont linesearch -0.348E-03
 trial: gam= 0.94123 g(F)=  0.412E-02 g(S)=  0.000E+00 ort =-0.290E-03 (trialstep = 0.117E+02)
 search vector abs. value=  0.113E-01
 bond charge predicted
       N       E                     dE             d eps       ncg     rms          rms(c)
DAV:   1    -0.327113901998E+02    0.12034E-01   -0.10438E+02   496   0.247E+01    0.363E-01
DAV:   2    -0.327616295007E+02   -0.50239E-01   -0.49056E-01   528   0.237E+00    0.375E-01
DAV:   3    -0.327612411798E+02    0.38832E-03   -0.72256E-03   552   0.273E-01    0.291E-01
DAV:   4    -0.327594954782E+02    0.17457E-02   -0.24929E-03   536   0.128E-01    0.169E-01
DAV:   5    -0.327592815071E+02    0.21397E-03   -0.22982E-03   536   0.120E-01    0.645E-02
DAV:   6    -0.327593639811E+02   -0.82474E-04   -0.35575E-05   356   0.172E-02
  40 F= -.32759364E+02 E0= -.32759364E+02  d E =-.358511E-01  mag=     1.0000
 trial-energy change:   -0.035851  1 .order   -0.036546   -0.045162   -0.027929
 step:  30.7542(harm= 30.7542)  dis= 0.12400  next Energy=   -32.782691 (dE=-0.592E-01)
 bond charge predicted
       N       E                     dE             d eps       ncg     rms          rms(c)
DAV:   1    -0.326486609920E+02    0.11062E+00   -0.27662E+02   496   0.404E+01    0.651E-01
DAV:   2    -0.327820600278E+02   -0.13340E+00   -0.13127E+00   536   0.390E+00    0.625E-01
DAV:   3    -0.327807063457E+02    0.13537E-02   -0.19502E-02   548   0.450E-01    0.464E-01
DAV:   4    -0.327763739547E+02    0.43324E-02   -0.64522E-03   520   0.204E-01    0.264E-01
DAV:   5    -0.327757822221E+02    0.59173E-03   -0.45180E-03   544   0.168E-01    0.943E-02
DAV:   6    -0.327759183069E+02   -0.13608E-03   -0.80394E-05   372   0.255E-02    0.585E-02
DAV:   7    -0.327761202436E+02   -0.20194E-03   -0.73689E-05   364   0.214E-02    0.193E-02
DAV:   8    -0.327762914981E+02   -0.17125E-03   -0.21188E-05   360   0.128E-02    0.604E-03
DAV:   9    -0.327764732085E+02   -0.18171E-03   -0.79659E-06   360   0.646E-03    0.265E-03
DAV:  10    -0.327765941351E+02   -0.12093E-03   -0.28796E-06   360   0.293E-03    0.162E-03
DAV:  11    -0.327767223679E+02   -0.12823E-03   -0.37127E-06   360   0.230E-03    0.115E-03
DAV:  12    -0.327768558843E+02   -0.13352E-03   -0.55465E-06   364   0.209E-03    0.747E-04
DAV:  13    -0.327768912613E+02   -0.35377E-04   -0.10912E-06   360   0.119E-03
  41 F= -.32776891E+02 E0= -.32776891E+02  d E =-.533784E-01  mag=     1.0000
 curvature: -45.03 expect dE=-0.132E+00 dE for cont linesearch -0.100E-02
 trial: gam= 0.58088 g(F)=  0.294E-02 g(S)=  0.000E+00 ort =-0.501E-03 (trialstep = 0.155E+02)
 search vector abs. value=  0.616E-02
 bond charge predicted
       N       E                     dE             d eps       ncg     rms          rms(c)
DAV:   1    -0.327616555666E+02    0.15200E-01   -0.10040E+02   496   0.241E+01    0.359E-01
DAV:   2    -0.328099213919E+02   -0.48266E-01   -0.47709E-01   520   0.233E+00    0.354E-01
DAV:   3    -0.328094913950E+02    0.43000E-03   -0.70655E-03   560   0.272E-01    0.271E-01
DAV:   4    -0.328078876425E+02    0.16038E-02   -0.22434E-03   540   0.119E-01    0.152E-01
DAV:   5    -0.328075888326E+02    0.29881E-03   -0.19437E-03   544   0.111E-01    0.549E-02
DAV:   6    -0.328076231778E+02   -0.34345E-04   -0.35466E-05   360   0.170E-02
  42 F= -.32807623E+02 E0= -.32807623E+02  d E =-.307319E-01  mag=     1.0000
 trial-energy change:   -0.030732  1 .order   -0.031563   -0.041186   -0.021939
 step:  33.2514(harm= 33.2514)  dis= 0.10037  next Energy=   -32.820958 (dE=-0.441E-01)
 bond charge predicted
       N       E                     dE             d eps       ncg     rms          rms(c)
DAV:   1    -0.327569320166E+02    0.50657E-01   -0.13066E+02   496   0.275E+01    0.425E-01
DAV:   2    -0.328210188064E+02   -0.64087E-01   -0.62569E-01   512   0.267E+00    0.407E-01
DAV:   3    -0.328205068845E+02    0.51192E-03   -0.93123E-03   552   0.314E-01    0.305E-01
DAV:   4    -0.328185637405E+02    0.19431E-02   -0.28811E-03   532   0.136E-01    0.171E-01
DAV:   5    -0.328183129631E+02    0.25078E-03   -0.22716E-03   536   0.120E-01    0.606E-02
DAV:   6    -0.328183960526E+02   -0.83089E-04   -0.43252E-05   356   0.187E-02
  43 F= -.32818396E+02 E0= -.32818396E+02  d E =-.415048E-01  mag=     1.0000
 curvature: -38.65 expect dE=-0.900E-01 dE for cont linesearch -0.109E-04
 trial: gam= 0.55564 g(F)=  0.233E-02 g(S)=  0.000E+00 ort =-0.416E-04 (trialstep = 0.191E+02)
 search vector abs. value=  0.419E-02
 bond charge predicted
       N       E                     dE             d eps       ncg     rms          rms(c)
DAV:   1    -0.327961919982E+02    0.22121E-01   -0.10261E+02   496   0.244E+01    0.437E-01
DAV:   2    -0.328457667964E+02   -0.49575E-01   -0.49034E-01   528   0.235E+00    0.338E-01
DAV:   3    -0.328451563631E+02    0.61043E-03   -0.75134E-03   544   0.287E-01    0.239E-01
DAV:   4    -0.328439759569E+02    0.11804E-02   -0.27409E-03   544   0.135E-01    0.104E-01
DAV:   5    -0.328440469717E+02   -0.71015E-04   -0.88009E-04   544   0.776E-02
  44 F= -.32844047E+02 E0= -.32844047E+02  d E =-.256509E-01  mag=     1.0000
 trial-energy change:   -0.025651  1 .order   -0.026386   -0.043998   -0.008774
 step:  24.7566(harm= 23.8346)  dis= 0.05135  next Energy=   -32.845332 (dE=-0.269E-01)
 bond charge predicted
       N       E                     dE             d eps       ncg     rms          rms(c)
DAV:   1    -0.328403614752E+02    0.36145E-02   -0.90166E+00   496   0.720E+00    0.126E-01
DAV:   2    -0.328447367793E+02   -0.43753E-02   -0.43005E-02   544   0.694E-01    0.104E-01
DAV:   3    -0.328447270863E+02    0.96930E-05   -0.65250E-04   552   0.843E-02
  45 F= -.32844727E+02 E0= -.32844727E+02  d E =-.263310E-01  mag=     1.0000
 curvature: -20.82 expect dE=-0.335E-01 dE for cont linesearch -0.241E-03
 trial: gam= 0.68415 g(F)=  0.161E-02 g(S)=  0.000E+00 ort =-0.220E-03 (trialstep = 0.202E+02)
 search vector abs. value=  0.327E-02
 bond charge predicted
       N       E                     dE             d eps       ncg     rms          rms(c)
DAV:   1    -0.328170623930E+02    0.27674E-01   -0.89859E+01   496   0.229E+01    0.413E-01
DAV:   2    -0.328600210619E+02   -0.42959E-01   -0.42769E-01   524   0.221E+00    0.348E-01
DAV:   3    -0.328594732589E+02    0.54780E-03   -0.66088E-03   540   0.274E-01    0.248E-01
DAV:   4    -0.328582645927E+02    0.12087E-02   -0.28621E-03   528   0.135E-01    0.110E-01
DAV:   5    -0.328583356855E+02   -0.71093E-04   -0.89066E-04   552   0.788E-02
  46 F= -.32858336E+02 E0= -.32858336E+02  d E =-.136086E-01  mag=     1.0000
 trial-energy change:   -0.013609  1 .order   -0.014498   -0.029465    0.000469
 step:  19.8326(harm= 19.8997)  dis= 0.03121  next Energy=   -32.858340 (dE=-0.136E-01)
 bond charge predicted
       N       E                     dE             d eps       ncg     rms          rms(c)
DAV:   1    -0.328583987558E+02   -0.13416E-03   -0.33226E-02   532   0.440E-01    0.215E-02
DAV:   2    -0.328584600300E+02   -0.61274E-04   -0.11633E-04   352   0.406E-02
  47 F= -.32858460E+02 E0= -.32858460E+02  d E =-.137329E-01  mag=     1.0000
 curvature: -21.29 expect dE=-0.163E-01 dE for cont linesearch -0.150E-05
 trial: gam= 0.35674 g(F)=  0.764E-03 g(S)=  0.000E+00 ort = 0.151E-04 (trialstep = 0.201E+02)
 search vector abs. value=  0.119E-02
 bond charge predicted
       N       E                     dE             d eps       ncg     rms          rms(c)
DAV:   1    -0.328534564674E+02    0.49423E-02   -0.32379E+01   496   0.137E+01    0.201E-01
DAV:   2    -0.328687046656E+02   -0.15248E-01   -0.15189E-01   540   0.131E+00    0.200E-01
DAV:   3    -0.328685856112E+02    0.11905E-03   -0.22551E-03   552   0.154E-01    0.153E-01
DAV:   4    -0.328681473470E+02    0.43826E-03   -0.72858E-04   536   0.679E-02    0.849E-02
DAV:   5    -0.328681309186E+02    0.16428E-04   -0.62009E-04   540   0.643E-02
  48 F= -.32868131E+02 E0= -.32868131E+02  d E =-.967089E-02  mag=     1.0000
 trial-energy change:   -0.009671  1 .order   -0.010218   -0.015500   -0.004936
 step:  29.5494(harm= 29.5494)  dis= 0.02896  next Energy=   -32.869831 (dE=-0.114E-01)
 bond charge predicted
       N       E                     dE             d eps       ncg     rms          rms(c)
DAV:   1    -0.328656946757E+02    0.24527E-02   -0.70497E+00   496   0.639E+00    0.994E-02
DAV:   2    -0.328690423091E+02   -0.33476E-02   -0.33333E-02   552   0.610E-01    0.912E-02
DAV:   3    -0.328690262181E+02    0.16091E-04   -0.49473E-04   528   0.721E-02
  49 F= -.32869026E+02 E0= -.32869026E+02  d E =-.105662E-01  mag=     1.0000
 curvature: -22.86 expect dE=-0.123E-01 dE for cont linesearch -0.149E-04
 trial: gam= 0.75375 g(F)=  0.537E-03 g(S)=  0.000E+00 ort =-0.278E-04 (trialstep = 0.220E+02)
 search vector abs. value=  0.117E-02
 bond charge predicted
       N       E                     dE             d eps       ncg     rms          rms(c)
DAV:   1    -0.328575197894E+02    0.11523E-01   -0.38136E+01   496   0.149E+01    0.231E-01
DAV:   2    -0.328753068673E+02   -0.17787E-01   -0.17678E-01   540   0.141E+00    0.221E-01
DAV:   3    -0.328750767004E+02    0.23017E-03   -0.25722E-03   552   0.163E-01    0.171E-01
DAV:   4    -0.328744318752E+02    0.64483E-03   -0.12848E-03   540   0.893E-02    0.786E-02
DAV:   5    -0.328744251655E+02    0.67096E-05   -0.52235E-04   552   0.608E-02
  50 F= -.32874425E+02 E0= -.32874425E+02  d E =-.539895E-02  mag=     1.0000
 trial-energy change:   -0.005399  1 .order   -0.006007   -0.011359   -0.000654
 step:  24.1714(harm= 23.3676)  dis= 0.03059  next Energy=   -32.874457 (dE=-0.543E-02)
 bond charge predicted
       N       E                     dE             d eps       ncg     rms          rms(c)
DAV:   1    -0.328742008855E+02    0.23099E-03   -0.36031E-01   520   0.144E+00    0.336E-02
DAV:   2    -0.328744004261E+02   -0.19954E-03   -0.18090E-03   540   0.140E-01    0.201E-02
DAV:   3    -0.328744175175E+02   -0.17091E-04   -0.24136E-05   336   0.171E-02
  51 F= -.32874418E+02 E0= -.32874418E+02  d E =-.539130E-02  mag=     1.0000
 curvature: -17.07 expect dE=-0.706E-02 dE for cont linesearch -0.157E-03
 trial: gam= 0.00000 g(F)=  0.414E-03 g(S)=  0.000E+00 ort =-0.104E-03 (trialstep = 0.225E+02)
 search vector abs. value=  0.414E-03
 bond charge predicted
       N       E                     dE             d eps       ncg     rms          rms(c)
DAV:   1    -0.328711500483E+02    0.32504E-02   -0.14074E+01   496   0.902E+00    0.216E-01
DAV:   2    -0.328776922855E+02   -0.65422E-02   -0.68452E-02   544   0.879E-01    0.172E-01
DAV:   3    -0.328776249667E+02    0.67319E-04   -0.11744E-03   540   0.114E-01    0.110E-01
DAV:   4    -0.328775217423E+02    0.10322E-03   -0.44608E-04   540   0.610E-02    0.398E-02
DAV:   5    -0.328775396744E+02   -0.17932E-04   -0.39369E-05   352   0.227E-02
  52 F= -.32877540E+02 E0= -.32877540E+02  d E =-.312216E-02  mag=     1.0000
 trial-energy change:   -0.003122  1 .order   -0.003235   -0.009292    0.002821
 step:  17.2222(harm= 17.2222)  dis= 0.01231  next Energy=   -32.877981 (dE=-0.356E-02)
 bond charge predicted
       N       E                     dE             d eps       ncg     rms          rms(c)
DAV:   1    -0.328775888056E+02   -0.67063E-04   -0.76526E-01   512   0.210E+00    0.484E-02
DAV:   2    -0.328779524304E+02   -0.36362E-03   -0.36448E-03   536   0.204E-01    0.420E-02
DAV:   3    -0.328779556992E+02   -0.32689E-05   -0.56451E-05   340   0.264E-02
  53 F= -.32877956E+02 E0= -.32877956E+02  d E =-.353818E-02  mag=     1.0000
 curvature:  -8.61 expect dE=-0.258E-02 dE for cont linesearch -0.281E-04
 trial: gam= 0.63453 g(F)=  0.299E-03 g(S)=  0.000E+00 ort = 0.368E-04 (trialstep = 0.173E+02)
 search vector abs. value=  0.513E-03
 bond charge predicted
       N       E                     dE             d eps       ncg     rms          rms(c)
DAV:   1    -0.328772547320E+02    0.69770E-03   -0.10243E+01   496   0.771E+00    0.120E-01
DAV:   2    -0.328820608239E+02   -0.48061E-02   -0.47994E-02   544   0.744E-01    0.104E-01
DAV:   3    -0.328820069221E+02    0.53902E-04   -0.74651E-04   544   0.951E-02
  54 F= -.32882007E+02 E0= -.32882007E+02  d E =-.405122E-02  mag=     1.0000
 trial-energy change:   -0.004051  1 .order   -0.004123   -0.005576   -0.002669
 step:  33.1398(harm= 33.1398)  dis= 0.02084  next Energy=   -32.883303 (dE=-0.535E-02)
 bond charge predicted
       N       E                     dE             d eps       ncg     rms          rms(c)
DAV:   1    -0.328796623976E+02    0.23984E-02   -0.86547E+00   496   0.709E+00    0.125E-01
DAV:   2    -0.328835495035E+02   -0.38871E-02   -0.39392E-02   548   0.675E-01    0.116E-01
DAV:   3    -0.328834647619E+02    0.84742E-04   -0.60019E-04   552   0.829E-02
  55 F= -.32883465E+02 E0= -.32883465E+02  d E =-.550906E-02  mag=     1.0000
 curvature: -26.32 expect dE=-0.890E-02 dE for cont linesearch -0.771E-04
 trial: gam= 0.92458 g(F)=  0.338E-03 g(S)=  0.000E+00 ort = 0.388E-04 (trialstep = 0.124E+02)
 search vector abs. value=  0.848E-03
 bond charge predicted
       N       E                     dE             d eps       ncg     rms          rms(c)
DAV:   1    -0.328834657929E+02    0.83711E-04   -0.86964E+00   496   0.708E+00    0.961E-02
DAV:   2    -0.328875287043E+02   -0.40629E-02   -0.40200E-02   552   0.681E-01    0.107E-01
DAV:   3    -0.328875004586E+02    0.28246E-04   -0.61647E-04   540   0.825E-02
  56 F= -.32887500E+02 E0= -.32887500E+02  d E =-.403570E-02  mag=     1.0000
 ZBRENT: can't locate minimum, use default step
 trial-energy change:   -0.004036  1 .order   -0.004301   -0.004623   -0.003979
 step:  49.4614(harm= 88.8031)  dis= 0.06937  next Energy=   -32.900065 (dE=-0.166E-01)
 bond charge predicted
       N       E                     dE             d eps       ncg     rms          rms(c)
DAV:   1    -0.328597488082E+02    0.27780E-01   -0.78491E+01   496   0.213E+01    0.301E-01
DAV:   2    -0.328965566028E+02   -0.36808E-01   -0.36321E-01   552   0.205E+00    0.330E-01
DAV:   3    -0.328962677037E+02    0.28890E-03   -0.55472E-03   556   0.248E-01    0.260E-01
DAV:   4    -0.328949413864E+02    0.13263E-02   -0.15167E-03   548   0.986E-02    0.162E-01
DAV:   5    -0.328945859007E+02    0.35549E-03   -0.24301E-03   540   0.123E-01    0.577E-02
DAV:   6    -0.328946413057E+02   -0.55405E-04   -0.37053E-05   348   0.168E-02
  57 F= -.32894641E+02 E0= -.32894641E+02  d E =-.111765E-01  mag=     1.0000
 curvature: -74.03 expect dE=-0.534E-01 dE for cont linesearch -0.140E-02
 ZBRENT: increasing intervall
 opt : 123.6536  next Energy=   -32.889581 (dE=-0.612E-02)
 bond charge predicted
       N       E                     dE             d eps       ncg     rms          rms(c)
DAV:   1    -0.327362146847E+02    0.15837E+00   -0.31809E+02   496   0.433E+01    0.689E-01
DAV:   2    -0.328891700768E+02   -0.15296E+00   -0.15086E+00   536   0.420E+00    0.637E-01
DAV:   3    -0.328879404838E+02    0.12296E-02   -0.23301E-02   532   0.516E-01    0.462E-01
DAV:   4    -0.328841555643E+02    0.37849E-02   -0.42776E-03   544   0.170E-01    0.300E-01
DAV:   5    -0.328829806150E+02    0.11749E-02   -0.58405E-03   540   0.190E-01    0.926E-02
DAV:   6    -0.328831370679E+02   -0.15645E-03   -0.81980E-05   364   0.274E-02    0.561E-02
DAV:   7    -0.328833114926E+02   -0.17442E-03   -0.39330E-05   356   0.159E-02    0.247E-02
DAV:   8    -0.328834644427E+02   -0.15295E-03   -0.25974E-05   368   0.131E-02    0.739E-03
DAV:   9    -0.328836367300E+02   -0.17229E-03   -0.84602E-06   360   0.681E-03    0.341E-03
DAV:  10    -0.328837131027E+02   -0.76373E-04   -0.16917E-06   368   0.253E-03
  58 F= -.32883713E+02 E0= -.32883713E+02  d E =-.248341E-03  mag=     1.0000
 curvature: 266.85 expect dE= 0.132E+01 dE for cont linesearch  0.476E-01
 ZBRENT: bracketing found
 ZBRENT: interpolating
 opt :  67.7005  next Energy=   -32.895798 (dE=-0.123E-01)
 bond charge predicted
       N       E                     dE             d eps       ncg     rms          rms(c)
DAV:   1    -0.328106412234E+02    0.72996E-01   -0.17954E+02   496   0.323E+01    0.550E-01
DAV:   2    -0.328989409899E+02   -0.88300E-01   -0.86959E-01   556   0.318E+00    0.439E-01
DAV:   3    -0.328979575209E+02    0.98347E-03   -0.13806E-02   560   0.412E-01    0.312E-01
DAV:   4    -0.328958276856E+02    0.21298E-02   -0.29691E-03   544   0.139E-01    0.175E-01
DAV:   5    -0.328953754911E+02    0.45219E-03   -0.27620E-03   540   0.132E-01    0.490E-02
DAV:   6    -0.328954237533E+02   -0.48262E-04   -0.60957E-05   376   0.215E-02
  59 F= -.32895424E+02 E0= -.32895424E+02  d E =-.119590E-01  mag=     1.0000
 curvature:  -6.48 expect dE=-0.863E-02 dE for cont linesearch -0.296E-04
 trial: gam= 0.00000 g(F)=  0.133E-02 g(S)=  0.000E+00 ort =-0.623E-04 (trialstep = 0.149E+02)
 search vector abs. value=  0.133E-02
 bond charge predicted
       N       E                     dE             d eps       ncg     rms          rms(c)
DAV:   1    -0.328962022988E+02   -0.82681E-03   -0.20009E+01   500   0.107E+01    0.266E-01
DAV:   2    -0.329054229479E+02   -0.92206E-02   -0.97046E-02   540   0.104E+00    0.197E-01
DAV:   3    -0.329053707830E+02    0.52165E-04   -0.16741E-03   548   0.133E-01    0.125E-01
DAV:   4    -0.329052717169E+02    0.99066E-04   -0.53972E-04   536   0.681E-02
  60 F= -.32905272E+02 E0= -.32905272E+02  d E =-.984796E-02  mag=     1.0000
 trial-energy change:   -0.009848  1 .order   -0.009966   -0.019870   -0.000062
 step:  14.9601(harm= 14.9601)  dis= 0.02187  next Energy=   -32.905390 (dE=-0.997E-02)
 bond charge predicted
       N       E                     dE             d eps       ncg     rms          rms(c)
DAV:   1    -0.329052943015E+02    0.76482E-04   -0.20959E-04   384   0.415E-02    0.133E-02
DAV:   2    -0.329053134304E+02   -0.19129E-04   -0.20819E-05   344   0.134E-02
  61 F= -.32905313E+02 E0= -.32905313E+02  d E =-.988968E-02  mag=     1.0000
 curvature:  -7.48 expect dE=-0.396E-02 dE for cont linesearch -0.439E-04
 trial: gam= 0.46327 g(F)=  0.529E-03 g(S)=  0.000E+00 ort =-0.884E-04 (trialstep = 0.149E+02)
 search vector abs. value=  0.733E-03
 bond charge predicted
       N       E                     dE             d eps       ncg     rms          rms(c)
DAV:   1    -0.329069651041E+02   -0.16708E-02   -0.10927E+01   496   0.792E+00    0.121E-01
DAV:   2    -0.329121869284E+02   -0.52218E-02   -0.51471E-02   532   0.762E-01    0.108E-01
DAV:   3    -0.329121278067E+02    0.59122E-04   -0.78388E-04   560   0.936E-02
  62 F= -.32912128E+02 E0= -.32912128E+02  d E =-.681438E-02  mag=     1.0000
 ZBRENT: can't locate minimum, use default step
 trial-energy change:   -0.006814  1 .order   -0.006552   -0.007279   -0.005825
 step:  59.6901(harm= 74.6787)  dis= 0.06933  next Energy=   -32.923528 (dE=-0.182E-01)
 bond charge predicted
       N       E                     dE             d eps       ncg     rms          rms(c)
DAV:   1    -0.328752267379E+02    0.36960E-01   -0.98911E+01   496   0.239E+01    0.425E-01
DAV:   2    -0.329229026253E+02   -0.47676E-01   -0.46768E-01   536   0.230E+00    0.340E-01
DAV:   3    -0.329219607885E+02    0.94184E-03   -0.71640E-03   552   0.282E-01    0.246E-01
DAV:   4    -0.329202935861E+02    0.16672E-02   -0.33461E-03   540   0.144E-01    0.101E-01
DAV:   5    -0.329202440278E+02    0.49558E-04   -0.86000E-04   544   0.794E-02
  63 F= -.32920244E+02 E0= -.32920244E+02  d E =-.149306E-01  mag=     1.0000
 curvature: -52.56 expect dE=-0.838E-01 dE for cont linesearch -0.553E-04
 trial: gam= 2.87642 g(F)=  0.160E-02 g(S)=  0.000E+00 ort = 0.278E-04 (trialstep = 0.224E+01)
 search vector abs. value=  0.782E-02
 bond charge predicted
       N       E                     dE             d eps       ncg     rms          rms(c)
DAV:   1    -0.329225592277E+02   -0.22656E-02   -0.26130E+00   516   0.385E+00    0.570E-02
DAV:   2    -0.329239292483E+02   -0.13700E-02   -0.12474E-02   548   0.374E-01    0.543E-02
DAV:   3    -0.329239634809E+02   -0.34233E-04   -0.16618E-04   352   0.454E-02
  64 F= -.32923963E+02 E0= -.32923963E+02  d E =-.371945E-02  mag=     1.0000
 trial-energy change:   -0.003719  1 .order   -0.003164   -0.003749   -0.002579
 step:   7.1721(harm=  7.1721)  dis= 0.02867  next Energy=   -32.926251 (dE=-0.601E-02)
 bond charge predicted
       N       E                     dE             d eps       ncg     rms          rms(c)
DAV:   1    -0.329249586041E+02   -0.10294E-02   -0.12776E+01   500   0.853E+00    0.117E-01
DAV:   2    -0.329308933940E+02   -0.59348E-02   -0.58789E-02   544   0.817E-01    0.129E-01
DAV:   3    -0.329308407209E+02    0.52673E-04   -0.86557E-04   536   0.967E-02
  65 F= -.32930841E+02 E0= -.32930841E+02  d E =-.105967E-01  mag=     1.0000
 curvature: -16.74 expect dE=-0.200E-01 dE for cont linesearch -0.349E-02
 ZBRENT: increasing intervall
 opt :  17.0404  next Energy=   -32.944661 (dE=-0.244E-01)
 bond charge predicted
       N       E                     dE             d eps       ncg     rms          rms(c)
DAV:   1    -0.329167266331E+02    0.14167E-01   -0.51196E+01   496   0.171E+01    0.252E-01
DAV:   2    -0.329402221690E+02   -0.23496E-01   -0.23557E-01   536   0.164E+00    0.270E-01
DAV:   3    -0.329398897195E+02    0.33245E-03   -0.34816E-03   544   0.192E-01    0.215E-01
DAV:   4    -0.329388262178E+02    0.10635E-02   -0.14987E-03   540   0.961E-02    0.124E-01
DAV:   5    -0.329387144304E+02    0.11179E-03   -0.14475E-03   540   0.968E-02    0.487E-02
DAV:   6    -0.329388176835E+02   -0.10325E-03   -0.27341E-05   348   0.146E-02    0.292E-02
DAV:   7    -0.329389353706E+02   -0.11769E-03   -0.28324E-05   356   0.131E-02    0.974E-03
DAV:   8    -0.329390294152E+02   -0.94045E-04   -0.81611E-06   356   0.788E-03
  66 F= -.32939029E+02 E0= -.32939029E+02  d E =-.187854E-01  mag=     1.0000
 curvature: -66.32 expect dE=-0.659E-01 dE for cont linesearch -0.215E-02
 ZBRENT: increasing intervall
 opt :  36.7769  next Energy=   -32.933728 (dE=-0.135E-01)
 bond charge predicted
       N       E                     dE             d eps       ncg     rms          rms(c)
DAV:   1    -0.328386336796E+02    0.10030E+00   -0.20711E+02   496   0.346E+01    0.559E-01
DAV:   2    -0.329385671959E+02   -0.99934E-01   -0.99067E-01   528   0.337E+00    0.504E-01
DAV:   3    -0.329372854092E+02    0.12818E-02   -0.15022E-02   556   0.406E-01    0.365E-01
DAV:   4    -0.329342128157E+02    0.30726E-02   -0.41078E-03   544   0.161E-01    0.213E-01
DAV:   5    -0.329335939542E+02    0.61886E-03   -0.34663E-03   536   0.148E-01    0.697E-02
DAV:   6    -0.329337168934E+02   -0.12294E-03   -0.51197E-05   360   0.221E-02    0.440E-02
DAV:   7    -0.329338647207E+02   -0.14783E-03   -0.31947E-05   364   0.140E-02    0.166E-02
DAV:   8    -0.329339774331E+02   -0.11271E-03   -0.11048E-05   356   0.896E-03    0.530E-03
DAV:   9    -0.329341123431E+02   -0.13491E-03   -0.62321E-06   356   0.516E-03    0.207E-03
DAV:  10    -0.329341840003E+02   -0.71657E-04   -0.16995E-06   348   0.221E-03
  67 F= -.32934184E+02 E0= -.32934184E+02  d E =-.139400E-01  mag=     1.0000
 curvature: 163.20 expect dE= 0.342E+00 dE for cont linesearch  0.234E-01
 ZBRENT: bracketing found
 ZBRENT: interpolating
 opt :  23.4049  next Energy=   -32.940633 (dE=-0.204E-01)
 bond charge predicted
       N       E                     dE             d eps       ncg     rms          rms(c)
DAV:   1    -0.328976917391E+02    0.36421E-01   -0.94263E+01   496   0.232E+01    0.341E-01
DAV:   2    -0.329430582098E+02   -0.45366E-01   -0.44710E-01   552   0.225E+00    0.335E-01
DAV:   3    -0.329425780287E+02    0.48018E-03   -0.68112E-03   536   0.276E-01    0.252E-01
DAV:   4    -0.329411955880E+02    0.13824E-02   -0.17616E-03   540   0.107E-01    0.154E-01
DAV:   5    -0.329408354307E+02    0.36016E-03   -0.21611E-03   536   0.117E-01    0.508E-02
DAV:   6    -0.329408739540E+02   -0.38523E-04   -0.31390E-05   352   0.166E-02
  68 F= -.32940874E+02 E0= -.32940874E+02  d E =-.206299E-01  mag=     1.0000
 curvature: -11.18 expect dE=-0.125E-01 dE for cont linesearch -0.856E-05
 trial: gam= 0.29632 g(F)=  0.112E-02 g(S)=  0.000E+00 ort =-0.773E-04 (trialstep = 0.647E+01)
 search vector abs. value=  0.176E-02
 bond charge predicted
       N       E                     dE             d eps       ncg     rms          rms(c)
DAV:   1    -0.329448384249E+02   -0.40030E-02   -0.49612E+00   520   0.534E+00    0.973E-02
DAV:   2    -0.329472219028E+02   -0.23835E-02   -0.23680E-02   544   0.518E-01    0.905E-02
DAV:   3    -0.329472063635E+02    0.15539E-04   -0.35924E-04   500   0.639E-02
  69 F= -.32947206E+02 E0= -.32947206E+02  d E =-.633241E-02  mag=     1.0000
 trial-energy change:   -0.006332  1 .order   -0.005960   -0.007092   -0.004828
 step:  20.2706(harm= 20.2706)  dis= 0.03176  next Energy=   -32.951982 (dE=-0.111E-01)
 bond charge predicted
       N       E                     dE             d eps       ncg     rms          rms(c)
DAV:   1    -0.329428038542E+02    0.44180E-02   -0.22587E+01   496   0.114E+01    0.217E-01
DAV:   2    -0.329534624583E+02   -0.10659E-01   -0.10733E-01   540   0.110E+00    0.203E-01
DAV:   3    -0.329533591414E+02    0.10332E-03   -0.16332E-03   552   0.132E-01    0.149E-01
DAV:   4    -0.329530570829E+02    0.30206E-03   -0.84916E-04   536   0.754E-02    0.660E-02
DAV:   5    -0.329530875421E+02   -0.30459E-04   -0.18988E-04   360   0.414E-02
  70 F= -.32953088E+02 E0= -.32953088E+02  d E =-.122136E-01  mag=     1.0000
 curvature: -16.27 expect dE=-0.934E-02 dE for cont linesearch -0.180E-03
 trial: gam= 0.39203 g(F)=  0.574E-03 g(S)=  0.000E+00 ort = 0.139E-03 (trialstep = 0.923E+01)
 search vector abs. value=  0.954E-03
 bond charge predicted
       N       E                     dE             d eps       ncg     rms          rms(c)
DAV:   1    -0.329553902856E+02   -0.23332E-02   -0.54394E+00   496   0.562E+00    0.816E-02
DAV:   2    -0.329580371950E+02   -0.26469E-02   -0.25828E-02   536   0.546E-01    0.811E-02
DAV:   3    -0.329580378613E+02   -0.66631E-06   -0.39871E-04   536   0.684E-02
  71 F= -.32958038E+02 E0= -.32958038E+02  d E =-.495032E-02  mag=     1.0000
 trial-energy change:   -0.004950  1 .order   -0.004960   -0.005804   -0.004116
 step:  31.7361(harm= 31.7361)  dis= 0.02950  next Energy=   -32.963064 (dE=-0.998E-02)
 bond charge predicted
       N       E                     dE             d eps       ncg     rms          rms(c)
DAV:   1    -0.329493175566E+02    0.87196E-02   -0.32430E+01   496   0.137E+01    0.205E-01
DAV:   2    -0.329646260447E+02   -0.15308E-01   -0.15152E-01   540   0.133E+00    0.218E-01
DAV:   3    -0.329645192621E+02    0.10678E-03   -0.23417E-03   544   0.163E-01    0.168E-01
DAV:   4    -0.329639849909E+02    0.53427E-03   -0.74070E-04   544   0.683E-02    0.991E-02
DAV:   5    -0.329638872506E+02    0.97740E-04   -0.86909E-04   540   0.746E-02
  72 F= -.32963887E+02 E0= -.32963887E+02  d E =-.107997E-01  mag=     1.0000
 curvature: -24.07 expect dE=-0.980E-02 dE for cont linesearch -0.437E-03
 trial: gam= 0.60040 g(F)=  0.407E-03 g(S)=  0.000E+00 ort = 0.132E-03 (trialstep = 0.137E+02)
 search vector abs. value=  0.909E-03
 bond charge predicted
       N       E                     dE             d eps       ncg     rms          rms(c)
DAV:   1    -0.329633431514E+02    0.64184E-03   -0.11479E+01   496   0.815E+00    0.125E-01
DAV:   2    -0.329689160313E+02   -0.55729E-02   -0.54504E-02   544   0.790E-01    0.117E-01
DAV:   3    -0.329688940616E+02    0.21970E-04   -0.83673E-04   544   0.980E-02
  73 F= -.32968894E+02 E0= -.32968894E+02  d E =-.500681E-02  mag=     1.0000
 trial-energy change:   -0.005007  1 .order   -0.005071   -0.006675   -0.003467
 step:  28.5737(harm= 28.5737)  dis= 0.02790  next Energy=   -32.970832 (dE=-0.694E-02)
 bond charge predicted
       N       E                     dE             d eps       ncg     rms          rms(c)
DAV:   1    -0.329648377323E+02    0.40783E-02   -0.13446E+01   496   0.882E+00    0.154E-01
DAV:   2    -0.329710639311E+02   -0.62262E-02   -0.61866E-02   544   0.845E-01    0.151E-01
DAV:   3    -0.329709650566E+02    0.98874E-04   -0.93456E-04   552   0.101E-01
  74 F= -.32970965E+02 E0= -.32970965E+02  d E =-.707781E-02  mag=     1.0000
 curvature: -26.72 expect dE=-0.787E-02 dE for cont linesearch -0.511E-04
 trial: gam= 0.82747 g(F)=  0.295E-03 g(S)=  0.000E+00 ort = 0.417E-04 (trialstep = 0.154E+02)
 search vector abs. value=  0.986E-03
 bond charge predicted
       N       E                     dE             d eps       ncg     rms          rms(c)
DAV:   1    -0.329671664590E+02    0.38975E-02   -0.15693E+01   496   0.951E+00    0.143E-01
DAV:   2    -0.329744933637E+02   -0.73269E-02   -0.72725E-02   540   0.918E-01    0.159E-01
DAV:   3    -0.329744320978E+02    0.61266E-04   -0.11068E-03   544   0.110E-01    0.127E-01
DAV:   4    -0.329741331684E+02    0.29893E-03   -0.42334E-04   536   0.513E-02    0.767E-02
DAV:   5    -0.329741274254E+02    0.57430E-05   -0.53773E-04   548   0.588E-02
  75 F= -.32974127E+02 E0= -.32974127E+02  d E =-.316237E-02  mag=     1.0000
 trial-energy change:   -0.003162  1 .order   -0.003857   -0.005067   -0.002647
 step:  32.2332(harm= 32.2332)  dis= 0.03838  next Energy=   -32.976270 (dE=-0.530E-02)
 bond charge predicted
       N       E                     dE             d eps       ncg     rms          rms(c)
DAV:   1    -0.329663171916E+02    0.78160E-02   -0.18728E+01   496   0.104E+01    0.151E-01
DAV:   2    -0.329753665651E+02   -0.90494E-02   -0.88973E-02   532   0.101E+00    0.157E-01
DAV:   3    -0.329753187588E+02    0.47806E-04   -0.13753E-03   536   0.126E-01    0.118E-01
DAV:   4    -0.329750587343E+02    0.26002E-03   -0.33290E-04   488   0.464E-02    0.733E-02
DAV:   5    -0.329750391826E+02    0.19552E-04   -0.52227E-04   548   0.585E-02
  76 F= -.32975039E+02 E0= -.32975039E+02  d E =-.407413E-02  mag=     1.0000
 curvature: -48.28 expect dE=-0.112E-01 dE for cont linesearch -0.188E-05
 trial: gam= 0.74035 g(F)=  0.232E-03 g(S)=  0.000E+00 ort =-0.620E-05 (trialstep = 0.188E+02)
 search vector abs. value=  0.764E-03
 bond charge predicted
       N       E                     dE             d eps       ncg     rms          rms(c)
DAV:   1    -0.329690495091E+02    0.60092E-02   -0.18032E+01   496   0.102E+01    0.143E-01
DAV:   2    -0.329776808892E+02   -0.86314E-02   -0.84931E-02   520   0.987E-01    0.146E-01
DAV:   3    -0.329776214542E+02    0.59435E-04   -0.13053E-03   544   0.122E-01    0.111E-01
DAV:   4    -0.329773722932E+02    0.24916E-03   -0.28937E-04   464   0.444E-02    0.689E-02
DAV:   5    -0.329773302697E+02    0.42024E-04   -0.52874E-04   540   0.588E-02
  77 F= -.32977330E+02 E0= -.32977330E+02  d E =-.229109E-02  mag=     1.0000
 trial-energy change:   -0.002291  1 .order   -0.002804   -0.004275   -0.001333
 step:  27.2659(harm= 27.2659)  dis= 0.03123  next Energy=   -32.978146 (dE=-0.311E-02)
 bond charge predicted
       N       E                     dE             d eps       ncg     rms          rms(c)
DAV:   1    -0.329756704893E+02    0.17018E-02   -0.36965E+00   500   0.459E+00    0.682E-02
DAV:   2    -0.329774724659E+02   -0.18020E-02   -0.17567E-02   528   0.448E-01    0.644E-02
DAV:   3    -0.329774695545E+02    0.29114E-05   -0.25545E-04   408   0.556E-02
  78 F= -.32977470E+02 E0= -.32977470E+02  d E =-.243037E-02  mag=     1.0000
 curvature: -45.69 expect dE=-0.849E-02 dE for cont linesearch -0.560E-03
 trial: gam= 0.00000 g(F)=  0.186E-03 g(S)=  0.000E+00 ort =-0.968E-04 (trialstep = 0.205E+02)
 search vector abs. value=  0.186E-03
 bond charge predicted
       N       E                     dE             d eps       ncg     rms          rms(c)
DAV:   1    -0.329763676161E+02    0.11048E-02   -0.52301E+00   496   0.550E+00    0.124E-01
DAV:   2    -0.329788157807E+02   -0.24482E-02   -0.24803E-02   548   0.521E-01    0.884E-02
DAV:   3    -0.329788042421E+02    0.11539E-04   -0.39836E-04   536   0.643E-02
  79 F= -.32978804E+02 E0= -.32978804E+02  d E =-.133469E-02  mag=     1.0000
 trial-energy change:   -0.001335  1 .order   -0.001294   -0.003804    0.001217
 step:  15.5034(harm= 15.5034)  dis= 0.00742  next Energy=   -32.978911 (dE=-0.144E-02)
 bond charge predicted
       N       E                     dE             d eps       ncg     rms          rms(c)
DAV:   1    -0.329787560093E+02    0.59771E-04   -0.30447E-01   532   0.133E+00    0.221E-02
DAV:   2    -0.329789184265E+02   -0.16242E-03   -0.14369E-03   544   0.128E-01    0.173E-02
DAV:   3    -0.329789275841E+02   -0.91576E-05   -0.20928E-05   336   0.160E-02
  80 F= -.32978928E+02 E0= -.32978928E+02  d E =-.145803E-02  mag=     1.0000
 curvature:  -7.75 expect dE=-0.689E-03 dE for cont linesearch -0.281E-04
 trial: gam= 0.33832 g(F)=  0.889E-04 g(S)=  0.000E+00 ort = 0.260E-04 (trialstep = 0.195E+02)
 search vector abs. value=  0.128E-03
 bond charge predicted
       N       E                     dE             d eps       ncg     rms          rms(c)
DAV:   1    -0.329787165717E+02    0.20185E-03   -0.32365E+00   496   0.432E+00    0.641E-02
DAV:   2    -0.329802780696E+02   -0.15615E-02   -0.15240E-02   540   0.412E-01    0.597E-02
DAV:   3    -0.329802675419E+02    0.10528E-04   -0.19730E-04   320   0.479E-02
  81 F= -.32980268E+02 E0= -.32980268E+02  d E =-.133996E-02  mag=     1.0000
 trial-energy change:   -0.001340  1 .order   -0.000899   -0.001901    0.000103
 step:  19.0351(harm= 18.4720)  dis= 0.00590  next Energy=   -32.980269 (dE=-0.134E-02)
 bond charge predicted
       N       E                     dE             d eps       ncg     rms          rms(c)
DAV:   1    -0.329802105947E+02    0.67475E-04   -0.13836E-03   540   0.860E-02    0.176E-02
DAV:   2    -0.329802177340E+02   -0.71392E-05   -0.16514E-05   328   0.149E-02
  82 F= -.32980218E+02 E0= -.32980218E+02  d E =-.129015E-02  mag=     1.0000
 curvature:  -8.25 expect dE=-0.382E-03 dE for cont linesearch -0.154E-03
 trial: gam= 0.00330 g(F)=  0.463E-04 g(S)=  0.000E+00 ort = 0.489E-04 (trialstep = 0.194E+02)
 search vector abs. value=  0.466E-04
 reached required accuracy - stopping structural energy minimisation
Application 90932089 resources: utime ~35280s, stime ~381s, Rss ~68872, inblocks ~83239, outblocks ~156700
