 vasp.5.3.5 31Mar14 (build Feb 01 2018 12:10:03) gamma-only                     
  
 executed on             LinuxIFC date 2019.04.03  00:03:01
 running on   32 total cores
 distrk:  each k-point on   32 cores,    1 groups
 distr:  one band on NCORES_PER_BAND=   8 cores,    4 groups


--------------------------------------------------------------------------------------------------------


 INCAR:
 POTCAR:    PAW_PBE Ag 02Apr2005                  
 POTCAR:    PAW_PBE Ag 02Apr2005                  
   VRHFIN =Ag : s1 d10                                                          
   LEXCH  = PE                                                                  
   EATOM  =  1037.2675 eV,   76.2370 Ry                                         
                                                                                
   TITEL  = PAW_PBE Ag 02Apr2005                                                
   LULTRA =        F    use ultrasoft PP ?                                      
   IUNSCR =        1    unscreen: 0-lin 1-nonlin 2-no                           
   RPACOR =    2.000    partial core radius                                     
   POMASS =  107.868; ZVAL   =   11.000    mass and valenz                      
   RCORE  =    2.500    outmost cutoff radius                                   
   RWIGS  =    2.840; RWIGS  =    1.503    wigner-seitz radius (au A)           
   ENMAX  =  249.844; ENMIN  =  187.383 eV                                      
   ICORE  =        3    local potential                                         
   LCOR   =        T    correct aug charges                                     
   LPAW   =        T    paw PP                                                  
   EAUG   =  412.496                                                            
   DEXC   =    0.000                                                            
   RMAX   =    2.560    core radius for proj-oper                               
   RAUG   =    1.300    factor for augmentation sphere                          
   RDEP   =    2.576    radius for radial grids                                 
   RDEPT  =    2.072    core radius for aug-charge                              
                                                                                
   Atomic configuration                                                         
   12 entries                                                                   
     n  l   j            E        occ.                                          
     1  0  0.50    -25324.9161   2.0000                                         
     2  0  0.50     -3728.5341   2.0000                                         
     2  1  1.50     -3344.0404   6.0000                                         
     3  0  0.50      -683.5581   2.0000                                         
     3  1  1.50      -557.3225   6.0000                                         
     3  2  2.50      -358.3853  10.0000                                         
     4  0  0.50       -95.0341   2.0000                                         
     4  1  1.50       -58.5511   6.0000                                         
     4  2  2.50        -7.4440  10.0000                                         
     5  0  0.50        -4.4045   1.0000                                         
     5  1  0.50        -1.3606   0.0000                                         
     4  3  2.50        -1.3606   0.0000                                         
   Description                                                                  
     l       E           TYP  RCUT    TYP  RCUT                                 
     2     -7.4439781     23  2.400                                             
     2     -8.8045607     23  2.400                                             
     0     -4.4044681     23  2.400                                             
     0      1.9520038     23  2.400                                             
     1     -1.3605826     23  2.500                                             
     1     27.2116520     23  2.500                                             
     3     -4.0817478     23  2.400                                             
  local pseudopotential read in
  partial core-charges read in
  partial kinetic energy density read in
  atomic valenz-charges read in
  non local Contribution for L=           2  read in
    real space projection operators read in
  non local Contribution for L=           2  read in
    real space projection operators read in
  non local Contribution for L=           0  read in
    real space projection operators read in
  non local Contribution for L=           0  read in
    real space projection operators read in
  non local Contribution for L=           1  read in
    real space projection operators read in
  non local Contribution for L=           1  read in
    real space projection operators read in
    PAW grid and wavefunctions read in
 
   number of l-projection  operators is LMAX  =           6
   number of lm-projection operators is LMMAX =          18
 
  PAW_PBE Ag 02Apr2005                  :
 energy of atom  1       EATOM=-1037.2675
 kinetic energy error for atom=    0.0047 (will be added to EATOM!!)
 
 
 POSCAR: Ag13, -906.0 <s> Ag </s>                
  positions in direct lattice
  velocities in cartesian coordinates
 exchange correlation table for  LEXCH =        8
   RHO(1)=    0.500       N(1)  =     2000
   RHO(2)=  100.500       N(2)  =     4000
 


--------------------------------------------------------------------------------------------------------


 ion  position               nearest neighbor table
   1  0.501  0.587  0.513-   2 2.76   5 2.77  11 2.78   8 2.79   3 2.81   6 2.85   4 2.93   9 3.03
                             7 3.18
   2  0.598  0.622  0.622-   1 2.76   4 2.78   5 2.88   6 2.90
   3  0.529  0.624  0.367-   9 2.75   1 2.81   5 2.81   8 2.91
   4  0.624  0.492  0.550-   9 2.78   7 2.78   2 2.78   5 2.81   6 2.84   1 2.93
   5  0.642  0.622  0.471-   1 2.77   4 2.81   3 2.81   2 2.88   9 2.99
   6  0.500  0.500  0.642-   4 2.84  11 2.84   7 2.85   1 2.85   2 2.90  13 2.90
   7  0.499  0.413  0.513-  13 2.76  10 2.77   4 2.78   9 2.79  12 2.81   6 2.85  11 2.93   8 3.03
                             1 3.18
   8  0.422  0.513  0.405-  12 2.75  11 2.78   1 2.79   9 2.88   3 2.91  10 2.99   7 3.03
   9  0.578  0.487  0.405-   3 2.75   4 2.78   7 2.79   8 2.88  12 2.91   5 2.99   1 3.03
  10  0.358  0.378  0.471-   7 2.77  11 2.81  12 2.81  13 2.88   8 2.99
  11  0.376  0.508  0.550-   8 2.78   1 2.78  13 2.78  10 2.81   6 2.84   7 2.93
  12  0.471  0.376  0.367-   8 2.75   7 2.81  10 2.81   9 2.91
  13  0.402  0.378  0.622-   7 2.76  11 2.78  10 2.88   6 2.90
 
  LATTYP: Found a simple cubic cell.
 ALAT       =    18.3174520000
  
  Lattice vectors:
  
 A1 = (  18.3174520000,   0.0000000000,   0.0000000000)
 A2 = (   0.0000000000,  18.3174520000,   0.0000000000)
 A3 = (   0.0000000000,   0.0000000000,  18.3174520000)


Analysis of symmetry for initial positions (statically):
=====================================================================
 Subroutine PRICEL returns:
 Original cell was already a primitive cell.
 

 Routine SETGRP: Setting up the symmetry group for a 
 simple cubic supercell.


 Subroutine GETGRP returns: Found  2 space group operations
 (whereof  2 operations were pure point group operations)
 out of a pool of 48 trial point group operations.


The static configuration has the point symmetry C_2 .


Analysis of symmetry for dynamics (positions and initial velocities):
=====================================================================
 Subroutine PRICEL returns:
 Original cell was already a primitive cell.
 

 Routine SETGRP: Setting up the symmetry group for a 
 simple cubic supercell.


 Subroutine GETGRP returns: Found  2 space group operations
 (whereof  2 operations were pure point group operations)
 out of a pool of 48 trial point group operations.


The dynamic configuration has the point symmetry C_2 .


Analysis of magnetic symmetry:
=====================================================================
 Subroutine PRICEL returns:
 Original cell was already a primitive cell.
 

 Subroutine MAGSYM returns: Found  2 space group operations
 (whereof  2 operations were pure point group operations)
 out of a pool of  2 trial space group operations
 (whereof  2 operations were pure point group operations)
 and found also     1 'primitive' translations


The magnetic configuration has the point symmetry C_2 .
 
 
 KPOINTS: Gamma-point only                        
  k-points in reciprocal lattice
Space group operators:
 irot       det(A)        alpha          n_x          n_y          n_z        tau_x        tau_y        tau_z
    1     1.000000     0.000000     1.000000     0.000000     0.000000     0.000000     0.000000     0.000000
    2     1.000000   180.000000     0.000000     0.000000     1.000000     0.000000     0.000000     0.000000


--------------------------------------------------------------------------------------------------------




 Dimension of arrays:
   k-points           NKPTS =      1   k-points in BZ     NKDIM =      1   number of bands    NBANDS=     92
   number of dos      NEDOS =    301   number of ions     NIONS =     13
   non local maximal  LDIM  =      6   non local SUM 2l+1 LMDIM =     18
   total plane-waves  NPLWV = ******
   max r-space proj   IRMAX =      1   max aug-charges    IRDMAX=  10276
   dimension x,y,z NGX =   108 NGY =  108 NGZ =  108
   dimension x,y,z NGXF=   216 NGYF=  216 NGZF=  216
   support grid    NGXF=   216 NGYF=  216 NGZF=  216
   ions per type =              13
 NGX,Y,Z   is equivalent  to a cutoff of   9.80,  9.80,  9.80 a.u.
 NGXF,Y,Z  is equivalent  to a cutoff of  19.60, 19.60, 19.60 a.u.


 I would recommend the setting:
   dimension x,y,z NGX =   102 NGY =  102 NGZ =  102
 SYSTEM =  unknown system                          
 POSCAR =  Ag13, -906.0 <s> Ag </s>                

 Startparameter for this run:
   NWRITE =      2    write-flag & timer
   PREC   = normal    normal or accurate (medium, high low for compatibility)
   ISTART =      0    job   : 0-new  1-cont  2-samecut
   ICHARG =      2    charge: 1-file 2-atom 10-const
   ISPIN  =      2    spin polarized calculation?
   LNONCOLLINEAR =      F non collinear calculations
   LSORBIT =      F    spin-orbit coupling
   INIWAV =      1    electr: 0-lowe 1-rand  2-diag
   LASPH  =      F    aspherical Exc in radial PAW
   METAGGA=      F    non-selfconsistent MetaGGA calc.

 Electronic Relaxation 1
   ENCUT  =  520.0 eV  38.22 Ry    6.18 a.u.  34.06 34.06 34.06*2*pi/ulx,y,z
   ENINI  =  520.0     initial cutoff
   ENAUG  =  412.5 eV  augmentation charge cutoff
   NELM   =     60;   NELMIN=  2; NELMDL= -5     # of ELM steps 
   EDIFF  = 0.5E-04   stopping-criterion for ELM
   LREAL  =      F    real-space projection
   NLSPLINE    = F    spline interpolate recip. space projectors
   LCOMPAT=      F    compatible to vasp.4.4
   GGA_COMPAT  = T    GGA compatible to vasp.4.4-vasp.4.6
   LMAXPAW     = -100 max onsite density
   LMAXMIX     =    2 max onsite mixed and CHGCAR
   VOSKOWN=      0    Vosko Wilk Nusair interpolation
   ROPT   =    0.00000
 Ionic relaxation
   EDIFFG = 0.5E-03   stopping-criterion for IOM
   NSW    =   1000    number of steps for IOM
   NBLOCK =      1;   KBLOCK =   1000    inner block; outer block 
   IBRION =      2    ionic relax: 0-MD 1-quasi-New 2-CG
   NFREE  =      1    steps in history (QN), initial steepest desc. (CG)
   ISIF   =      2    stress and relaxation
   IWAVPR =     11    prediction:  0-non 1-charg 2-wave 3-comb
   ISYM   =      2    0-nonsym 1-usesym 2-fastsym
   LCORR  =      T    Harris-Foulkes like correction to forces

   POTIM  = 0.1000    time-step for ionic-motion
   TEIN   =    0.0    initial temperature
   TEBEG  =    0.0;   TEEND  =   0.0 temperature during run
   SMASS  =  -3.00    Nose mass-parameter (am)
   estimated Nose-frequenzy (Omega)   =  0.10E-29 period in steps =****** mass=  -0.767E-26a.u.
   SCALEE = 1.0000    scale energy and forces
   NPACO  =    256;   APACO  = 16.0  distance and # of slots for P.C.
   PSTRESS=    0.0 pullay stress

  Mass of Ions in am
   POMASS = 107.87
  Ionic Valenz
   ZVAL   =  11.00
  Atomic Wigner-Seitz radii
   RWIGS  =  -1.00
  virtual crystal weights 
   VCA    =   1.00
   NELECT =     143.0000    total number of electrons
   NUPDOWN=      -1.0000    fix difference up-down

 DOS related values:
   EMIN   =  10.00;   EMAX   =-10.00  energy-range for DOS
   EFERMI =   0.00
   ISMEAR =     0;   SIGMA  =   0.00  broadening in eV -4-tet -1-fermi 0-gaus

 Electronic relaxation 2 (details)
   IALGO  =     38    algorithm
   LDIAG  =      T    sub-space diagonalisation (order eigenvalues)
   LSUBROT=      F    optimize rotation matrix (better conditioning)
   TURBO    =      0    0=normal 1=particle mesh
   IRESTART =      0    0=no restart 2=restart with 2 vectors
   NREBOOT  =      0    no. of reboots
   NMIN     =      0    reboot dimension
   EREF     =   0.00    reference energy to select bands
   IMIX   =      4    mixing-type and parameters
     AMIX     =   0.40;   BMIX     =  1.00
     AMIX_MAG =   1.60;   BMIX_MAG =  1.00
     AMIN     =   0.10
     WC   =   100.;   INIMIX=   1;  MIXPRE=   1;  MAXMIX= -45

 Intra band minimization:
   WEIMIN = 0.0010     energy-eigenvalue tresh-hold
   EBREAK =  0.14E-06  absolut break condition
   DEPER  =   0.30     relativ break condition  

   TIME   =   0.40     timestep for ELM

  volume/ion in A,a.u.               =     472.77      3190.42
  Fermi-wavevector in a.u.,A,eV,Ry     =   0.467364  0.883190  2.971906  0.218429
  Thomas-Fermi vector in A             =   1.457745
 
 Write flags
   LWAVE  =      F    write WAVECAR
   LCHARG =      F    write CHGCAR
   LVTOT  =      F    write LOCPOT, total local potential
   LVHAR  =      F    write LOCPOT, Hartree potential only
   LELF   =      F    write electronic localiz. function (ELF)
   LORBIT =      0    0 simple, 1 ext, 2 COOP (PROOUT)


 Dipole corrections
   LMONO  =      F    monopole corrections only (constant potential shift)
   LDIPOL =      F    correct potential (dipole corrections)
   IDIPOL =      0    1-x, 2-y, 3-z, 4-all directions 
   EPSILON=  1.0000000 bulk dielectric constant

 Exchange correlation treatment:
   GGA     =    PE    GGA type
   LEXCH   =     8    internal setting for exchange type
   VOSKOWN=      0    Vosko Wilk Nusair interpolation
   LHFCALC =     F    Hartree Fock is set to
   LHFONE  =     F    Hartree Fock one center treatment
   AEXX    =    0.0000 exact exchange contribution

 Linear response parameters
   LEPSILON=     F    determine dielectric tensor
   LRPA    =     F    only Hartree local field effects (RPA)
   LNABLA  =     F    use nabla operator in PAW spheres
   LVEL    =     F    velocity operator in full k-point grid
   LINTERFAST=   F  fast interpolation
   KINTER  =     0    interpolate to denser k-point grid
   CSHIFT  =0.1000    complex shift for real part using Kramers Kronig
   OMEGAMAX=  -1.0    maximum frequency
   DEG_THRESHOLD= 0.2000000E-02 threshold for treating states as degnerate
   RTIME   =    0.100 relaxation time in fs

 Orbital magnetization related:
   ORBITALMAG=     F  switch on orbital magnetization
   LCHIMAG   =     F  perturbation theory with respect to B field
   DQ        =  0.001000  dq finite difference perturbation B field



--------------------------------------------------------------------------------------------------------


 conjugate gradient relaxation of ions
 charge density and potential will be updated during run
 spin polarized calculation
 Variant of blocked Davidson
 Davidson routine will perform the subspace rotation
 perform sub-space diagonalisation
    after iterative eigenvector-optimisation
 modified Broyden-mixing scheme, WC =      100.0
 initial mixing is a Kerker type mixing with AMIX =  0.4000 and BMIX =      1.0000
 Hartree-type preconditioning will be used
 using additional bands           20
 reciprocal scheme for non local part
 use partial core corrections
 calculate Harris-corrections to forces 
   (improved forces if not selfconsistent)
 use gradient corrections 
 use of overlap-Matrix (Vanderbilt PP)
 Gauss-broadening in eV      SIGMA  =   0.00


--------------------------------------------------------------------------------------------------------


  energy-cutoff  :      520.00
  volume of cell :     6146.04
      direct lattice vectors                 reciprocal lattice vectors
    18.317452000  0.000000000  0.000000000     0.054592746  0.000000000  0.000000000
     0.000000000 18.317452000  0.000000000     0.000000000  0.054592746  0.000000000
     0.000000000  0.000000000 18.317452000     0.000000000  0.000000000  0.054592746

  length of vectors
    18.317452000 18.317452000 18.317452000     0.054592746  0.054592746  0.054592746


 
 k-points in units of 2pi/SCALE and weight: Gamma-point only                        
   0.00000000  0.00000000  0.00000000       1.000
 
 k-points in reciprocal lattice and weights: Gamma-point only                        
   0.00000000  0.00000000  0.00000000       1.000
 
 position of ions in fractional coordinates (direct lattice) 
   0.50076839  0.58677243  0.51301520
   0.59818301  0.62247644  0.62243122
   0.52939298  0.62391207  0.36710239
   0.62416321  0.49164757  0.54959351
   0.64190956  0.62215745  0.47134433
   0.50000000  0.50000000  0.64215993
   0.49923161  0.41322757  0.51301520
   0.42228874  0.51273785  0.40543338
   0.57771126  0.48726215  0.40543338
   0.35809044  0.37784255  0.47134433
   0.37583679  0.50835243  0.54959351
   0.47060702  0.37608793  0.36710239
   0.40181699  0.37752356  0.62243122
 
 position of ions in cartesian coordinates  (Angst):
   9.17280099 10.74817573  9.39713128
  10.95718864 11.40218232 11.40135406
   9.69713052 11.42847933  6.72438048
  11.43307960  9.00573069 10.06715277
  11.75814757 11.39633924  8.63382713
   9.15872600  9.15872600 11.76273369
   9.14465101  7.56927627  9.39713128
   7.73525372  9.39205089  7.42650643
  10.58219828  8.92540111  7.42650643
   6.55930443  6.92111276  8.63382713
   6.88437240  9.31172131 10.06715277
   8.62032148  6.88897267  6.72438048
   7.36026336  6.91526968 11.40135406
 


--------------------------------------------------------------------------------------------------------


 use parallel FFT for wavefunctions z direction half grid
 k-point  1 :   0.0000 0.0000 0.0000  plane waves:   82571

 maximum and minimum number of plane-waves per node :     10326    10318

 maximum number of plane-waves:     82571
 maximum index in each direction: 
   IXMAX=   34   IYMAX=   34   IZMAX=   34
   IXMIN=  -34   IYMIN=  -34   IZMIN=    0

 WARNING: aliasing errors must be expected set NGX to 138 to avoid them
 WARNING: aliasing errors must be expected set NGY to 138 to avoid them
 WARNING: aliasing errors must be expected set NGZ to 138 to avoid them
 aliasing errors are usually negligible using standard VASP settings
 and one can safely disregard these warnings

 parallel 3D FFT for wavefunctions:
    minimum data exchange during FFTs selected (reduces bandwidth)
 parallel 3D FFT for charge:
    minimum data exchange during FFTs selected (reduces bandwidth)


 total amount of memory used by VASP on root node    92564. kBytes
========================================================================

   base      :      30000. kBytes
   nonl-proj :       3634. kBytes
   fftplans  :      14492. kBytes
   grid      :      36796. kBytes
   one-center:         31. kBytes
   wavefun   :       7611. kBytes
 
     INWAV:  cpu time    0.00: real time    0.00
 Broyden mixing: mesh for mixing (old mesh)
   NGX = 69   NGY = 69   NGZ = 69
  (NGX  =216   NGY  =216   NGZ  =216)
  gives a total of 328509 points

 initial charge density was supplied:
 charge density of overlapping atoms calculated
 number of electron     143.0000000 magnetization      13.0000000
 keeping initial charge density in first step


--------------------------------------------------------------------------------------------------------


 Maximum index for augmentation-charges          544 (set IRDMAX)


--------------------------------------------------------------------------------------------------------


 First call to EWALD:  gamma=   0.097
 Maximum number of real-space cells 3x 3x 3
 Maximum number of reciprocal cells 3x 3x 3

 FEWALD executed in parallel
    FEWALD:  cpu time    0.00: real time    0.00


----------------------------------------- Iteration    1(   1)  ---------------------------------------


    POTLOK:  cpu time    0.72: real time    0.72
    SETDIJ:  cpu time    0.01: real time    0.01
     EDDAV:  cpu time    2.56: real time    2.56
       DOS:  cpu time    0.00: real time    0.00
    --------------------------------------------
      LOOP:  cpu time    3.30: real time    3.32

 eigenvalue-minimisations  :   368
 total energy-change (2. order) : 0.1286511E+04  (-0.3531570E+04)
 number of electron     143.0000000 magnetization      13.0000000
 augmentation part      143.0000000 magnetization      13.0000000

 Free energy of the ion-electron system (eV)
  ---------------------------------------------------
  alpha Z        PSCENC =        23.38867930
  Ewald energy   TEWEN  =     14995.57618372
  -Hartree energ DENC   =    -27910.95945422
  -exchange      EXHF   =         0.00000000
  -V(xc)+E(xc)   XCENC  =      -144.87756656
  PAW double counting   =     13043.83831491   -12444.43991543
  entropy T*S    EENTRO =        -0.00000000
  eigenvalues    EBANDS =       239.56886483
  atomic energy  EATOM  =     13484.41615895
  ---------------------------------------------------
  free energy    TOTEN  =      1286.51126550 eV

  energy without entropy =     1286.51126550  energy(sigma->0) =     1286.51126550


--------------------------------------------------------------------------------------------------------




----------------------------------------- Iteration    1(   2)  ---------------------------------------


     EDDAV:  cpu time    4.06: real time    4.06
       DOS:  cpu time    0.00: real time    0.00
    --------------------------------------------
      LOOP:  cpu time    4.06: real time    4.07

 eigenvalue-minimisations  :   664
 total energy-change (2. order) :-0.9700879E+03  (-0.8770431E+03)
 number of electron     143.0000000 magnetization      13.0000000
 augmentation part      143.0000000 magnetization      13.0000000

 Free energy of the ion-electron system (eV)
  ---------------------------------------------------
  alpha Z        PSCENC =        23.38867930
  Ewald energy   TEWEN  =     14995.57618372
  -Hartree energ DENC   =    -27910.95945422
  -exchange      EXHF   =         0.00000000
  -V(xc)+E(xc)   XCENC  =      -144.87756656
  PAW double counting   =     13043.83831491   -12444.43991543
  entropy T*S    EENTRO =         0.00000000
  eigenvalues    EBANDS =      -730.51902684
  atomic energy  EATOM  =     13484.41615895
  ---------------------------------------------------
  free energy    TOTEN  =       316.42337383 eV

  energy without entropy =      316.42337383  energy(sigma->0) =      316.42337383


--------------------------------------------------------------------------------------------------------




----------------------------------------- Iteration    1(   3)  ---------------------------------------


     EDDAV:  cpu time    3.22: real time    3.21
       DOS:  cpu time    0.00: real time    0.00
    --------------------------------------------
      LOOP:  cpu time    3.22: real time    3.85

 eigenvalue-minimisations  :   496
 total energy-change (2. order) :-0.3213631E+03  (-0.2982633E+03)
 number of electron     143.0000000 magnetization      13.0000000
 augmentation part      143.0000000 magnetization      13.0000000

 Free energy of the ion-electron system (eV)
  ---------------------------------------------------
  alpha Z        PSCENC =        23.38867930
  Ewald energy   TEWEN  =     14995.57618372
  -Hartree energ DENC   =    -27910.95945422
  -exchange      EXHF   =         0.00000000
  -V(xc)+E(xc)   XCENC  =      -144.87756656
  PAW double counting   =     13043.83831491   -12444.43991543
  entropy T*S    EENTRO =         0.00000000
  eigenvalues    EBANDS =     -1051.88207939
  atomic energy  EATOM  =     13484.41615895
  ---------------------------------------------------
  free energy    TOTEN  =        -4.93967871 eV

  energy without entropy =       -4.93967871  energy(sigma->0) =       -4.93967871


--------------------------------------------------------------------------------------------------------




----------------------------------------- Iteration    1(   4)  ---------------------------------------


     EDDAV:  cpu time    2.69: real time    2.69
       DOS:  cpu time    0.00: real time    0.00
    --------------------------------------------
      LOOP:  cpu time    2.69: real time    2.70

 eigenvalue-minimisations  :   392
 total energy-change (2. order) :-0.1933551E+02  (-0.1911891E+02)
 number of electron     143.0000000 magnetization      13.0000000
 augmentation part      143.0000000 magnetization      13.0000000

 Free energy of the ion-electron system (eV)
  ---------------------------------------------------
  alpha Z        PSCENC =        23.38867930
  Ewald energy   TEWEN  =     14995.57618372
  -Hartree energ DENC   =    -27910.95945422
  -exchange      EXHF   =         0.00000000
  -V(xc)+E(xc)   XCENC  =      -144.87756656
  PAW double counting   =     13043.83831491   -12444.43991543
  entropy T*S    EENTRO =         0.00000000
  eigenvalues    EBANDS =     -1071.21759254
  atomic energy  EATOM  =     13484.41615895
  ---------------------------------------------------
  free energy    TOTEN  =       -24.27519186 eV

  energy without entropy =      -24.27519186  energy(sigma->0) =      -24.27519186


--------------------------------------------------------------------------------------------------------




----------------------------------------- Iteration    1(   5)  ---------------------------------------


     EDDAV:  cpu time    2.86: real time    2.86
       DOS:  cpu time    0.00: real time    0.00
    CHARGE:  cpu time    0.47: real time    0.47
    MIXING:  cpu time    0.02: real time    0.02
    --------------------------------------------
      LOOP:  cpu time    3.35: real time    3.35

 eigenvalue-minimisations  :   424
 total energy-change (2. order) :-0.2779928E+00  (-0.2777856E+00)
 number of electron     142.9999963 magnetization      10.9787453
 augmentation part       67.6641316 magnetization      10.2727538

 Broyden mixing:
  rms(total) = 0.19875E+01    rms(broyden)= 0.19875E+01
  rms(prec ) = 0.20352E+01
  weight for this iteration     100.00

 Free energy of the ion-electron system (eV)
  ---------------------------------------------------
  alpha Z        PSCENC =        23.38867930
  Ewald energy   TEWEN  =     14995.57618372
  -Hartree energ DENC   =    -27910.95945422
  -exchange      EXHF   =         0.00000000
  -V(xc)+E(xc)   XCENC  =      -144.87756656
  PAW double counting   =     13043.83831491   -12444.43991543
  entropy T*S    EENTRO =         0.00000000
  eigenvalues    EBANDS =     -1071.49558538
  atomic energy  EATOM  =     13484.41615895
  ---------------------------------------------------
  free energy    TOTEN  =       -24.55318470 eV

  energy without entropy =      -24.55318470  energy(sigma->0) =      -24.55318470


--------------------------------------------------------------------------------------------------------




----------------------------------------- Iteration    1(   6)  ---------------------------------------


    POTLOK:  cpu time    0.71: real time    0.71
    SETDIJ:  cpu time    0.01: real time    0.01
     EDDAV:  cpu time    2.64: real time    2.64
       DOS:  cpu time    0.00: real time    0.00
    CHARGE:  cpu time    0.48: real time    0.48
    MIXING:  cpu time    0.02: real time    0.02
    --------------------------------------------
      LOOP:  cpu time    3.86: real time    3.86

 eigenvalue-minimisations  :   380
 total energy-change (2. order) : 0.1850042E+02  (-0.5174292E+01)
 number of electron     142.9999962 magnetization       9.7346891
 augmentation part       69.0007246 magnetization       5.7975086

 Broyden mixing:
  rms(total) = 0.99701E+00    rms(broyden)= 0.99701E+00
  rms(prec ) = 0.10185E+01
  weight for this iteration     100.00

 eigenvalues of (default mixing * dielectric matrix)
  average eigenvalue GAMMA=   0.8452
  0.8452

 Free energy of the ion-electron system (eV)
  ---------------------------------------------------
  alpha Z        PSCENC =        23.38867930
  Ewald energy   TEWEN  =     14995.57618372
  -Hartree energ DENC   =    -27872.07478079
  -exchange      EXHF   =         0.00000000
  -V(xc)+E(xc)   XCENC  =      -135.61086628
  PAW double counting   =     13433.84192419   -12842.52248555
  entropy T*S    EENTRO =         0.00000000
  eigenvalues    EBANDS =     -1093.06758150
  atomic energy  EATOM  =     13484.41615895
  ---------------------------------------------------
  free energy    TOTEN  =        -6.05276795 eV

  energy without entropy =       -6.05276795  energy(sigma->0) =       -6.05276795


--------------------------------------------------------------------------------------------------------




----------------------------------------- Iteration    1(   7)  ---------------------------------------


    POTLOK:  cpu time    0.71: real time    0.71
    SETDIJ:  cpu time    0.01: real time    0.01
     EDDAV:  cpu time    2.76: real time    2.76
       DOS:  cpu time    0.00: real time    0.00
    CHARGE:  cpu time    0.47: real time    0.47
    MIXING:  cpu time    0.02: real time    0.02
    --------------------------------------------
      LOOP:  cpu time    3.98: real time    3.98

 eigenvalue-minimisations  :   404
 total energy-change (2. order) : 0.2347634E+01  (-0.2803739E+00)
 number of electron     142.9999962 magnetization       7.5399661
 augmentation part       68.9370273 magnetization       5.7264035

 Broyden mixing:
  rms(total) = 0.63575E+00    rms(broyden)= 0.63575E+00
  rms(prec ) = 0.65413E+00
  weight for this iteration     100.00

 eigenvalues of (default mixing * dielectric matrix)
  average eigenvalue GAMMA=   0.9803
  0.7376  1.2230

 Free energy of the ion-electron system (eV)
  ---------------------------------------------------
  alpha Z        PSCENC =        23.38867930
  Ewald energy   TEWEN  =     14995.57618372
  -Hartree energ DENC   =    -27899.99316608
  -exchange      EXHF   =         0.00000000
  -V(xc)+E(xc)   XCENC  =      -133.31646061
  PAW double counting   =     13668.92461593   -13082.83270722
  entropy T*S    EENTRO =         0.00000000
  eigenvalues    EBANDS =     -1059.86843824
  atomic energy  EATOM  =     13484.41615895
  ---------------------------------------------------
  free energy    TOTEN  =        -3.70513425 eV

  energy without entropy =       -3.70513425  energy(sigma->0) =       -3.70513425


--------------------------------------------------------------------------------------------------------




----------------------------------------- Iteration    1(   8)  ---------------------------------------


    POTLOK:  cpu time    0.71: real time    0.71
    SETDIJ:  cpu time    0.01: real time    0.01
     EDDAV:  cpu time    2.75: real time    2.75
       DOS:  cpu time    0.00: real time    0.00
    CHARGE:  cpu time    0.47: real time    0.47
    MIXING:  cpu time    0.02: real time    0.02
    --------------------------------------------
      LOOP:  cpu time    3.96: real time    3.97

 eigenvalue-minimisations  :   400
 total energy-change (2. order) : 0.1535960E+00  (-0.1313065E+00)
 number of electron     142.9999962 magnetization       6.0660399
 augmentation part       68.8108510 magnetization       4.3919070

 Broyden mixing:
  rms(total) = 0.30729E+00    rms(broyden)= 0.30729E+00
  rms(prec ) = 0.31450E+00
  weight for this iteration     100.00

 eigenvalues of (default mixing * dielectric matrix)
  average eigenvalue GAMMA=   1.1480
  1.8995  0.9058  0.6385

 Free energy of the ion-electron system (eV)
  ---------------------------------------------------
  alpha Z        PSCENC =        23.38867930
  Ewald energy   TEWEN  =     14995.57618372
  -Hartree energ DENC   =    -27940.62861375
  -exchange      EXHF   =         0.00000000
  -V(xc)+E(xc)   XCENC  =      -132.59354727
  PAW double counting   =     13946.48206372   -13366.12676150
  entropy T*S    EENTRO =         0.00000000
  eigenvalues    EBANDS =     -1014.06570141
  atomic energy  EATOM  =     13484.41615895
  ---------------------------------------------------
  free energy    TOTEN  =        -3.55153823 eV

  energy without entropy =       -3.55153823  energy(sigma->0) =       -3.55153823


--------------------------------------------------------------------------------------------------------




----------------------------------------- Iteration    1(   9)  ---------------------------------------


    POTLOK:  cpu time    0.71: real time    0.71
    SETDIJ:  cpu time    0.01: real time    0.01
     EDDAV:  cpu time    2.64: real time    2.64
       DOS:  cpu time    0.00: real time    0.00
    CHARGE:  cpu time    0.47: real time    0.47
    MIXING:  cpu time    0.02: real time    0.02
    --------------------------------------------
      LOOP:  cpu time    3.86: real time    5.12

 eigenvalue-minimisations  :   380
 total energy-change (2. order) :-0.5886440E+01  (-0.2086759E+00)
 number of electron     142.9999962 magnetization       4.9958107
 augmentation part       68.7379103 magnetization       3.4638940

 Broyden mixing:
  rms(total) = 0.19242E+00    rms(broyden)= 0.19242E+00
  rms(prec ) = 0.19931E+00
  weight for this iteration     100.00

 eigenvalues of (default mixing * dielectric matrix)
  average eigenvalue GAMMA=   1.1799
  0.6358  0.7771  1.6534  1.6534

 Free energy of the ion-electron system (eV)
  ---------------------------------------------------
  alpha Z        PSCENC =        23.38867930
  Ewald energy   TEWEN  =     14995.57618372
  -Hartree energ DENC   =    -27954.88810703
  -exchange      EXHF   =         0.00000000
  -V(xc)+E(xc)   XCENC  =      -136.89396610
  PAW double counting   =     14046.38587552   -13467.95545920
  entropy T*S    EENTRO =         0.00000000
  eigenvalues    EBANDS =      -999.46734385
  atomic energy  EATOM  =     13484.41615895
  ---------------------------------------------------
  free energy    TOTEN  =        -9.43797868 eV

  energy without entropy =       -9.43797868  energy(sigma->0) =       -9.43797868


--------------------------------------------------------------------------------------------------------




----------------------------------------- Iteration    1(  10)  ---------------------------------------


    POTLOK:  cpu time    0.71: real time    0.71
    SETDIJ:  cpu time    0.01: real time    0.01
     EDDAV:  cpu time    2.58: real time    2.58
       DOS:  cpu time    0.00: real time    0.00
    CHARGE:  cpu time    0.47: real time    0.47
    MIXING:  cpu time    0.02: real time    0.02
    --------------------------------------------
      LOOP:  cpu time    3.80: real time    3.86

 eigenvalue-minimisations  :   368
 total energy-change (2. order) :-0.5513309E+01  (-0.2311820E+00)
 number of electron     142.9999962 magnetization       3.4653412
 augmentation part       68.7654956 magnetization       2.1031550

 Broyden mixing:
  rms(total) = 0.13869E+00    rms(broyden)= 0.13869E+00
  rms(prec ) = 0.14262E+00
  weight for this iteration     100.00

 eigenvalues of (default mixing * dielectric matrix)
  average eigenvalue GAMMA=   1.3137
  2.1972  2.1972  0.8107  0.7026  0.6611

 Free energy of the ion-electron system (eV)
  ---------------------------------------------------
  alpha Z        PSCENC =        23.38867930
  Ewald energy   TEWEN  =     14995.57618372
  -Hartree energ DENC   =    -27949.97694932
  -exchange      EXHF   =         0.00000000
  -V(xc)+E(xc)   XCENC  =      -141.09544686
  PAW double counting   =     14035.48516837   -13456.85282876
  entropy T*S    EENTRO =         0.00000000
  eigenvalues    EBANDS =     -1005.89225338
  atomic energy  EATOM  =     13484.41615895
  ---------------------------------------------------
  free energy    TOTEN  =       -14.95128798 eV

  energy without entropy =      -14.95128798  energy(sigma->0) =      -14.95128798


--------------------------------------------------------------------------------------------------------




----------------------------------------- Iteration    1(  11)  ---------------------------------------


    POTLOK:  cpu time    0.71: real time    0.71
    SETDIJ:  cpu time    0.01: real time    0.01
     EDDAV:  cpu time    2.64: real time    2.63
       DOS:  cpu time    0.00: real time    0.00
    CHARGE:  cpu time    0.47: real time    0.47
    MIXING:  cpu time    0.02: real time    0.02
    --------------------------------------------
      LOOP:  cpu time    3.85: real time    3.89

 eigenvalue-minimisations  :   376
 total energy-change (2. order) :-0.4745430E+01  (-0.2395051E+00)
 number of electron     142.9999962 magnetization       2.7145802
 augmentation part       68.7995902 magnetization       1.5222060

 Broyden mixing:
  rms(total) = 0.89708E-01    rms(broyden)= 0.89708E-01
  rms(prec ) = 0.93416E-01
  weight for this iteration     100.00

 eigenvalues of (default mixing * dielectric matrix)
  average eigenvalue GAMMA=   1.3244
  2.8971  1.3537  1.3537  0.9978  0.6365  0.7075

 Free energy of the ion-electron system (eV)
  ---------------------------------------------------
  alpha Z        PSCENC =        23.38867930
  Ewald energy   TEWEN  =     14995.57618372
  -Hartree energ DENC   =    -27946.13139749
  -exchange      EXHF   =         0.00000000
  -V(xc)+E(xc)   XCENC  =      -144.80392706
  PAW double counting   =     14031.41282870   -13452.96856731
  entropy T*S    EENTRO =         0.00000000
  eigenvalues    EBANDS =     -1010.58667715
  atomic energy  EATOM  =     13484.41615895
  ---------------------------------------------------
  free energy    TOTEN  =       -19.69671833 eV

  energy without entropy =      -19.69671833  energy(sigma->0) =      -19.69671833


--------------------------------------------------------------------------------------------------------




----------------------------------------- Iteration    1(  12)  ---------------------------------------


    POTLOK:  cpu time    0.71: real time    0.71
    SETDIJ:  cpu time    0.01: real time    0.01
     EDDAV:  cpu time    2.71: real time    2.71
       DOS:  cpu time    0.00: real time    0.00
    CHARGE:  cpu time    0.47: real time    0.47
    MIXING:  cpu time    0.02: real time    0.02
    --------------------------------------------
      LOOP:  cpu time    3.93: real time    4.55

 eigenvalue-minimisations  :   392
 total energy-change (2. order) :-0.1675759E+01  (-0.5859278E-01)
 number of electron     142.9999962 magnetization       1.8880622
 augmentation part       68.7742440 magnetization       0.7602231

 Broyden mixing:
  rms(total) = 0.66946E-01    rms(broyden)= 0.66946E-01
  rms(prec ) = 0.73749E-01
  weight for this iteration     100.00

 eigenvalues of (default mixing * dielectric matrix)
  average eigenvalue GAMMA=   1.4776
  2.9461  2.8129  1.2643  1.2643  0.7843  0.6664  0.6051

 Free energy of the ion-electron system (eV)
  ---------------------------------------------------
  alpha Z        PSCENC =        23.38867930
  Ewald energy   TEWEN  =     14995.57618372
  -Hartree energ DENC   =    -27944.18872076
  -exchange      EXHF   =         0.00000000
  -V(xc)+E(xc)   XCENC  =      -146.11441916
  PAW double counting   =     14021.11526105   -13442.77241624
  entropy T*S    EENTRO =         0.00000000
  eigenvalues    EBANDS =     -1012.79320438
  atomic energy  EATOM  =     13484.41615895
  ---------------------------------------------------
  free energy    TOTEN  =       -21.37247752 eV

  energy without entropy =      -21.37247752  energy(sigma->0) =      -21.37247752


--------------------------------------------------------------------------------------------------------




----------------------------------------- Iteration    1(  13)  ---------------------------------------


    POTLOK:  cpu time    0.71: real time    0.71
    SETDIJ:  cpu time    0.01: real time    0.01
     EDDAV:  cpu time    2.64: real time    2.64
       DOS:  cpu time    0.00: real time    0.00
    CHARGE:  cpu time    0.47: real time    0.47
    MIXING:  cpu time    0.02: real time    0.02
    --------------------------------------------
      LOOP:  cpu time    3.86: real time    4.28

 eigenvalue-minimisations  :   376
 total energy-change (2. order) :-0.1700137E+01  (-0.6527425E-01)
 number of electron     142.9999962 magnetization       1.4472305
 augmentation part       68.8195282 magnetization       0.3706061

 Broyden mixing:
  rms(total) = 0.34110E-01    rms(broyden)= 0.34110E-01
  rms(prec ) = 0.37405E-01
  weight for this iteration     100.00

 eigenvalues of (default mixing * dielectric matrix)
  average eigenvalue GAMMA=   1.5547
  4.0651  2.4619  1.9237  1.0929  0.8638  0.7947  0.6419  0.5932

 Free energy of the ion-electron system (eV)
  ---------------------------------------------------
  alpha Z        PSCENC =        23.38867930
  Ewald energy   TEWEN  =     14995.57618372
  -Hartree energ DENC   =    -27930.52266494
  -exchange      EXHF   =         0.00000000
  -V(xc)+E(xc)   XCENC  =      -147.73935284
  PAW double counting   =     13961.35714617   -13382.30519265
  entropy T*S    EENTRO =         0.00000000
  eigenvalues    EBANDS =     -1027.24357267
  atomic energy  EATOM  =     13484.41615895
  ---------------------------------------------------
  free energy    TOTEN  =       -23.07261495 eV

  energy without entropy =      -23.07261495  energy(sigma->0) =      -23.07261495


--------------------------------------------------------------------------------------------------------




----------------------------------------- Iteration    1(  14)  ---------------------------------------


    POTLOK:  cpu time    0.71: real time    0.72
    SETDIJ:  cpu time    0.01: real time    0.01
     EDDAV:  cpu time    2.80: real time    2.80
       DOS:  cpu time    0.00: real time    0.00
    CHARGE:  cpu time    0.47: real time    0.47
    MIXING:  cpu time    0.02: real time    0.02
    --------------------------------------------
      LOOP:  cpu time    4.02: real time    4.03

 eigenvalue-minimisations  :   408
 total energy-change (2. order) :-0.6065284E+00  (-0.1025710E-01)
 number of electron     142.9999962 magnetization       1.2758230
 augmentation part       68.8204581 magnetization       0.2206071

 Broyden mixing:
  rms(total) = 0.16591E-01    rms(broyden)= 0.16591E-01
  rms(prec ) = 0.20335E-01
  weight for this iteration     100.00

 eigenvalues of (default mixing * dielectric matrix)
  average eigenvalue GAMMA=   1.5589
  4.4994  2.5949  2.0221  1.2104  0.9225  0.7885  0.7606  0.6392  0.5924

 Free energy of the ion-electron system (eV)
  ---------------------------------------------------
  alpha Z        PSCENC =        23.38867930
  Ewald energy   TEWEN  =     14995.57618372
  -Hartree energ DENC   =    -27925.27598934
  -exchange      EXHF   =         0.00000000
  -V(xc)+E(xc)   XCENC  =      -148.36174165
  PAW double counting   =     13952.84896875   -13373.76282021
  entropy T*S    EENTRO =         0.00000000
  eigenvalues    EBANDS =     -1032.50858287
  atomic energy  EATOM  =     13484.41615895
  ---------------------------------------------------
  free energy    TOTEN  =       -23.67914335 eV

  energy without entropy =      -23.67914335  energy(sigma->0) =      -23.67914335


--------------------------------------------------------------------------------------------------------




----------------------------------------- Iteration    1(  15)  ---------------------------------------


    POTLOK:  cpu time    0.71: real time    0.71
    SETDIJ:  cpu time    0.01: real time    0.01
     EDDAV:  cpu time    2.64: real time    2.64
       DOS:  cpu time    0.00: real time    0.00
    CHARGE:  cpu time    0.47: real time    0.47
    MIXING:  cpu time    0.02: real time    0.02
    --------------------------------------------
      LOOP:  cpu time    3.86: real time    3.89

 eigenvalue-minimisations  :   376
 total energy-change (2. order) :-0.3093512E+00  (-0.1854442E-02)
 number of electron     142.9999962 magnetization       1.1194526
 augmentation part       68.8189807 magnetization       0.0699396

 Broyden mixing:
  rms(total) = 0.10412E-01    rms(broyden)= 0.10412E-01
  rms(prec ) = 0.13567E-01
  weight for this iteration     100.00

 eigenvalues of (default mixing * dielectric matrix)
  average eigenvalue GAMMA=   1.6382
  4.9009  2.9814  1.9117  1.9117  0.9760  0.9760  0.7928  0.6877  0.6506  0.5929

 Free energy of the ion-electron system (eV)
  ---------------------------------------------------
  alpha Z        PSCENC =        23.38867930
  Ewald energy   TEWEN  =     14995.57618372
  -Hartree energ DENC   =    -27921.83383364
  -exchange      EXHF   =         0.00000000
  -V(xc)+E(xc)   XCENC  =      -148.69638324
  PAW double counting   =     13955.94890796   -13376.84181418
  entropy T*S    EENTRO =         0.00000000
  eigenvalues    EBANDS =     -1035.94639346
  atomic energy  EATOM  =     13484.41615895
  ---------------------------------------------------
  free energy    TOTEN  =       -23.98849459 eV

  energy without entropy =      -23.98849459  energy(sigma->0) =      -23.98849459


--------------------------------------------------------------------------------------------------------




----------------------------------------- Iteration    1(  16)  ---------------------------------------


    POTLOK:  cpu time    0.71: real time    0.71
    SETDIJ:  cpu time    0.01: real time    0.01
     EDDAV:  cpu time    2.66: real time    2.66
       DOS:  cpu time    0.00: real time    0.00
    CHARGE:  cpu time    0.47: real time    0.47
    MIXING:  cpu time    0.02: real time    0.03
    --------------------------------------------
      LOOP:  cpu time    3.89: real time    3.89

 eigenvalue-minimisations  :   380
 total energy-change (2. order) :-0.1898431E+00  (-0.1170468E-02)
 number of electron     142.9999962 magnetization       1.0403339
 augmentation part       68.8235306 magnetization      -0.0056924

 Broyden mixing:
  rms(total) = 0.44360E-02    rms(broyden)= 0.44360E-02
  rms(prec ) = 0.67812E-02
  weight for this iteration     100.00

 eigenvalues of (default mixing * dielectric matrix)
  average eigenvalue GAMMA=   1.6927
  5.4112  3.1248  2.2168  2.2168  1.1143  0.9377  0.9377  0.7438  0.6803  0.5964
  0.6396

 Free energy of the ion-electron system (eV)
  ---------------------------------------------------
  alpha Z        PSCENC =        23.38867930
  Ewald energy   TEWEN  =     14995.57618372
  -Hartree energ DENC   =    -27917.65885607
  -exchange      EXHF   =         0.00000000
  -V(xc)+E(xc)   XCENC  =      -148.93240171
  PAW double counting   =     13959.26201929   -13380.11775030
  entropy T*S    EENTRO =         0.00000000
  eigenvalues    EBANDS =     -1040.11237085
  atomic energy  EATOM  =     13484.41615895
  ---------------------------------------------------
  free energy    TOTEN  =       -24.17833768 eV

  energy without entropy =      -24.17833768  energy(sigma->0) =      -24.17833768


--------------------------------------------------------------------------------------------------------




----------------------------------------- Iteration    1(  17)  ---------------------------------------


    POTLOK:  cpu time    0.71: real time    0.71
    SETDIJ:  cpu time    0.01: real time    0.01
     EDDAV:  cpu time    2.70: real time    2.71
       DOS:  cpu time    0.00: real time    0.00
    CHARGE:  cpu time    0.47: real time    0.47
    MIXING:  cpu time    0.03: real time    0.03
    --------------------------------------------
      LOOP:  cpu time    3.93: real time    4.02

 eigenvalue-minimisations  :   388
 total energy-change (2. order) :-0.3420244E-01  (-0.3364246E-03)
 number of electron     142.9999962 magnetization       1.0208658
 augmentation part       68.8258874 magnetization      -0.0225495

 Broyden mixing:
  rms(total) = 0.25486E-02    rms(broyden)= 0.25486E-02
  rms(prec ) = 0.43501E-02
  weight for this iteration     100.00

 eigenvalues of (default mixing * dielectric matrix)
  average eigenvalue GAMMA=   1.6711
  5.5765  3.0679  2.7121  2.0415  1.1725  1.1725  0.8436  0.7921  0.7921  0.5938
  0.6444  0.6444

 Free energy of the ion-electron system (eV)
  ---------------------------------------------------
  alpha Z        PSCENC =        23.38867930
  Ewald energy   TEWEN  =     14995.57618372
  -Hartree energ DENC   =    -27915.41393880
  -exchange      EXHF   =         0.00000000
  -V(xc)+E(xc)   XCENC  =      -148.98895207
  PAW double counting   =     13961.30725284   -13382.16454100
  entropy T*S    EENTRO =         0.00000000
  eigenvalues    EBANDS =     -1042.33338308
  atomic energy  EATOM  =     13484.41615895
  ---------------------------------------------------
  free energy    TOTEN  =       -24.21254012 eV

  energy without entropy =      -24.21254012  energy(sigma->0) =      -24.21254012


--------------------------------------------------------------------------------------------------------




----------------------------------------- Iteration    1(  18)  ---------------------------------------


    POTLOK:  cpu time    0.71: real time    0.71
    SETDIJ:  cpu time    0.01: real time    0.01
     EDDAV:  cpu time    2.26: real time    2.26
       DOS:  cpu time    0.00: real time    0.00
    CHARGE:  cpu time    0.47: real time    0.47
    MIXING:  cpu time    0.03: real time    0.03
    --------------------------------------------
      LOOP:  cpu time    3.48: real time    3.54

 eigenvalue-minimisations  :   300
 total energy-change (2. order) :-0.5299193E-02  (-0.1035447E-03)
 number of electron     142.9999962 magnetization       1.0070528
 augmentation part       68.8247959 magnetization      -0.0357271

 Broyden mixing:
  rms(total) = 0.16869E-02    rms(broyden)= 0.16869E-02
  rms(prec ) = 0.31397E-02
  weight for this iteration     100.00

 eigenvalues of (default mixing * dielectric matrix)
  average eigenvalue GAMMA=   1.7185
  5.5678  3.6388  2.7596  2.0824  1.9254  1.1060  0.9400  0.9400  0.7586  0.7586
  0.5954  0.6343  0.6343

 Free energy of the ion-electron system (eV)
  ---------------------------------------------------
  alpha Z        PSCENC =        23.38867930
  Ewald energy   TEWEN  =     14995.57618372
  -Hartree energ DENC   =    -27914.34344418
  -exchange      EXHF   =         0.00000000
  -V(xc)+E(xc)   XCENC  =      -148.99893386
  PAW double counting   =     13962.48726170   -13383.35841692
  entropy T*S    EENTRO =         0.00000000
  eigenvalues    EBANDS =     -1043.38532803
  atomic energy  EATOM  =     13484.41615895
  ---------------------------------------------------
  free energy    TOTEN  =       -24.21783932 eV

  energy without entropy =      -24.21783932  energy(sigma->0) =      -24.21783932


--------------------------------------------------------------------------------------------------------




----------------------------------------- Iteration    1(  19)  ---------------------------------------


    POTLOK:  cpu time    0.71: real time    0.71
    SETDIJ:  cpu time    0.01: real time    0.01
     EDDAV:  cpu time    2.38: real time    2.39
       DOS:  cpu time    0.00: real time    0.00
    CHARGE:  cpu time    0.47: real time    0.47
    MIXING:  cpu time    0.03: real time    0.03
    --------------------------------------------
      LOOP:  cpu time    3.61: real time    3.72

 eigenvalue-minimisations  :   324
 total energy-change (2. order) :-0.4756182E-02  (-0.1019453E-03)
 number of electron     142.9999962 magnetization       0.9998025
 augmentation part       68.8254809 magnetization      -0.0427419

 Broyden mixing:
  rms(total) = 0.95276E-03    rms(broyden)= 0.95276E-03
  rms(prec ) = 0.18997E-02
  weight for this iteration     100.00

 eigenvalues of (default mixing * dielectric matrix)
  average eigenvalue GAMMA=   1.7362
  5.6416  4.0883  2.7936  2.4482  1.9592  1.2199  0.9369  0.9369  0.9158  0.7809
  0.5961  0.6213  0.6474  0.7203

 Free energy of the ion-electron system (eV)
  ---------------------------------------------------
  alpha Z        PSCENC =        23.38867930
  Ewald energy   TEWEN  =     14995.57618372
  -Hartree energ DENC   =    -27912.88754695
  -exchange      EXHF   =         0.00000000
  -V(xc)+E(xc)   XCENC  =      -149.01364470
  PAW double counting   =     13962.24773908   -13383.11544284
  entropy T*S    EENTRO =         0.00000000
  eigenvalues    EBANDS =     -1044.83472205
  atomic energy  EATOM  =     13484.41615895
  ---------------------------------------------------
  free energy    TOTEN  =       -24.22259550 eV

  energy without entropy =      -24.22259550  energy(sigma->0) =      -24.22259550


--------------------------------------------------------------------------------------------------------




----------------------------------------- Iteration    1(  20)  ---------------------------------------


    POTLOK:  cpu time    0.71: real time    0.71
    SETDIJ:  cpu time    0.01: real time    0.01
     EDDAV:  cpu time    2.08: real time    2.09
       DOS:  cpu time    0.00: real time    0.00
    CHARGE:  cpu time    0.47: real time    0.47
    MIXING:  cpu time    0.04: real time    0.03
    --------------------------------------------
      LOOP:  cpu time    3.31: real time    3.33

 eigenvalue-minimisations  :   264
 total energy-change (2. order) :-0.1883850E-02  (-0.2126600E-04)
 number of electron     142.9999962 magnetization       1.0002118
 augmentation part       68.8266751 magnetization      -0.0419365

 Broyden mixing:
  rms(total) = 0.68664E-03    rms(broyden)= 0.68663E-03
  rms(prec ) = 0.12059E-02
  weight for this iteration     100.00

 eigenvalues of (default mixing * dielectric matrix)
  average eigenvalue GAMMA=   1.7495
  5.7551  4.5730  3.0206  2.2475  2.2475  1.3535  1.0426  1.0426  0.8163  0.8163
  0.7842  0.5941  0.6261  0.6556  0.6678

 Free energy of the ion-electron system (eV)
  ---------------------------------------------------
  alpha Z        PSCENC =        23.38867930
  Ewald energy   TEWEN  =     14995.57618372
  -Hartree energ DENC   =    -27911.98565475
  -exchange      EXHF   =         0.00000000
  -V(xc)+E(xc)   XCENC  =      -149.02299561
  PAW double counting   =     13961.59997976   -13382.46201346
  entropy T*S    EENTRO =         0.00000000
  eigenvalues    EBANDS =     -1045.73481726
  atomic energy  EATOM  =     13484.41615895
  ---------------------------------------------------
  free energy    TOTEN  =       -24.22447935 eV

  energy without entropy =      -24.22447935  energy(sigma->0) =      -24.22447935


--------------------------------------------------------------------------------------------------------




----------------------------------------- Iteration    1(  21)  ---------------------------------------


    POTLOK:  cpu time    0.71: real time    0.71
    SETDIJ:  cpu time    0.01: real time    0.01
     EDDAV:  cpu time    2.13: real time    2.13
       DOS:  cpu time    0.00: real time    0.00
    CHARGE:  cpu time    0.47: real time    0.47
    MIXING:  cpu time    0.04: real time    0.04
    --------------------------------------------
      LOOP:  cpu time    3.36: real time    4.62

 eigenvalue-minimisations  :   272
 total energy-change (2. order) :-0.5054093E-03  (-0.6670898E-05)
 number of electron     142.9999962 magnetization       1.0005573
 augmentation part       68.8265275 magnetization      -0.0415534

 Broyden mixing:
  rms(total) = 0.47600E-03    rms(broyden)= 0.47600E-03
  rms(prec ) = 0.84154E-03
  weight for this iteration     100.00

 eigenvalues of (default mixing * dielectric matrix)
  average eigenvalue GAMMA=   1.7858
  5.7968  5.3015  2.9294  2.4160  2.4160  1.5841  1.2307  1.0788  0.8746  0.8746
  0.7812  0.7812  0.5954  0.6441  0.6441  0.6241

 Free energy of the ion-electron system (eV)
  ---------------------------------------------------
  alpha Z        PSCENC =        23.38867930
  Ewald energy   TEWEN  =     14995.57618372
  -Hartree energ DENC   =    -27911.60127588
  -exchange      EXHF   =         0.00000000
  -V(xc)+E(xc)   XCENC  =      -149.02564547
  PAW double counting   =     13961.71853578   -13382.58336477
  entropy T*S    EENTRO =         0.00000000
  eigenvalues    EBANDS =     -1046.11425638
  atomic energy  EATOM  =     13484.41615895
  ---------------------------------------------------
  free energy    TOTEN  =       -24.22498476 eV

  energy without entropy =      -24.22498476  energy(sigma->0) =      -24.22498476


--------------------------------------------------------------------------------------------------------




----------------------------------------- Iteration    1(  22)  ---------------------------------------


    POTLOK:  cpu time    0.71: real time    0.71
    SETDIJ:  cpu time    0.01: real time    0.01
     EDDAV:  cpu time    2.04: real time    2.05
       DOS:  cpu time    0.00: real time    0.00
    CHARGE:  cpu time    0.47: real time    0.47
    MIXING:  cpu time    0.04: real time    0.04
    --------------------------------------------
      LOOP:  cpu time    3.28: real time    3.35

 eigenvalue-minimisations  :   256
 total energy-change (2. order) :-0.6261229E-04  (-0.2507097E-05)
 number of electron     142.9999962 magnetization       1.0003314
 augmentation part       68.8269275 magnetization      -0.0417643

 Broyden mixing:
  rms(total) = 0.26785E-03    rms(broyden)= 0.26785E-03
  rms(prec ) = 0.52707E-03
  weight for this iteration     100.00

 eigenvalues of (default mixing * dielectric matrix)
  average eigenvalue GAMMA=   1.8328
  5.9089  5.9089  2.9083  2.9083  2.3341  2.0008  1.2282  1.2282  0.9792  0.8603
  0.8603  0.7673  0.7673  0.5951  0.6390  0.6390  0.6249

 Free energy of the ion-electron system (eV)
  ---------------------------------------------------
  alpha Z        PSCENC =        23.38867930
  Ewald energy   TEWEN  =     14995.57618372
  -Hartree energ DENC   =    -27911.28199508
  -exchange      EXHF   =         0.00000000
  -V(xc)+E(xc)   XCENC  =      -149.02830522
  PAW double counting   =     13961.76368819   -13382.62621035
  entropy T*S    EENTRO =         0.00000000
  eigenvalues    EBANDS =     -1046.43324689
  atomic energy  EATOM  =     13484.41615895
  ---------------------------------------------------
  free energy    TOTEN  =       -24.22504737 eV

  energy without entropy =      -24.22504737  energy(sigma->0) =      -24.22504737


--------------------------------------------------------------------------------------------------------




----------------------------------------- Iteration    1(  23)  ---------------------------------------


    POTLOK:  cpu time    0.71: real time    0.71
    SETDIJ:  cpu time    0.01: real time    0.01
     EDDAV:  cpu time    2.01: real time    2.01
       DOS:  cpu time    0.00: real time    0.00
    --------------------------------------------
      LOOP:  cpu time    2.73: real time    4.69

 eigenvalue-minimisations  :   248
 total energy-change (2. order) :-0.3749405E-04  (-0.1818195E-05)
 number of electron     142.9999962 magnetization       1.0003314
 augmentation part       68.8269275 magnetization      -0.0417643

 Free energy of the ion-electron system (eV)
  ---------------------------------------------------
  alpha Z        PSCENC =        23.38867930
  Ewald energy   TEWEN  =     14995.57618372
  -Hartree energ DENC   =    -27911.04404156
  -exchange      EXHF   =         0.00000000
  -V(xc)+E(xc)   XCENC  =      -149.02999517
  PAW double counting   =     13961.87014301   -13382.73147740
  entropy T*S    EENTRO =         0.00000000
  eigenvalues    EBANDS =     -1046.67073571
  atomic energy  EATOM  =     13484.41615895
  ---------------------------------------------------
  free energy    TOTEN  =       -24.22508486 eV

  energy without entropy =      -24.22508486  energy(sigma->0) =      -24.22508486


--------------------------------------------------------------------------------------------------------




 average (electrostatic) potential at core
  the test charge radii are     1.1249
  (the norm of the test charge is              1.0000)
       1 -82.4579       2 -82.0940       3 -82.1851       4 -82.3254       5 -82.1336
       6 -82.2789       7 -82.4579       8 -82.3607       9 -82.3607      10 -82.1336
      11 -82.3254      12 -82.1851      13 -82.0940
 
 
 
 E-fermi :  -3.5410     XC(G=0):  -0.8777     alpha+bet : -0.4855


 spin component 1

 k-point     1 :       0.0000    0.0000    0.0000
  band No.  band energies     occupation 
      1      -9.1981      1.00000
      2      -9.0380      1.00000
      3      -8.9212      1.00000
      4      -8.8889      1.00000
      5      -8.8400      1.00000
      6      -8.8380      1.00000
      7      -8.8255      1.00000
      8      -8.7850      1.00000
      9      -8.7563      1.00000
     10      -8.5237      1.00000
     11      -8.5079      1.00000
     12      -8.3826      1.00000
     13      -8.3748      1.00000
     14      -8.3446      1.00000
     15      -8.3370      1.00000
     16      -8.2047      1.00000
     17      -8.1317      1.00000
     18      -8.1243      1.00000
     19      -8.1095      1.00000
     20      -8.0274      1.00000
     21      -7.9780      1.00000
     22      -7.9645      1.00000
     23      -7.8712      1.00000
     24      -7.8035      1.00000
     25      -7.7981      1.00000
     26      -7.7098      1.00000
     27      -7.7031      1.00000
     28      -7.6597      1.00000
     29      -7.6222      1.00000
     30      -7.5606      1.00000
     31      -7.3858      1.00000
     32      -7.3441      1.00000
     33      -7.2787      1.00000
     34      -7.2686      1.00000
     35      -7.2610      1.00000
     36      -7.2214      1.00000
     37      -7.2148      1.00000
     38      -7.1614      1.00000
     39      -7.1291      1.00000
     40      -7.1088      1.00000
     41      -7.0768      1.00000
     42      -7.0341      1.00000
     43      -7.0282      1.00000
     44      -7.0105      1.00000
     45      -7.0057      1.00000
     46      -6.9843      1.00000
     47      -6.9451      1.00000
     48      -6.9410      1.00000
     49      -6.9388      1.00000
     50      -6.8900      1.00000
     51      -6.8415      1.00000
     52      -6.8353      1.00000
     53      -6.8023      1.00000
     54      -6.7839      1.00000
     55      -6.7198      1.00000
     56      -6.7008      1.00000
     57      -6.6622      1.00000
     58      -6.6503      1.00000
     59      -6.6111      1.00000
     60      -6.6085      1.00000
     61      -6.5529      1.00000
     62      -6.4917      1.00000
     63      -6.4655      1.00000
     64      -6.4301      1.00000
     65      -6.4232      1.00000
     66      -6.4023      1.00000
     67      -6.1832      1.00000
     68      -5.7657      1.00000
     69      -4.8282      1.00000
     70      -4.2964      1.00000
     71      -4.2319      1.00000
     72      -3.5655      1.00000
     73      -2.8902      0.00000
     74      -2.8877      0.00000
     75      -2.2924      0.00000
     76      -2.1281      0.00000
     77      -1.9976      0.00000
     78      -1.9575      0.00000
     79      -1.3338      0.00000
     80      -1.1281      0.00000
     81      -0.8870      0.00000
     82      -0.7964      0.00000
     83      -0.5286      0.00000
     84      -0.4115      0.00000
     85      -0.3844      0.00000
     86      -0.2233      0.00000
     87      -0.1349      0.00000
     88       0.0969      0.00000
     89       0.3875      0.00000
     90       0.5624      0.00000
     91       0.6089      0.00000
     92       0.6438      0.00000

 spin component 2

 k-point     1 :       0.0000    0.0000    0.0000
  band No.  band energies     occupation 
      1      -9.1678      1.00000
      2      -9.0250      1.00000
      3      -8.9070      1.00000
      4      -8.8720      1.00000
      5      -8.8192      1.00000
      6      -8.8177      1.00000
      7      -8.8043      1.00000
      8      -8.7580      1.00000
      9      -8.7409      1.00000
     10      -8.4949      1.00000
     11      -8.4910      1.00000
     12      -8.3543      1.00000
     13      -8.3477      1.00000
     14      -8.3247      1.00000
     15      -8.3171      1.00000
     16      -8.1814      1.00000
     17      -8.1095      1.00000
     18      -8.1024      1.00000
     19      -8.0776      1.00000
     20      -8.0059      1.00000
     21      -7.9528      1.00000
     22      -7.9442      1.00000
     23      -7.8493      1.00000
     24      -7.7783      1.00000
     25      -7.7773      1.00000
     26      -7.6915      1.00000
     27      -7.6802      1.00000
     28      -7.6398      1.00000
     29      -7.6044      1.00000
     30      -7.5401      1.00000
     31      -7.3667      1.00000
     32      -7.3298      1.00000
     33      -7.2693      1.00000
     34      -7.2498      1.00000
     35      -7.2429      1.00000
     36      -7.1969      1.00000
     37      -7.1912      1.00000
     38      -7.1416      1.00000
     39      -7.1114      1.00000
     40      -7.0885      1.00000
     41      -7.0495      1.00000
     42      -7.0207      1.00000
     43      -7.0085      1.00000
     44      -6.9933      1.00000
     45      -6.9863      1.00000
     46      -6.9671      1.00000
     47      -6.9254      1.00000
     48      -6.9220      1.00000
     49      -6.9196      1.00000
     50      -6.8705      1.00000
     51      -6.8277      1.00000
     52      -6.8166      1.00000
     53      -6.7830      1.00000
     54      -6.7703      1.00000
     55      -6.7000      1.00000
     56      -6.6814      1.00000
     57      -6.6454      1.00000
     58      -6.6375      1.00000
     59      -6.5927      1.00000
     60      -6.5903      1.00000
     61      -6.5307      1.00000
     62      -6.4650      1.00000
     63      -6.4480      1.00000
     64      -6.4098      1.00000
     65      -6.4091      1.00000
     66      -6.3852      1.00000
     67      -6.1490      1.00000
     68      -5.6953      1.00000
     69      -4.7713      1.00000
     70      -4.2225      1.00000
     71      -4.2023      1.00000
     72      -3.3863      0.00000
     73      -2.8271      0.00000
     74      -2.8190      0.00000
     75      -2.2292      0.00000
     76      -2.0716      0.00000
     77      -1.9216      0.00000
     78      -1.8656      0.00000
     79      -1.1976      0.00000
     80      -1.0717      0.00000
     81      -0.8092      0.00000
     82      -0.6663      0.00000
     83      -0.4601      0.00000
     84      -0.3648      0.00000
     85      -0.2935      0.00000
     86      -0.1588      0.00000
     87      -0.0509      0.00000
     88       0.2035      0.00000
     89       0.4102      0.00000
     90       0.6309      0.00000
     91       0.6766      0.00000
     92       0.7164      0.00000


--------------------------------------------------------------------------------------------------------


 soft charge-density along one line, spin component           1
         0         1         2         3         4         5         6         7         8         9
 total charge-density along one line
 
 soft charge-density along one line, spin component           2
         0         1         2         3         4         5         6         7         8         9
 total charge-density along one line
 
 pseudopotential strength for first ion, spin component:           1
-10.443  -0.001   0.006   0.004  -0.002 -10.411  -0.001   0.006
 -0.001 -10.451   0.005  -0.008  -0.005  -0.001 -10.420   0.005
  0.006   0.005 -10.463  -0.004   0.009   0.006   0.005 -10.431
  0.004  -0.008  -0.004 -10.457   0.002   0.004  -0.008  -0.004
 -0.002  -0.005   0.009   0.002 -10.442  -0.002  -0.004   0.009
-10.411  -0.001   0.006   0.004  -0.002 -10.356  -0.001   0.005
 -0.001 -10.420   0.005  -0.008  -0.004  -0.001 -10.364   0.005
  0.006   0.005 -10.431  -0.004   0.009   0.005   0.005 -10.375
  0.004  -0.008  -0.004 -10.426   0.002   0.004  -0.007  -0.004
 -0.002  -0.004   0.009   0.002 -10.411  -0.002  -0.004   0.008
  0.005  -0.003   0.005   0.002   0.005   0.005  -0.003   0.005
  0.009  -0.004   0.008   0.003   0.008   0.009  -0.004   0.008
 -0.002   0.001  -0.008  -0.000  -0.014  -0.002   0.001  -0.007
 -0.000   0.013   0.001  -0.001   0.000  -0.000   0.013   0.001
  0.013  -0.000   0.001   0.001  -0.001   0.012  -0.000   0.001
 -0.003   0.002  -0.010  -0.000  -0.017  -0.003   0.001  -0.009
 -0.000   0.017   0.002  -0.002   0.000  -0.000   0.016   0.002
  0.016  -0.000   0.002   0.002  -0.002   0.015  -0.000   0.001
 pseudopotential strength for first ion, spin component:           2
-10.437  -0.001   0.007   0.005  -0.002 -10.406  -0.001   0.006
 -0.001 -10.445   0.002  -0.008  -0.004  -0.001 -10.414   0.002
  0.007   0.002 -10.445  -0.003   0.005   0.006   0.002 -10.414
  0.005  -0.008  -0.003 -10.453   0.002   0.005  -0.008  -0.003
 -0.002  -0.004   0.005   0.002 -10.435  -0.002  -0.003   0.005
-10.406  -0.001   0.006   0.005  -0.002 -10.351  -0.001   0.006
 -0.001 -10.414   0.002  -0.008  -0.003  -0.001 -10.359   0.001
  0.006   0.002 -10.414  -0.003   0.005   0.006   0.001 -10.359
  0.005  -0.008  -0.003 -10.421   0.002   0.004  -0.008  -0.003
 -0.002  -0.003   0.005   0.002 -10.405  -0.002  -0.003   0.004
  0.006  -0.002   0.004   0.002   0.004   0.006  -0.002   0.004
  0.009  -0.004   0.006   0.003   0.007   0.009  -0.003   0.006
 -0.002   0.001  -0.008  -0.000  -0.014  -0.002   0.001  -0.008
 -0.000   0.013   0.001  -0.001   0.000  -0.000   0.013   0.001
  0.014  -0.000   0.001   0.002  -0.001   0.013  -0.000   0.001
 -0.003   0.002  -0.010  -0.000  -0.018  -0.003   0.002  -0.010
 -0.000   0.017   0.001  -0.002   0.000  -0.000   0.016   0.001
  0.017  -0.000   0.001   0.002  -0.001   0.016  -0.000   0.001
 total augmentation occupancy for first ion, spin component:           1
  3.338  -0.005   0.043   0.074   0.158  -1.272  -0.013   0.003  -0.052  -0.186  -0.462   0.055  -0.082   0.010   0.131   0.004
 -0.005   3.120  -0.059   0.127   0.021  -0.013  -1.102   0.079  -0.205  -0.034   0.134  -0.029  -0.000   0.105   0.005   0.001
  0.043  -0.059   3.341  -0.027  -0.079   0.003   0.079  -1.338  -0.026   0.141  -0.325   0.046  -0.071   0.066   0.055  -0.001
  0.074   0.127  -0.027   3.313   0.103  -0.052  -0.205  -0.026  -1.335  -0.080  -0.191   0.011  -0.003  -0.201   0.016  -0.001
  0.158   0.021  -0.079   0.103   3.170  -0.186  -0.034   0.141  -0.080  -1.096  -0.427   0.057  -0.129  -0.001  -0.141  -0.000
 -1.272  -0.013   0.003  -0.052  -0.186   1.176   0.028  -0.040   0.035   0.211   0.430  -0.057   0.077  -0.008  -0.140  -0.003
 -0.013  -1.102   0.079  -0.205  -0.034   0.028   1.045  -0.095   0.272   0.044  -0.114   0.022  -0.002  -0.112  -0.004  -0.000
  0.003   0.079  -1.338  -0.026   0.141  -0.040  -0.095   1.293   0.070  -0.193   0.278  -0.038   0.076  -0.065  -0.047  -0.004
 -0.052  -0.205  -0.026  -1.335  -0.080   0.035   0.272   0.070   1.311   0.061   0.165  -0.012   0.002   0.181  -0.013   0.001
 -0.186  -0.034   0.141  -0.080  -1.096   0.211   0.044  -0.193   0.061   0.993   0.387  -0.057   0.127   0.002   0.130  -0.007
 -0.462   0.134  -0.325  -0.191  -0.427   0.430  -0.114   0.278   0.165   0.387   1.996  -0.362  -0.122  -0.020   0.049   0.013
  0.055  -0.029   0.046   0.011   0.057  -0.057   0.022  -0.038  -0.012  -0.057  -0.362   0.079   0.032   0.008  -0.030  -0.003
 -0.082  -0.000  -0.071  -0.003  -0.129   0.077  -0.002   0.076   0.002   0.127  -0.122   0.032   0.101  -0.009   0.040  -0.006
  0.010   0.105   0.066  -0.201  -0.001  -0.008  -0.112  -0.065   0.181   0.002  -0.020   0.008  -0.009   0.158   0.009   0.001
  0.131   0.005   0.055   0.016  -0.141  -0.140  -0.004  -0.047  -0.013   0.130   0.049  -0.030   0.040   0.009   0.157  -0.002
  0.004   0.001  -0.001  -0.001  -0.000  -0.003  -0.000  -0.004   0.001  -0.007   0.013  -0.003  -0.006   0.001  -0.002   0.000
 -0.001  -0.002  -0.004   0.012  -0.000   0.001   0.009   0.005  -0.010  -0.000   0.002  -0.001   0.001  -0.010  -0.000  -0.000
 -0.002  -0.001  -0.003   0.000   0.011   0.009   0.001   0.002   0.000  -0.009  -0.007   0.002  -0.002  -0.001  -0.009   0.000
 total augmentation occupancy for first ion, spin component:           2
  0.005  -0.006   0.024   0.005  -0.009  -0.005   0.004  -0.018  -0.005   0.007   0.005   0.000  -0.001  -0.001  -0.000   0.000
 -0.006   0.014  -0.079  -0.009   0.025   0.004  -0.010   0.061   0.007  -0.019  -0.012  -0.003   0.011   0.003   0.003  -0.000
  0.024  -0.079   0.319   0.025  -0.106  -0.018   0.061  -0.246  -0.020   0.082   0.032   0.012  -0.040  -0.019  -0.012   0.001
  0.005  -0.009   0.025  -0.005  -0.007  -0.005   0.007  -0.020   0.005   0.006  -0.000   0.001  -0.003   0.001   0.000   0.000
 -0.009   0.025  -0.106  -0.007   0.036   0.007  -0.019   0.082   0.006  -0.028  -0.015  -0.000   0.014   0.005   0.004  -0.000
 -0.005   0.004  -0.018  -0.005   0.007   0.003  -0.003   0.013   0.004  -0.005  -0.002  -0.001   0.001   0.001  -0.000  -0.000
  0.004  -0.010   0.061   0.007  -0.019  -0.003   0.007  -0.046  -0.005   0.014   0.012   0.001  -0.009  -0.003  -0.002   0.000
 -0.018   0.061  -0.246  -0.020   0.082   0.013  -0.046   0.189   0.016  -0.062  -0.031  -0.005   0.032   0.015   0.010  -0.001
 -0.005   0.007  -0.020   0.005   0.006   0.004  -0.005   0.016  -0.005  -0.004   0.000  -0.001   0.002  -0.001  -0.000  -0.000
  0.007  -0.019   0.082   0.006  -0.028  -0.005   0.014  -0.062  -0.004   0.021   0.008   0.002  -0.011  -0.004  -0.003   0.000
  0.005  -0.012   0.032  -0.000  -0.015  -0.002   0.012  -0.031   0.000   0.008  -0.000   0.000  -0.006  -0.002  -0.001   0.000
  0.000  -0.003   0.012   0.001  -0.000  -0.001   0.001  -0.005  -0.001   0.002   0.000   0.000  -0.001  -0.000   0.000  -0.000
 -0.001   0.011  -0.040  -0.003   0.014   0.001  -0.009   0.032   0.002  -0.011  -0.006  -0.001   0.005   0.003   0.002  -0.000
 -0.001   0.003  -0.019   0.001   0.005   0.001  -0.003   0.015  -0.001  -0.004  -0.002  -0.000   0.003  -0.000   0.001  -0.000
 -0.000   0.003  -0.012   0.000   0.004  -0.000  -0.002   0.010  -0.000  -0.003  -0.001   0.000   0.002   0.001  -0.000  -0.000
  0.000  -0.000   0.001   0.000  -0.000  -0.000   0.000  -0.001  -0.000   0.000   0.000  -0.000  -0.000  -0.000  -0.000   0.000
  0.000  -0.000   0.000  -0.000  -0.000  -0.000   0.000  -0.000   0.000   0.000   0.000   0.000  -0.000   0.000  -0.000   0.000
 -0.000  -0.000   0.000  -0.000  -0.000   0.000   0.000  -0.000   0.000   0.000   0.000  -0.000  -0.000  -0.000  -0.000   0.000


------------------------ aborting loop because EDIFF is reached ----------------------------------------


    CHARGE:  cpu time    0.46: real time    0.46
    FORLOC:  cpu time    0.02: real time    0.02
    FORNL :  cpu time    1.00: real time    1.00
    STRESS:  cpu time    1.54: real time    1.55
    FORCOR:  cpu time    0.70: real time    0.70
    FORHAR:  cpu time    0.10: real time    0.10
    MIXING:  cpu time    0.04: real time    0.05
    OFIELD:  cpu time    0.00: real time    0.00

  FORCE on cell =-STRESS in cart. coord.  units (eV):
  Direction    XX          YY          ZZ          XY          YZ          ZX
  --------------------------------------------------------------------------------------
  Alpha Z    23.38868    23.38868    23.38868
  Ewald    4568.18050  4502.05902  5925.32506  3664.75879     0.00000     0.00000
  Hartree  8940.05860  8904.01529 10066.94990  3192.85106    -0.00000    -0.00000
  E(xc)    -753.78123  -753.84209  -753.04311     1.18437     0.00000     0.00000
  Local  -15614.17928-15515.95329-18093.30379 -6853.34899    -0.00000     0.00000
  n-local  -140.04266  -139.18025  -140.58502     1.42336    -0.00000    -0.00000
  augment  1194.85514  1195.70926  1193.40073    -2.07167    -0.00000    -0.00000
  Kinetic  1781.25386  1783.46960  1777.54007    -4.79464     0.00000     0.00000
  Fock        0.00000     0.00000     0.00000     0.00000     0.00000     0.00000
  -------------------------------------------------------------------------------------
  Total      -0.26639    -0.33377    -0.32747     0.00228     0.00000     0.00000
  in kB      -0.06944    -0.08701    -0.08537     0.00060     0.00000     0.00000
  external pressure =       -0.08 kB  Pullay stress =        0.00 kB


 VOLUME and BASIS-vectors are now :
 -----------------------------------------------------------------------------
  energy-cutoff  :      520.00
  volume of cell :     6146.04
      direct lattice vectors                 reciprocal lattice vectors
    18.317452000  0.000000000  0.000000000     0.054592746  0.000000000  0.000000000
     0.000000000 18.317452000  0.000000000     0.000000000  0.054592746  0.000000000
     0.000000000  0.000000000 18.317452000     0.000000000  0.000000000  0.054592746

  length of vectors
    18.317452000 18.317452000 18.317452000     0.054592746  0.054592746  0.054592746


 FORCES acting on ions
    electron-ion (+dipol)            ewald-force                    non-local-force                 convergence-correction
 -----------------------------------------------------------------------------------------------
   0.256E+03 -.760E+03 -.129E+03   -.257E+03 0.758E+03 0.129E+03   0.105E+01 0.175E+01 0.524E-01   -.253E-02 0.748E-02 0.102E-02
   -.382E+03 -.631E+03 -.696E+03   0.381E+03 0.627E+03 0.692E+03   0.175E+01 0.369E+01 0.411E+01   0.353E-02 0.379E-02 0.429E-02
   0.101E+01 -.689E+03 0.761E+03   0.409E+00 0.685E+03 -.756E+03   -.142E+01 0.393E+01 -.422E+01   0.106E-03 0.393E-02 -.391E-02
   -.909E+03 0.361E+03 -.339E+03   0.905E+03 -.360E+03 0.337E+03   0.408E+01 -.133E+01 0.266E+01   0.688E-02 -.149E-02 0.287E-02
   -.789E+03 -.619E+03 0.202E+03   0.785E+03 0.617E+03 -.201E+03   0.405E+01 0.240E+01 -.112E+01   0.512E-02 0.450E-02 -.950E-03
   -.248E-11 0.125E-10 -.997E+03   -.333E-10 -.648E-11 0.993E+03   0.162E-24 0.230E-24 0.402E+01   0.112E-12 0.430E-13 0.528E-02
   -.256E+03 0.760E+03 -.129E+03   0.257E+03 -.758E+03 0.129E+03   -.105E+01 -.175E+01 0.524E-01   0.253E-02 -.748E-02 0.102E-02
   0.649E+03 -.267E+03 0.700E+03   -.646E+03 0.267E+03 -.697E+03   -.239E+01 0.556E+00 -.327E+01   -.423E-02 0.187E-02 -.555E-02
   -.649E+03 0.267E+03 0.700E+03   0.646E+03 -.267E+03 -.697E+03   0.239E+01 -.556E+00 -.327E+01   0.423E-02 -.187E-02 -.555E-02
   0.789E+03 0.619E+03 0.202E+03   -.785E+03 -.617E+03 -.201E+03   -.405E+01 -.240E+01 -.112E+01   -.512E-02 -.450E-02 -.950E-03
   0.909E+03 -.361E+03 -.339E+03   -.905E+03 0.360E+03 0.337E+03   -.408E+01 0.133E+01 0.266E+01   -.688E-02 0.149E-02 0.287E-02
   -.101E+01 0.689E+03 0.761E+03   -.409E+00 -.685E+03 -.756E+03   0.142E+01 -.393E+01 -.422E+01   -.106E-03 -.393E-02 -.391E-02
   0.382E+03 0.631E+03 -.696E+03   -.381E+03 -.627E+03 0.692E+03   -.175E+01 -.369E+01 0.411E+01   -.353E-02 -.379E-02 0.429E-02
 -----------------------------------------------------------------------------------------------
   0.309E-06 0.209E-06 -.428E+00   -.227E-12 -.114E-12 0.227E-12   0.444E-15 -.311E-14 0.432E+00   0.145E-11 0.173E-11 0.822E-03
 
 
 POSITION                                       TOTAL-FORCE (eV/Angst)
[...]
     63      -6.4649      1.00000
     64      -6.4301      1.00000
     65      -6.4231      1.00000
     66      -6.4023      1.00000
     67      -6.1840      1.00000
     68      -5.7664      1.00000
     69      -4.8284      1.00000
     70      -4.2968      1.00000
     71      -4.2323      1.00000
     72      -3.5660      1.00000
     73      -2.8893      0.00000
     74      -2.8880      0.00000
     75      -2.2921      0.00000
     76      -2.1276      0.00000
     77      -1.9969      0.00000
     78      -1.9571      0.00000
     79      -1.3336      0.00000
     80      -1.1280      0.00000
     81      -0.8860      0.00000
     82      -0.7952      0.00000
     83      -0.5277      0.00000
     84      -0.4105      0.00000
     85      -0.3825      0.00000
     86      -0.2210      0.00000
     87      -0.1322      0.00000
     88       0.0982      0.00000
     89       0.3790      0.00000
     90       0.5665      0.00000
     91       0.6041      0.00000
     92       0.6426      0.00000

 spin component 2

 k-point     1 :       0.0000    0.0000    0.0000
  band No.  band energies     occupation 
      1      -9.1705      1.00000
      2      -9.0282      1.00000
      3      -8.9097      1.00000
      4      -8.8754      1.00000
      5      -8.8210      1.00000
      6      -8.8196      1.00000
      7      -8.8065      1.00000
      8      -8.7610      1.00000
      9      -8.7437      1.00000
     10      -8.4976      1.00000
     11      -8.4935      1.00000
     12      -8.3575      1.00000
     13      -8.3502      1.00000
     14      -8.3273      1.00000
     15      -8.3204      1.00000
     16      -8.1838      1.00000
     17      -8.1120      1.00000
     18      -8.1045      1.00000
     19      -8.0798      1.00000
     20      -8.0082      1.00000
     21      -7.9543      1.00000
     22      -7.9458      1.00000
     23      -7.8513      1.00000
     24      -7.7809      1.00000
     25      -7.7796      1.00000
     26      -7.6932      1.00000
     27      -7.6819      1.00000
     28      -7.6411      1.00000
     29      -7.6055      1.00000
     30      -7.5404      1.00000
     31      -7.3674      1.00000
     32      -7.3309      1.00000
     33      -7.2707      1.00000
     34      -7.2513      1.00000
     35      -7.2433      1.00000
     36      -7.1977      1.00000
     37      -7.1921      1.00000
     38      -7.1422      1.00000
     39      -7.1124      1.00000
     40      -7.0893      1.00000
     41      -7.0501      1.00000
     42      -7.0213      1.00000
     43      -7.0092      1.00000
     44      -6.9940      1.00000
     45      -6.9869      1.00000
     46      -6.9678      1.00000
     47      -6.9260      1.00000
     48      -6.9226      1.00000
     49      -6.9200      1.00000
     50      -6.8711      1.00000
     51      -6.8280      1.00000
     52      -6.8169      1.00000
     53      -6.7830      1.00000
     54      -6.7701      1.00000
     55      -6.7001      1.00000
     56      -6.6815      1.00000
     57      -6.6450      1.00000
     58      -6.6375      1.00000
     59      -6.5923      1.00000
     60      -6.5904      1.00000
     61      -6.5303      1.00000
     62      -6.4653      1.00000
     63      -6.4474      1.00000
     64      -6.4097      1.00000
     65      -6.4091      1.00000
     66      -6.3852      1.00000
     67      -6.1498      1.00000
     68      -5.6960      1.00000
     69      -4.7715      1.00000
     70      -4.2228      1.00000
     71      -4.2028      1.00000
     72      -3.3868      0.00000
     73      -2.8263      0.00000
     74      -2.8193      0.00000
     75      -2.2289      0.00000
     76      -2.0715      0.00000
     77      -1.9213      0.00000
     78      -1.8654      0.00000
     79      -1.1975      0.00000
     80      -1.0719      0.00000
     81      -0.8085      0.00000
     82      -0.6657      0.00000
     83      -0.4598      0.00000
     84      -0.3645      0.00000
     85      -0.2930      0.00000
     86      -0.1586      0.00000
     87      -0.0507      0.00000
     88       0.2039      0.00000
     89       0.4242      0.00000
     90       0.6226      0.00000
     91       0.6711      0.00000
     92       0.7203      0.00000


--------------------------------------------------------------------------------------------------------


 soft charge-density along one line, spin component           1
         0         1         2         3         4         5         6         7         8         9
 total charge-density along one line
 
 soft charge-density along one line, spin component           2
         0         1         2         3         4         5         6         7         8         9
 total charge-density along one line
 
 pseudopotential strength for first ion, spin component:           1
-10.443  -0.001   0.006   0.004  -0.002 -10.412  -0.001   0.006
 -0.001 -10.451   0.005  -0.008  -0.004  -0.001 -10.420   0.005
  0.006   0.005 -10.463  -0.004   0.009   0.006   0.005 -10.431
  0.004  -0.008  -0.004 -10.458   0.002   0.004  -0.008  -0.004
 -0.002  -0.004   0.009   0.002 -10.442  -0.002  -0.004   0.009
-10.412  -0.001   0.006   0.004  -0.002 -10.357  -0.001   0.005
 -0.001 -10.420   0.005  -0.008  -0.004  -0.001 -10.365   0.005
  0.006   0.005 -10.431  -0.004   0.009   0.005   0.005 -10.376
  0.004  -0.008  -0.004 -10.426   0.002   0.004  -0.007  -0.004
 -0.002  -0.004   0.009   0.002 -10.411  -0.002  -0.004   0.008
  0.005  -0.003   0.005   0.002   0.005   0.005  -0.003   0.005
  0.009  -0.004   0.008   0.003   0.008   0.009  -0.004   0.008
 -0.002   0.001  -0.008  -0.000  -0.014  -0.002   0.001  -0.007
 -0.000   0.013   0.001  -0.001   0.000  -0.000   0.013   0.001
  0.013  -0.000   0.001   0.001  -0.001   0.012  -0.000   0.001
 -0.003   0.002  -0.010  -0.000  -0.017  -0.003   0.001  -0.009
 -0.000   0.017   0.002  -0.002   0.000  -0.000   0.016   0.002
  0.016  -0.000   0.002   0.002  -0.002   0.015  -0.000   0.001
 pseudopotential strength for first ion, spin component:           2
-10.437  -0.001   0.007   0.005  -0.002 -10.406  -0.001   0.006
 -0.001 -10.445   0.002  -0.008  -0.004  -0.001 -10.414   0.002
  0.007   0.002 -10.445  -0.003   0.005   0.006   0.002 -10.414
  0.005  -0.008  -0.003 -10.453   0.002   0.005  -0.008  -0.003
 -0.002  -0.004   0.005   0.002 -10.436  -0.002  -0.003   0.005
-10.406  -0.001   0.006   0.005  -0.002 -10.351  -0.001   0.006
 -0.001 -10.414   0.002  -0.008  -0.003  -0.001 -10.359   0.001
  0.006   0.002 -10.414  -0.003   0.005   0.006   0.001 -10.359
  0.005  -0.008  -0.003 -10.422   0.001   0.004  -0.008  -0.003
 -0.002  -0.003   0.005   0.001 -10.405  -0.002  -0.003   0.004
  0.006  -0.002   0.004   0.002   0.004   0.006  -0.002   0.004
  0.009  -0.004   0.006   0.003   0.007   0.009  -0.003   0.006
 -0.002   0.001  -0.008  -0.000  -0.014  -0.002   0.001  -0.008
 -0.000   0.013   0.001  -0.001   0.000  -0.000   0.013   0.001
  0.014  -0.000   0.001   0.002  -0.001   0.013  -0.000   0.001
 -0.003   0.002  -0.010  -0.000  -0.017  -0.003   0.002  -0.010
 -0.000   0.017   0.001  -0.002   0.000  -0.000   0.016   0.001
  0.017  -0.000   0.001   0.002  -0.001   0.016  -0.000   0.001
 total augmentation occupancy for first ion, spin component:           1
  3.339  -0.004   0.043   0.075   0.157  -1.273  -0.013   0.002  -0.053  -0.186  -0.462   0.055  -0.083   0.010   0.131   0.004
 -0.004   3.121  -0.059   0.127   0.020  -0.013  -1.103   0.079  -0.204  -0.033   0.133  -0.028   0.000   0.105   0.005   0.001
  0.043  -0.059   3.343  -0.027  -0.079   0.002   0.079  -1.341  -0.026   0.142  -0.326   0.046  -0.071   0.067   0.055  -0.001
  0.075   0.127  -0.027   3.315   0.104  -0.053  -0.205  -0.026  -1.337  -0.080  -0.191   0.011  -0.003  -0.202   0.016  -0.001
  0.157   0.020  -0.079   0.104   3.171  -0.186  -0.033   0.142  -0.080  -1.097  -0.428   0.057  -0.129  -0.001  -0.141  -0.001
 -1.273  -0.013   0.002  -0.053  -0.186   1.177   0.028  -0.040   0.035   0.211   0.429  -0.057   0.077  -0.008  -0.140  -0.003
 -0.013  -1.103   0.079  -0.205  -0.033   0.028   1.047  -0.094   0.271   0.043  -0.113   0.022  -0.003  -0.113  -0.005  -0.000
  0.002   0.079  -1.341  -0.026   0.142  -0.040  -0.094   1.295   0.070  -0.194   0.279  -0.038   0.076  -0.066  -0.047  -0.004
 -0.053  -0.204  -0.026  -1.337  -0.080   0.035   0.271   0.070   1.313   0.061   0.166  -0.012   0.001   0.182  -0.013   0.001
 -0.186  -0.033   0.142  -0.080  -1.097   0.211   0.043  -0.194   0.061   0.994   0.387  -0.057   0.127   0.002   0.130  -0.007
 -0.462   0.133  -0.326  -0.191  -0.428   0.429  -0.113   0.279   0.166   0.387   1.997  -0.363  -0.122  -0.020   0.049   0.013
  0.055  -0.028   0.046   0.011   0.057  -0.057   0.022  -0.038  -0.012  -0.057  -0.363   0.079   0.032   0.008  -0.030  -0.003
 -0.083   0.000  -0.071  -0.003  -0.129   0.077  -0.003   0.076   0.001   0.127  -0.122   0.032   0.101  -0.009   0.040  -0.006
  0.010   0.105   0.067  -0.202  -0.001  -0.008  -0.113  -0.066   0.182   0.002  -0.020   0.008  -0.009   0.158   0.009   0.001
  0.131   0.005   0.055   0.016  -0.141  -0.140  -0.005  -0.047  -0.013   0.130   0.049  -0.030   0.040   0.009   0.158  -0.002
  0.004   0.001  -0.001  -0.001  -0.001  -0.003  -0.000  -0.004   0.001  -0.007   0.013  -0.003  -0.006   0.001  -0.002   0.000
 -0.001  -0.002  -0.004   0.012  -0.000   0.001   0.009   0.005  -0.010  -0.000   0.002  -0.001   0.001  -0.010  -0.001  -0.000
 -0.002  -0.001  -0.003   0.000   0.011   0.009   0.001   0.002   0.000  -0.009  -0.007   0.002  -0.002  -0.001  -0.009   0.000
 total augmentation occupancy for first ion, spin component:           2
  0.005  -0.006   0.024   0.005  -0.009  -0.005   0.004  -0.018  -0.005   0.007   0.005   0.000  -0.001  -0.001  -0.000   0.000
 -0.006   0.014  -0.079  -0.009   0.025   0.004  -0.010   0.061   0.007  -0.019  -0.012  -0.003   0.011   0.003   0.003  -0.000
  0.024  -0.079   0.319   0.025  -0.106  -0.018   0.061  -0.246  -0.020   0.082   0.032   0.012  -0.040  -0.019  -0.012   0.001
  0.005  -0.009   0.025  -0.005  -0.007  -0.005   0.007  -0.020   0.005   0.006  -0.000   0.001  -0.003   0.001   0.000   0.000
 -0.009   0.025  -0.106  -0.007   0.036   0.007  -0.019   0.081   0.006  -0.028  -0.015  -0.000   0.014   0.005   0.004  -0.000
 -0.005   0.004  -0.018  -0.005   0.007   0.003  -0.003   0.013   0.004  -0.005  -0.002  -0.001   0.001   0.001  -0.000  -0.000
  0.004  -0.010   0.061   0.007  -0.019  -0.003   0.007  -0.046  -0.005   0.014   0.012   0.001  -0.009  -0.003  -0.002   0.000
 -0.018   0.061  -0.246  -0.020   0.081   0.013  -0.046   0.189   0.016  -0.062  -0.031  -0.005   0.032   0.015   0.010  -0.001
 -0.005   0.007  -0.020   0.005   0.006   0.004  -0.005   0.016  -0.005  -0.004   0.000  -0.001   0.002  -0.001  -0.000  -0.000
  0.007  -0.019   0.082   0.006  -0.028  -0.005   0.014  -0.062  -0.004   0.021   0.008   0.002  -0.011  -0.004  -0.003   0.000
  0.005  -0.012   0.032  -0.000  -0.015  -0.002   0.012  -0.031   0.000   0.008  -0.000   0.000  -0.006  -0.002  -0.001   0.000
  0.000  -0.003   0.012   0.001  -0.000  -0.001   0.001  -0.005  -0.001   0.002   0.000   0.000  -0.001  -0.000   0.000  -0.000
 -0.001   0.011  -0.040  -0.003   0.014   0.001  -0.009   0.032   0.002  -0.011  -0.006  -0.001   0.005   0.003   0.002  -0.000
 -0.001   0.003  -0.019   0.001   0.005   0.001  -0.003   0.015  -0.001  -0.004  -0.002  -0.000   0.003  -0.000   0.001  -0.000
 -0.000   0.003  -0.012   0.000   0.004  -0.000  -0.002   0.010  -0.000  -0.003  -0.001   0.000   0.002   0.001  -0.000  -0.000
  0.000  -0.000   0.001   0.000  -0.000  -0.000   0.000  -0.001  -0.000   0.000   0.000  -0.000  -0.000  -0.000  -0.000   0.000
  0.000  -0.000   0.000  -0.000  -0.000  -0.000   0.000  -0.000   0.000   0.000   0.000   0.000  -0.000   0.000  -0.000   0.000
 -0.000  -0.000   0.000  -0.000  -0.000   0.000   0.000  -0.000   0.000   0.000   0.000  -0.000  -0.000  -0.000  -0.000   0.000


------------------------ aborting loop because EDIFF is reached ----------------------------------------


    CHARGE:  cpu time    0.46: real time    0.46
    FORLOC:  cpu time    0.02: real time    0.02
    FORNL :  cpu time    1.00: real time    1.00
    STRESS:  cpu time    1.55: real time    1.55
    FORCOR:  cpu time    0.69: real time    0.69
    FORHAR:  cpu time    0.10: real time    0.10
    MIXING:  cpu time    0.02: real time    0.02
    OFIELD:  cpu time    0.00: real time    0.00

  FORCE on cell =-STRESS in cart. coord.  units (eV):
  Direction    XX          YY          ZZ          XY          YZ          ZX
  --------------------------------------------------------------------------------------
  Alpha Z    23.38868    23.38868    23.38868
  Ewald    4570.62840  4504.80278  5928.30769  3667.04952    -0.00000     0.00000
  Hartree  8942.70654  8906.35558 10069.81059  3194.76968    -0.00000    -0.00000
  E(xc)    -753.79577  -753.85475  -753.05745     1.18477    -0.00000     0.00000
  Local  -15619.37092-15521.07609-18099.22268 -6857.55864     0.00000    -0.00000
  n-local  -139.90470  -139.03690  -140.43776     1.42604    -0.00000    -0.00000
  augment  1194.84681  1195.68851  1193.38744    -2.07161     0.00000    -0.00000
  Kinetic  1781.26999  1783.46520  1777.55171    -4.79606     0.00000     0.00000
  Fock        0.00000     0.00000     0.00000     0.00000     0.00000     0.00000
  -------------------------------------------------------------------------------------
  Total      -0.23096    -0.26699    -0.27179     0.00371     0.00000     0.00000
  in kB      -0.06021    -0.06960    -0.07085     0.00097     0.00000     0.00000
  external pressure =       -0.07 kB  Pullay stress =        0.00 kB


 VOLUME and BASIS-vectors are now :
 -----------------------------------------------------------------------------
  energy-cutoff  :      520.00
  volume of cell :     6146.04
      direct lattice vectors                 reciprocal lattice vectors
    18.317452000  0.000000000  0.000000000     0.054592746  0.000000000  0.000000000
     0.000000000 18.317452000  0.000000000     0.000000000  0.054592746  0.000000000
     0.000000000  0.000000000 18.317452000     0.000000000  0.000000000  0.054592746

  length of vectors
    18.317452000 18.317452000 18.317452000     0.054592746  0.054592746  0.054592746


 FORCES acting on ions
    electron-ion (+dipol)            ewald-force                    non-local-force                 convergence-correction
 -----------------------------------------------------------------------------------------------
   0.257E+03 -.761E+03 -.130E+03   -.258E+03 0.759E+03 0.130E+03   0.104E+01 0.175E+01 0.571E-01   0.463E-02 0.706E-02 -.118E-02
   -.382E+03 -.631E+03 -.696E+03   0.381E+03 0.627E+03 0.692E+03   0.176E+01 0.371E+01 0.412E+01   -.295E-02 -.155E-01 -.100E-01
   0.104E+01 -.689E+03 0.761E+03   0.375E+00 0.685E+03 -.757E+03   -.142E+01 0.393E+01 -.424E+01   -.123E-02 -.633E-02 0.161E-01
   -.909E+03 0.361E+03 -.339E+03   0.905E+03 -.360E+03 0.337E+03   0.407E+01 -.136E+01 0.267E+01   -.758E-02 0.272E-01 -.144E-01
   -.790E+03 -.619E+03 0.202E+03   0.786E+03 0.617E+03 -.201E+03   0.405E+01 0.241E+01 -.112E+01   -.448E-02 -.141E-01 -.477E-02
   -.123E-12 0.121E-10 -.997E+03   0.284E-13 0.000E+00 0.993E+03   -.307E-25 -.736E-27 0.401E+01   0.450E-11 0.422E-13 0.881E-03
   -.257E+03 0.761E+03 -.130E+03   0.258E+03 -.759E+03 0.130E+03   -.104E+01 -.175E+01 0.571E-01   -.463E-02 -.706E-02 -.118E-02
   0.649E+03 -.267E+03 0.700E+03   -.646E+03 0.267E+03 -.697E+03   -.241E+01 0.561E+00 -.328E+01   0.316E-01 -.846E-02 0.142E-01
   -.649E+03 0.267E+03 0.700E+03   0.646E+03 -.267E+03 -.697E+03   0.241E+01 -.561E+00 -.328E+01   -.316E-01 0.846E-02 0.142E-01
   0.790E+03 0.619E+03 0.202E+03   -.786E+03 -.617E+03 -.201E+03   -.405E+01 -.241E+01 -.112E+01   0.448E-02 0.141E-01 -.477E-02
   0.909E+03 -.361E+03 -.339E+03   -.905E+03 0.360E+03 0.337E+03   -.407E+01 0.136E+01 0.267E+01   0.758E-02 -.272E-01 -.144E-01
   -.104E+01 0.689E+03 0.761E+03   -.375E+00 -.685E+03 -.757E+03   0.142E+01 -.393E+01 -.424E+01   0.123E-02 0.633E-02 0.161E-01
   0.382E+03 0.631E+03 -.696E+03   -.381E+03 -.627E+03 0.692E+03   -.176E+01 -.371E+01 0.412E+01   0.295E-02 0.155E-01 -.100E-01
 -----------------------------------------------------------------------------------------------
   0.314E-06 0.218E-06 -.431E+00   0.568E-13 0.000E+00 0.227E-12   -.444E-15 -.444E-15 0.435E+00   -.116E-10 0.564E-10 0.552E-03
 
 
 POSITION                                       TOTAL-FORCE (eV/Angst)
 -----------------------------------------------------------------------------------
      9.17296     10.74855      9.39712        -0.001977      0.007175      0.003406
     10.95701     11.40129     11.40093        -0.002375     -0.012609     -0.003886
      9.69701     11.42813      6.72514        -0.003252     -0.001988      0.010516
     11.43293      9.00714     10.06646        -0.002389      0.018789     -0.011144
     11.75810     11.39558      8.63355         0.002749     -0.010509     -0.007513
      9.15873      9.15873     11.76294        -0.000000      0.000000      0.002428
      9.14449      7.56890      9.39712         0.001977     -0.007175      0.003406
      7.73667      9.39175      7.42706         0.020589     -0.002462      0.007405
     10.58078      8.92570      7.42706        -0.020589      0.002462      0.007405
      6.55935      6.92187      8.63355        -0.002749      0.010509     -0.007513
      6.88452      9.31032     10.06646         0.002389     -0.018789     -0.011144
      8.62044      6.88932      6.72514         0.003252      0.001988      0.010516
      7.36044      6.91616     11.40093         0.002375      0.012609     -0.003886
 -----------------------------------------------------------------------------------
    total drift:                                0.000000      0.000000      0.004591


--------------------------------------------------------------------------------------------------------



  FREE ENERGIE OF THE ION-ELECTRON SYSTEM (eV)
  ---------------------------------------------------
  free  energy   TOTEN  =       -24.22573984 eV

  energy  without entropy=      -24.22573984  energy(sigma->0) =      -24.22573984
 
 d Force = 0.2087581E-03[ 0.155E-03, 0.262E-03]  d Energy = 0.2878683E-03-0.791E-04
 d Force =-0.6131053E+01[-0.613E+01,-0.613E+01]  d Ewald  =-0.6131053E+01-0.138E-06


--------------------------------------------------------------------------------------------------------


    POTLOK:  cpu time    0.72: real time    0.72


--------------------------------------------------------------------------------------------------------




--------------------------------------------------------------------------------------------------------


  
 reached required accuracy - stopping structural energy minimisation
     LOOP+:  cpu time   11.80: real time   11.84
    4ORBIT:  cpu time    0.00: real time    0.00

 total amount of memory used by VASP on root node    92564. kBytes
========================================================================

   base      :      30000. kBytes
   nonl-proj :       3634. kBytes
   fftplans  :      14492. kBytes
   grid      :      36796. kBytes
   one-center:         31. kBytes
   wavefun   :       7611. kBytes
 
  
  
 General timing and accounting informations for this job:
 ========================================================
  
                  Total CPU time used (sec):      120.100
                            User time (sec):      117.443
                          System time (sec):        2.656
                         Elapsed time (sec):      128.087
  
                   Maximum memory used (kb):      124216.
                   Average memory used (kb):           0.
  
                          Minor page faults:       610153
                          Major page faults:            0
                 Voluntary context switches:         2612
