       N       E                     dE             d eps       ncg     rms          rms(c)
DAV:   1     0.203611485618E+04    0.20361E+04   -0.39922E+04   608   0.571E+02
DAV:   2     0.531435630932E+03   -0.15047E+04   -0.13253E+04  1080   0.128E+02
DAV:   3    -0.902674093213E+01   -0.54046E+03   -0.49932E+03   832   0.888E+01
DAV:   4    -0.419480980247E+02   -0.32921E+02   -0.32529E+02   664   0.245E+01
DAV:   5    -0.423986034363E+02   -0.45051E+00   -0.45022E+00   688   0.346E+00    0.250E+01
DAV:   6    -0.151463092397E+02    0.27252E+02   -0.82889E+01   608   0.151E+01    0.125E+01
DAV:   7    -0.120180476772E+02    0.31283E+01   -0.40513E+00   648   0.454E+00    0.736E+00
DAV:   8    -0.130707465870E+02   -0.10527E+01   -0.15942E+00   640   0.268E+00    0.497E+00
DAV:   9    -0.129607926155E+02    0.10995E+00   -0.59582E-01   672   0.230E+00    0.296E+00
DAV:  10    -0.186802916758E+02   -0.57195E+01   -0.16323E+00   648   0.208E+00    0.229E+00
DAV:  11    -0.287073917524E+02   -0.10027E+02   -0.51916E+00   640   0.332E+00    0.144E+00
DAV:  12    -0.335100571604E+02   -0.48027E+01   -0.17450E+00   640   0.171E+00    0.204E+00
DAV:  13    -0.337158430234E+02   -0.20579E+00   -0.41436E-02   744   0.341E-01    0.190E+00
DAV:  14    -0.349260267177E+02   -0.12102E+01   -0.17219E-01   632   0.722E-01    0.170E+00
DAV:  15    -0.382157690725E+02   -0.32897E+01   -0.12689E+00   624   0.185E+00    0.902E-01
DAV:  16    -0.397157741955E+02   -0.15000E+01   -0.39602E-01   632   0.885E-01    0.495E-01
DAV:  17    -0.406495719401E+02   -0.93380E+00   -0.14139E-01   608   0.579E-01    0.423E-01
DAV:  18    -0.414896064278E+02   -0.84003E+00   -0.85438E-02   624   0.490E-01    0.218E-01
DAV:  19    -0.417723301153E+02   -0.28272E+00   -0.83052E-03   656   0.192E-01    0.133E-01
DAV:  20    -0.418722661634E+02   -0.99936E-01   -0.32473E-03   656   0.916E-02    0.822E-02
DAV:  21    -0.419329765585E+02   -0.60710E-01   -0.28550E-03   640   0.861E-02    0.446E-02
DAV:  22    -0.419406784080E+02   -0.77018E-02   -0.68087E-04   440   0.422E-02    0.435E-02
DAV:  23    -0.419427852485E+02   -0.21068E-02   -0.50214E-04   472   0.324E-02    0.276E-02
DAV:  24    -0.419472172082E+02   -0.44320E-02   -0.32781E-04   448   0.271E-02    0.174E-02
DAV:  25    -0.419482065458E+02   -0.98934E-03   -0.12421E-04   440   0.212E-02    0.101E-02
DAV:  26    -0.419498137612E+02   -0.16072E-02   -0.45153E-05   416   0.108E-02    0.511E-03
DAV:  27    -0.419502432283E+02   -0.42947E-03   -0.19885E-05   424   0.606E-03    0.500E-03
DAV:  28    -0.419502831582E+02   -0.39930E-04   -0.36192E-06   424   0.415E-03
   1 F= -.41950283E+02 E0= -.41950283E+02  d E =-.419503E+02  mag=     1.0000
       N       E                     dE             d eps       ncg     rms          rms(c)
DAV:   1    -0.419705693055E+02   -0.20326E-01   -0.14481E+00   632   0.262E+00    0.104E-01
DAV:   2    -0.419713185006E+02   -0.74920E-03   -0.70950E-03   648   0.257E-01    0.618E-02
DAV:   3    -0.419713358277E+02   -0.17327E-04   -0.11936E-04   392   0.366E-02
   2 F= -.41971336E+02 E0= -.41971336E+02  d E =-.210527E-01  mag=     1.0000
       N       E                     dE             d eps       ncg     rms          rms(c)
DAV:   1    -0.420220684024E+02   -0.50750E-01   -0.13055E+01   632   0.786E+00    0.325E-01
DAV:   2    -0.420286888666E+02   -0.66205E-02   -0.64755E-02   656   0.775E-01    0.184E-01
DAV:   3    -0.420286541161E+02    0.34750E-04   -0.12071E-03   648   0.112E-01    0.118E-01
DAV:   4    -0.420286631011E+02   -0.89850E-05   -0.37578E-04   576   0.561E-02
   3 F= -.42028663E+02 E0= -.42028663E+02  d E =-.783799E-01  mag=     1.0000
       N       E                     dE             d eps       ncg     rms          rms(c)
DAV:   1    -0.420903465099E+02   -0.61692E-01   -0.52145E+01   608   0.157E+01    0.697E-01
DAV:   2    -0.421160944379E+02   -0.25748E-01   -0.25997E-01   640   0.155E+00    0.373E-01
DAV:   3    -0.421157484500E+02    0.34599E-03   -0.51000E-03   656   0.234E-01    0.238E-01
DAV:   4    -0.421157242722E+02    0.24178E-04   -0.14778E-03   648   0.114E-01    0.386E-02
DAV:   5    -0.421156935868E+02    0.30685E-04   -0.12924E-04   408   0.299E-02
   4 F= -.42115694E+02 E0= -.42115694E+02  d E =-.165410E+00  mag=     1.0000
       N       E                     dE             d eps       ncg     rms          rms(c)
DAV:   1    -0.420618214801E+02    0.53903E-01   -0.20941E+02   608   0.316E+01    0.162E+00
DAV:   2    -0.421670638354E+02   -0.10524E+00   -0.10637E+00   656   0.312E+00    0.778E-01
DAV:   3    -0.421648376781E+02    0.22262E-02   -0.22327E-02   656   0.501E-01    0.498E-01
DAV:   4    -0.421647090665E+02    0.12861E-03   -0.53427E-03   648   0.237E-01    0.770E-02
DAV:   5    -0.421645603911E+02    0.14868E-03   -0.59160E-04   632   0.610E-02    0.368E-02
DAV:   6    -0.421646099568E+02   -0.49566E-04   -0.17336E-04   448   0.280E-02
   5 F= -.42164610E+02 E0= -.42164610E+02  d E =-.214327E+00  mag=     1.0000
       N       E                     dE             d eps       ncg     rms          rms(c)
DAV:   1    -0.421634508180E+02    0.11096E-02   -0.12995E+01   640   0.785E+00    0.364E-01
DAV:   2    -0.421696571432E+02   -0.62063E-02   -0.61871E-02   672   0.765E-01    0.236E-01
DAV:   3    -0.421695830937E+02    0.74049E-04   -0.12593E-03   672   0.121E-01    0.141E-01
DAV:   4    -0.421696139556E+02   -0.30862E-04   -0.46268E-04   672   0.627E-02
   6 F= -.42169614E+02 E0= -.42169614E+02  d E =-.219331E+00  mag=     1.0000
       N       E                     dE             d eps       ncg     rms          rms(c)
DAV:   1    -0.421806628543E+02   -0.11080E-01   -0.67679E+00   624   0.544E+00    0.190E-01
DAV:   2    -0.421834503804E+02   -0.27875E-02   -0.28055E-02   648   0.490E-01    0.124E-01
DAV:   3    -0.421833389687E+02    0.11141E-03   -0.58678E-04   656   0.751E-02    0.806E-02
DAV:   4    -0.421833091002E+02    0.29869E-04   -0.35675E-04   560   0.448E-02
   7 F= -.42183309E+02 E0= -.42183309E+02  d E =-.136951E-01  mag=     1.0000
       N       E                     dE             d eps       ncg     rms          rms(c)
DAV:   1    -0.421846349698E+02   -0.12960E-02   -0.50881E+00   640   0.472E+00    0.176E-01
DAV:   2    -0.421867580680E+02   -0.21231E-02   -0.21507E-02   656   0.427E-01    0.109E-01
DAV:   3    -0.421866818741E+02    0.76194E-04   -0.44659E-04   584   0.683E-02
   8 F= -.42186682E+02 E0= -.42186682E+02  d E =-.170679E-01  mag=     1.0000
       N       E                     dE             d eps       ncg     rms          rms(c)
DAV:   1    -0.421880928412E+02   -0.13348E-02   -0.10003E+00   648   0.218E+00    0.535E-02
DAV:   2    -0.421885592036E+02   -0.46636E-03   -0.47280E-03   640   0.211E-01    0.405E-02
DAV:   3    -0.421885644940E+02   -0.52904E-05   -0.76571E-05   424   0.291E-02
   9 F= -.42188564E+02 E0= -.42188564E+02  d E =-.188262E-02  mag=     1.0000
       N       E                     dE             d eps       ncg     rms          rms(c)
DAV:   1    -0.421892092852E+02   -0.65008E-03   -0.23851E+00   640   0.337E+00    0.866E-02
DAV:   2    -0.421902953111E+02   -0.10860E-02   -0.11008E-02   648   0.322E-01    0.678E-02
DAV:   3    -0.421902786467E+02    0.16664E-04   -0.17693E-04   440   0.432E-02
  10 F= -.42190279E+02 E0= -.42190279E+02  d E =-.359677E-02  mag=     1.0000
       N       E                     dE             d eps       ncg     rms          rms(c)
DAV:   1    -0.421912184248E+02   -0.92311E-03   -0.80058E-01   648   0.195E+00    0.489E-02
DAV:   2    -0.421915971918E+02   -0.37877E-03   -0.37445E-03   648   0.190E-01    0.419E-02
DAV:   3    -0.421915976370E+02   -0.44514E-06   -0.60082E-05   384   0.250E-02
  11 F= -.42191598E+02 E0= -.42191598E+02  d E =-.131899E-02  mag=     1.0000
       N       E                     dE             d eps       ncg     rms          rms(c)
DAV:   1    -0.421918926820E+02   -0.29549E-03   -0.85410E-01   640   0.202E+00    0.585E-02
DAV:   2    -0.421922928375E+02   -0.40016E-03   -0.40011E-03   656   0.195E-01    0.475E-02
DAV:   3    -0.421922879858E+02    0.48517E-05   -0.64830E-05   384   0.258E-02
  12 F= -.42192288E+02 E0= -.42192288E+02  d E =-.200934E-02  mag=     1.0000
       N       E                     dE             d eps       ncg     rms          rms(c)
DAV:   1    -0.421929230593E+02   -0.63022E-03   -0.93545E-01   640   0.210E+00    0.376E-02
DAV:   2    -0.421933688447E+02   -0.44579E-03   -0.43588E-03   656   0.202E-01    0.336E-02
DAV:   3    -0.421933662074E+02    0.26373E-05   -0.57854E-05   376   0.240E-02
  13 F= -.42193366E+02 E0= -.42193366E+02  d E =-.107822E-02  mag=     1.0000
       N       E                     dE             d eps       ncg     rms          rms(c)
DAV:   1    -0.421926147471E+02    0.75410E-03   -0.48357E+00   608   0.478E+00    0.847E-02
DAV:   2    -0.421948987397E+02   -0.22840E-02   -0.22375E-02   632   0.459E-01    0.780E-02
DAV:   3    -0.421948784496E+02    0.20290E-04   -0.33724E-04   552   0.561E-02
  14 F= -.42194878E+02 E0= -.42194878E+02  d E =-.259046E-02  mag=     1.0000
       N       E                     dE             d eps       ncg     rms          rms(c)
DAV:   1    -0.421951789822E+02   -0.28024E-03   -0.15615E+00   632   0.272E+00    0.524E-02
DAV:   2    -0.421958806970E+02   -0.70171E-03   -0.69322E-03   640   0.252E-01    0.455E-02
DAV:   3    -0.421958710651E+02    0.96319E-05   -0.92140E-05   384   0.283E-02
  15 F= -.42195871E+02 E0= -.42195871E+02  d E =-.992615E-03  mag=     1.0000
       N       E                     dE             d eps       ncg     rms          rms(c)
DAV:   1    -0.421960094284E+02   -0.12873E-03   -0.21977E-01   608   0.102E+00    0.248E-02
DAV:   2    -0.421961209441E+02   -0.11152E-03   -0.97872E-04   656   0.942E-02    0.178E-02
DAV:   3    -0.421961299120E+02   -0.89680E-05   -0.14063E-05   368   0.110E-02
  16 F= -.42196130E+02 E0= -.42196130E+02  d E =-.125146E-02  mag=     1.0000
       N       E                     dE             d eps       ncg     rms          rms(c)
DAV:   1    -0.421963653107E+02   -0.24437E-03   -0.49392E-01   632   0.152E+00    0.413E-02
DAV:   2    -0.421966023455E+02   -0.23703E-03   -0.22297E-03   672   0.142E-01    0.312E-02
DAV:   3    -0.421966042559E+02   -0.19104E-05   -0.34755E-05   392   0.179E-02
  17 F= -.42196604E+02 E0= -.42196604E+02  d E =-.474344E-03  mag=     1.0000
       N       E                     dE             d eps       ncg     rms          rms(c)
DAV:   1    -0.421966137712E+02   -0.11426E-04   -0.22725E-05   416   0.109E-02    0.476E-03
DAV:   2    -0.421966199517E+02   -0.61804E-05   -0.27142E-06   384   0.473E-03
  18 F= -.42196620E+02 E0= -.42196620E+02  d E =-.490040E-03  mag=     1.0000
