   16   16 1000    2
  0.4985874E+03  0.1998115E-08  0.1998115E-08  0.1998115E-08  0.1000000E-15
  1.000000000000000E-004
  CAR 
 unknown system                          
    176      1    116
 
  0.0000000E+00  0.0000000E+00  0.0000000E+00  0.1000000E+01
    1       -9.061756     -9.061756
    2       -8.863259     -8.863259
    3       -8.807650     -8.807650
    4       -8.805890     -8.805890
    5       -8.775583     -8.775583
    6       -8.695208     -8.695208
    7       -8.687447     -8.687447
    8       -8.675240     -8.675241
    9       -8.644236     -8.644236
   10       -8.611595     -8.611595
   11       -8.598850     -8.598850
   12       -8.564841     -8.564841
   13       -8.532633     -8.532634
   14       -8.470942     -8.470942
   15       -8.416934     -8.416934
   16       -8.406165     -8.406165
   17       -8.384655     -8.384656
   18       -8.370840     -8.370841
   19       -8.305858     -8.305858
   20       -8.264526     -8.264526
   21       -8.254801     -8.254801
   22       -8.195344     -8.195345
   23       -8.185405     -8.185405
   24       -8.171739     -8.171739
   25       -8.103641     -8.103641
   26       -8.085561     -8.085561
   27       -8.049376     -8.049376
   28       -7.947335     -7.947335
   29       -7.903912     -7.903913
   30       -7.866732     -7.866732
   31       -7.851818     -7.851818
   32       -7.842718     -7.842719
   33       -7.764035     -7.764035
   34       -7.708826     -7.708826
   35       -7.701969     -7.701969
   36       -7.678919     -7.678919
   37       -7.650996     -7.650996
   38       -7.625980     -7.625980
   39       -7.599292     -7.599292
   40       -7.593194     -7.593194
   41       -7.561847     -7.561847
   42       -7.449021     -7.449021
   43       -7.414628     -7.414628
   44       -7.393708     -7.393708
   45       -7.347742     -7.347742
   46       -7.288211     -7.288211
   47       -7.233497     -7.233497
   48       -7.217645     -7.217645
   49       -7.184896     -7.184896
   50       -7.152965     -7.152965
   51       -7.125799     -7.125799
   52       -7.108169     -7.108170
   53       -7.061502     -7.061503
   54       -7.042478     -7.042478
   55       -7.012957     -7.012957
   56       -7.002811     -7.002811
   57       -6.970276     -6.970276
   58       -6.936741     -6.936742
   59       -6.914766     -6.914767
   60       -6.899869     -6.899869
   61       -6.872537     -6.872537
   62       -6.835473     -6.835473
   63       -6.819716     -6.819716
   64       -6.779918     -6.779918
   65       -6.756594     -6.756595
   66       -6.728192     -6.728193
   67       -6.722845     -6.722845
   68       -6.711473     -6.711473
   69       -6.684752     -6.684752
   70       -6.655353     -6.655354
   71       -6.639515     -6.639515
   72       -6.625870     -6.625870
   73       -6.561390     -6.561390
   74       -6.547284     -6.547284
   75       -6.540477     -6.540477
   76       -6.494015     -6.494015
   77       -6.455626     -6.455626
   78       -6.449637     -6.449638
   79       -6.397099     -6.397099
   80       -6.365416     -6.365416
   81       -6.339283     -6.339283
   82       -6.323281     -6.323281
   83       -6.063667     -6.063668
   84       -5.337734     -5.337735
   85       -4.878746     -4.878746
   86       -4.665024     -4.665024
   87       -4.053345     -4.053345
   88       -4.036171     -4.036171
   89       -3.477916     -3.477916
   90       -2.843213     -2.843213
   91       -2.808492     -2.808492
   92       -2.562012     -2.562012
   93       -2.160141     -2.160140
   94       -2.136821     -2.136821
   95       -1.842722     -1.842721
   96       -1.841895     -1.841895
   97       -1.277458     -1.277457
   98       -1.100993     -1.100992
   99       -0.859184     -0.859183
  100       -0.789208     -0.789207
  101       -0.597628     -0.597625
  102       -0.485951     -0.485950
  103       -0.227463     -0.227462
  104       -0.185777     -0.185771
  105       -0.097135     -0.097131
  106       -0.057882     -0.057889
  107        0.070527      0.070528
  108        0.296902      0.296702
  109        0.441860      0.441851
  110        0.511208      0.511078
  111        0.602394      0.602308
  112        0.683140      0.682730
  113        0.728729      0.728379
  114        0.740801      0.740484
  115        0.747099      0.746716
  116        0.794457      0.794325
