 vasp.5.3.5 31Mar14 (build Feb 01 2018 12:10:03) gamma-only                     
  
 executed on             LinuxIFC date 2019.03.22  08:01:32
 running on   32 total cores
 distrk:  each k-point on   32 cores,    1 groups
 distr:  one band on NCORES_PER_BAND=   8 cores,    4 groups


--------------------------------------------------------------------------------------------------------


 INCAR:
 POTCAR:    PAW_PBE Ag 02Apr2005                  
 POTCAR:    PAW_PBE Ag 02Apr2005                  
   VRHFIN =Ag : s1 d10                                                          
   LEXCH  = PE                                                                  
   EATOM  =  1037.2675 eV,   76.2370 Ry                                         
                                                                                
   TITEL  = PAW_PBE Ag 02Apr2005                                                
   LULTRA =        F    use ultrasoft PP ?                                      
   IUNSCR =        1    unscreen: 0-lin 1-nonlin 2-no                           
   RPACOR =    2.000    partial core radius                                     
   POMASS =  107.868; ZVAL   =   11.000    mass and valenz                      
   RCORE  =    2.500    outmost cutoff radius                                   
   RWIGS  =    2.840; RWIGS  =    1.503    wigner-seitz radius (au A)           
   ENMAX  =  249.844; ENMIN  =  187.383 eV                                      
   ICORE  =        3    local potential                                         
   LCOR   =        T    correct aug charges                                     
   LPAW   =        T    paw PP                                                  
   EAUG   =  412.496                                                            
   DEXC   =    0.000                                                            
   RMAX   =    2.560    core radius for proj-oper                               
   RAUG   =    1.300    factor for augmentation sphere                          
   RDEP   =    2.576    radius for radial grids                                 
   RDEPT  =    2.072    core radius for aug-charge                              
                                                                                
   Atomic configuration                                                         
   12 entries                                                                   
     n  l   j            E        occ.                                          
     1  0  0.50    -25324.9161   2.0000                                         
     2  0  0.50     -3728.5341   2.0000                                         
     2  1  1.50     -3344.0404   6.0000                                         
     3  0  0.50      -683.5581   2.0000                                         
     3  1  1.50      -557.3225   6.0000                                         
     3  2  2.50      -358.3853  10.0000                                         
     4  0  0.50       -95.0341   2.0000                                         
     4  1  1.50       -58.5511   6.0000                                         
     4  2  2.50        -7.4440  10.0000                                         
     5  0  0.50        -4.4045   1.0000                                         
     5  1  0.50        -1.3606   0.0000                                         
     4  3  2.50        -1.3606   0.0000                                         
   Description                                                                  
     l       E           TYP  RCUT    TYP  RCUT                                 
     2     -7.4439781     23  2.400                                             
     2     -8.8045607     23  2.400                                             
     0     -4.4044681     23  2.400                                             
     0      1.9520038     23  2.400                                             
     1     -1.3605826     23  2.500                                             
     1     27.2116520     23  2.500                                             
     3     -4.0817478     23  2.400                                             
  local pseudopotential read in
  partial core-charges read in
  partial kinetic energy density read in
  atomic valenz-charges read in
  non local Contribution for L=           2  read in
    real space projection operators read in
  non local Contribution for L=           2  read in
    real space projection operators read in
  non local Contribution for L=           0  read in
    real space projection operators read in
  non local Contribution for L=           0  read in
    real space projection operators read in
  non local Contribution for L=           1  read in
    real space projection operators read in
  non local Contribution for L=           1  read in
    real space projection operators read in
    PAW grid and wavefunctions read in
 
   number of l-projection  operators is LMAX  =           6
   number of lm-projection operators is LMMAX =          18
 

 ----------------------------------------------------------------------------- 
|                                                                             |
|  ADVICE TO THIS USER RUNNING 'VASP/VAMP'   (HEAR YOUR MASTER'S VOICE ...):  |
|                                                                             |
|      You have a (more or less) 'large supercell' and for larger cells       |
|      it might be more efficient to use real space projection opertators     |
|      So try LREAL= Auto  in the INCAR   file.                               |
|      Mind: At the moment your POTCAR file does not contain real space       |
|       projectors, and has to be modified,  BUT if you                       |
|      want to do an extremely  accurate calculation you might also keep the  |
|      reciprocal projection scheme          (i.e. LREAL=.FALSE.)             |
|                                                                             |
 ----------------------------------------------------------------------------- 

  PAW_PBE Ag 02Apr2005                  :
 energy of atom  1       EATOM=-1037.2675
 kinetic energy error for atom=    0.0689 (will be added to EATOM!!)
 
 
 POSCAR: Al27, -83 <s> Ag </s>                   
  positions in direct lattice
  No initial velocities read in
 exchange correlation table for  LEXCH =        8
   RHO(1)=    0.500       N(1)  =     2000
   RHO(2)=  100.500       N(2)  =     4000
 


--------------------------------------------------------------------------------------------------------


 ion  position               nearest neighbor table
   1  0.312  0.488  0.610-  11 2.69  10 2.69   2 2.76   5 2.96
   2  0.436  0.482  0.629-   3 2.67   1 2.76  12 2.83  13 2.84  10 2.99  11 2.99   6 3.20   5 3.60

   3  0.557  0.478  0.628-   2 2.67   4 2.77  13 2.84  12 2.84  15 2.99  14 2.99   6 3.21
   4  0.681  0.477  0.604-  15 2.69  14 2.69   3 2.77   7 2.97
   5  0.361  0.503  0.485-  17 2.76  16 2.76  10 2.81  11 2.81   8 2.86   1 2.96   6 2.97   2 3.60

   6  0.495  0.497  0.497-  13 2.78  12 2.78  18 2.87  16 2.87  17 2.87  19 2.88   7 2.97   5 2.97
                             9 3.13   8 3.13   2 3.20   3 3.21
   7  0.629  0.495  0.480-  19 2.76  18 2.76  15 2.81  14 2.81   9 2.86   6 2.97   4 2.97
   8  0.426  0.515  0.373-  17 2.79  16 2.79  21 2.84  20 2.84   5 2.86   9 2.94   6 3.13
   9  0.560  0.511  0.371-  19 2.79  18 2.79  21 2.84  20 2.84   7 2.86   8 2.94   6 3.13
  10  0.371  0.590  0.578-   1 2.69  22 2.76   5 2.81  12 2.81  16 2.85   2 2.99
  11  0.365  0.394  0.553-   1 2.69  23 2.75   5 2.81  13 2.81  17 2.85   2 2.99
  12  0.499  0.586  0.587-   6 2.78  14 2.81  10 2.81  24 2.82  22 2.83   2 2.83   3 2.84  18 3.15
                            16 3.16
  13  0.493  0.388  0.561-   6 2.78  15 2.81  11 2.81  23 2.83  25 2.83   3 2.84   2 2.84  17 3.14
                            19 3.15
  14  0.626  0.583  0.574-   4 2.69  24 2.76  12 2.81   7 2.81  18 2.85   3 2.99
  15  0.620  0.387  0.549-   4 2.69  25 2.76  13 2.81   7 2.81  19 2.85   3 2.99
  16  0.430  0.605  0.463-   5 2.76  26 2.78   8 2.79  10 2.85  22 2.87   6 2.87  20 2.91  18 2.98
                            12 3.16
  17  0.424  0.405  0.437-   5 2.76  27 2.78   8 2.79  11 2.85   6 2.87  23 2.88  21 2.91  19 2.98
                            13 3.14
  18  0.565  0.601  0.461-   7 2.76  26 2.78   9 2.79  14 2.85   6 2.87  24 2.88  20 2.91  16 2.98
                            12 3.15
  19  0.559  0.401  0.435-   7 2.76  27 2.78   9 2.79  15 2.85  25 2.88   6 2.88  21 2.91  17 2.98
                            13 3.15
  20  0.496  0.621  0.349-  26 2.82   9 2.84   8 2.84  16 2.91  18 2.91
  21  0.490  0.414  0.323-  27 2.82   9 2.84   8 2.84  17 2.91  19 2.91
  22  0.437  0.695  0.558-  10 2.76  12 2.83  24 2.84  16 2.87  26 2.89
  23  0.425  0.294  0.507-  11 2.75  13 2.83  25 2.85  17 2.88  27 2.88
  24  0.566  0.692  0.556-  14 2.76  12 2.82  22 2.84  18 2.88  26 2.89
  25  0.554  0.290  0.504-  15 2.76  13 2.83  23 2.85  19 2.88  27 2.89
  26  0.501  0.709  0.443-  18 2.78  16 2.78  20 2.82  22 2.89  24 2.89
  27  0.488  0.306  0.392-  17 2.78  19 2.78  21 2.82  23 2.88  25 2.89
 
  LATTYP: Found a simple cubic cell.
 ALAT       =    21.9537580000
  
  Lattice vectors:
  
 A1 = (  21.9537580000,   0.0000000000,   0.0000000000)
 A2 = (   0.0000000000,  21.9537580000,   0.0000000000)
 A3 = (   0.0000000000,   0.0000000000,  21.9537580000)


Analysis of symmetry for initial positions (statically):
=====================================================================
 Subroutine PRICEL returns:
 Original cell was already a primitive cell.
 

 Routine SETGRP: Setting up the symmetry group for a 
 simple cubic supercell.


 Subroutine GETGRP returns: Found  1 space group operations
 (whereof  1 operations were pure point group operations)
 out of a pool of 48 trial point group operations.


The static configuration has the point symmetry C_1 .


Analysis of symmetry for dynamics (positions and initial velocities):
=====================================================================
 Subroutine PRICEL returns:
 Original cell was already a primitive cell.
 

 Routine SETGRP: Setting up the symmetry group for a 
 simple cubic supercell.


 Subroutine GETGRP returns: Found  1 space group operations
 (whereof  1 operations were pure point group operations)
 out of a pool of 48 trial point group operations.


The dynamic configuration has the point symmetry C_1 .


Analysis of magnetic symmetry:
=====================================================================
 Subroutine PRICEL returns:
 Original cell was already a primitive cell.
 

 Subroutine MAGSYM returns: Found  1 space group operations
 (whereof  1 operations were pure point group operations)
 out of a pool of  1 trial space group operations
 (whereof  1 operations were pure point group operations)
 and found also     1 'primitive' translations


The magnetic configuration has the point symmetry C_1 .
 
 
 KPOINTS: Gamma-point only                        
  k-points in reciprocal lattice
Space group operators:
 irot       det(A)        alpha          n_x          n_y          n_z        tau_x        tau_y        tau_z
    1     1.000000     0.000000     1.000000     0.000000     0.000000     0.000000     0.000000     0.000000


--------------------------------------------------------------------------------------------------------




 Dimension of arrays:
   k-points           NKPTS =      1   k-points in BZ     NKDIM =      1   number of bands    NBANDS=    192
   number of dos      NEDOS =    301   number of ions     NIONS =     27
   non local maximal  LDIM  =      6   non local SUM 2l+1 LMDIM =     18
   total plane-waves  NPLWV = 729000
   max r-space proj   IRMAX =      1   max aug-charges    IRDMAX=   3587
   dimension x,y,z NGX =    90 NGY =   90 NGZ =   90
   dimension x,y,z NGXF=   180 NGYF=  180 NGZF=  180
   support grid    NGXF=   180 NGYF=  180 NGZF=  180
   ions per type =              27
 NGX,Y,Z   is equivalent  to a cutoff of   6.82,  6.82,  6.82 a.u.
 NGXF,Y,Z  is equivalent  to a cutoff of  13.63, 13.63, 13.63 a.u.


 I would recommend the setting:
   dimension x,y,z NGX =    85 NGY =   85 NGZ =   85
 SYSTEM =  unknown system                          
 POSCAR =  Al27, -83 <s> Ag </s>                   

 Startparameter for this run:
   NWRITE =      2    write-flag & timer
   PREC   = normal    normal or accurate (medium, high low for compatibility)
   ISTART =      0    job   : 0-new  1-cont  2-samecut
   ICHARG =      2    charge: 1-file 2-atom 10-const
   ISPIN  =      2    spin polarized calculation?
   LNONCOLLINEAR =      F non collinear calculations
   LSORBIT =      F    spin-orbit coupling
   INIWAV =      1    electr: 0-lowe 1-rand  2-diag
   LASPH  =      F    aspherical Exc in radial PAW
   METAGGA=      F    non-selfconsistent MetaGGA calc.

 Electronic Relaxation 1
   ENCUT  =  249.8 eV  18.36 Ry    4.29 a.u.  28.29 28.29 28.29*2*pi/ulx,y,z
   ENINI  =  249.8     initial cutoff
   ENAUG  =  412.5 eV  augmentation charge cutoff
   NELM   =     60;   NELMIN=  2; NELMDL= -5     # of ELM steps 
   EDIFF  = 0.1E-03   stopping-criterion for ELM
   LREAL  =      F    real-space projection
   NLSPLINE    = F    spline interpolate recip. space projectors
   LCOMPAT=      F    compatible to vasp.4.4
   GGA_COMPAT  = T    GGA compatible to vasp.4.4-vasp.4.6
   LMAXPAW     = -100 max onsite density
   LMAXMIX     =    2 max onsite mixed and CHGCAR
   VOSKOWN=      0    Vosko Wilk Nusair interpolation
   ROPT   =    0.00000
 Ionic relaxation
   EDIFFG = 0.1E-02   stopping-criterion for IOM
   NSW    =   1000    number of steps for IOM
   NBLOCK =      1;   KBLOCK =   1000    inner block; outer block 
   IBRION =      2    ionic relax: 0-MD 1-quasi-New 2-CG
   NFREE  =      1    steps in history (QN), initial steepest desc. (CG)
   ISIF   =      2    stress and relaxation
   IWAVPR =     11    prediction:  0-non 1-charg 2-wave 3-comb
   ISYM   =      2    0-nonsym 1-usesym 2-fastsym
   LCORR  =      T    Harris-Foulkes like correction to forces

   POTIM  = 0.1000    time-step for ionic-motion
   TEIN   =    0.0    initial temperature
   TEBEG  =    0.0;   TEEND  =   0.0 temperature during run
   SMASS  =  -3.00    Nose mass-parameter (am)
   estimated Nose-frequenzy (Omega)   =  0.10E-29 period in steps =****** mass=  -0.110E-25a.u.
   SCALEE = 1.0000    scale energy and forces
   NPACO  =    256;   APACO  = 16.0  distance and # of slots for P.C.
   PSTRESS=    0.0 pullay stress

  Mass of Ions in am
   POMASS = 107.87
  Ionic Valenz
   ZVAL   =  11.00
  Atomic Wigner-Seitz radii
   RWIGS  =  -1.00
  virtual crystal weights 
   VCA    =   1.00
   NELECT =     297.0000    total number of electrons
   NUPDOWN=      -1.0000    fix difference up-down

 DOS related values:
   EMIN   =  10.00;   EMAX   =-10.00  energy-range for DOS
   EFERMI =   0.00
   ISMEAR =     0;   SIGMA  =   0.00  broadening in eV -4-tet -1-fermi 0-gaus

 Electronic relaxation 2 (details)
   IALGO  =     38    algorithm
   LDIAG  =      T    sub-space diagonalisation (order eigenvalues)
   LSUBROT=      F    optimize rotation matrix (better conditioning)
   TURBO    =      0    0=normal 1=particle mesh
   IRESTART =      0    0=no restart 2=restart with 2 vectors
   NREBOOT  =      0    no. of reboots
   NMIN     =      0    reboot dimension
   EREF     =   0.00    reference energy to select bands
   IMIX   =      4    mixing-type and parameters
     AMIX     =   0.40;   BMIX     =  1.00
     AMIX_MAG =   1.60;   BMIX_MAG =  1.00
     AMIN     =   0.10
     WC   =   100.;   INIMIX=   1;  MIXPRE=   1;  MAXMIX= -45

 Intra band minimization:
   WEIMIN = 0.0010     energy-eigenvalue tresh-hold
   EBREAK =  0.13E-06  absolut break condition
   DEPER  =   0.30     relativ break condition  

   TIME   =   0.40     timestep for ELM

  volume/ion in A,a.u.               =     391.89      2644.60
  Fermi-wavevector in a.u.,A,eV,Ry     =   0.497529  0.940193  3.367915  0.247535
  Thomas-Fermi vector in A             =   1.504052
 
 Write flags
   LWAVE  =      F    write WAVECAR
   LCHARG =      F    write CHGCAR
   LVTOT  =      F    write LOCPOT, total local potential
   LVHAR  =      F    write LOCPOT, Hartree potential only
   LELF   =      F    write electronic localiz. function (ELF)
   LORBIT =      0    0 simple, 1 ext, 2 COOP (PROOUT)


 Dipole corrections
   LMONO  =      F    monopole corrections only (constant potential shift)
   LDIPOL =      F    correct potential (dipole corrections)
   IDIPOL =      0    1-x, 2-y, 3-z, 4-all directions 
   EPSILON=  1.0000000 bulk dielectric constant

 Exchange correlation treatment:
   GGA     =    PE    GGA type
   LEXCH   =     8    internal setting for exchange type
   VOSKOWN=      0    Vosko Wilk Nusair interpolation
   LHFCALC =     F    Hartree Fock is set to
   LHFONE  =     F    Hartree Fock one center treatment
   AEXX    =    0.0000 exact exchange contribution

 Linear response parameters
   LEPSILON=     F    determine dielectric tensor
   LRPA    =     F    only Hartree local field effects (RPA)
   LNABLA  =     F    use nabla operator in PAW spheres
   LVEL    =     F    velocity operator in full k-point grid
   LINTERFAST=   F  fast interpolation
   KINTER  =     0    interpolate to denser k-point grid
   CSHIFT  =0.1000    complex shift for real part using Kramers Kronig
   OMEGAMAX=  -1.0    maximum frequency
   DEG_THRESHOLD= 0.2000000E-02 threshold for treating states as degnerate
   RTIME   =    0.100 relaxation time in fs

 Orbital magnetization related:
   ORBITALMAG=     F  switch on orbital magnetization
   LCHIMAG   =     F  perturbation theory with respect to B field
   DQ        =  0.001000  dq finite difference perturbation B field



--------------------------------------------------------------------------------------------------------


 conjugate gradient relaxation of ions
 charge density and potential will be updated during run
 spin polarized calculation
 Variant of blocked Davidson
 Davidson routine will perform the subspace rotation
 perform sub-space diagonalisation
    after iterative eigenvector-optimisation
 modified Broyden-mixing scheme, WC =      100.0
 initial mixing is a Kerker type mixing with AMIX =  0.4000 and BMIX =      1.0000
 Hartree-type preconditioning will be used
 using additional bands           43
 reciprocal scheme for non local part
 use partial core corrections
 calculate Harris-corrections to forces 
   (improved forces if not selfconsistent)
 use gradient corrections 
 use of overlap-Matrix (Vanderbilt PP)
 Gauss-broadening in eV      SIGMA  =   0.00


--------------------------------------------------------------------------------------------------------


  energy-cutoff  :      249.84
  volume of cell :    10581.00
      direct lattice vectors                 reciprocal lattice vectors
    21.953758000  0.000000000  0.000000000     0.045550288  0.000000000  0.000000000
     0.000000000 21.953758000  0.000000000     0.000000000  0.045550288  0.000000000
     0.000000000  0.000000000 21.953758000     0.000000000  0.000000000  0.045550288

  length of vectors
    21.953758000 21.953758000 21.953758000     0.045550288  0.045550288  0.045550288


 
 k-points in units of 2pi/SCALE and weight: Gamma-point only                        
   0.00000000  0.00000000  0.00000000       1.000
 
 k-points in reciprocal lattice and weights: Gamma-point only                        
   0.00000000  0.00000000  0.00000000       1.000
 
 position of ions in fractional coordinates (direct lattice) 
   0.31166410  0.48819653  0.61002437
   0.43585460  0.48201165  0.62933742
   0.55743251  0.47826250  0.62783537
   0.68114415  0.47746876  0.60407041
   0.36059311  0.50270753  0.48509232
   0.49512907  0.49723827  0.49714699
   0.62924910  0.49488559  0.48041038
   0.42642111  0.51496965  0.37342164
   0.56030560  0.51103455  0.37117140
   0.37142200  0.59014632  0.57780396
   0.36538847  0.39420440  0.55278844
   0.49917759  0.58635115  0.58725138
   0.49306617  0.38805249  0.56142239
   0.62638129  0.58264239  0.57356230
   0.62025599  0.38700648  0.54866983
   0.42977941  0.60528218  0.46276087
   0.42364204  0.40523742  0.43739563
   0.56542795  0.60130907  0.46060319
   0.55923424  0.40110839  0.43492111
   0.49620528  0.62119050  0.34906811
   0.48970132  0.41410206  0.32279263
   0.43707715  0.69518866  0.55756528
   0.42464214  0.29387368  0.50654611
   0.56630766  0.69151852  0.55581147
   0.55420236  0.29001868  0.50418511
   0.50054026  0.70863761  0.44301203
   0.48763449  0.30582321  0.39186452
 
 position of ions in cartesian coordinates  (Angst):
   6.84219827 10.71774839 13.39232731
   9.56864631 10.58196721 13.81632131
  12.23773836 10.49965911 13.78334572
  14.95367388 10.48223368 13.26161559
   7.91637396 11.03631945 10.64959932
  10.86994372 10.91624856 10.91424467
  13.81438251 10.86459840 10.54681324
   9.36154582 11.30551900  8.19800841
  12.30081353 11.21912884  8.14860713
   8.15410880 12.95592943 12.68496823
   8.02165012  8.65426806 12.13578358
  10.95882395 12.87261134 12.89237459
  10.82465528  8.51921051 12.32533138
  13.75142333 12.79119005 12.59184788
  13.61694980  8.49624656 12.04536476
   9.43527310 13.28821852 10.15934005
   9.30053477  8.89648422  9.60247784
  12.41326843 13.20099389 10.11197107
  12.27729326  8.80583651  9.54815285
  10.89357074 13.63746600  7.66335676
  10.75078429  9.09109634  7.08651130
   9.59548600 15.26200363 12.24065329
   9.32249078  6.45163172 11.12059075
  12.43258143 15.18143017 12.20215046
  12.16682448  6.36699981 11.06875789
  10.98873980 15.55725869  9.72577885
  10.70540962  6.71396866  8.60289881
 


--------------------------------------------------------------------------------------------------------


 use parallel FFT for wavefunctions z direction half grid
 k-point  1 :   0.0000 0.0000 0.0000  plane waves:   47309

 maximum and minimum number of plane-waves per node :      5916     5909

 maximum number of plane-waves:     47309
 maximum index in each direction: 
   IXMAX=   28   IYMAX=   28   IZMAX=   28
   IXMIN=  -28   IYMIN=  -28   IZMIN=    0

 WARNING: aliasing errors must be expected set NGX to 114 to avoid them
 WARNING: aliasing errors must be expected set NGY to 114 to avoid them
 WARNING: aliasing errors must be expected set NGZ to 114 to avoid them
 aliasing errors are usually negligible using standard VASP settings
 and one can safely disregard these warnings

 parallel 3D FFT for wavefunctions:
    minimum data exchange during FFTs selected (reduces bandwidth)
 parallel 3D FFT for charge:
    minimum data exchange during FFTs selected (reduces bandwidth)


 total amount of memory used by VASP on root node    73114. kBytes
========================================================================

   base      :      30000. kBytes
   nonl-proj :       3407. kBytes
   fftplans  :       8575. kBytes
   grid      :      21928. kBytes
   one-center:         62. kBytes
   wavefun   :       9142. kBytes
 
     INWAV:  cpu time    0.00: real time    0.00
 Broyden mixing: mesh for mixing (old mesh)
   NGX = 57   NGY = 57   NGZ = 57
  (NGX  =180   NGY  =180   NGZ  =180)
  gives a total of 185193 points

 initial charge density was supplied:
 charge density of overlapping atoms calculated
 number of electron     297.0000000 magnetization      27.0000000
 keeping initial charge density in first step


--------------------------------------------------------------------------------------------------------


 Maximum index for augmentation-charges          264 (set IRDMAX)


--------------------------------------------------------------------------------------------------------


 First call to EWALD:  gamma=   0.081
 Maximum number of real-space cells 3x 3x 3
 Maximum number of reciprocal cells 3x 3x 3

 FEWALD executed in parallel
    FEWALD:  cpu time    0.00: real time    0.00


----------------------------------------- Iteration    1(   1)  ---------------------------------------


    POTLOK:  cpu time    0.37: real time    0.37
    SETDIJ:  cpu time    0.01: real time    0.01
     EDDAV:  cpu time    3.78: real time    3.78
       DOS:  cpu time    0.00: real time    0.00
    --------------------------------------------
      LOOP:  cpu time    4.16: real time    4.19

 eigenvalue-minimisations  :   768
 total energy-change (2. order) : 0.2622731E+04  (-0.5312973E+04)
 number of electron     297.0000000 magnetization      27.0000000
 augmentation part      297.0000000 magnetization      27.0000000

 Free energy of the ion-electron system (eV)
  ---------------------------------------------------
  alpha Z        PSCENC =        58.60235802
  Ewald energy   TEWEN  =     56939.77456510
  -Hartree energ DENC   =    -83781.88538100
  -exchange      EXHF   =         0.00000000
  -V(xc)+E(xc)   XCENC  =      -297.15102280
  PAW double counting   =     27091.04880788   -25846.14443973
  entropy T*S    EENTRO =         0.00000000
  eigenvalues    EBANDS =       454.12269438
  atomic energy  EATOM  =     28004.36301233
  ---------------------------------------------------
  free energy    TOTEN  =      2622.73059419 eV

  energy without entropy =     2622.73059419  energy(sigma->0) =     2622.73059419


--------------------------------------------------------------------------------------------------------




----------------------------------------- Iteration    1(   2)  ---------------------------------------


     EDDAV:  cpu time    5.92: real time    5.92
       DOS:  cpu time    0.00: real time    0.00
    --------------------------------------------
      LOOP:  cpu time    5.92: real time    5.93

 eigenvalue-minimisations  :  1344
 total energy-change (2. order) :-0.1985069E+04  (-0.1773274E+04)
 number of electron     297.0000000 magnetization      27.0000000
 augmentation part      297.0000000 magnetization      27.0000000

 Free energy of the ion-electron system (eV)
  ---------------------------------------------------
  alpha Z        PSCENC =        58.60235802
  Ewald energy   TEWEN  =     56939.77456510
  -Hartree energ DENC   =    -83781.88538100
  -exchange      EXHF   =         0.00000000
  -V(xc)+E(xc)   XCENC  =      -297.15102280
  PAW double counting   =     27091.04880788   -25846.14443973
  entropy T*S    EENTRO =         0.00000000
  eigenvalues    EBANDS =     -1530.94604872
  atomic energy  EATOM  =     28004.36301233
  ---------------------------------------------------
  free energy    TOTEN  =       637.66185109 eV

  energy without entropy =      637.66185109  energy(sigma->0) =      637.66185109


--------------------------------------------------------------------------------------------------------




----------------------------------------- Iteration    1(   3)  ---------------------------------------


     EDDAV:  cpu time    4.73: real time    4.74
       DOS:  cpu time    0.00: real time    0.00
    --------------------------------------------
      LOOP:  cpu time    4.74: real time    4.74

 eigenvalue-minimisations  :  1024
 total energy-change (2. order) :-0.6508127E+03  (-0.5991076E+03)
 number of electron     297.0000000 magnetization      27.0000000
 augmentation part      297.0000000 magnetization      27.0000000

 Free energy of the ion-electron system (eV)
  ---------------------------------------------------
  alpha Z        PSCENC =        58.60235802
  Ewald energy   TEWEN  =     56939.77456510
  -Hartree energ DENC   =    -83781.88538100
  -exchange      EXHF   =         0.00000000
  -V(xc)+E(xc)   XCENC  =      -297.15102280
  PAW double counting   =     27091.04880788   -25846.14443973
  entropy T*S    EENTRO =         0.00000000
  eigenvalues    EBANDS =     -2181.75873332
  atomic energy  EATOM  =     28004.36301233
  ---------------------------------------------------
  free energy    TOTEN  =       -13.15083352 eV

  energy without entropy =      -13.15083352  energy(sigma->0) =      -13.15083352


--------------------------------------------------------------------------------------------------------




----------------------------------------- Iteration    1(   4)  ---------------------------------------


     EDDAV:  cpu time    4.09: real time    4.09
       DOS:  cpu time    0.00: real time    0.00
    --------------------------------------------
      LOOP:  cpu time    4.09: real time    4.10

 eigenvalue-minimisations  :   848
 total energy-change (2. order) :-0.4200384E+02  (-0.4128137E+02)
 number of electron     297.0000000 magnetization      27.0000000
 augmentation part      297.0000000 magnetization      27.0000000

 Free energy of the ion-electron system (eV)
  ---------------------------------------------------
  alpha Z        PSCENC =        58.60235802
  Ewald energy   TEWEN  =     56939.77456510
  -Hartree energ DENC   =    -83781.88538100
  -exchange      EXHF   =         0.00000000
  -V(xc)+E(xc)   XCENC  =      -297.15102280
  PAW double counting   =     27091.04880788   -25846.14443973
  entropy T*S    EENTRO =         0.00000000
  eigenvalues    EBANDS =     -2223.76257287
  atomic energy  EATOM  =     28004.36301233
  ---------------------------------------------------
  free energy    TOTEN  =       -55.15467306 eV

  energy without entropy =      -55.15467306  energy(sigma->0) =      -55.15467306


--------------------------------------------------------------------------------------------------------




----------------------------------------- Iteration    1(   5)  ---------------------------------------


     EDDAV:  cpu time    4.16: real time    4.15
       DOS:  cpu time    0.00: real time    0.00
    CHARGE:  cpu time    0.17: real time    0.17
    MIXING:  cpu time    0.01: real time    0.01
    --------------------------------------------
      LOOP:  cpu time    4.34: real time    4.34

 eigenvalue-minimisations  :   864
 total energy-change (2. order) :-0.7112746E+00  (-0.7100394E+00)
 number of electron     297.0000455 magnetization      23.8504841
 augmentation part      139.6455948 magnetization      23.4391067

 Broyden mixing:
  rms(total) = 0.29192E+01    rms(broyden)= 0.29187E+01
  rms(prec ) = 0.29693E+01
  weight for this iteration     100.00

 Free energy of the ion-electron system (eV)
  ---------------------------------------------------
  alpha Z        PSCENC =        58.60235802
  Ewald energy   TEWEN  =     56939.77456510
  -Hartree energ DENC   =    -83781.88538100
  -exchange      EXHF   =         0.00000000
  -V(xc)+E(xc)   XCENC  =      -297.15102280
  PAW double counting   =     27091.04880788   -25846.14443973
  entropy T*S    EENTRO =         0.00000000
  eigenvalues    EBANDS =     -2224.47384746
  atomic energy  EATOM  =     28004.36301233
  ---------------------------------------------------
  free energy    TOTEN  =       -55.86594765 eV

  energy without entropy =      -55.86594765  energy(sigma->0) =      -55.86594765


--------------------------------------------------------------------------------------------------------




----------------------------------------- Iteration    1(   6)  ---------------------------------------


    POTLOK:  cpu time    0.37: real time    0.37
    SETDIJ:  cpu time    0.01: real time    0.01
     EDDAV:  cpu time    3.80: real time    3.81
       DOS:  cpu time    0.00: real time    0.00
    CHARGE:  cpu time    0.17: real time    0.17
    MIXING:  cpu time    0.01: real time    0.01
    --------------------------------------------
      LOOP:  cpu time    4.36: real time    4.37

 eigenvalue-minimisations  :   768
 total energy-change (2. order) : 0.3770298E+02  (-0.1132567E+02)
 number of electron     297.0000467 magnetization      21.7458620
 augmentation part      142.8215759 magnetization      14.7304356

 Broyden mixing:
  rms(total) = 0.15180E+01    rms(broyden)= 0.15178E+01
  rms(prec ) = 0.15428E+01
  weight for this iteration     100.00

 eigenvalues of (default mixing * dielectric matrix)
  average eigenvalue GAMMA=   0.8493
  0.8493

 Free energy of the ion-electron system (eV)
  ---------------------------------------------------
  alpha Z        PSCENC =        58.60235802
  Ewald energy   TEWEN  =     56939.77456510
  -Hartree energ DENC   =    -83675.54668369
  -exchange      EXHF   =         0.00000000
  -V(xc)+E(xc)   XCENC  =      -278.68596824
  PAW double counting   =     27942.03461589   -26716.13144659
  entropy T*S    EENTRO =         0.00000000
  eigenvalues    EBANDS =     -2292.57342324
  atomic energy  EATOM  =     28004.36301233
  ---------------------------------------------------
  free energy    TOTEN  =       -18.16297041 eV

  energy without entropy =      -18.16297041  energy(sigma->0) =      -18.16297041


--------------------------------------------------------------------------------------------------------




----------------------------------------- Iteration    1(   7)  ---------------------------------------


    POTLOK:  cpu time    0.37: real time    0.37
    SETDIJ:  cpu time    0.01: real time    0.01
     EDDAV:  cpu time    3.98: real time    3.99
       DOS:  cpu time    0.00: real time    0.00
    CHARGE:  cpu time    0.17: real time    0.17
    MIXING:  cpu time    0.01: real time    0.01
    --------------------------------------------
      LOOP:  cpu time    4.55: real time    4.55

 eigenvalue-minimisations  :   816
 total energy-change (2. order) : 0.5706698E+01  (-0.6075354E+00)
 number of electron     297.0000467 magnetization      18.4799545
 augmentation part      142.7826129 magnetization      11.7377772

 Broyden mixing:
  rms(total) = 0.91587E+00    rms(broyden)= 0.91586E+00
  rms(prec ) = 0.92853E+00
  weight for this iteration     100.00

 eigenvalues of (default mixing * dielectric matrix)
  average eigenvalue GAMMA=   0.9838
  0.7597  1.2078

 Free energy of the ion-electron system (eV)
  ---------------------------------------------------
  alpha Z        PSCENC =        58.60235802
  Ewald energy   TEWEN  =     56939.77456510
  -Hartree energ DENC   =    -83742.13344312
  -exchange      EXHF   =         0.00000000
  -V(xc)+E(xc)   XCENC  =      -273.90660754
  PAW double counting   =     28459.92807574   -27246.17518976
  entropy T*S    EENTRO =         0.00000000
  eigenvalues    EBANDS =     -2212.90904342
  atomic energy  EATOM  =     28004.36301233
  ---------------------------------------------------
  free energy    TOTEN  =       -12.45627265 eV

  energy without entropy =      -12.45627265  energy(sigma->0) =      -12.45627265


--------------------------------------------------------------------------------------------------------




----------------------------------------- Iteration    1(   8)  ---------------------------------------


    POTLOK:  cpu time    0.37: real time    0.37
    SETDIJ:  cpu time    0.01: real time    0.01
     EDDAV:  cpu time    4.02: real time    4.02
       DOS:  cpu time    0.00: real time    0.00
    CHARGE:  cpu time    0.17: real time    0.17
    MIXING:  cpu time    0.01: real time    0.01
    --------------------------------------------
      LOOP:  cpu time    4.58: real time    4.63

 eigenvalue-minimisations  :   824
 total energy-change (2. order) :-0.2415500E+01  (-0.1946751E+00)
 number of electron     297.0000466 magnetization      16.1521299
 augmentation part      142.5942636 magnetization       9.6248761

 Broyden mixing:
  rms(total) = 0.50557E+00    rms(broyden)= 0.50556E+00
  rms(prec ) = 0.50938E+00
  weight for this iteration     100.00

 eigenvalues of (default mixing * dielectric matrix)
  average eigenvalue GAMMA=   1.2455
  2.2154  0.9052  0.6160

 Free energy of the ion-electron system (eV)
  ---------------------------------------------------
  alpha Z        PSCENC =        58.60235802
  Ewald energy   TEWEN  =     56939.77456510
  -Hartree energ DENC   =    -83818.18019741
  -exchange      EXHF   =         0.00000000
  -V(xc)+E(xc)   XCENC  =      -275.38010573
  PAW double counting   =     29063.35768166   -27862.28385352
  entropy T*S    EENTRO =         0.00000000
  eigenvalues    EBANDS =     -2125.12523320
  atomic energy  EATOM  =     28004.36301233
  ---------------------------------------------------
  free energy    TOTEN  =       -14.87177276 eV

  energy without entropy =      -14.87177276  energy(sigma->0) =      -14.87177276


--------------------------------------------------------------------------------------------------------




----------------------------------------- Iteration    1(   9)  ---------------------------------------


    POTLOK:  cpu time    0.37: real time    0.37
    SETDIJ:  cpu time    0.01: real time    0.01
     EDDAV:  cpu time    4.14: real time    4.14
       DOS:  cpu time    0.00: real time    0.00
    CHARGE:  cpu time    0.17: real time    0.17
    MIXING:  cpu time    0.01: real time    0.01
    --------------------------------------------
      LOOP:  cpu time    4.71: real time    4.71

 eigenvalue-minimisations  :   856
 total energy-change (2. order) :-0.4351212E+01  (-0.1030522E+00)
 number of electron     297.0000465 magnetization      13.7442554
 augmentation part      142.5402272 magnetization       7.4132946

 Broyden mixing:
  rms(total) = 0.30898E+00    rms(broyden)= 0.30897E+00
  rms(prec ) = 0.31290E+00
  weight for this iteration     100.00

 eigenvalues of (default mixing * dielectric matrix)
  average eigenvalue GAMMA=   1.2355
  2.2495  0.6177  0.8101  1.2646

 Free energy of the ion-electron system (eV)
  ---------------------------------------------------
  alpha Z        PSCENC =        58.60235802
  Ewald energy   TEWEN  =     56939.77456510
  -Hartree energ DENC   =    -83845.20426116
  -exchange      EXHF   =         0.00000000
  -V(xc)+E(xc)   XCENC  =      -278.44921626
  PAW double counting   =     29299.78262953   -28103.52649719
  entropy T*S    EENTRO =         0.00000000
  eigenvalues    EBANDS =     -2094.56557503
  atomic energy  EATOM  =     28004.36301233
  ---------------------------------------------------
  free energy    TOTEN  =       -19.22298467 eV

  energy without entropy =      -19.22298467  energy(sigma->0) =      -19.22298467


--------------------------------------------------------------------------------------------------------




----------------------------------------- Iteration    1(  10)  ---------------------------------------


    POTLOK:  cpu time    0.37: real time    0.37
    SETDIJ:  cpu time    0.01: real time    0.01
     EDDAV:  cpu time    3.87: real time    3.88
       DOS:  cpu time    0.00: real time    0.00
    CHARGE:  cpu time    0.17: real time    0.17
    MIXING:  cpu time    0.01: real time    0.01
    --------------------------------------------
      LOOP:  cpu time    4.44: real time    4.44

 eigenvalue-minimisations  :   784
 total energy-change (2. order) :-0.9481906E+01  (-0.3149205E+00)
 number of electron     297.0000463 magnetization      12.2536273
 augmentation part      142.5352851 magnetization       8.2182832

 Broyden mixing:
  rms(total) = 0.29781E+00    rms(broyden)= 0.29770E+00
  rms(prec ) = 0.30378E+00
  weight for this iteration     100.00

 eigenvalues of (default mixing * dielectric matrix)
  average eigenvalue GAMMA=   1.1202
  2.3462  1.3738  0.8247  0.6172  0.4389

 Free energy of the ion-electron system (eV)
  ---------------------------------------------------
  alpha Z        PSCENC =        58.60235802
  Ewald energy   TEWEN  =     56939.77456510
  -Hartree energ DENC   =    -83845.72603930
  -exchange      EXHF   =         0.00000000
  -V(xc)+E(xc)   XCENC  =      -285.46864361
  PAW double counting   =     29303.43072077   -28107.41781242
  entropy T*S    EENTRO =        -0.00000000
  eigenvalues    EBANDS =     -2096.26305111
  atomic energy  EATOM  =     28004.36301233
  ---------------------------------------------------
  free energy    TOTEN  =       -28.70489023 eV

  energy without entropy =      -28.70489023  energy(sigma->0) =      -28.70489023


--------------------------------------------------------------------------------------------------------




----------------------------------------- Iteration    1(  11)  ---------------------------------------


    POTLOK:  cpu time    0.37: real time    0.37
    SETDIJ:  cpu time    0.01: real time    0.01
     EDDAV:  cpu time    4.06: real time    4.06
       DOS:  cpu time    0.00: real time    0.00
    CHARGE:  cpu time    0.17: real time    0.17
    MIXING:  cpu time    0.01: real time    0.01
    --------------------------------------------
      LOOP:  cpu time    4.62: real time    4.72

 eigenvalue-minimisations  :   832
 total energy-change (2. order) :-0.3219301E+01  (-0.8049905E-01)
 number of electron     297.0000463 magnetization       8.8732411
 augmentation part      142.5035704 magnetization       5.0296647

 Broyden mixing:
  rms(total) = 0.23609E+00    rms(broyden)= 0.23608E+00
  rms(prec ) = 0.23986E+00
  weight for this iteration     100.00

 eigenvalues of (default mixing * dielectric matrix)
  average eigenvalue GAMMA=   1.2820
  2.7414  1.8404  0.9818  0.9818  0.6409  0.5060

 Free energy of the ion-electron system (eV)
  ---------------------------------------------------
  alpha Z        PSCENC =        58.60235802
  Ewald energy   TEWEN  =     56939.77456510
  -Hartree energ DENC   =    -83851.27491669
  -exchange      EXHF   =         0.00000000
  -V(xc)+E(xc)   XCENC  =      -287.66977385
  PAW double counting   =     29319.40233105   -28123.90704394
  entropy T*S    EENTRO =        -0.00000000
  eigenvalues    EBANDS =     -2091.21472330
  atomic energy  EATOM  =     28004.36301233
  ---------------------------------------------------
  free energy    TOTEN  =       -31.92419129 eV

  energy without entropy =      -31.92419129  energy(sigma->0) =      -31.92419129


--------------------------------------------------------------------------------------------------------




----------------------------------------- Iteration    1(  12)  ---------------------------------------


    POTLOK:  cpu time    0.37: real time    0.37
    SETDIJ:  cpu time    0.01: real time    0.01
     EDDAV:  cpu time    3.88: real time    3.88
       DOS:  cpu time    0.00: real time    0.00
    CHARGE:  cpu time    0.18: real time    0.17
    MIXING:  cpu time    0.01: real time    0.01
    --------------------------------------------
      LOOP:  cpu time    4.45: real time    4.47

 eigenvalue-minimisations  :   784
 total energy-change (2. order) :-0.9377132E+01  (-0.4677765E+00)
 number of electron     297.0000464 magnetization       7.3768027
 augmentation part      142.4898020 magnetization       5.8415872

 Broyden mixing:
  rms(total) = 0.22940E+00    rms(broyden)= 0.22925E+00
  rms(prec ) = 0.23946E+00
  weight for this iteration     100.00

 eigenvalues of (default mixing * dielectric matrix)
  average eigenvalue GAMMA=   1.2743
  3.3696  2.0064  1.0052  0.9518  0.6308  0.4832  0.4731

 Free energy of the ion-electron system (eV)
  ---------------------------------------------------
  alpha Z        PSCENC =        58.60235802
  Ewald energy   TEWEN  =     56939.77456510
  -Hartree energ DENC   =    -83854.87183055
  -exchange      EXHF   =         0.00000000
  -V(xc)+E(xc)   XCENC  =      -294.47124978
  PAW double counting   =     29277.40804153   -28081.94270983
  entropy T*S    EENTRO =         0.00000000
  eigenvalues    EBANDS =     -2090.16351044
  atomic energy  EATOM  =     28004.36301233
  ---------------------------------------------------
  free energy    TOTEN  =       -41.30132362 eV

  energy without entropy =      -41.30132362  energy(sigma->0) =      -41.30132362


--------------------------------------------------------------------------------------------------------




----------------------------------------- Iteration    1(  13)  ---------------------------------------


    POTLOK:  cpu time    0.37: real time    0.37
    SETDIJ:  cpu time    0.01: real time    0.01
     EDDAV:  cpu time    4.12: real time    4.12
       DOS:  cpu time    0.00: real time    0.00
    CHARGE:  cpu time    0.17: real time    0.17
    MIXING:  cpu time    0.01: real time    0.01
    --------------------------------------------
      LOOP:  cpu time    4.68: real time    4.71

 eigenvalue-minimisations  :   848
 total energy-change (2. order) :-0.2441488E+01  (-0.6484448E-01)
 number of electron     297.0000464 magnetization       5.5552658
 augmentation part      142.4785213 magnetization       4.1825787

 Broyden mixing:
  rms(total) = 0.16862E+00    rms(broyden)= 0.16861E+00
  rms(prec ) = 0.17681E+00
  weight for this iteration     100.00

 eigenvalues of (default mixing * dielectric matrix)
  average eigenvalue GAMMA=   1.4027
  4.4463  2.1477  1.1052  0.9412  0.7512  0.7512  0.6322  0.4468

 Free energy of the ion-electron system (eV)
  ---------------------------------------------------
  alpha Z        PSCENC =        58.60235802
  Ewald energy   TEWEN  =     56939.77456510
  -Hartree energ DENC   =    -83854.76634516
  -exchange      EXHF   =         0.00000000
  -V(xc)+E(xc)   XCENC  =      -296.27771649
  PAW double counting   =     29265.56286891   -28070.17111501
  entropy T*S    EENTRO =         0.00000000
  eigenvalues    EBANDS =     -2090.83043925
  atomic energy  EATOM  =     28004.36301233
  ---------------------------------------------------
  free energy    TOTEN  =       -43.74281155 eV

  energy without entropy =      -43.74281155  energy(sigma->0) =      -43.74281155


--------------------------------------------------------------------------------------------------------




----------------------------------------- Iteration    1(  14)  ---------------------------------------


    POTLOK:  cpu time    0.37: real time    0.37
    SETDIJ:  cpu time    0.01: real time    0.01
     EDDAV:  cpu time    3.88: real time    3.88
       DOS:  cpu time    0.00: real time    0.00
    CHARGE:  cpu time    0.17: real time    0.17
    MIXING:  cpu time    0.02: real time    0.01
    --------------------------------------------
      LOOP:  cpu time    4.45: real time    4.63

 eigenvalue-minimisations  :   784
 total energy-change (2. order) :-0.3898839E+01  (-0.1229304E+00)
 number of electron     297.0000464 magnetization       4.1484777
 augmentation part      142.4701499 magnetization       2.9256533

 Broyden mixing:
  rms(total) = 0.11792E+00    rms(broyden)= 0.11792E+00
  rms(prec ) = 0.12408E+00
  weight for this iteration     100.00

 eigenvalues of (default mixing * dielectric matrix)
  average eigenvalue GAMMA=   1.4990
  5.2217  2.2926  1.2673  1.2673  0.8331  0.8331  0.6173  0.6995  0.4594

 Free energy of the ion-electron system (eV)
  ---------------------------------------------------
  alpha Z        PSCENC =        58.60235802
  Ewald energy   TEWEN  =     56939.77456510
  -Hartree energ DENC   =    -83847.34615426
  -exchange      EXHF   =         0.00000000
  -V(xc)+E(xc)   XCENC  =      -299.40050684
  PAW double counting   =     29221.11198003   -28025.39342013
  entropy T*S    EENTRO =         0.00000000
  eigenvalues    EBANDS =     -2099.35348456
  atomic energy  EATOM  =     28004.36301233
  ---------------------------------------------------
  free energy    TOTEN  =       -47.64165030 eV

  energy without entropy =      -47.64165030  energy(sigma->0) =      -47.64165030


--------------------------------------------------------------------------------------------------------




----------------------------------------- Iteration    1(  15)  ---------------------------------------


    POTLOK:  cpu time    0.38: real time    0.37
    SETDIJ:  cpu time    0.01: real time    0.01
     EDDAV:  cpu time    3.92: real time    3.92
       DOS:  cpu time    0.00: real time    0.00
    CHARGE:  cpu time    0.17: real time    0.17
    MIXING:  cpu time    0.01: real time    0.01
    --------------------------------------------
      LOOP:  cpu time    4.49: real time    6.13

 eigenvalue-minimisations  :   792
 total energy-change (2. order) :-0.3218762E+01  (-0.8822813E-01)
 number of electron     297.0000464 magnetization       3.0106267
 augmentation part      142.4750790 magnetization       1.8775209

 Broyden mixing:
  rms(total) = 0.76024E-01    rms(broyden)= 0.76015E-01
  rms(prec ) = 0.81325E-01
  weight for this iteration     100.00

 eigenvalues of (default mixing * dielectric matrix)
  average eigenvalue GAMMA=   1.5979
  6.1116  2.5722  1.5706  1.5706  0.8148  0.8148  0.8402  0.4648  0.6265  0.5931

 Free energy of the ion-electron system (eV)
  ---------------------------------------------------
  alpha Z        PSCENC =        58.60235802
  Ewald energy   TEWEN  =     56939.77456510
  -Hartree energ DENC   =    -83829.98771901
  -exchange      EXHF   =         0.00000000
  -V(xc)+E(xc)   XCENC  =      -302.28102900
  PAW double counting   =     29171.57409907   -27975.24992892
  entropy T*S    EENTRO =         0.00000000
  eigenvalues    EBANDS =     -2117.65576959
  atomic energy  EATOM  =     28004.36301233
  ---------------------------------------------------
  free energy    TOTEN  =       -50.86041200 eV

  energy without entropy =      -50.86041200  energy(sigma->0) =      -50.86041200


--------------------------------------------------------------------------------------------------------




----------------------------------------- Iteration    1(  16)  ---------------------------------------


    POTLOK:  cpu time    0.37: real time    0.37
    SETDIJ:  cpu time    0.01: real time    0.01
     EDDAV:  cpu time    3.89: real time    3.89
       DOS:  cpu time    0.00: real time    0.00
    CHARGE:  cpu time    0.18: real time    0.17
    MIXING:  cpu time    0.01: real time    0.01
    --------------------------------------------
      LOOP:  cpu time    4.46: real time    4.48

 eigenvalue-minimisations  :   784
 total energy-change (2. order) :-0.1715306E+01  (-0.3249455E-01)
 number of electron     297.0000464 magnetization       2.0401487
 augmentation part      142.5020009 magnetization       0.9626341

 Broyden mixing:
  rms(total) = 0.51385E-01    rms(broyden)= 0.51373E-01
  rms(prec ) = 0.55747E-01
  weight for this iteration     100.00

 eigenvalues of (default mixing * dielectric matrix)
  average eigenvalue GAMMA=   1.6939
  6.8309  2.8380  2.4641  1.1325  1.1325  0.9095  0.7854  0.7854  0.6847  0.6087
  0.4610

 Free energy of the ion-electron system (eV)
  ---------------------------------------------------
  alpha Z        PSCENC =        58.60235802
  Ewald energy   TEWEN  =     56939.77456510
  -Hartree energ DENC   =    -83810.76991107
  -exchange      EXHF   =         0.00000000
  -V(xc)+E(xc)   XCENC  =      -304.00821893
  PAW double counting   =     29140.08604182   -27943.34602002
  entropy T*S    EENTRO =         0.00000000
  eigenvalues    EBANDS =     -2137.27754478
  atomic energy  EATOM  =     28004.36301233
  ---------------------------------------------------
  free energy    TOTEN  =       -52.57571753 eV

  energy without entropy =      -52.57571753  energy(sigma->0) =      -52.57571753


--------------------------------------------------------------------------------------------------------




----------------------------------------- Iteration    1(  17)  ---------------------------------------


    POTLOK:  cpu time    0.37: real time    0.37
    SETDIJ:  cpu time    0.01: real time    0.01
     EDDAV:  cpu time    3.89: real time    3.90
       DOS:  cpu time    0.00: real time    0.00
    CHARGE:  cpu time    0.17: real time    0.17
    MIXING:  cpu time    0.02: real time    0.01
    --------------------------------------------
      LOOP:  cpu time    4.46: real time    4.54

 eigenvalue-minimisations  :   784
 total energy-change (2. order) :-0.1339321E+01  (-0.1666398E-01)
 number of electron     297.0000464 magnetization       1.4851068
 augmentation part      142.5083032 magnetization       0.4311896

 Broyden mixing:
  rms(total) = 0.30061E-01    rms(broyden)= 0.30041E-01
  rms(prec ) = 0.33680E-01
  weight for this iteration     100.00

 eigenvalues of (default mixing * dielectric matrix)
  average eigenvalue GAMMA=   1.7604
  7.6600  3.3220  2.3604  1.3798  1.3798  0.9589  0.7923  0.7923  0.7712  0.4614
  0.6510  0.5957

 Free energy of the ion-electron system (eV)
  ---------------------------------------------------
  alpha Z        PSCENC =        58.60235802
  Ewald energy   TEWEN  =     56939.77456510
  -Hartree energ DENC   =    -83791.71154544
  -exchange      EXHF   =         0.00000000
  -V(xc)+E(xc)   XCENC  =      -305.46563049
  PAW double counting   =     29132.94484863   -27936.10522454
  entropy T*S    EENTRO =         0.00000000
  eigenvalues    EBANDS =     -2156.31742217
  atomic energy  EATOM  =     28004.36301233
  ---------------------------------------------------
  free energy    TOTEN  =       -53.91503856 eV

  energy without entropy =      -53.91503856  energy(sigma->0) =      -53.91503856


--------------------------------------------------------------------------------------------------------




----------------------------------------- Iteration    1(  18)  ---------------------------------------


    POTLOK:  cpu time    0.37: real time    0.37
    SETDIJ:  cpu time    0.01: real time    0.01
     EDDAV:  cpu time    4.02: real time    4.02
       DOS:  cpu time    0.00: real time    0.00
    CHARGE:  cpu time    0.17: real time    0.17
    MIXING:  cpu time    0.02: real time    0.01
    --------------------------------------------
      LOOP:  cpu time    4.58: real time    4.60

 eigenvalue-minimisations  :   816
 total energy-change (2. order) :-0.7469588E+00  (-0.4144360E-02)
 number of electron     297.0000464 magnetization       1.3736999
 augmentation part      142.5186884 magnetization       0.3402822

 Broyden mixing:
  rms(total) = 0.19629E-01    rms(broyden)= 0.19619E-01
  rms(prec ) = 0.22568E-01
  weight for this iteration     100.00

 eigenvalues of (default mixing * dielectric matrix)
  average eigenvalue GAMMA=   1.7323
  7.9068  3.3430  2.3624  1.4220  1.4220  1.1366  0.8245  0.8245  0.8754  0.4618
  0.7054  0.6386  0.5966

 Free energy of the ion-electron system (eV)
  ---------------------------------------------------
  alpha Z        PSCENC =        58.60235802
  Ewald energy   TEWEN  =     56939.77456510
  -Hartree energ DENC   =    -83780.71236207
  -exchange      EXHF   =         0.00000000
  -V(xc)+E(xc)   XCENC  =      -306.29285151
  PAW double counting   =     29132.43258104   -27935.47905376
  entropy T*S    EENTRO =         0.00000000
  eigenvalues    EBANDS =     -2167.35024654
  atomic energy  EATOM  =     28004.36301233
  ---------------------------------------------------
  free energy    TOTEN  =       -54.66199738 eV

  energy without entropy =      -54.66199738  energy(sigma->0) =      -54.66199738


--------------------------------------------------------------------------------------------------------




----------------------------------------- Iteration    1(  19)  ---------------------------------------


    POTLOK:  cpu time    0.37: real time    0.37
    SETDIJ:  cpu time    0.01: real time    0.01
     EDDAV:  cpu time    4.08: real time    4.08
       DOS:  cpu time    0.00: real time    0.00
    CHARGE:  cpu time    0.17: real time    0.17
    MIXING:  cpu time    0.02: real time    0.02
    --------------------------------------------
      LOOP:  cpu time    4.65: real time    4.66

 eigenvalue-minimisations  :   832
 total energy-change (2. order) :-0.2100829E+00  (-0.5406961E-03)
 number of electron     297.0000464 magnetization       1.2233485
 augmentation part      142.5158730 magnetization       0.1888162

 Broyden mixing:
  rms(total) = 0.13084E-01    rms(broyden)= 0.13082E-01
  rms(prec ) = 0.15967E-01
  weight for this iteration     100.00

 eigenvalues of (default mixing * dielectric matrix)
  average eigenvalue GAMMA=   1.7694
  8.2655  3.7481  2.1494  2.1494  1.3434  1.3434  0.8405  0.8405  0.9529  0.4616
  0.7223  0.7223  0.5918  0.6411

 Free energy of the ion-electron system (eV)
  ---------------------------------------------------
  alpha Z        PSCENC =        58.60235802
  Ewald energy   TEWEN  =     56939.77456510
  -Hartree energ DENC   =    -83776.61961119
  -exchange      EXHF   =         0.00000000
  -V(xc)+E(xc)   XCENC  =      -306.52008962
  PAW double counting   =     29139.94171488   -27943.00653238
  entropy T*S    EENTRO =         0.00000000
  eigenvalues    EBANDS =     -2171.40749744
  atomic energy  EATOM  =     28004.36301233
  ---------------------------------------------------
  free energy    TOTEN  =       -54.87208030 eV

  energy without entropy =      -54.87208030  energy(sigma->0) =      -54.87208030


--------------------------------------------------------------------------------------------------------




----------------------------------------- Iteration    1(  20)  ---------------------------------------


    POTLOK:  cpu time    0.37: real time    0.37
    SETDIJ:  cpu time    0.01: real time    0.01
     EDDAV:  cpu time    3.99: real time    3.99
       DOS:  cpu time    0.00: real time    0.00
    CHARGE:  cpu time    0.17: real time    0.17
    MIXING:  cpu time    0.02: real time    0.02
    --------------------------------------------
      LOOP:  cpu time    4.56: real time    4.59

 eigenvalue-minimisations  :   808
 total energy-change (2. order) :-0.2302120E+00  (-0.7810155E-03)
 number of electron     297.0000464 magnetization       1.1206722
 augmentation part      142.5202381 magnetization       0.0847245

 Broyden mixing:
  rms(total) = 0.67903E-02    rms(broyden)= 0.67880E-02
  rms(prec ) = 0.91024E-02
  weight for this iteration     100.00

 eigenvalues of (default mixing * dielectric matrix)
  average eigenvalue GAMMA=   1.7920
  8.5102  4.2889  2.3360  2.3360  1.3361  1.3361  0.9506  0.9506  0.8402  0.8402
  0.4616  0.7896  0.5887  0.6685  0.6471

 Free energy of the ion-electron system (eV)
  ---------------------------------------------------
  alpha Z        PSCENC =        58.60235802
  Ewald energy   TEWEN  =     56939.77456510
  -Hartree energ DENC   =    -83769.55451036
  -exchange      EXHF   =         0.00000000
  -V(xc)+E(xc)   XCENC  =      -306.79445341
  PAW double counting   =     29144.22463556   -27947.23668181
  entropy T*S    EENTRO =        -0.00000000
  eigenvalues    EBANDS =     -2178.48121769
  atomic energy  EATOM  =     28004.36301233
  ---------------------------------------------------
  free energy    TOTEN  =       -55.10229225 eV

  energy without entropy =      -55.10229225  energy(sigma->0) =      -55.10229225


--------------------------------------------------------------------------------------------------------




----------------------------------------- Iteration    1(  21)  ---------------------------------------


    POTLOK:  cpu time    0.37: real time    0.37
    SETDIJ:  cpu time    0.01: real time    0.01
     EDDAV:  cpu time    3.64: real time    3.64
       DOS:  cpu time    0.00: real time    0.00
    CHARGE:  cpu time    0.17: real time    0.17
    MIXING:  cpu time    0.02: real time    0.02
    --------------------------------------------
      LOOP:  cpu time    4.20: real time    4.21

 eigenvalue-minimisations  :   712
 total energy-change (2. order) :-0.9439878E-01  (-0.2352299E-03)
 number of electron     297.0000464 magnetization       1.0851624
 augmentation part      142.5210169 magnetization       0.0487570

 Broyden mixing:
  rms(total) = 0.43213E-02    rms(broyden)= 0.43195E-02
  rms(prec ) = 0.60545E-02
  weight for this iteration     100.00

 eigenvalues of (default mixing * dielectric matrix)
  average eigenvalue GAMMA=   1.7909
  8.6239  4.6141  2.4488  2.4488  1.2802  1.2802  1.0709  1.0709  1.0264  0.8454
  0.8454  0.4616  0.7602  0.6448  0.6448  0.5886

 Free energy of the ion-electron system (eV)
  ---------------------------------------------------
  alpha Z        PSCENC =        58.60235802
  Ewald energy   TEWEN  =     56939.77456510
  -Hartree energ DENC   =    -83764.92285767
  -exchange      EXHF   =         0.00000000
  -V(xc)+E(xc)   XCENC  =      -306.91498000
  PAW double counting   =     29148.15777183   -27951.17810005
  entropy T*S    EENTRO =         0.00000000
  eigenvalues    EBANDS =     -2183.07846060
  atomic energy  EATOM  =     28004.36301233
  ---------------------------------------------------
  free energy    TOTEN  =       -55.19669103 eV

  energy without entropy =      -55.19669103  energy(sigma->0) =      -55.19669103


--------------------------------------------------------------------------------------------------------




----------------------------------------- Iteration    1(  22)  ---------------------------------------


    POTLOK:  cpu time    0.37: real time    0.37
    SETDIJ:  cpu time    0.01: real time    0.01
     EDDAV:  cpu time    3.12: real time    3.11
       DOS:  cpu time    0.00: real time    0.00
    CHARGE:  cpu time    0.17: real time    0.17
    MIXING:  cpu time    0.02: real time    0.02
    --------------------------------------------
      LOOP:  cpu time    3.69: real time    3.98

 eigenvalue-minimisations  :   568
 total energy-change (2. order) :-0.2601640E-01  (-0.5270045E-04)
 number of electron     297.0000464 magnetization       1.0407877
 augmentation part      142.5207644 magnetization       0.0041663

 Broyden mixing:
  rms(total) = 0.30635E-02    rms(broyden)= 0.30631E-02
  rms(prec ) = 0.44531E-02
  weight for this iteration     100.00

 eigenvalues of (default mixing * dielectric matrix)
  average eigenvalue GAMMA=   1.8093
  8.7269  4.8763  2.5318  2.5318  1.7755  1.3191  1.3191  1.0498  1.0498  0.8337
  0.8337  0.8651  0.4616  0.6793  0.6793  0.5897  0.6350

 Free energy of the ion-electron system (eV)
  ---------------------------------------------------
  alpha Z        PSCENC =        58.60235802
  Ewald energy   TEWEN  =     56939.77456510
  -Hartree energ DENC   =    -83762.61300182
  -exchange      EXHF   =         0.00000000
  -V(xc)+E(xc)   XCENC  =      -306.95082338
  PAW double counting   =     29150.15606798   -27953.20082708
  entropy T*S    EENTRO =         0.00000000
  eigenvalues    EBANDS =     -2185.35405858
  atomic energy  EATOM  =     28004.36301233
  ---------------------------------------------------
  free energy    TOTEN  =       -55.22270743 eV

  energy without entropy =      -55.22270743  energy(sigma->0) =      -55.22270743


--------------------------------------------------------------------------------------------------------




----------------------------------------- Iteration    1(  23)  ---------------------------------------


    POTLOK:  cpu time    0.37: real time    0.37
    SETDIJ:  cpu time    0.01: real time    0.01
     EDDAV:  cpu time    3.32: real time    3.32
       DOS:  cpu time    0.00: real time    0.00
    CHARGE:  cpu time    0.17: real time    0.17
    MIXING:  cpu time    0.02: real time    0.02
    --------------------------------------------
      LOOP:  cpu time    3.90: real time    5.78

 eigenvalue-minimisations  :   624
 total energy-change (2. order) :-0.6242517E-02  (-0.6818513E-04)
 number of electron     297.0000464 magnetization       1.0274353
 augmentation part      142.5228844 magnetization      -0.0085216

 Broyden mixing:
  rms(total) = 0.18142E-02    rms(broyden)= 0.18135E-02
  rms(prec ) = 0.27649E-02
  weight for this iteration     100.00

 eigenvalues of (default mixing * dielectric matrix)
  average eigenvalue GAMMA=   1.8077
  8.7554  5.0996  3.0124  2.2185  2.2185  1.3306  1.3306  1.0172  1.0172  1.0033
  0.8405  0.8405  0.4616  0.8246  0.6910  0.5901  0.6557  0.6304

 Free energy of the ion-electron system (eV)
  ---------------------------------------------------
  alpha Z        PSCENC =        58.60235802
  Ewald energy   TEWEN  =     56939.77456510
  -Hartree energ DENC   =    -83759.79051898
  -exchange      EXHF   =         0.00000000
  -V(xc)+E(xc)   XCENC  =      -306.97175567
  PAW double counting   =     29149.96371313   -27953.01299629
  entropy T*S    EENTRO =         0.00000000
  eigenvalues    EBANDS =     -2188.15732758
  atomic energy  EATOM  =     28004.36301233
  ---------------------------------------------------
  free energy    TOTEN  =       -55.22894995 eV

  energy without entropy =      -55.22894995  energy(sigma->0) =      -55.22894995


--------------------------------------------------------------------------------------------------------




----------------------------------------- Iteration    1(  24)  ---------------------------------------


    POTLOK:  cpu time    0.37: real time    0.37
    SETDIJ:  cpu time    0.01: real time    0.01
     EDDAV:  cpu time    3.11: real time    3.11
       DOS:  cpu time    0.00: real time    0.00
    CHARGE:  cpu time    0.17: real time    0.17
    MIXING:  cpu time    0.02: real time    0.02
    --------------------------------------------
      LOOP:  cpu time    3.69: real time    3.69

 eigenvalue-minimisations  :   568
 total energy-change (2. order) :-0.3690738E-02  (-0.1879709E-04)
 number of electron     297.0000464 magnetization       1.0099909
 augmentation part      142.5224128 magnetization      -0.0258750

 Broyden mixing:
  rms(total) = 0.12501E-02    rms(broyden)= 0.12499E-02
  rms(prec ) = 0.18977E-02
  weight for this iteration     100.00

 eigenvalues of (default mixing * dielectric matrix)
  average eigenvalue GAMMA=   1.8130
  8.7821  5.2615  3.1679  2.4055  2.4055  1.3436  1.3436  1.3533  1.0665  1.0665
  0.8339  0.8339  0.8475  0.4616  0.7069  0.7069  0.5903  0.6317  0.6379

 Free energy of the ion-electron system (eV)
  ---------------------------------------------------
  alpha Z        PSCENC =        58.60235802
  Ewald energy   TEWEN  =     56939.77456510
  -Hartree energ DENC   =    -83758.26955315
  -exchange      EXHF   =         0.00000000
  -V(xc)+E(xc)   XCENC  =      -306.98060153
  PAW double counting   =     29150.42935071   -27953.49255919
  entropy T*S    EENTRO =         0.00000000
  eigenvalues    EBANDS =     -2189.65921298
  atomic energy  EATOM  =     28004.36301233
  ---------------------------------------------------
  free energy    TOTEN  =       -55.23264069 eV

  energy without entropy =      -55.23264069  energy(sigma->0) =      -55.23264069


--------------------------------------------------------------------------------------------------------




----------------------------------------- Iteration    1(  25)  ---------------------------------------


    POTLOK:  cpu time    0.37: real time    0.37
    SETDIJ:  cpu time    0.01: real time    0.01
     EDDAV:  cpu time    3.12: real time    3.12
       DOS:  cpu time    0.00: real time    0.00
    CHARGE:  cpu time    0.17: real time    0.17
    MIXING:  cpu time    0.02: real time    0.02
    --------------------------------------------
      LOOP:  cpu time    3.69: real time    3.70

 eigenvalue-minimisations  :   568
 total energy-change (2. order) :-0.3234251E-02  (-0.1276310E-04)
 number of electron     297.0000464 magnetization       1.0050570
 augmentation part      142.5231275 magnetization      -0.0301845

 Broyden mixing:
  rms(total) = 0.86428E-03    rms(broyden)= 0.86404E-03
  rms(prec ) = 0.12282E-02
  weight for this iteration     100.00

 eigenvalues of (default mixing * dielectric matrix)
  average eigenvalue GAMMA=   1.8155
  8.7887  5.4068  3.6076  2.3375  2.3375  1.7993  1.3192  1.3192  1.1258  1.1258
  0.8372  0.8372  0.9411  0.4616  0.7787  0.7787  0.5898  0.6444  0.6444  0.6303

 Free energy of the ion-electron system (eV)
  ---------------------------------------------------
  alpha Z        PSCENC =        58.60235802
  Ewald energy   TEWEN  =     56939.77456510
  -Hartree energ DENC   =    -83756.91583479
  -exchange      EXHF   =         0.00000000
  -V(xc)+E(xc)   XCENC  =      -306.98993970
  PAW double counting   =     29150.04274777   -27953.10202207
  entropy T*S    EENTRO =         0.00000000
  eigenvalues    EBANDS =     -2191.01076160
  atomic energy  EATOM  =     28004.36301233
  ---------------------------------------------------
  free energy    TOTEN  =       -55.23587494 eV

  energy without entropy =      -55.23587494  energy(sigma->0) =      -55.23587494


--------------------------------------------------------------------------------------------------------




----------------------------------------- Iteration    1(  26)  ---------------------------------------


    POTLOK:  cpu time    0.37: real time    0.37
    SETDIJ:  cpu time    0.01: real time    0.01
     EDDAV:  cpu time    3.06: real time    3.06
       DOS:  cpu time    0.00: real time    0.00
    CHARGE:  cpu time    0.17: real time    0.17
    MIXING:  cpu time    0.02: real time    0.02
    --------------------------------------------
      LOOP:  cpu time    3.64: real time    3.65

 eigenvalue-minimisations  :   552
 total energy-change (2. order) :-0.2713305E-02  (-0.4569680E-05)
 number of electron     297.0000464 magnetization       1.0019777
 augmentation part      142.5229190 magnetization      -0.0331535

 Broyden mixing:
  rms(total) = 0.52940E-03    rms(broyden)= 0.52925E-03
  rms(prec ) = 0.76585E-03
  weight for this iteration     100.00

 eigenvalues of (default mixing * dielectric matrix)
  average eigenvalue GAMMA=   1.8482
  8.7789  5.6778  3.9814  2.4764  2.4764  2.3338  1.3330  1.3330  1.2294  1.2294
  0.8425  0.8425  0.8757  0.8757  0.8574  0.4616  0.5901  0.6815  0.6425  0.6465
  0.6465

 Free energy of the ion-electron system (eV)
  ---------------------------------------------------
  alpha Z        PSCENC =        58.60235802
  Ewald energy   TEWEN  =     56939.77456510
  -Hartree energ DENC   =    -83756.18485552
  -exchange      EXHF   =         0.00000000
  -V(xc)+E(xc)   XCENC  =      -306.99492789
  PAW double counting   =     29150.42145775   -27953.48215508
  entropy T*S    EENTRO =         0.00000000
  eigenvalues    EBANDS =     -2191.73804296
  atomic energy  EATOM  =     28004.36301233
  ---------------------------------------------------
  free energy    TOTEN  =       -55.23858824 eV

  energy without entropy =      -55.23858824  energy(sigma->0) =      -55.23858824


--------------------------------------------------------------------------------------------------------




----------------------------------------- Iteration    1(  27)  ---------------------------------------


    POTLOK:  cpu time    0.37: real time    0.37
    SETDIJ:  cpu time    0.01: real time    0.01
     EDDAV:  cpu time    3.00: real time    3.00
       DOS:  cpu time    0.00: real time    0.00
    CHARGE:  cpu time    0.17: real time    0.17
    MIXING:  cpu time    0.02: real time    0.02
    --------------------------------------------
      LOOP:  cpu time    3.58: real time    3.60

 eigenvalue-minimisations  :   536
 total energy-change (2. order) :-0.1558896E-02  (-0.2596229E-05)
 number of electron     297.0000464 magnetization       1.0011005
 augmentation part      142.5231030 magnetization      -0.0340329

 Broyden mixing:
  rms(total) = 0.30226E-03    rms(broyden)= 0.30205E-03
  rms(prec ) = 0.44615E-03
  weight for this iteration     100.00

 eigenvalues of (default mixing * dielectric matrix)
  average eigenvalue GAMMA=   1.8872
  8.7627  6.3871  4.5829  2.6020  2.4421  2.4421  1.3373  1.3373  1.3721  1.3721
  0.9682  0.9682  0.8370  0.8370  0.4616  0.8405  0.7713  0.7018  0.5902  0.6402
  0.6402  0.6235

 Free energy of the ion-electron system (eV)
  ---------------------------------------------------
  alpha Z        PSCENC =        58.60235802
  Ewald energy   TEWEN  =     56939.77456510
  -Hartree energ DENC   =    -83755.58951803
  -exchange      EXHF   =         0.00000000
  -V(xc)+E(xc)   XCENC  =      -306.99907654
  PAW double counting   =     29150.46143713   -27953.51951712
  entropy T*S    EENTRO =         0.00000000
  eigenvalues    EBANDS =     -2192.33340802
  atomic energy  EATOM  =     28004.36301233
  ---------------------------------------------------
  free energy    TOTEN  =       -55.24014714 eV

  energy without entropy =      -55.24014714  energy(sigma->0) =      -55.24014714


--------------------------------------------------------------------------------------------------------




----------------------------------------- Iteration    1(  28)  ---------------------------------------


    POTLOK:  cpu time    0.37: real time    0.37
    SETDIJ:  cpu time    0.01: real time    0.01
     EDDAV:  cpu time    3.03: real time    3.04
       DOS:  cpu time    0.00: real time    0.00
    CHARGE:  cpu time    0.17: real time    0.17
    MIXING:  cpu time    0.02: real time    0.03
    --------------------------------------------
      LOOP:  cpu time    3.61: real time    3.62

 eigenvalue-minimisations  :   544
 total energy-change (2. order) :-0.4260635E-03  (-0.6125712E-06)
 number of electron     297.0000464 magnetization       1.0012914
 augmentation part      142.5231838 magnetization      -0.0337744

 Broyden mixing:
  rms(total) = 0.19854E-03    rms(broyden)= 0.19845E-03
  rms(prec ) = 0.30343E-03
  weight for this iteration     100.00

 eigenvalues of (default mixing * dielectric matrix)
  average eigenvalue GAMMA=   1.8921
  8.7251  7.0504  4.8117  2.5627  2.4732  2.4732  1.3326  1.3326  1.4195  1.4195
  0.8407  0.8407  1.0264  0.9447  0.9447  0.9617  0.4616  0.7481  0.5903  0.6551
  0.6551  0.6245  0.6245

 Free energy of the ion-electron system (eV)
  ---------------------------------------------------
  alpha Z        PSCENC =        58.60235802
  Ewald energy   TEWEN  =     56939.77456510
  -Hartree energ DENC   =    -83755.36089497
  -exchange      EXHF   =         0.00000000
  -V(xc)+E(xc)   XCENC  =      -307.00036009
  PAW double counting   =     29150.50007165   -27953.55905916
  entropy T*S    EENTRO =         0.00000000
  eigenvalues    EBANDS =     -2192.56026608
  atomic energy  EATOM  =     28004.36301233
  ---------------------------------------------------
  free energy    TOTEN  =       -55.24057320 eV

  energy without entropy =      -55.24057320  energy(sigma->0) =      -55.24057320


--------------------------------------------------------------------------------------------------------




----------------------------------------- Iteration    1(  29)  ---------------------------------------


    POTLOK:  cpu time    0.37: real time    0.37
    SETDIJ:  cpu time    0.01: real time    0.01
     EDDAV:  cpu time    2.91: real time    2.91
       DOS:  cpu time    0.00: real time    0.00
    CHARGE:  cpu time    0.17: real time    0.17
    MIXING:  cpu time    0.03: real time    0.03
    --------------------------------------------
      LOOP:  cpu time    3.50: real time    3.51

 eigenvalue-minimisations  :   512
 total energy-change (2. order) :-0.1163167E-03  (-0.2297542E-06)
 number of electron     297.0000464 magnetization       1.0008652
 augmentation part      142.5231690 magnetization      -0.0342081

 Broyden mixing:
  rms(total) = 0.12182E-03    rms(broyden)= 0.12177E-03
  rms(prec ) = 0.20661E-03
  weight for this iteration     100.00

 eigenvalues of (default mixing * dielectric matrix)
  average eigenvalue GAMMA=   1.9204
  8.6326  7.6700  4.9292  2.8887  2.4777  2.4777  1.9611  1.3391  1.3391  1.3211
  1.3211  0.8400  0.8400  0.9893  0.9413  0.9413  0.8663  0.4616  0.7024  0.6565
  0.6565  0.5897  0.6268  0.6206

 Free energy of the ion-electron system (eV)
  ---------------------------------------------------
  alpha Z        PSCENC =        58.60235802
  Ewald energy   TEWEN  =     56939.77456510
  -Hartree energ DENC   =    -83755.28615064
  -exchange      EXHF   =         0.00000000
  -V(xc)+E(xc)   XCENC  =      -307.00058553
  PAW double counting   =     29150.58639906   -27953.64608161
  entropy T*S    EENTRO =         0.00000000
  eigenvalues    EBANDS =     -2192.63420624
  atomic energy  EATOM  =     28004.36301233
  ---------------------------------------------------
  free energy    TOTEN  =       -55.24068952 eV

  energy without entropy =      -55.24068952  energy(sigma->0) =      -55.24068952


--------------------------------------------------------------------------------------------------------




----------------------------------------- Iteration    1(  30)  ---------------------------------------


    POTLOK:  cpu time    0.37: real time    0.37
    SETDIJ:  cpu time    0.01: real time    0.01
     EDDAV:  cpu time    2.88: real time    2.88
       DOS:  cpu time    0.00: real time    0.00
    --------------------------------------------
      LOOP:  cpu time    3.27: real time    3.29

 eigenvalue-minimisations  :   504
 total energy-change (2. order) :-0.1232570E-04  (-0.2904447E-06)
 number of electron     297.0000464 magnetization       1.0008652
 augmentation part      142.5231690 magnetization      -0.0342081

 Free energy of the ion-electron system (eV)
  ---------------------------------------------------
  alpha Z        PSCENC =        58.60235802
  Ewald energy   TEWEN  =     56939.77456510
  -Hartree energ DENC   =    -83755.21217994
  -exchange      EXHF   =         0.00000000
  -V(xc)+E(xc)   XCENC  =      -307.00076147
  PAW double counting   =     29150.64760522   -27953.70746383
  entropy T*S    EENTRO =         0.00000000
  eigenvalues    EBANDS =     -2192.70783728
  atomic energy  EATOM  =     28004.36301233
  ---------------------------------------------------
  free energy    TOTEN  =       -55.24070184 eV

  energy without entropy =      -55.24070184  energy(sigma->0) =      -55.24070184


--------------------------------------------------------------------------------------------------------




 average (electrostatic) potential at core
  the test charge radii are     1.1249
  (the norm of the test charge is              1.0000)
       1 -82.4413       2 -82.3953       3 -82.3887       4 -82.4376       5 -82.4831
       6 -82.5301       7 -82.4787       8 -82.2823       9 -82.2815      10 -82.3753
      11 -82.3766      12 -82.4015      13 -82.4076      14 -82.3728      15 -82.3741
      16 -82.4722      17 -82.4750      18 -82.4701      19 -82.4714      20 -82.1313
      21 -82.1340      22 -82.0755      23 -82.0761      24 -82.0727      25 -82.0737
      26 -82.1079      27 -82.1122
 
 
 
 E-fermi :  -3.0387     XC(G=0):  -0.9525     alpha+bet : -0.5857


 spin component 1

 k-point     1 :       0.0000    0.0000    0.0000
  band No.  band energies     occupation 
      1      -9.5404      1.00000
      2      -9.1167      1.00000
      3      -9.0701      1.00000
      4      -9.0592      1.00000
      5      -9.0512      1.00000
      6      -9.0376      1.00000
      7      -9.0042      1.00000
      8      -8.9857      1.00000
      9      -8.9833      1.00000
     10      -8.9665      1.00000
     11      -8.9555      1.00000
     12      -8.9227      1.00000
     13      -8.9199      1.00000
     14      -8.8695      1.00000
     15      -8.8593      1.00000
     16      -8.8111      1.00000
     17      -8.7911      1.00000
     18      -8.7755      1.00000
     19      -8.7523      1.00000
     20      -8.7416      1.00000
     21      -8.6701      1.00000
     22      -8.6158      1.00000
     23      -8.5790      1.00000
     24      -8.5606      1.00000
     25      -8.4613      1.00000
     26      -8.4221      1.00000
     27      -8.4146      1.00000
     28      -8.4138      1.00000
     29      -8.4085      1.00000
     30      -8.3895      1.00000
     31      -8.3867      1.00000
     32      -8.3663      1.00000
     33      -8.3098      1.00000
     34      -8.3022      1.00000
     35      -8.2818      1.00000
     36      -8.2481      1.00000
     37      -8.2041      1.00000
     38      -8.1650      1.00000
     39      -8.1583      1.00000
[...]
    156      -2.3712      0.00000
    157      -2.3567      0.00000
    158      -2.0857      0.00000
    159      -1.5019      0.00000
    160      -1.4528      0.00000
    161      -1.4148      0.00000
    162      -1.3922      0.00000
    163      -1.2477      0.00000
    164      -1.1837      0.00000
    165      -0.9811      0.00000
    166      -0.8732      0.00000
    167      -0.6393      0.00000
    168      -0.6058      0.00000
    169      -0.5879      0.00000
    170      -0.4251      0.00000
    171      -0.4009      0.00000
    172      -0.1541      0.00000
    173       0.0142      0.00000
    174       0.0405      0.00000
    175       0.1211      0.00000
    176       0.2422      0.00000
    177       0.4186      0.00000
    178       0.4448      0.00000
    179       0.5767      0.00000
    180       0.6435      0.00000
    181       0.6668      0.00000
    182       0.7056      0.00000
    183       0.7239      0.00000
    184       0.7379      0.00000
    185       0.7460      0.00000
    186       0.7886      0.00000
    187       0.8848      0.00000
    188       0.9160      0.00000
    189       0.9327      0.00000
    190       0.9761      0.00000
    191       0.9847      0.00000
    192       1.0234      0.00000


--------------------------------------------------------------------------------------------------------


 soft charge-density along one line, spin component           1
         0         1         2         3         4         5         6         7         8         9
 total charge-density along one line
 
 soft charge-density along one line, spin component           2
         0         1         2         3         4         5         6         7         8         9
 total charge-density along one line
 
 pseudopotential strength for first ion, spin component:           1
-10.388   0.010   0.001  -0.000   0.001 -10.360   0.010   0.001
  0.010 -10.373   0.001  -0.001   0.001   0.010 -10.345   0.001
  0.001   0.001 -10.384   0.008   0.008   0.001   0.001 -10.356
 -0.000  -0.001   0.008 -10.388   0.006  -0.000  -0.001   0.008
  0.001   0.001   0.008   0.006 -10.393   0.001   0.001   0.008
-10.360   0.010   0.001  -0.000   0.001 -10.307   0.009   0.001
  0.010 -10.345   0.001  -0.001   0.001   0.009 -10.293   0.001
  0.001   0.001 -10.356   0.008   0.008   0.001   0.001 -10.303
 -0.000  -0.001   0.008 -10.359   0.006  -0.000  -0.001   0.007
  0.001   0.001   0.008   0.006 -10.365   0.001   0.001   0.008
  0.000   0.001  -0.003  -0.005   0.002   0.000   0.001  -0.003
  0.001   0.001  -0.005  -0.008   0.003   0.001   0.001  -0.005
 -0.031   0.017   0.001   0.000   0.001  -0.030   0.016   0.001
  0.000  -0.001   0.020  -0.031  -0.000   0.000  -0.001   0.019
 -0.001   0.000   0.018   0.017  -0.031  -0.001   0.000   0.017
 -0.037   0.021   0.001   0.000   0.002  -0.036   0.020   0.001
  0.000  -0.002   0.024  -0.038  -0.000   0.000  -0.002   0.023
 -0.001   0.000   0.022   0.021  -0.038  -0.001   0.000   0.021
 pseudopotential strength for first ion, spin component:           2
-10.389   0.010   0.001  -0.000   0.001 -10.360   0.009   0.001
  0.010 -10.373   0.002  -0.001   0.001   0.009 -10.345   0.002
  0.001   0.002 -10.385   0.008   0.008   0.001   0.002 -10.357
 -0.000  -0.001   0.008 -10.389   0.006  -0.000  -0.001   0.008
  0.001   0.001   0.008   0.006 -10.395   0.001   0.001   0.008
-10.360   0.009   0.001  -0.000   0.001 -10.308   0.009   0.001
  0.009 -10.345   0.002  -0.001   0.001   0.009 -10.293   0.001
  0.001   0.002 -10.357   0.008   0.008   0.001   0.001 -10.304
 -0.000  -0.001   0.008 -10.360   0.006  -0.000  -0.001   0.007
  0.001   0.001   0.008   0.006 -10.366   0.001   0.001   0.008
  0.000   0.001  -0.003  -0.005   0.002   0.000   0.001  -0.003
  0.001   0.001  -0.005  -0.007   0.003   0.001   0.001  -0.005
 -0.031   0.018   0.001   0.000   0.001  -0.030   0.017   0.001
  0.000  -0.001   0.020  -0.031  -0.000   0.000  -0.001   0.020
 -0.001   0.000   0.018   0.017  -0.031  -0.001   0.000   0.017
 -0.038   0.022   0.001   0.000   0.002  -0.036   0.021   0.001
  0.000  -0.002   0.025  -0.038  -0.000   0.000  -0.001   0.024
 -0.002   0.000   0.022   0.021  -0.038  -0.001   0.000   0.021
 total augmentation occupancy for first ion, spin component:           1
  2.699  -0.195  -0.036   0.013   0.004  -0.707   0.237   0.038  -0.016   0.008  -0.049   0.010  -0.147  -0.007  -0.009  -0.011
 -0.195   2.524   0.024  -0.008   0.016   0.237  -0.483  -0.005   0.003   0.006  -0.055   0.005   0.105   0.006  -0.003   0.006
 -0.036   0.024   2.474  -0.034  -0.052   0.038  -0.005  -0.509   0.088   0.049   0.244  -0.040   0.016   0.042   0.053  -0.000
  0.013  -0.008  -0.034   2.589  -0.090  -0.016   0.003   0.088  -0.565   0.087   0.426  -0.104  -0.006  -0.093   0.068   0.000
  0.004   0.016  -0.052  -0.090   2.441   0.008   0.006   0.049   0.087  -0.529  -0.088   0.054   0.006   0.004  -0.058   0.001
 -0.707   0.237   0.038  -0.016   0.008   0.692  -0.274  -0.041   0.017  -0.018   0.044  -0.009   0.182   0.007   0.010  -0.010
  0.237  -0.483  -0.005   0.003   0.006  -0.274   0.424  -0.012   0.002  -0.025   0.052  -0.007  -0.121  -0.004   0.003   0.006
  0.038  -0.005  -0.509   0.088   0.049  -0.041  -0.012   0.515  -0.134  -0.047  -0.213   0.035  -0.015  -0.072  -0.075   0.001
 -0.016   0.003   0.088  -0.565   0.087   0.017   0.002  -0.134   0.525  -0.086  -0.370   0.086   0.006   0.125  -0.078  -0.000
  0.008   0.006   0.049   0.087  -0.529  -0.018  -0.025  -0.047  -0.086   0.580   0.047  -0.028  -0.008   0.003   0.092   0.000
 -0.049  -0.055   0.244   0.426  -0.088   0.044   0.052  -0.213  -0.370   0.047   1.814  -0.211   0.010  -0.137   0.237  -0.001
  0.010   0.005  -0.040  -0.104   0.054  -0.009  -0.007   0.035   0.086  -0.028  -0.211   0.040  -0.002   0.025  -0.041   0.000
 -0.147   0.105   0.016  -0.006   0.006   0.182  -0.121  -0.015   0.006  -0.008   0.010  -0.002   0.078   0.005   0.003  -0.004
 -0.007   0.006   0.042  -0.093   0.004   0.007  -0.004  -0.072   0.125   0.003  -0.137   0.025   0.005   0.044  -0.017  -0.000
 -0.009  -0.003   0.053   0.068  -0.058   0.010   0.003  -0.075  -0.078   0.092   0.237  -0.041   0.003  -0.017   0.056  -0.000
 -0.011   0.006  -0.000   0.000   0.001  -0.010   0.006   0.001  -0.000   0.000  -0.001   0.000  -0.004  -0.000  -0.000   0.001
  0.000  -0.001   0.010  -0.013  -0.001  -0.000   0.000   0.004  -0.008   0.000   0.012  -0.002  -0.000  -0.003   0.002   0.000
 -0.000   0.000   0.007   0.004  -0.014  -0.001  -0.000   0.005   0.006  -0.007  -0.021   0.003  -0.000   0.002  -0.005   0.000
 total augmentation occupancy for first ion, spin component:           2
 -0.006  -0.016  -0.003  -0.001  -0.002   0.001   0.013   0.003   0.000   0.002  -0.001   0.000  -0.013  -0.001  -0.000   0.000
 -0.016   0.020   0.006  -0.002   0.005   0.013  -0.021  -0.005   0.001  -0.003  -0.003   0.000   0.025   0.003   0.000  -0.000
 -0.003   0.006  -0.003   0.000  -0.004   0.003  -0.005   0.000  -0.000  -0.000   0.007   0.000   0.005   0.001   0.001  -0.000
 -0.001  -0.002   0.000  -0.002   0.002   0.000   0.001  -0.000   0.001  -0.001   0.000  -0.001  -0.001  -0.000   0.000   0.000
 -0.002   0.005  -0.004   0.002  -0.015   0.002  -0.003  -0.000  -0.001   0.005   0.017  -0.001   0.003  -0.001   0.002  -0.000
  0.001   0.013   0.003   0.000   0.002   0.004  -0.010  -0.002   0.000  -0.002   0.001  -0.000   0.010   0.001   0.000  -0.000
  0.013  -0.021  -0.005   0.001  -0.003  -0.010   0.023   0.004  -0.001   0.001   0.004  -0.001  -0.020  -0.003  -0.000   0.000
  0.003  -0.005   0.000  -0.000  -0.000  -0.002   0.004   0.003   0.000   0.004  -0.009   0.001  -0.004  -0.000  -0.000   0.000
  0.000   0.001  -0.000   0.001  -0.001   0.000  -0.001   0.000  -0.000   0.001   0.000   0.000   0.001   0.000   0.000  -0.000
  0.002  -0.003  -0.000  -0.001   0.005  -0.002   0.001   0.004   0.001   0.005  -0.018   0.002  -0.002   0.001  -0.002   0.000
 -0.001  -0.003   0.007   0.000   0.017   0.001   0.004  -0.009   0.000  -0.018   0.007  -0.004   0.000   0.000  -0.000  -0.000
  0.000   0.000   0.000  -0.001  -0.001  -0.000  -0.001   0.001   0.000   0.002  -0.004   0.001   0.000   0.000  -0.000   0.000
 -0.013   0.025   0.005  -0.001   0.003   0.010  -0.020  -0.004   0.001  -0.002   0.000   0.000   0.019   0.002   0.001  -0.000
 -0.001   0.003   0.001  -0.000  -0.001   0.001  -0.003  -0.000   0.000   0.001   0.000   0.000   0.002   0.000   0.000  -0.000
 -0.000   0.000   0.001   0.000   0.002   0.000  -0.000  -0.000   0.000  -0.002  -0.000  -0.000   0.001   0.000  -0.000  -0.000
  0.000  -0.000  -0.000   0.000  -0.000  -0.000   0.000   0.000  -0.000   0.000  -0.000   0.000  -0.000  -0.000  -0.000   0.000
  0.000  -0.000   0.000   0.000   0.000  -0.000   0.000   0.000  -0.000  -0.000   0.000  -0.000  -0.000  -0.000   0.000   0.000
  0.000  -0.000  -0.000   0.000  -0.000  -0.000  -0.000   0.000   0.000   0.000  -0.000   0.000  -0.000  -0.000   0.000   0.000


------------------------ aborting loop because EDIFF is reached ----------------------------------------


    CHARGE:  cpu time    0.17: real time    0.17
    FORLOC:  cpu time    0.02: real time    0.02
    FORNL :  cpu time    2.40: real time    2.40
    STRESS:  cpu time    3.10: real time    3.10
    FORCOR:  cpu time    0.38: real time    0.38
    FORHAR:  cpu time    0.06: real time    0.06
    MIXING:  cpu time    0.01: real time    0.01
    OFIELD:  cpu time    0.00: real time    0.00

  FORCE on cell =-STRESS in cart. coord.  units (eV):
  Direction    XX          YY          ZZ          XY          YZ          ZX
  --------------------------------------------------------------------------------------
  Alpha Z    58.60236    58.60236    58.60236
  Ewald   15600.77616 31008.83176 10227.59668   367.23704  2103.73109   -32.13505
  Hartree 24787.63731 39007.51377 19855.14458   331.97733  1895.90037   -31.51881
  E(xc)   -1566.11171 -1563.61091 -1567.07493     0.07568     0.45784     0.00078
  Local  -44786.10601-74401.23664-34487.99112  -698.83642 -3996.88719    63.94049
  n-local  -286.59092  -284.45781  -286.18311     0.05528     0.25350    -0.06347
  augment  2481.21209  2476.23958  2483.65874    -0.14809    -1.00043    -0.06729
  Kinetic  3700.06841  3687.79007  3706.08694    -0.36846    -2.42267    -0.18359
  Fock        0.00000     0.00000     0.00000     0.00000     0.00000     0.00000
  -------------------------------------------------------------------------------------
  Total     -10.51233   -10.32782   -10.15985    -0.00764     0.03251    -0.02694
  in kB      -1.59178    -1.56384    -1.53841    -0.00116     0.00492    -0.00408
  external pressure =       -1.56 kB  Pullay stress =        0.00 kB


 VOLUME and BASIS-vectors are now :
 -----------------------------------------------------------------------------
  energy-cutoff  :      249.84
  volume of cell :    10581.00
      direct lattice vectors                 reciprocal lattice vectors
    21.953758000  0.000000000  0.000000000     0.045550288  0.000000000  0.000000000
     0.000000000 21.953758000  0.000000000     0.000000000  0.045550288  0.000000000
     0.000000000  0.000000000 21.953758000     0.000000000  0.000000000  0.045550288

  length of vectors
    21.953758000 21.953758000 21.953758000     0.045550288  0.045550288  0.045550288


 FORCES acting on ions
    electron-ion (+dipol)            ewald-force                    non-local-force                 convergence-correction
 -----------------------------------------------------------------------------------------------
   0.119E+04 0.515E+02 -.691E+03   -.118E+04 -.513E+02 0.687E+03   -.602E+01 -.238E+00 0.329E+01   0.348E-02 -.919E-03 -.137E-02
   0.397E+03 0.144E+03 -.121E+04   -.395E+03 -.143E+03 0.120E+04   -.184E+01 -.155E+00 0.165E+01   0.716E-02 0.388E-03 -.391E-02
   -.426E+03 0.169E+03 -.119E+04   0.424E+03 -.168E+03 0.119E+04   0.190E+01 -.260E+00 0.158E+01   -.806E-02 0.163E-02 -.744E-02
   -.120E+04 0.123E+03 -.655E+03   0.119E+04 -.122E+03 0.651E+03   0.609E+01 -.599E+00 0.312E+01   -.569E-02 -.177E-02 0.373E-03
   0.125E+04 -.769E+02 0.310E+03   -.125E+04 0.769E+02 -.310E+03   -.273E+01 0.478E-01 0.282E+00   -.341E-02 0.342E-02 -.269E-02
   -.200E+01 -.819E+01 0.635E+02   0.200E+01 0.807E+01 -.626E+02   0.348E-02 0.123E+00 -.923E+00   -.986E-03 0.212E-02 -.576E-02
   -.125E+04 -.952E+01 0.352E+03   0.124E+04 0.962E+01 -.352E+03   0.278E+01 -.100E+00 0.168E+00   0.603E-02 -.131E-02 -.332E-02
   0.776E+03 -.173E+03 0.114E+04   -.774E+03 0.173E+03 -.114E+04   -.222E+01 0.330E+00 -.197E+01   -.280E-02 0.172E-02 -.797E-03
   -.744E+03 -.130E+03 0.117E+04   0.741E+03 0.129E+03 -.117E+04   0.216E+01 0.203E+00 -.200E+01   0.415E-02 -.486E-03 0.387E-02
   0.989E+03 -.667E+03 -.657E+03   -.986E+03 0.666E+03 0.655E+03   -.215E+01 0.841E+00 0.194E+01   0.519E-02 -.309E-02 0.182E-03
   0.103E+04 0.752E+03 -.477E+03   -.103E+04 -.751E+03 0.475E+03   -.223E+01 -.121E+01 0.170E+01   0.677E-02 0.303E-02 0.252E-05
   -.312E+02 -.568E+03 -.101E+04   0.312E+02 0.568E+03 0.101E+04   -.198E-02 0.629E+00 0.146E+01   0.127E-02 0.194E-03 -.295E-02
   0.975E+01 0.805E+03 -.826E+03   -.970E+01 -.804E+03 0.825E+03   -.546E-01 -.981E+00 0.122E+01   0.587E-03 0.355E-02 -.747E-02
   -.104E+04 -.611E+03 -.633E+03   0.104E+04 0.610E+03 0.631E+03   0.235E+01 0.693E+00 0.198E+01   -.416E-02 -.651E-03 -.136E-02
   -.100E+04 0.809E+03 -.441E+03   0.999E+03 -.808E+03 0.439E+03   0.226E+01 -.129E+01 0.169E+01   -.599E-02 -.347E-03 -.559E-03
   0.771E+03 -.765E+03 0.414E+03   -.770E+03 0.764E+03 -.413E+03   -.986E+00 0.125E+01 -.763E+00   -.111E-02 0.340E-02 0.477E-03
   0.815E+03 0.591E+03 0.591E+03   -.814E+03 -.590E+03 -.590E+03   -.106E+01 -.960E+00 -.105E+01   -.371E-02 -.206E-02 0.206E-03
   -.806E+03 -.723E+03 0.441E+03   0.805E+03 0.722E+03 -.440E+03   0.955E+00 0.117E+01 -.785E+00   0.230E-02 0.564E-02 0.245E-02
   -.762E+03 0.631E+03 0.622E+03   0.761E+03 -.630E+03 -.621E+03   0.871E+00 -.997E+00 -.105E+01   0.246E-02 -.709E-02 0.287E-02
   -.163E+01 -.739E+03 0.122E+04   0.166E+01 0.737E+03 -.122E+04   -.258E-01 0.227E+01 -.471E+01   0.175E-02 -.770E-02 0.971E-03
   0.393E+02 0.404E+03 0.137E+04   -.391E+02 -.403E+03 -.136E+04   -.173E+00 -.990E+00 -.511E+01   0.254E-02 0.716E-02 0.815E-02
   0.520E+03 -.117E+04 -.487E+03   -.519E+03 0.117E+04 0.486E+03   -.125E+01 0.493E+01 0.128E+01   -.117E-02 0.494E-02 0.104E-02
   0.591E+03 0.122E+04 -.165E+03   -.590E+03 -.122E+04 0.165E+03   -.154E+01 -.503E+01 -.322E-01   -.149E-02 -.701E-02 0.196E-02
   -.601E+03 -.114E+04 -.469E+03   0.599E+03 0.114E+04 0.468E+03   0.155E+01 0.483E+01 0.123E+01   -.620E-04 0.740E-02 0.307E-02
   -.529E+03 0.125E+04 -.143E+03   0.528E+03 -.125E+04 0.143E+03   0.125E+01 -.507E+01 -.569E-01   0.379E-03 -.930E-02 0.260E-02
   -.270E+02 -.126E+04 0.518E+03   0.269E+02 0.125E+04 -.517E+03   0.661E-01 0.481E+01 -.108E+01   0.832E-03 -.708E-02 0.992E-03
   0.452E+02 0.109E+04 0.834E+03   -.451E+02 -.109E+04 -.831E+03   -.195E+00 -.436E+01 -.227E+01   0.116E-02 0.483E-02 0.218E-02
 -----------------------------------------------------------------------------------------------
   0.208E+00 0.100E+00 -.832E+00   0.256E-12 -.455E-12 -.227E-12   -.250E+00 -.116E+00 0.790E+00   0.743E-02 0.611E-03 -.622E-02
 
 
 POSITION                                       TOTAL-FORCE (eV/Angst)
 -----------------------------------------------------------------------------------
      6.70048     10.73846     13.22095         0.010690     -0.003801      0.001225
      9.48964     10.64257     13.28581        -0.008143      0.001639     -0.000402
     12.30397     10.56166     13.24172         0.010943      0.003142     -0.005414
     15.09050     10.49668     13.09145        -0.013188     -0.001282      0.007571
      7.98387     11.01104     10.77380        -0.003520      0.003780     -0.006401
     10.87375     10.92595     10.80098        -0.000066      0.004924     -0.016483
     13.76315     10.85824     10.67644         0.003258      0.000933     -0.004489
      9.42187     11.29083      8.34039        -0.006629      0.003223     -0.003741
     12.24467     11.21310      8.29003         0.005523     -0.000371      0.005734
      8.07077     13.12459     12.74860         0.013331     -0.004562      0.002024
      7.92761      8.46533     12.16116         0.013285      0.000983     -0.000613
     10.95903     13.05066     12.85728         0.002601      0.015331     -0.003167
     10.81481      8.34177     12.24390        -0.002781     -0.010287     -0.016836
     13.83236     12.95698     12.66713        -0.005159      0.001918      0.000967
     13.68941      8.31443     12.04906        -0.011100     -0.001454      0.006104
      9.44201     13.42867     10.29380        -0.004149      0.002237      0.000634
      9.28918      8.72106      9.68775        -0.007890     -0.004289      0.001369
     12.43309     13.35136     10.24184         0.006434      0.002540      0.004596
     12.28512      8.64501      9.62194         0.001718     -0.005154      0.006369
     10.90154     13.64309      7.89099         0.001959     -0.009358     -0.008156
     10.74854      9.05167      7.29235         0.000773      0.010736      0.002370
      9.58548     15.41251     12.28201         0.002878      0.000814      0.004193
      9.31439      6.29148     11.10066         0.001094     -0.004198      0.005612
     12.43823     15.33428     12.23175        -0.002407      0.004362      0.008687
     12.17066      6.21568     11.03580        -0.006854     -0.009521      0.009825
     10.98643     15.72755      9.79363         0.000476     -0.007126     -0.002933
     10.71461      6.55162      8.59797        -0.003079      0.004841      0.001357
 -----------------------------------------------------------------------------------
    total drift:                               -0.035102     -0.015521     -0.047731


--------------------------------------------------------------------------------------------------------



  FREE ENERGIE OF THE ION-ELECTRON SYSTEM (eV)
  ---------------------------------------------------
  free  energy   TOTEN  =       -56.00127522 eV

  energy  without entropy=      -56.00127522  energy(sigma->0) =      -56.00127522
 
 d Force = 0.5556048E-05[ 0.945E-05, 0.166E-05]  d Energy = 0.1100864E-03-0.105E-03
 d Force =-0.6325967E-01[-0.633E-01,-0.633E-01]  d Ewald  =-0.6325967E-01 0.240E-09


--------------------------------------------------------------------------------------------------------


    POTLOK:  cpu time    0.38: real time    0.39


--------------------------------------------------------------------------------------------------------




--------------------------------------------------------------------------------------------------------


  
 reached required accuracy - stopping structural energy minimisation
     LOOP+:  cpu time   14.51: real time   16.05
    4ORBIT:  cpu time    0.00: real time    0.00

 total amount of memory used by VASP on root node    73114. kBytes
========================================================================

   base      :      30000. kBytes
   nonl-proj :       3407. kBytes
   fftplans  :       8575. kBytes
   grid      :      21928. kBytes
   one-center:         62. kBytes
   wavefun   :       9142. kBytes
 
  
  
 General timing and accounting informations for this job:
 ========================================================
  
                  Total CPU time used (sec):     1381.002
                            User time (sec):     1372.346
                          System time (sec):        8.657
                         Elapsed time (sec):     1468.940
  
                   Maximum memory used (kb):       93536.
                   Average memory used (kb):           0.
  
                          Minor page faults:      1399176
                          Major page faults:            0
                 Voluntary context switches:         8651
