17
Energy = -128.59356457 eV
Cr 6.36975523266832 5.990670214506552 5.366095950859022
Cr 6.983423321544095 8.741850318372856 5.48760173748984
Cr 8.333230054902916 6.89946915137798 4.574852732617482
Cr 8.054589923782663 4.783536890286172 6.465192276959057
Cr 9.275745810562885 8.908091228839378 6.323314567626452
Cr 7.790813250344615 8.221026450727132 8.090876690493369
Cr 9.699145719154043 6.497615464400988 6.481447212595644
Cr 6.804013650422184 10.251544855555965 7.400659117347113
Cr 5.609640977618623 7.542723341052446 7.089428300937047
Cr 9.414605315071059 9.826600948747723 8.96490079810341
Cr 10.502042832458153 8.085181329445046 8.505373184876833
Cr 5.3198334830382805 9.124171656186997 8.954668389637789
Cr 8.850537326919362 6.192092553258018 8.857007119122681
Cr 6.5548193906964505 5.546792154717918 8.158779796983422
Cr 7.050574591023005 9.781679258654739 10.264901155811215
Cr 8.583266017243787 8.015453398788134 10.636766895711826
Cr 6.367308513191537 7.154846195722931 9.941479483469646
