10
Energy = -72.51057474 eV
Cr 6.462424904977292 10.431731004153626 7.402705947839147
Cr 6.911055893073762 9.206165225892446 9.82393526856443
Cr 10.821233806421418 8.086217644330254 7.703727693720259
Cr 8.652744980106187 9.09508047323818 8.069169214734655
Cr 10.266927608282167 6.35464991399595 9.226686542541882
Cr 8.359775019203953 6.676350528829608 7.644713648953177
Cr 6.191047681532876 8.147385240976053 7.4922229953468475
Cr 7.5465300881616955 7.0425934303572015 9.724472015781862
Cr 8.003803665464188 8.686843152831573 5.744293892882822
Cr 9.578904712859966 8.379815032875417 10.210737669648086
