11
Energy = -77.97045456 eV
Cr 10.228006834367237 10.62317252889021 9.85244098783207
Cr 10.423680844390244 8.370914943180459 10.081797448173033
Cr 6.924780564981893 7.122661913582795 9.296307500514889
Cr 7.5437809560138485 9.290530422567894 8.071063737107787
Cr 9.28296543761328 7.584293168730296 8.469412096635905
Cr 9.438542673939216 11.008436027289932 7.767279423123709
Cr 11.025220669816592 9.446961879192424 8.173299500533451
Cr 8.224942100066647 6.466464302105176 10.372193585169795
Cr 7.975198811071241 10.866975945942992 9.453447684329271
Cr 8.386343810883137 8.907761414528661 10.360427388999172
Cr 9.237921259722977 9.003211416855724 6.793714573313528
