14
Energy = -104.09173066 eV
Cr 8.588529916349604 11.435097635666667 7.63662916503659
Cr 6.6325344478228825 9.378470497284582 6.573234622556894
Cr 9.026522312772663 9.193915564156226 6.822030199533065
Cr 9.77228283902498 9.34837679960277 9.070495949143723
Cr 7.329398621798495 10.117484960937873 9.015097979190243
Cr 9.693777719236508 11.635528268656337 9.69484536907229
Cr 9.932247125796623 6.990226199527409 7.239582569435272
Cr 10.843064928004821 9.492011063543739 11.270540196253986
Cr 7.617040736241061 6.878420292305757 6.275197045182847
Cr 10.668082311033775 7.154651466372346 10.366807053071662
Cr 8.498952499470533 10.37140696106935 11.322359275006715
Cr 7.5755767319008465 7.764842138991699 8.52796171639283
Cr 8.461544772187585 7.974900105650845 10.738014473489228
Cr 8.975900872190932 5.923648021343409 8.960431234774306
