24
Energy = -183.31162346 eV
Cr 9.279596808652348 7.999699520377341 11.895394340595628
Cr 8.66888130002176 9.831854992722624 8.236686462914246
Cr 12.936955302941985 10.342092103597851 9.736905688319968
Cr 9.346587380173947 12.320724982619797 11.533323336251527
Cr 8.196630446690696 12.316590275986742 9.428121039745692
Cr 11.137823980668792 11.824201956543453 13.196805794955372
Cr 11.095220260777786 7.716901596895726 12.593878601453813
Cr 12.587352385377256 12.349264199429784 8.47371594793835
Cr 6.910519289872192 11.184249339747984 10.706715676241435
Cr 13.437151535969674 14.157552151270657 9.867054508469
Cr 11.070179073291445 10.065835853503751 11.66679863864127
Cr 13.393838170081906 13.527607598946906 12.498341551233885
Cr 10.035440185455595 12.232455384426377 7.192317592886393
Cr 10.338960841230247 9.535015994915087 14.200648032426132
Cr 10.849620594204755 8.696892909195215 9.791448308758802
Cr 13.362432887198054 8.829388938365081 11.337420730909274
Cr 14.485022215268689 11.964723705350789 10.358350948242379
Cr 10.558329411883994 13.681843769379338 9.818287092746106
Cr 10.460914834821327 11.21251756963424 9.245299341289911
Cr 13.555261472650374 11.004356577080667 12.453489158548805
Cr 8.665511403926747 10.362701138109006 12.769477702626201
Cr 12.53502814204063 9.560090473892597 14.004623303480553
Cr 8.682516952059695 10.024639036301775 10.523805860003975
Cr 11.90814752733801 12.458787001147321 11.028575746035418
