30
Energy = -224.99283603 eV
Cr 7.781116206693231 6.380384433928228 8.756551421137429
Cr 9.56003581572693 6.133415928980921 8.17729166186587
Cr 8.566913288411616 8.219548798249118 6.747333511623805
Cr 6.527546196010912 8.75935718618403 8.69366508047526
Cr 9.494482640429608 6.860774676903803 10.71776377124766
Cr 7.247521942918806 8.439751302273407 10.685932655839965
Cr 11.117750912884533 8.063148228233427 7.557786343362026
Cr 9.07529632166094 8.595376469372894 8.959993807054733
Cr 7.496195930041354 10.53909910469164 7.539223690055846
Cr 11.40278446553744 7.778849417021156 9.823706957784175
Cr 11.461055756440377 7.7713030924789965 12.277260606449323
Cr 9.719033645149935 9.734225498785575 6.636271175661628
Cr 9.57991033772052 9.148936272451037 11.36744373142949
Cr 5.982917653175933 10.89705615812343 10.130635030019077
Cr 13.700249963984495 8.420632385231075 11.184357780450622
Cr 8.141060276828249 10.824256676719035 9.781875504544114
Cr 11.747513684456678 10.049683857762023 10.987527109821082
Cr 7.383177975123262 12.998026347109517 10.952383604459209
Cr 10.571413043423528 10.387339029668738 13.233456238564283
Cr 13.629527468452517 9.635430846507807 12.613285859358516
Cr 8.04543926292259 10.865275074056111 12.15552880794621
Cr 6.992595627974656 12.979029419719527 8.640471087982704
Cr 10.6221971347968 10.349671446913165 8.99095122533576
Cr 9.121163040235196 12.264426668782097 7.696573230989318
Cr 13.001071182374536 9.563507994572271 8.768715682682075
Cr 13.840589351156057 11.202791398156252 10.54512588159875
Cr 10.20377496971958 11.782327644638455 11.470970368166743
Cr 9.47889593792181 12.921152690312597 9.56984532759659
Cr 12.583429855865443 12.221938033094327 12.158392156781922
Cr 12.019453207219819 12.130747722393732 9.422096660308004
