38
Energy = -298.40233446 eV
Cr 8.926425298539412 10.856433991806952 7.172212897999882
Cr 8.879039482014715 8.5384816208047 7.007275785526417
Cr 11.28144508165737 9.300486174182653 7.296740003456245
Cr 9.203406270095488 13.230790546663329 6.281803157639578
Cr 11.119798485647964 11.74346300904022 7.715524915975466
Cr 11.329843914350189 14.396512085440667 7.93464863373978
Cr 10.75856258771056 7.318202798439514 8.443648342745492
Cr 13.127232779525333 12.939072228287637 8.790136773107628
Cr 7.239022844058539 9.863012569168202 8.947022308223554
Cr 8.517329855386603 12.454578139211247 8.972149117890858
Cr 9.90261527074809 9.899810750347596 9.322791904621864
Cr 12.127949969064144 10.507338185510973 9.654237740490595
Cr 12.98699882812556 8.44208815428604 9.133005999533182
Cr 8.582932156343038 7.685371185416396 9.289201324974933
Cr 9.056358333980128 14.627895211343567 8.278750066645063
Cr 10.625691847339295 12.749342590292214 9.961383593099347
Cr 12.486984785989156 14.749879444772613 10.386101905702478
Cr 8.016888091961851 11.064537819830496 10.865558872724202
Cr 9.834093810053304 5.609189361676787 10.259759419057577
Cr 11.000472325480917 8.182279720474227 10.804618327798995
Cr 12.433226188609826 6.005696819396987 10.066716540774346
Cr 9.706718176178592 14.937838879177846 10.53571024791003
Cr 7.428718141951962 13.878358612174486 10.58633902213733
Cr 13.710287694802826 7.109591654393523 11.599148975437911
Cr 8.821987433436052 6.475455060802556 11.872087599275408
Cr 12.801391669936502 12.23749662823187 11.17750798631165
Cr 13.153071190359272 9.716732931236471 11.561203203225462
Cr 8.599701588219888 8.796452919801238 11.330652722357176
Cr 10.625697906830322 10.65450729800368 11.999256663375101
Cr 11.198281716213033 6.494354138393757 12.62219096764127
Cr 9.184333491387914 12.798709438655507 12.022697426160658
Cr 9.63130164442416 8.358477880059443 13.535115040376295
Cr 12.39293366486133 8.665101964637588 13.311191685708838
Cr 11.455206288794697 13.624047659224448 12.484258231725196
Cr 12.234328070043787 11.347987630159082 13.62553824562241
Cr 8.407960183648498 10.519151380342501 13.33680197510658
Cr 10.59949532739423 9.630514331217821 14.857432884128105
Cr 9.96163062915477 11.940122211413952 14.308942516090662
