35
Energy = -268.74609464 eV
Cr 8.717936420295752 11.163088505095892 11.73928021290149
Cr 9.63791245890265 15.103855124715205 10.122063890849002
Cr 7.536782862417717 13.067547942577495 10.711554394492609
Cr 9.665896866869602 12.632425496219676 9.546310095227962
Cr 13.83766356676174 13.454278612232962 9.404070710262184
Cr 13.208105406142689 11.008184585931334 13.359435156678128
Cr 11.89828167515075 15.790809497374477 9.865603449988848
Cr 13.637337657013214 13.275376113625708 11.964272600137559
Cr 12.112447731802677 5.631301990380293 13.32139087706664
Cr 10.984977017669683 11.505597953439834 11.695032314620615
Cr 11.332103718052133 6.953153317685507 10.96412388973907
Cr 11.369324629826357 15.166358453815906 12.28704077860198
Cr 13.689013462136257 12.454119890579925 7.531815592032382
Cr 11.413001754771079 14.138984586736276 8.326415162569626
Cr 7.116221134279217 12.870584130292121 12.811574891653164
Cr 9.071184078862705 10.416525406363936 9.500157817203746
Cr 11.824673602163662 13.559950642592495 10.716288547013583
Cr 12.134415275075735 9.108920409317983 12.059132133170003
Cr 14.590288907593214 9.360898288724558 12.185892305824513
Cr 15.027272951634718 10.851428436596526 9.586228533488917
Cr 11.759503711001773 12.929565402014491 13.364997181568878
Cr 13.265014928741767 11.154960189243468 10.794918468861745
Cr 11.698099114309766 11.599756932369148 9.008031741411521
Cr 6.732990475544943 10.418691930896937 11.496383947051918
Cr 9.500544377366186 9.000149080754298 11.872281764890044
Cr 13.297563320265562 6.8955695758673095 12.117186578685105
Cr 9.331542634009644 12.334713098778629 13.827770295113961
Cr 8.12531085406357 15.041418732249962 12.849227891800952
Cr 10.912190721505569 10.213158286286562 13.587016622840908
Cr 10.88107313162088 7.438366772256265 13.258007443431264
Cr 11.264397816366639 9.341842129894271 9.99134582523736
Cr 13.606053877101585 8.49762036568874 9.982902018247376
Cr 9.537513698777193 13.712727607923002 12.005264848488816
Cr 12.991847413500476 8.185064263079592 14.120946738176638
Cr 13.364506622478334 9.98592155210763 8.366521319941791
