37
Energy = -290.912534 eV
Cr 9.795312527686193 7.006869093907053 12.851519657420743
Cr 7.569731894910238 5.580613864204007 11.501047906569434
Cr 11.854635417794544 10.583247722582948 9.808766037974555
Cr 10.700561691369657 10.886156556318277 7.191248652439863
Cr 8.953909333296682 10.223806267934723 5.066362508421823
Cr 11.556000984332654 7.733088255109351 10.440779720591738
Cr 8.25137594796179 9.992492917492047 7.546187152026487
Cr 5.105738996989699 7.841272337014053 5.904791637201577
Cr 9.095613020371204 11.475241447238217 9.456770549192594
Cr 8.314526334295914 7.766721065159385 8.21966937959622
Cr 5.214566563056406 9.213138950451325 10.29903318025142
Cr 10.614336576038152 6.66692749106737 8.444341316118
Cr 8.235295713283625 5.5819359114112785 8.910474231358
Cr 6.386164446829362 11.28465111609567 8.745580074818902
Cr 9.100266404521273 7.276912916908502 10.711369849145285
Cr 7.015473696695112 6.25912605640352 4.899720844849043
Cr 7.692936708413907 9.310824830093242 9.84574444457284
Cr 9.639417600561197 9.65196915716036 11.524029566213953
Cr 10.132188508054355 8.623086306905812 6.476012205063709
Cr 9.49460468389941 7.589935101721175 4.203807883534641
Cr 7.531725812300686 8.27406291381446 5.713869212989455
Cr 5.989543545149053 8.862208502495546 7.9417596764645975
Cr 10.419143612436779 5.241301531513775 10.5205136514042
Cr 10.218048555650448 9.279782550128536 9.100121224350582
Cr 4.0567372450302805 9.905990523860867 7.728380157574724
Cr 12.159209818187058 8.322689707618505 7.721224091974216
Cr 4.42495438902381 7.100688478108245 8.544302113449087
Cr 6.273354959544776 10.436130810510903 5.99105006876385
Cr 11.65674580832036 8.833710818645642 5.104032808949415
Cr 9.154970745845548 6.320108285424769 6.477173285271176
Cr 6.453627405697607 6.298480017552391 7.283864587822176
Cr 6.4691874897160275 7.028530246042264 10.005393511439475
Cr 11.390997527574156 6.7489321773439235 5.713987514235042
Cr 5.7591425401303145 5.023401885704719 9.320606324609278
Cr 7.287612968575383 10.933744768726962 11.212483067860306
Cr 7.207285408761119 8.260737724985852 12.077599556715851
Cr 8.309907432466732 12.066334007117245 6.981234663538119
