4
Energy = -24.40510338 eV
Cr 8.971119857717158 9.796167189716607 10.39381246226264
Cr 11.27879522531251 10.437802621110649 9.843236985246465
Cr 11.446154494206018 9.813712511455398 11.458813185298736
Cr 8.807677228288513 10.426709589460177 8.779805265540162
