43
Energy = -328.65612342 eV
Cr 12.855834271777058 13.851786595164802 9.048203709966327
Cr 14.163758888888408 12.161081381235261 10.639817072320232
Cr 14.29722170307172 10.416878105794057 8.64401228511992
Cr 14.434381933022582 10.977960457676796 11.756028895540934
Cr 13.961940245716788 13.17753135725579 13.151775301674876
Cr 12.419182730905924 13.960095380672756 11.590653099880628
Cr 11.152331012895516 15.554757864699418 10.422492940492656
Cr 14.659243511651548 8.397616407424037 10.859447881272773
Cr 12.258702990713434 11.719340173735649 8.839995794934232
Cr 12.815088738196662 9.529221063878696 10.152154990996237
Cr 13.195344879561123 7.641298697207602 8.47906473608201
Cr 10.512174678834233 13.222679929232255 9.871377808236586
Cr 10.20781597914211 12.445888325924313 7.796608929142866
Cr 11.804154764674527 11.546122215366994 11.480047429116604
Cr 12.50228477574876 11.33481463294033 13.756533563948665
Cr 12.932367651195566 9.243380808328464 12.806853806056763
Cr 11.731806166728589 9.833412022334043 7.675444075933169
Cr 9.643819255840503 14.62545244509731 12.066731713801923
Cr 11.194876987553863 13.335915575243606 13.549205068536665
Cr 8.657196004136654 14.518656612432956 9.698568772826466
Cr 13.702821348310135 7.048549956963245 12.678504297036524
Cr 10.714851080455405 9.265807495677791 11.849070091826315
Cr 7.042592887240481 13.561250904596557 11.573639171226269
Cr 12.074549068434798 7.364286026319195 10.973110493646713
Cr 11.23955558715593 8.879825658890434 14.529700438302251
Cr 12.323516256998396 7.389196099247332 7.098349138712596
Cr 8.130755253901707 12.12851270026716 9.332745177203211
Cr 9.173017700711366 12.19833356050981 11.60861238221619
Cr 9.96453475906445 10.337856988301557 9.78062344020084
Cr 11.197892779866914 7.344215506253441 13.505517903364
Cr 9.793275885928473 11.222576702588638 13.575512365056795
Cr 10.733061744459222 8.089827427961103 9.155775261800565
Cr 9.270088686629752 10.242901568540894 7.488225950011611
Cr 8.484853540581735 13.537691224594486 13.87598460864637
Cr 9.006256390215778 8.969014595558448 13.561576354229757
Cr 9.745110231199344 7.916934149185151 7.0546360272376
Cr 9.22797088404497 7.771780551381904 10.988032144248136
Cr 6.500134745914691 11.981126498402894 11.252953338785732
Cr 7.175212074066357 10.367418791697284 9.004828365063156
Cr 8.14351629717696 10.048837613606137 11.445754241928276
Cr 7.362244595180564 11.06912045780908 13.62641606080328
Cr 8.05368196304921 8.217503172170824 8.911296534392612
Cr 7.231783300217997 8.82590251080861 6.740040188142843
