48
Energy = -381.53211445 eV
Cr 13.618811757695818 10.371801506192172 14.968546732841483
Cr 12.416530735360936 8.754544056122851 13.940603603937003
Cr 10.694536974446477 10.696947303601593 14.99027069039744
Cr 11.422213264645872 7.314669702803717 12.009300302735669
Cr 11.685330284660242 12.570890507630066 14.83421692086615
Cr 10.42454511575543 9.34616144843157 12.692477484498127
Cr 8.5933053921548 8.460329279018394 13.833911468198218
Cr 12.61246921413561 11.264113419670121 12.990473150292333
Cr 13.878821207848318 8.10425676390938 11.891369421422153
Cr 10.42231557661006 11.877514985507572 12.59974101400303
Cr 8.382174856428032 10.682156652641465 13.886296943974154
Cr 14.546908307383928 10.63111662202489 11.968329068022852
Cr 12.093997647226294 9.770304196125222 11.277887723534429
Cr 8.882038641798546 12.808412026857484 14.525532493640954
Cr 14.186172826692854 13.14709340531254 12.339466022546695
Cr 8.464851326872244 9.953662781016968 11.470654354034462
Cr 10.250425726959074 8.747443953470539 10.114057452938397
Cr 9.920249228726135 14.193986603280656 13.548371290474867
Cr 8.781474705770844 7.45705619645491 11.820282088263157
Cr 12.415903149222114 12.010619993639622 10.636195481688015
Cr 12.71661933731073 7.732841896820835 9.758330181177339
Cr 12.268621473294864 13.763260889839865 12.61099819411239
Cr 8.389184988817034 12.637188945068615 12.038593418222629
Cr 8.63474377881663 10.14152063015485 8.822332678299674
Cr 14.738080385193117 12.380718186821518 9.957184409990086
Cr 6.475741211173355 11.498873825475071 12.481929677523965
Cr 10.0406567330816 11.436707081466487 10.296766471383142
Cr 13.864802885072283 9.8891148554302 9.714855492097971
Cr 6.629584252883421 9.014667673524716 12.383525505621696
Cr 10.469449570547342 13.886052217488048 10.966516007917422
Cr 13.775514440495654 9.340556335583548 7.7642829636972
Cr 9.700469839090204 6.676606703000844 9.519014337899495
Cr 8.893630235592507 13.690988815063193 9.726219159799633
Cr 11.702402433710544 7.714060028290571 7.711260587084415
Cr 11.188497477429092 13.120397868297493 8.725352826503684
Cr 7.3173858091508395 11.919554148177696 9.868188078728043
Cr 11.422795808437305 10.283306053207637 8.600207187242868
Cr 12.836275773698697 14.114296191688267 10.025794660993295
Cr 13.826082989118909 13.764127289089299 7.646084179657073
Cr 6.127842868230321 9.998881484856224 10.064557044552076
Cr 9.09368052448187 12.201706877587513 7.79007444957682
Cr 13.35389081804693 11.656323066534824 8.081033685347052
Cr 7.601296336173562 8.128504875052105 9.625457689444133
Cr 9.52861654852676 8.451171391776441 7.42773746430749
Cr 12.024888911887349 9.806740147961449 6.496342276943818
Cr 11.572931547946316 12.359401417311263 6.495674736730335
Cr 6.918820350557513 10.186117172022646 7.302363703013045
Cr 9.76864126718888 10.617457065043332 6.335563760171192
