44
Energy = -343.96563425 eV
Cr 10.784302012411935 9.679707281540933 15.73591911607184
Cr 9.277018576091159 11.31135222023646 15.419499083597612
Cr 12.859128461198395 10.384492434745079 15.281472322315606
Cr 9.791329696922034 13.446825287197278 13.784221624084278
Cr 9.25573444364077 8.877273186321695 14.139863831364517
Cr 11.385566053400813 12.372675837665954 15.251693053791954
Cr 11.82956371260376 8.355159604873705 13.843635480088539
Cr 8.585063785829952 11.136109723046511 13.208350145299052
Cr 7.864230101203993 13.166090746924125 11.744795788675024
Cr 13.489923254698862 12.74073266086401 13.954858347973012
Cr 11.032834396387244 10.96825597242459 13.34344695308615
Cr 7.382377199264036 9.215322663025583 12.174193253329824
Cr 10.3748331221215 12.712668063783761 11.718616253383487
Cr 6.553299654160158 11.303815644103915 11.345655621002685
Cr 9.910340654567877 8.900739947082805 11.934952828760819
Cr 12.017921627385078 14.211638149290321 12.932697098428884
Cr 13.294973459997157 10.505829552918406 13.01725044178474
Cr 7.217928670334636 11.880556644960626 9.176559603499761
Cr 8.995312297302165 13.447431085663318 9.6042817096136
Cr 9.0953046708472 10.927988526561524 10.820886220653863
Cr 14.613393352851363 13.897361049568044 12.182131403336953
Cr 10.134402385004476 15.033871179574417 11.26346897715568
Cr 13.104134722952173 15.661090407174662 11.33769933843353
Cr 16.580947146521385 12.768517082390211 10.718550744955905
Cr 12.841104960575091 12.250532317645238 11.469060208717424
Cr 9.101074553809255 7.256342104089391 10.818578216554636
Cr 11.619852460591284 10.500668056933682 10.744936571815751
Cr 10.783819363860799 14.617050420448349 8.354126261274656
Cr 7.916970754374549 9.278226945058428 9.911519026724628
Cr 12.024397848821216 14.06672523591299 10.165010132788183
Cr 12.521834689280512 8.308513687756733 12.014891131943488
Cr 15.277214328876207 11.441528170834204 12.056054453897907
Cr 9.178577466328859 10.806938432136446 7.878095256927643
Cr 11.034796608874755 11.991984022975192 9.193834037688859
Cr 14.025327230318045 9.878894981004281 10.503078516178878
Cr 11.582870020349946 7.96044031747555 9.878990863013897
Cr 14.568139371611418 13.690318519358962 9.941836207092924
Cr 10.181621420161536 9.130353222180908 9.209187663655147
Cr 13.435521597488643 11.996446680739504 9.044497632485728
Cr 9.393596242392109 12.605475234375326 7.199475886558958
Cr 12.425573054066389 9.769768372518428 8.260863374228302
Cr 15.60261823149431 11.20558931227635 9.39571780624137
Cr 14.110729294798132 7.828643307125634 9.606469640511719
Cr 14.30581294754076 9.771460848853025 7.745614988451468
