46
Energy = -357.59010413 eV
Cr 10.54477232357238 10.113669896259376 5.0342724552659
Cr 9.085067338716726 8.202715129191224 5.611373767732838
Cr 7.917479324775887 10.529414188019645 6.0823051607479925
Cr 11.541189133234992 7.945626370499681 6.664189728391099
Cr 7.357247204710487 6.721891307515338 6.812693775895473
Cr 9.786843493394928 5.843971406539737 6.145284060409763
Cr 9.933979771177347 12.550231524713801 6.999381683040348
Cr 12.31285047449294 10.860755195844348 7.217986635806702
Cr 10.010964520247919 10.017963899881849 7.176739597367351
Cr 7.236348228398406 13.505815567592728 7.961950771606882
Cr 7.467446042463643 8.968997097585484 7.84273848921359
Cr 13.580607395559692 9.09983120199645 8.52127593922824
Cr 7.7669563110270605 5.648898965816694 8.200667198486688
Cr 11.922028763907454 6.814542704937246 9.175090932742958
Cr 9.469735301445859 7.547222260164641 8.279550674589773
Cr 5.830284696741945 10.842851193561177 8.031777231234507
Cr 8.114646724886297 11.516183128579067 8.246239731531023
Cr 5.9290633716953405 7.641994388559778 9.009829565360304
Cr 12.136600270822122 13.017136850493605 8.488372821152808
Cr 11.458010262738926 9.212072425686909 9.045184480477218
Cr 10.560258240385505 5.236052460723893 7.625821662688884
Cr 10.713696869702478 11.629382679884896 9.114398321422145
Cr 9.156799176399138 13.72375876356799 9.372574191825517
Cr 9.277027320802059 9.664231523518675 9.574724941643483
Cr 13.066547410659645 11.14799198473629 9.90903897161602
Cr 11.670059527620516 4.579823551989954 9.781951711881124
Cr 7.88814466532913 7.605981708624216 10.204060320874158
Cr 8.853407461428057 11.709659181740566 10.765582344856828
Cr 7.346742810905958 14.720471311041928 10.535545691110734
Cr 6.66814374839147 12.37767801849905 10.270750829317189
Cr 11.137892894973092 12.924561231099066 11.17560759620286
Cr 9.649115631829913 5.609951527916775 10.117225440333682
Cr 7.017503172147872 9.89061727607343 10.177979547210134
Cr 11.170328068527281 10.401104071734267 11.436171281573806
Cr 10.324696447960907 7.912204829088524 10.837946319650065
Cr 12.884128654247462 8.569057176758324 11.103084836728478
Cr 8.60539212721767 9.500590865181616 12.057762788976161
Cr 12.676895004557167 10.96574928625101 12.808224706923168
Cr 11.244247433386048 6.247195220028337 11.670525054015622
Cr 8.611993247931446 13.353462798451856 12.203369154479814
Cr 9.77340362363993 11.34240380392282 13.224507353373975
Cr 6.690547415324351 7.911202089290701 12.119410989482967
Cr 7.0552942906113785 11.282453482126 12.618584073380754
Cr 8.875356112041294 6.9089236722877665 12.674759591303474
Cr 10.793066896006016 8.641142041096852 13.158711444316477
Cr 8.200998033710547 8.856371980674078 14.228583374276516
