5
Energy = -33.6052581 eV
Cr 8.985801181720742 10.984840229172926 11.046608691929297
Cr 11.20367887985133 10.29308257692228 9.211596312375463
Cr 9.930728414890176 8.876821678477434 10.745129932841959
Cr 8.787698383583265 10.265304165176847 8.821017995486258
Cr 9.389625945521884 8.025032245073499 8.627293843592222
