53
Energy = -422.05413314 eV
Cr 13.389284421318385 13.502191636519024 15.055760937011648
Cr 11.200153916057257 11.983757666732146 15.425078369872754
Cr 13.855833507961595 10.974104059722164 14.33341881820413
Cr 14.206049924320837 9.024023218878193 14.389304596162313
Cr 9.00938009095019 10.670326826478842 15.289646400010119
Cr 11.199545076300197 14.335636476051604 13.948998108219758
Cr 11.562729916699482 9.66490485958742 15.063733057822423
Cr 9.51348808036054 12.805584535687673 13.645482319870421
Cr 14.063749124643042 13.586278994203923 13.18946316973378
Cr 12.172890154204538 12.076689410646225 13.111974417076343
Cr 12.46855898131811 9.423140161352029 12.686448395523477
Cr 12.018794985876212 14.908660661888602 11.865263373881318
Cr 11.995281495059833 7.418465357900573 14.221221823150547
Cr 10.301571297634423 10.64477040237905 13.17825631883265
Cr 7.639600463090496 11.438645104191966 13.524067906738475
Cr 9.52823793696271 15.169609537067794 12.385068332676228
Cr 8.059546786115698 9.063769527831894 13.182458698371573
Cr 8.218201393367082 13.335032754124855 11.516896727484102
Cr 10.804687422202461 12.913426239742979 11.437156369498439
Cr 13.298096989433722 12.805995403896095 10.72254604334305
Cr 14.173208906101845 11.18123492138681 11.609787906772581
Cr 9.552398613424034 8.305438314984299 14.26356416484459
Cr 13.623671571096544 15.50476490290499 10.728591757777002
Cr 8.940338436764307 10.958190732234975 11.423585737841725
Cr 13.775151443201624 8.83223407302147 11.11957240520622
Cr 10.073954851597827 6.068318421582721 12.994089410995128
Cr 7.850368875786181 14.024075763938797 9.128761554742216
Cr 14.174321869086253 14.32455290711678 8.640056366713301
Cr 11.660075085810488 10.552548343083759 10.908583946276035
Cr 12.040033961536539 7.187797036471241 11.78827231124749
Cr 11.73354692478541 14.293310639863057 9.191027178541223
Cr 14.430070755517965 11.6563353257728 8.727387406987106
Cr 10.267309711129565 8.434793144740683 11.617220885758107
Cr 9.836231441115022 15.049129201541504 10.172687652867477
Cr 9.653545225296703 12.428099138091339 9.506458471550177
Cr 11.79421967676892 11.77739434791793 8.963372714389209
Cr 7.5226235314871985 11.091001047218532 9.236250598212143
Cr 13.104953714611076 9.766477066778764 9.290474070574504
Cr 8.415296120649193 6.730166612432581 12.100946402747383
Cr 14.547278302505429 12.797565158837568 6.757934835219701
Cr 9.911057656218173 9.78364441172735 9.190179996451711
Cr 7.795084109198244 9.030951124858609 10.686820406341099
Cr 10.50775249022267 5.9139857828369005 10.382011090261704
Cr 11.665392094612223 8.089679935105714 9.6970865964433
Cr 7.833141756530097 12.040260344346818 7.5027291063827235
Cr 12.257783041504744 13.114435314740264 7.105199742421245
Cr 9.747460402606938 14.025955639814716 7.603930565805847
Cr 12.973406076171965 10.745263027787814 6.7503119988178675
Cr 9.01252292628514 7.305002485705914 9.586564147146348
Cr 8.80817298482268 9.398451302402512 7.590972983791374
Cr 11.569050828877417 9.395002022576394 7.309022329245072
Cr 10.201233336426423 11.519792311013145 7.08814954120779
Cr 10.486573101661866 7.255311854478544 7.8786582025615814
