55
Energy = -439.40097436 eV
Cr 9.730889933953518 9.727925426352979 7.808819287910091
Cr 13.433071099532249 8.123583026092614 11.076920230492458
Cr 11.536511178835807 8.598497476090456 11.36004928771046
Cr 11.042916909956476 11.33115365509333 9.506120003393963
Cr 9.545047672901031 13.658680883887362 9.059744690307285
Cr 11.171903798361628 13.456268298692496 7.847996066023347
Cr 9.394819303236972 11.673612794931923 7.471400063999448
Cr 8.841488126608871 12.181622807515959 12.811131999060581
Cr 13.582727416009925 11.107338395494233 13.578495413666912
Cr 12.376565177530011 13.402873192016623 10.229659707689935
Cr 14.61302176504104 12.503625286253042 11.790254232757755
Cr 12.650336050585853 9.289318174508507 13.31509448115588
Cr 8.745107478724929 11.341048035604413 10.02727747227347
Cr 9.772503434675102 10.004463356868703 16.31295213563063
Cr 8.700637316318721 9.709013037663672 13.985404501549134
Cr 16.887030107279784 12.287650294997459 10.996140736273187
Cr 13.954406924820265 14.664046284663662 12.002513838628351
Cr 15.333479049957504 11.259082855302236 9.493319680063099
Cr 10.423319379884417 13.115367951709002 11.209993668055516
Cr 7.996641735298727 14.578625374527908 12.714474326633688
Cr 9.35666375512125 9.0479005488032 10.056309689307463
Cr 12.54599420441802 15.183899698895734 14.169995061561547
Cr 12.04368577623415 10.996150943767157 7.210024714219032
Cr 16.14673848505017 10.96005589196811 13.506729111700807
Cr 14.816779147313206 13.553940520761786 9.643288143777124
Cr 16.1872851617018 14.613556538488886 11.09522128207154
Cr 10.971026354208217 15.407226101162557 9.676854059590772
Cr 12.150729937098832 12.848438104696054 12.792005562956279
Cr 10.831504326931766 11.485870991453291 14.263336627865204
Cr 15.632911983758113 11.788250167843119 15.23420054045257
Cr 14.958070902975344 8.680217516811709 13.262245782554848
Cr 7.618557472401409 10.376309277025168 11.83958632333153
Cr 10.52492947821963 11.749775901962668 16.872441799563436
Cr 9.04244349391009 13.438409388867804 15.232440294532028
Cr 10.454789374345399 10.656077679224463 12.090284579004155
Cr 13.790121831035815 9.502381893425136 8.805948729998242
Cr 7.671647377341197 13.0701581527079 10.787703163630725
Cr 13.323729898608207 12.116607756636764 8.264030258043043
Cr 16.208432034238623 13.719222043777128 13.331905558686387
Cr 9.007390640053059 8.117746242014466 11.843774384212432
Cr 14.514884214652028 9.430743408495923 15.33192143521602
Cr 10.454429857589668 8.702886435946025 13.903469691861698
Cr 12.154574561540112 9.890592564601912 15.604271539040962
Cr 13.611260250920775 15.815933073253955 9.951333075848073
Cr 11.671021720169433 15.417230599351841 11.784099839798635
Cr 9.135271764991167 15.479434672183297 11.342139799785704
Cr 13.064339278410191 11.91710144595958 15.829902744475413
Cr 10.275128386918722 14.201181152576993 13.433533968990327
Cr 13.066641598120933 14.960443475949079 8.241253775589481
Cr 11.517728024032614 13.560793234695812 15.356324230655916
Cr 11.852948425922152 8.965584781364171 9.012909819776
Cr 14.924700069053111 10.081347920332762 11.410180339175428
Cr 12.702013200153383 10.881879622131867 10.93280989496923
Cr 13.979790138083091 13.679187086098182 14.185496442116303
Cr 8.041408070006838 11.671663613540769 15.08626096740849
