50
Energy = -386.90294129 eV
Cr 9.26144320794611 10.09210730083089 6.27364934624154
Cr 10.292052532727002 7.124306366771885 6.593386317642945
Cr 11.894599515285828 9.420041901283343 6.416708234107374
Cr 10.974086723496182 11.41622315009321 7.624384492548555
Cr 13.247450812451255 11.827999555631248 7.394426002472471
Cr 6.673613779849625 9.114439351514365 7.636203881441948
Cr 8.158554590528063 8.120431009452615 7.486354940755604
Cr 9.310670188435656 12.919650107078933 6.963328645085873
Cr 10.285643329215898 8.981100253895189 8.430341205360484
Cr 8.444528649167053 10.950314681942645 8.150524942152364
Cr 14.518654842577192 9.130733408225316 7.208000612467588
Cr 12.443780159759012 7.498918759719212 7.647883428124819
Cr 11.70730574584501 13.914128401197408 8.12917424852668
Cr 7.384897619707375 13.143223589340835 8.934135897643719
Cr 5.461351358577753 8.674505887011229 10.292008718469805
Cr 12.790254230008486 9.925049732163204 8.630070099209293
Cr 14.741327107104077 10.979219308057724 9.653331519497463
Cr 7.924516993222381 9.145085228768178 9.968839031642453
Cr 10.085219511851504 6.746006850850338 8.985521668475718
Cr 9.41987078992171 14.726337900836574 8.90927298239295
Cr 6.3485702904320815 10.834723270915719 9.390451158181785
Cr 7.639848850187499 6.779809820940378 9.488833637503646
Cr 9.887310663653567 12.618482698826064 9.50637217791369
Cr 12.02292874423428 8.147022577004682 10.191591312616552
Cr 14.36262683664326 8.201648072402044 9.7800785380633
Cr 13.058557329076379 10.149334745973201 11.112240847532528
Cr 7.371203560587184 7.964076630444578 12.100475570315497
Cr 8.020807681480708 11.587739777478387 10.716158365008834
Cr 4.304718733709385 10.815537228560276 10.642540999767851
Cr 12.403315934565104 12.302612295787746 9.748933726651371
Cr 15.387864715430064 9.39628167662894 11.727316277187597
Cr 11.471117531830629 14.058266396469248 11.043654392798487
Cr 10.461408345784072 10.408185581877264 10.12412279349185
Cr 5.924639166066819 12.425573928253877 11.50252990826479
Cr 8.594183625593486 14.008213149396795 11.337751149959
Cr 13.964315987059285 12.373689373296084 11.808317344420319
Cr 6.443333486388367 10.069158335704596 12.124174250685895
Cr 10.073882297746925 12.224290739487708 12.065495573528445
Cr 9.694403347797785 7.933088790568566 10.932329974708571
Cr 8.986894031019462 9.818542755922337 12.350890695876906
Cr 11.336453958900526 9.581562477588491 12.251897854830679
Cr 13.509347101337664 10.221101648447158 13.716910607558072
Cr 13.446897843438723 7.911268307812106 12.301329423565164
Cr 9.789193492560013 7.950429918732616 13.63026086361814
Cr 8.189133356748739 11.969085896558436 13.164585394398584
Cr 12.450552708811458 12.129347785515115 12.593401238607964
Cr 11.264327599390867 6.8711057762078855 11.962379344235478
Cr 7.4647670546650655 9.631840790359293 14.26922646241465
Cr 10.570021600275494 10.808952738680416 14.283448159906799
Cr 12.051360256059096 8.473011888646385 14.318563561278857
