55
Energy = -440.68464664 eV
Cr 7.682067882160471 11.704608255845807 10.19159899425935
Cr 15.819979730791443 13.18376090339202 11.736005153949577
Cr 13.318248881579965 9.290294378935787 13.476813899730484
Cr 9.785487322390278 7.599041699630946 11.123192578231079
Cr 13.678883226148328 13.367562521933976 13.388734265908392
Cr 11.107090621123742 9.486966072528839 15.075427420686221
Cr 12.310964456489868 11.332713096598535 9.218800722632162
Cr 11.347493019090484 13.47387314926385 15.032995789195239
Cr 13.285477161540886 9.28142558550143 10.944629151815901
Cr 9.935799598690497 11.550473004527653 10.958209081206297
Cr 9.977490949890846 11.48024243228642 8.50036492245988
Cr 11.009152801609908 9.407752913331281 12.66567115488122
Cr 7.883560524983694 11.768458815192933 14.995068685218014
Cr 7.793743638715114 11.729911426368565 12.631196678949784
Cr 8.74500337323897 9.674838214774924 14.268811678738503
Cr 12.533396519611575 15.286535360559443 9.263551360149247
Cr 10.292210908037513 15.377700363752787 8.555316122063507
Cr 15.737426935340945 13.107018331136205 9.243016860342383
Cr 10.325558866587837 15.480473457134668 10.946667872804147
Cr 11.956226661355538 7.445403929219518 11.769164279927738
Cr 13.645024169967295 13.305727125047452 10.864278137507902
Cr 11.988932128535028 7.546919890383464 14.20700269312794
Cr 9.818339352953318 7.554438810562388 13.49530518398099
Cr 11.274765751926408 13.560659770474588 12.59401480664543
Cr 14.64825001265366 11.253570688685583 12.560409017344158
Cr 14.605702546933545 11.230005664867399 10.039550056951054
Cr 9.096976441545648 13.654926936568048 14.191536258492727
Cr 12.36080900815496 11.39727129796161 14.281779007623824
Cr 12.349409797319902 11.352933774204898 11.759129969226214
Cr 13.262290569058653 9.465251707564196 15.807518095016752
Cr 10.080098442631735 11.610498475466555 15.816078158124514
Cr 9.9600740518211 11.593879772945748 13.482602526925229
Cr 15.894762602311683 13.338754884681427 14.207647637801317
Cr 14.92327342782272 15.1489306011296 12.478352036813547
Cr 14.901379694771656 15.178481951844052 9.960546960419222
Cr 13.687320280635161 13.30942071127563 15.748165054570002
Cr 12.654119196294067 15.339263049299799 14.103362384362041
Cr 12.614745691909706 15.373700967648348 11.658413893717524
Cr 11.238121585566272 13.379225155647326 7.657010757798805
Cr 10.923651244163013 9.353115808581677 10.091129929991114
Cr 10.40639958941506 15.505995633092315 13.355496071616951
Cr 11.04273273457562 9.473831317298464 7.760938643371963
Cr 8.71907789165515 9.606664562421711 11.83815614723463
Cr 14.59901506170741 11.36858398789972 14.978547121750896
Cr 13.147550297579164 9.24733712530094 8.539255356858012
Cr 13.604252879934679 13.212241472506426 8.437337371304327
Cr 12.359625603811686 11.397474092150796 16.701232348640257
Cr 12.293450915733874 11.267307122522267 6.886002108240132
Cr 11.237924141341198 13.507658857383694 10.06306967961002
Cr 14.974586932671047 15.024817775522294 14.808294769431205
Cr 14.456064101173999 11.189534884800127 7.707968538074632
Cr 8.99817634906775 13.651882185928015 11.778331851098608
Cr 8.705234251322803 9.661760459151747 9.43754320677764
Cr 11.995477384400013 7.3571472434219665 9.370150608639705
Cr 9.023412789256964 13.568022323843516 9.364896937762131
