8
Energy = -57.09824789 eV
Cr 10.583960106325984 8.040327138194886 6.953072943206962
Cr 6.665662132224515 9.955193342762259 8.541503108890964
Cr 7.826259435736305 8.909092090149493 6.676913078460163
Cr 9.265315699251794 9.194033127188417 8.611726594820334
Cr 7.034407431643029 7.681395253081111 9.031607340966032
Cr 8.097399371144787 9.837627116061633 10.554581198462603
Cr 8.583343082996839 6.714552334216111 7.471109799256407
Cr 9.70566267450991 7.1690681184197445 9.619132254090644
