 running on   32 total cores
 distrk:  each k-point on   32 cores,    1 groups
 distr:  one band on    8 cores,    4 groups
 using from now: INCAR     
 vasp.5.3.5 31Mar14 (build Feb 01 2018 12:10:03) gamma-only                     
  
 POSCAR found type information on POSCAR  Ag
 POSCAR found :  1 types and       8 ions
 scaLAPACK will be used
 LDA part: xc-table for Pade appr. of Perdew
 POSCAR, INCAR and KPOINTS ok, starting setup
 WARNING: small aliasing (wrap around) errors must be expected
 FFT: planning ...
 WAVECAR not read
 entering main loop
       N       E                     dE             d eps       ncg     rms          rms(c)
DAV:   1     0.771057123226E+03    0.77106E+03   -0.13484E+04   224   0.558E+02
DAV:   2     0.301721727164E+03   -0.46934E+03   -0.42713E+03   416   0.102E+02
DAV:   3     0.199034141358E+02   -0.28182E+03   -0.26806E+03   344   0.909E+01
DAV:   4    -0.133571414380E+02   -0.33261E+02   -0.32203E+02   280   0.353E+01
DAV:   5    -0.139886299072E+02   -0.63149E+00   -0.63056E+00   240   0.621E+00    0.145E+01
DAV:   6    -0.101034503932E+01    0.12978E+02   -0.34867E+01   232   0.144E+01    0.701E+00
DAV:   7     0.186159734532E+01    0.28719E+01   -0.19728E+00   256   0.388E+00    0.406E+00
DAV:   8    -0.209292856213E+01   -0.39545E+01   -0.18728E+00   248   0.340E+00    0.212E+00
DAV:   9    -0.566207672826E+01   -0.35691E+01   -0.14720E+00   256   0.263E+00    0.129E+00
DAV:  10    -0.971088183020E+01   -0.40488E+01   -0.21260E+00   224   0.320E+00    0.826E-01
DAV:  11    -0.114702397906E+02   -0.17594E+01   -0.65559E-01   272   0.133E+00    0.544E-01
DAV:  12    -0.131376852852E+02   -0.16674E+01   -0.59347E-01   224   0.137E+00    0.256E-01
DAV:  13    -0.136902271917E+02   -0.55254E+00   -0.88991E-02   264   0.484E-01    0.138E-01
DAV:  14    -0.138810575055E+02   -0.19083E+00   -0.13146E-02   224   0.182E-01    0.841E-02
DAV:  15    -0.139573030836E+02   -0.76246E-01   -0.52577E-03   216   0.110E-01    0.415E-02
DAV:  16    -0.139815837259E+02   -0.24281E-01   -0.27564E-03   192   0.716E-02    0.225E-02
DAV:  17    -0.139858206373E+02   -0.42369E-02   -0.12846E-03   192   0.467E-02    0.143E-02
DAV:  18    -0.139905145132E+02   -0.46939E-02   -0.73919E-04   160   0.357E-02    0.855E-03
DAV:  19    -0.139909569140E+02   -0.44240E-03   -0.11576E-04   160   0.191E-02    0.625E-03
DAV:  20    -0.139911737905E+02   -0.21688E-03   -0.67798E-05   152   0.134E-02    0.321E-03
DAV:  21    -0.139912074212E+02   -0.33631E-04   -0.13448E-05   160   0.789E-03
   1 F= -.13991207E+02 E0= -.13991207E+02  d E =-.139912E+02  mag=     0.0004
 curvature:   0.00 expect dE= 0.000E+00 dE for cont linesearch  0.000E+00
 trial: gam= 0.00000 g(F)=  0.829E-02 g(S)=  0.000E+00 ort = 0.000E+00 (trialstep = 0.100E+01)
 search vector abs. value=  0.829E-02
 bond charge predicted
       N       E                     dE             d eps       ncg     rms          rms(c)
DAV:   1    -0.139990780731E+02   -0.79043E-02   -0.56575E-01   232   0.274E+00    0.666E-02
DAV:   2    -0.139994239477E+02   -0.34587E-03   -0.28254E-03   240   0.263E-01    0.412E-02
DAV:   3    -0.139994670666E+02   -0.43119E-04   -0.55297E-05   144   0.321E-02
   2 F= -.13999467E+02 E0= -.13999467E+02  d E =-.825965E-02  mag=     0.0001
 ZBRENT: can't locate minimum, use default step
 trial-energy change:   -0.008260  1 .order   -0.007914   -0.008288   -0.007541
 step:   4.0000(harm= 11.0911)  dis= 0.01216  next Energy=   -14.037168 (dE=-0.460E-01)
 bond charge predicted
       N       E                     dE             d eps       ncg     rms          rms(c)
DAV:   1    -0.140177740400E+02   -0.18350E-01   -0.51032E+00   232   0.822E+00    0.213E-01
DAV:   2    -0.140202333849E+02   -0.24593E-02   -0.25786E-02   224   0.791E-01    0.125E-01
DAV:   3    -0.140202104402E+02    0.22945E-04   -0.56425E-04   232   0.977E-02
   3 F= -.14020210E+02 E0= -.14020210E+02  d E =-.290030E-01  mag=     0.0000
 curvature:  -2.81 expect dE=-0.119E-01 dE for cont linesearch -0.119E-01
 ZBRENT: increasing intervall
 opt :  10.0000  next Energy=   -14.046223 (dE=-0.550E-01)
 bond charge predicted
       N       E                     dE             d eps       ncg     rms          rms(c)
DAV:   1    -0.140355434881E+02   -0.15310E-01   -0.20414E+01   224   0.165E+01    0.464E-01
DAV:   2    -0.140455105236E+02   -0.99670E-02   -0.10475E-01   248   0.159E+00    0.259E-01
DAV:   3    -0.140453781103E+02    0.13241E-03   -0.24127E-03   248   0.200E-01    0.148E-01
DAV:   4    -0.140453869153E+02   -0.88050E-05   -0.38186E-04   224   0.850E-02
   4 F= -.14045387E+02 E0= -.14045387E+02  d E =-.541795E-01  mag=     0.0000
 curvature:  -6.11 expect dE=-0.398E-02 dE for cont linesearch -0.394E-02
 ZBRENT: increasing intervall
 opt :  22.0000  next Energy=   -14.029567 (dE=-0.384E-01)
 bond charge predicted
       N       E                     dE             d eps       ncg     rms          rms(c)
DAV:   1    -0.139815546052E+02    0.63824E-01   -0.81837E+01   224   0.331E+01    0.110E+00
DAV:   2    -0.140235659304E+02   -0.42011E-01   -0.42684E-01   248   0.320E+00    0.571E-01
DAV:   3    -0.140227813676E+02    0.78456E-03   -0.11017E-02   232   0.424E-01    0.314E-01
DAV:   4    -0.140228284056E+02   -0.47038E-04   -0.13148E-03   248   0.170E-01    0.421E-02
DAV:   5    -0.140227467931E+02    0.81613E-04   -0.46403E-04   216   0.730E-02
   5 F= -.14022747E+02 E0= -.14022747E+02  d E =-.315394E-01  mag=     0.0000
 curvature:  24.57 expect dE= 0.129E+00 dE for cont linesearch  0.127E+00
 ZBRENT: bracketing found
 ZBRENT: interpolating
 opt :  13.1264  next Energy=   -14.048998 (dE=-0.578E-01)
 bond charge predicted
       N       E                     dE             d eps       ncg     rms          rms(c)
DAV:   1    -0.140289229911E+02   -0.60946E-02   -0.44753E+01   224   0.245E+01    0.693E-01
DAV:   2    -0.140499560099E+02   -0.21033E-01   -0.21449E-01   240   0.233E+00    0.514E-01
DAV:   3    -0.140495931356E+02    0.36287E-03   -0.48825E-03   224   0.289E-01    0.281E-01
DAV:   4    -0.140495419987E+02    0.51137E-04   -0.11095E-03   240   0.136E-01    0.304E-02
DAV:   5    -0.140494902035E+02    0.51795E-04   -0.16576E-04   144   0.451E-02
   6 F= -.14049490E+02 E0= -.14049490E+02  d E =-.582828E-01  mag=     0.0000
 curvature:  -0.70 expect dE=-0.207E-04 dE for cont linesearch -0.595E-05
 trial: gam=-0.02851 g(F)=  0.298E-04 g(S)=  0.000E+00 ort = 0.266E-03 (trialstep = 0.343E+01)
 search vector abs. value=  0.213E-04
 reached required accuracy - stopping structural energy minimisation
Application 91048168 resources: utime ~930s, stime ~42s, Rss ~51164, inblocks ~81127, outblocks ~149833
