   8   8   0   0
  0.6438720E+03  0.1727017E-08  0.1727017E-08  0.1727017E-08  0.1000000E-15
  1.000000000000000E-004
  CAR 
 unknown system                          
      0.75449420     -9.38480764  301     -4.44189799      1.00000000
     -9.385  0.0000E+00  0.0000E+00  0.0000E+00  0.0000E+00
     -9.351  0.0000E+00  0.0000E+00  0.0000E+00  0.0000E+00
     -9.317  0.0000E+00  0.0000E+00  0.0000E+00  0.0000E+00
     -9.283  0.0000E+00  0.0000E+00  0.0000E+00  0.0000E+00
     -9.250  0.0000E+00  0.0000E+00  0.0000E+00  0.0000E+00
     -9.216  0.0000E+00  0.0000E+00  0.0000E+00  0.0000E+00
     -9.182  0.0000E+00  0.0000E+00  0.0000E+00  0.0000E+00
     -9.148  0.0000E+00  0.0000E+00  0.0000E+00  0.0000E+00
     -9.114  0.0000E+00  0.0000E+00  0.0000E+00  0.0000E+00
     -9.081  0.0000E+00  0.0000E+00  0.0000E+00  0.0000E+00
     -9.047  0.0000E+00  0.0000E+00  0.0000E+00  0.0000E+00
     -9.013  0.0000E+00  0.0000E+00  0.0000E+00  0.0000E+00
     -8.979  0.0000E+00  0.0000E+00  0.0000E+00  0.0000E+00
     -8.945  0.0000E+00  0.0000E+00  0.0000E+00  0.0000E+00
     -8.912  0.0000E+00  0.0000E+00  0.1000E-02  0.1000E-02
     -8.878  0.0000E+00  0.0000E+00  0.1000E-02  0.1000E-02
     -8.844  0.0000E+00  0.0000E+00  0.1000E-02  0.1000E-02
     -8.810  0.0000E+00  0.0000E+00  0.1000E-02  0.1000E-02
     -8.776  0.0000E+00  0.0000E+00  0.1000E-02  0.1000E-02
     -8.743  0.0000E+00  0.0000E+00  0.1000E-02  0.1000E-02
     -8.709  0.0000E+00  0.0000E+00  0.1000E-02  0.1000E-02
     -8.675  0.0000E+00  0.0000E+00  0.2000E-02  0.2000E-02
     -8.641  0.0000E+00  0.0000E+00  0.2000E-02  0.2000E-02
     -8.607  0.0000E+00  0.0000E+00  0.2000E-02  0.2000E-02
     -8.574  0.0000E+00  0.0000E+00  0.2000E-02  0.2000E-02
     -8.540  0.0000E+00  0.0000E+00  0.2000E-02  0.2000E-02
     -8.506  0.0000E+00  0.0000E+00  0.3000E-02  0.3000E-02
     -8.472  0.0000E+00  0.0000E+00  0.3000E-02  0.3000E-02
     -8.438  0.0000E+00  0.0000E+00  0.3000E-02  0.3000E-02
     -8.405  0.0000E+00  0.0000E+00  0.5000E-02  0.5000E-02
     -8.371  0.0000E+00  0.0000E+00  0.5000E-02  0.5000E-02
     -8.337  0.0000E+00  0.0000E+00  0.7000E-02  0.7000E-02
     -8.303  0.0000E+00  0.0000E+00  0.1000E-01  0.1000E-01
     -8.269  0.0000E+00  0.0000E+00  0.1000E-01  0.1000E-01
     -8.236  0.0000E+00  0.0000E+00  0.1000E-01  0.1000E-01
     -8.202  0.0000E+00  0.0000E+00  0.1000E-01  0.1000E-01
     -8.168  0.0000E+00  0.0000E+00  0.1200E-01  0.1200E-01
     -8.134  0.0000E+00  0.0000E+00  0.1200E-01  0.1200E-01
     -8.100  0.0000E+00  0.0000E+00  0.1200E-01  0.1200E-01
     -8.067  0.0000E+00  0.0000E+00  0.1200E-01  0.1200E-01
     -8.033  0.0000E+00  0.0000E+00  0.1200E-01  0.1200E-01
     -7.999  0.0000E+00  0.0000E+00  0.1200E-01  0.1200E-01
     -7.965  0.0000E+00  0.0000E+00  0.1200E-01  0.1200E-01
     -7.932  0.0000E+00  0.0000E+00  0.1300E-01  0.1300E-01
     -7.898  0.0000E+00  0.0000E+00  0.1400E-01  0.1400E-01
     -7.864  0.0000E+00  0.0000E+00  0.1400E-01  0.1400E-01
     -7.830  0.0000E+00  0.0000E+00  0.1400E-01  0.1400E-01
     -7.796  0.0000E+00  0.0000E+00  0.1600E-01  0.1600E-01
     -7.763  0.0000E+00  0.0000E+00  0.1600E-01  0.1600E-01
     -7.729  0.0000E+00  0.0000E+00  0.1700E-01  0.1700E-01
     -7.695  0.0000E+00  0.0000E+00  0.1700E-01  0.1700E-01
     -7.661  0.0000E+00  0.0000E+00  0.1800E-01  0.1800E-01
     -7.627  0.0000E+00  0.0000E+00  0.1800E-01  0.1800E-01
     -7.594  0.0000E+00  0.0000E+00  0.1800E-01  0.1800E-01
     -7.560  0.0000E+00  0.0000E+00  0.1800E-01  0.1800E-01
     -7.526  0.0000E+00  0.0000E+00  0.1800E-01  0.1800E-01
     -7.492  0.0000E+00  0.0000E+00  0.1800E-01  0.1800E-01
     -7.458  0.0000E+00  0.0000E+00  0.1800E-01  0.1800E-01
     -7.425  0.0000E+00  0.0000E+00  0.2000E-01  0.2000E-01
     -7.391  0.0000E+00  0.0000E+00  0.2000E-01  0.2000E-01
     -7.357  0.0000E+00  0.0000E+00  0.2100E-01  0.2100E-01
     -7.323  0.0000E+00  0.0000E+00  0.2100E-01  0.2100E-01
     -7.289  0.0000E+00  0.0000E+00  0.2100E-01  0.2100E-01
     -7.256  0.0000E+00  0.0000E+00  0.2100E-01  0.2100E-01
     -7.222  0.0000E+00  0.0000E+00  0.2200E-01  0.2200E-01
     -7.188  0.0000E+00  0.0000E+00  0.2200E-01  0.2200E-01
     -7.154  0.0000E+00  0.0000E+00  0.2400E-01  0.2400E-01
     -7.120  0.0000E+00  0.0000E+00  0.2600E-01  0.2600E-01
     -7.087  0.0000E+00  0.0000E+00  0.2700E-01  0.2700E-01
     -7.053  0.0000E+00  0.0000E+00  0.2700E-01  0.2700E-01
     -7.019  0.5875E-01  0.5864E-01  0.2899E-01  0.2898E-01
     -6.985  0.0000E+00  0.0000E+00  0.2900E-01  0.2900E-01
     -6.951  0.0000E+00  0.0000E+00  0.2900E-01  0.2900E-01
     -6.918  0.0000E+00  0.0000E+00  0.2900E-01  0.2900E-01
     -6.884  0.0000E+00  0.0000E+00  0.2900E-01  0.2900E-01
     -6.850  0.0000E+00  0.0000E+00  0.2900E-01  0.2900E-01
     -6.816  0.0000E+00  0.0000E+00  0.2900E-01  0.2900E-01
     -6.782  0.0000E+00  0.0000E+00  0.2900E-01  0.2900E-01
     -6.749  0.0000E+00  0.0000E+00  0.3300E-01  0.3300E-01
     -6.715  0.0000E+00  0.0000E+00  0.3300E-01  0.3300E-01
     -6.681  0.0000E+00  0.0000E+00  0.3300E-01  0.3300E-01
     -6.647  0.0000E+00  0.0000E+00  0.3400E-01  0.3400E-01
     -6.613  0.0000E+00  0.0000E+00  0.3700E-01  0.3700E-01
     -6.580  0.0000E+00  0.0000E+00  0.3800E-01  0.3800E-01
     -6.546  0.0000E+00  0.0000E+00  0.3800E-01  0.3800E-01
     -6.512  0.0000E+00  0.0000E+00  0.3900E-01  0.3900E-01
     -6.478  0.0000E+00  0.0000E+00  0.4100E-01  0.4100E-01
     -6.444  0.0000E+00  0.0000E+00  0.4100E-01  0.4100E-01
     -6.411  0.0000E+00  0.0000E+00  0.4100E-01  0.4100E-01
     -6.377  0.0000E+00  0.0000E+00  0.4100E-01  0.4100E-01
     -6.343  0.0000E+00  0.0000E+00  0.4100E-01  0.4100E-01
     -6.309  0.0000E+00  0.0000E+00  0.4100E-01  0.4100E-01
     -6.275  0.0000E+00  0.0000E+00  0.4100E-01  0.4100E-01
     -6.242  0.0000E+00  0.0000E+00  0.4100E-01  0.4100E-01
     -6.208  0.0000E+00  0.0000E+00  0.4100E-01  0.4100E-01
     -6.174  0.0000E+00  0.0000E+00  0.4100E-01  0.4100E-01
     -6.140  0.0000E+00  0.0000E+00  0.4100E-01  0.4100E-01
     -6.106  0.0000E+00  0.0000E+00  0.4100E-01  0.4100E-01
     -6.073  0.0000E+00  0.0000E+00  0.4100E-01  0.4100E-01
     -6.039  0.0000E+00  0.0000E+00  0.4100E-01  0.4100E-01
     -6.005  0.0000E+00  0.0000E+00  0.4100E-01  0.4100E-01
     -5.971  0.0000E+00  0.0000E+00  0.4100E-01  0.4100E-01
     -5.937  0.0000E+00  0.0000E+00  0.4100E-01  0.4100E-01
     -5.904  0.0000E+00  0.0000E+00  0.4100E-01  0.4100E-01
     -5.870  0.0000E+00  0.0000E+00  0.4100E-01  0.4100E-01
     -5.836  0.0000E+00  0.0000E+00  0.4100E-01  0.4100E-01
     -5.802  0.0000E+00  0.0000E+00  0.4100E-01  0.4100E-01
     -5.768  0.0000E+00  0.0000E+00  0.4100E-01  0.4100E-01
     -5.735  0.0000E+00  0.0000E+00  0.4100E-01  0.4100E-01
     -5.701  0.0000E+00  0.0000E+00  0.4100E-01  0.4100E-01
     -5.667  0.0000E+00  0.0000E+00  0.4100E-01  0.4100E-01
     -5.633  0.0000E+00  0.0000E+00  0.4100E-01  0.4100E-01
     -5.599  0.0000E+00  0.0000E+00  0.4100E-01  0.4100E-01
     -5.566  0.0000E+00  0.0000E+00  0.4100E-01  0.4100E-01
     -5.532  0.0000E+00  0.0000E+00  0.4100E-01  0.4100E-01
     -5.498  0.0000E+00  0.0000E+00  0.4100E-01  0.4100E-01
     -5.464  0.0000E+00  0.0000E+00  0.4100E-01  0.4100E-01
     -5.430  0.0000E+00  0.0000E+00  0.4100E-01  0.4100E-01
     -5.397  0.0000E+00  0.0000E+00  0.4100E-01  0.4100E-01
     -5.363  0.0000E+00  0.0000E+00  0.4100E-01  0.4100E-01
     -5.329  0.0000E+00  0.0000E+00  0.4100E-01  0.4100E-01
     -5.295  0.0000E+00  0.0000E+00  0.4100E-01  0.4100E-01
     -5.261  0.0000E+00  0.0000E+00  0.4100E-01  0.4100E-01
     -5.228  0.0000E+00  0.0000E+00  0.4100E-01  0.4100E-01
     -5.194  0.0000E+00  0.0000E+00  0.4100E-01  0.4100E-01
     -5.160  0.0000E+00  0.0000E+00  0.4200E-01  0.4200E-01
     -5.126  0.0000E+00  0.0000E+00  0.4200E-01  0.4200E-01
     -5.093  0.0000E+00  0.0000E+00  0.4200E-01  0.4200E-01
     -5.059  0.0000E+00  0.0000E+00  0.4200E-01  0.4200E-01
     -5.025  0.0000E+00  0.0000E+00  0.4200E-01  0.4200E-01
     -4.991  0.0000E+00  0.0000E+00  0.4200E-01  0.4200E-01
     -4.957  0.0000E+00  0.0000E+00  0.4200E-01  0.4200E-01
     -4.924  0.0000E+00  0.0000E+00  0.4200E-01  0.4200E-01
     -4.890  0.0000E+00  0.0000E+00  0.4200E-01  0.4200E-01
     -4.856  0.0000E+00  0.0000E+00  0.4200E-01  0.4200E-01
     -4.822  0.0000E+00  0.0000E+00  0.4200E-01  0.4200E-01
     -4.788  0.0000E+00  0.0000E+00  0.4200E-01  0.4200E-01
     -4.755  0.0000E+00  0.0000E+00  0.4200E-01  0.4200E-01
     -4.721  0.0000E+00  0.0000E+00  0.4200E-01  0.4200E-01
     -4.687  0.0000E+00  0.0000E+00  0.4200E-01  0.4200E-01
     -4.653  0.0000E+00  0.0000E+00  0.4200E-01  0.4200E-01
     -4.619  0.0000E+00  0.0000E+00  0.4200E-01  0.4200E-01
     -4.586  0.0000E+00  0.0000E+00  0.4200E-01  0.4200E-01
     -4.552  0.0000E+00  0.0000E+00  0.4200E-01  0.4200E-01
     -4.518  0.0000E+00  0.0000E+00  0.4200E-01  0.4200E-01
     -4.484  0.0000E+00  0.0000E+00  0.4200E-01  0.4200E-01
     -4.450  0.0000E+00  0.0000E+00  0.4400E-01  0.4400E-01
     -4.417  0.0000E+00  0.0000E+00  0.4400E-01  0.4400E-01
     -4.383  0.0000E+00  0.0000E+00  0.4400E-01  0.4400E-01
     -4.349  0.0000E+00  0.0000E+00  0.4400E-01  0.4400E-01
     -4.315  0.0000E+00  0.0000E+00  0.4400E-01  0.4400E-01
     -4.281  0.0000E+00  0.0000E+00  0.4400E-01  0.4400E-01
     -4.248  0.0000E+00  0.0000E+00  0.4400E-01  0.4400E-01
     -4.214  0.0000E+00  0.0000E+00  0.4400E-01  0.4400E-01
     -4.180  0.0000E+00  0.0000E+00  0.4400E-01  0.4400E-01
     -4.146  0.0000E+00  0.0000E+00  0.4400E-01  0.4400E-01
     -4.112  0.0000E+00  0.0000E+00  0.4400E-01  0.4400E-01
     -4.079  0.0000E+00  0.0000E+00  0.4400E-01  0.4400E-01
     -4.045  0.0000E+00  0.0000E+00  0.4400E-01  0.4400E-01
     -4.011  0.0000E+00  0.0000E+00  0.4400E-01  0.4400E-01
     -3.977  0.0000E+00  0.0000E+00  0.4400E-01  0.4400E-01
     -3.943  0.0000E+00  0.0000E+00  0.4400E-01  0.4400E-01
     -3.910  0.0000E+00  0.0000E+00  0.4400E-01  0.4400E-01
     -3.876  0.0000E+00  0.0000E+00  0.4400E-01  0.4400E-01
     -3.842  0.0000E+00  0.0000E+00  0.4400E-01  0.4400E-01
     -3.808  0.0000E+00  0.0000E+00  0.4400E-01  0.4400E-01
     -3.774  0.0000E+00  0.0000E+00  0.4400E-01  0.4400E-01
     -3.741  0.0000E+00  0.0000E+00  0.4400E-01  0.4400E-01
     -3.707  0.0000E+00  0.0000E+00  0.4400E-01  0.4400E-01
     -3.673  0.0000E+00  0.0000E+00  0.4400E-01  0.4400E-01
     -3.639  0.0000E+00  0.0000E+00  0.4400E-01  0.4400E-01
     -3.605  0.0000E+00  0.0000E+00  0.4400E-01  0.4400E-01
     -3.572  0.0000E+00  0.0000E+00  0.4400E-01  0.4400E-01
     -3.538  0.0000E+00  0.0000E+00  0.4400E-01  0.4400E-01
     -3.504  0.0000E+00  0.0000E+00  0.4400E-01  0.4400E-01
     -3.470  0.0000E+00  0.0000E+00  0.4400E-01  0.4400E-01
     -3.436  0.0000E+00  0.0000E+00  0.4400E-01  0.4400E-01
     -3.403  0.0000E+00  0.0000E+00  0.4400E-01  0.4400E-01
     -3.369  0.0000E+00  0.0000E+00  0.4400E-01  0.4400E-01
     -3.335  0.0000E+00  0.0000E+00  0.4400E-01  0.4400E-01
     -3.301  0.0000E+00  0.0000E+00  0.4400E-01  0.4400E-01
     -3.267  0.0000E+00  0.0000E+00  0.4400E-01  0.4400E-01
     -3.234  0.0000E+00  0.0000E+00  0.4400E-01  0.4400E-01
     -3.200  0.0000E+00  0.0000E+00  0.4400E-01  0.4400E-01
     -3.166  0.0000E+00  0.0000E+00  0.4400E-01  0.4400E-01
     -3.132  0.0000E+00  0.0000E+00  0.4400E-01  0.4400E-01
     -3.098  0.0000E+00  0.0000E+00  0.4400E-01  0.4400E-01
     -3.065  0.0000E+00  0.0000E+00  0.4400E-01  0.4400E-01
     -3.031  0.0000E+00  0.0000E+00  0.4400E-01  0.4400E-01
     -2.997  0.0000E+00  0.0000E+00  0.4400E-01  0.4400E-01
     -2.963  0.0000E+00  0.0000E+00  0.4400E-01  0.4400E-01
     -2.929  0.0000E+00  0.0000E+00  0.4400E-01  0.4400E-01
     -2.896  0.0000E+00  0.0000E+00  0.4400E-01  0.4400E-01
     -2.862  0.0000E+00  0.0000E+00  0.4400E-01  0.4400E-01
     -2.828  0.0000E+00  0.0000E+00  0.4400E-01  0.4400E-01
     -2.794  0.0000E+00  0.0000E+00  0.4400E-01  0.4400E-01
     -2.760  0.0000E+00  0.0000E+00  0.4500E-01  0.4500E-01
     -2.727  0.0000E+00  0.0000E+00  0.4500E-01  0.4500E-01
     -2.693  0.0000E+00  0.0000E+00  0.4500E-01  0.4500E-01
     -2.659  0.0000E+00  0.0000E+00  0.4500E-01  0.4500E-01
     -2.625  0.0000E+00  0.0000E+00  0.4500E-01  0.4500E-01
     -2.591  0.0000E+00  0.0000E+00  0.4500E-01  0.4500E-01
     -2.558  0.0000E+00  0.0000E+00  0.4700E-01  0.4700E-01
     -2.524  0.0000E+00  0.0000E+00  0.4700E-01  0.4700E-01
     -2.490  0.0000E+00  0.0000E+00  0.4700E-01  0.4700E-01
     -2.456  0.0000E+00  0.0000E+00  0.4700E-01  0.4700E-01
     -2.422  0.0000E+00  0.0000E+00  0.4700E-01  0.4700E-01
     -2.389  0.0000E+00  0.0000E+00  0.4700E-01  0.4700E-01
     -2.355  0.0000E+00  0.0000E+00  0.4700E-01  0.4700E-01
     -2.321  0.0000E+00  0.0000E+00  0.4700E-01  0.4700E-01
     -2.287  0.0000E+00  0.0000E+00  0.4700E-01  0.4700E-01
     -2.253  0.0000E+00  0.0000E+00  0.4700E-01  0.4700E-01
     -2.220  0.0000E+00  0.0000E+00  0.4700E-01  0.4700E-01
     -2.186  0.0000E+00  0.0000E+00  0.4700E-01  0.4700E-01
     -2.152  0.0000E+00  0.0000E+00  0.4700E-01  0.4700E-01
     -2.118  0.0000E+00  0.0000E+00  0.4800E-01  0.4800E-01
     -2.085  0.0000E+00  0.0000E+00  0.4800E-01  0.4800E-01
     -2.051  0.0000E+00  0.0000E+00  0.4800E-01  0.4800E-01
     -2.017  0.0000E+00  0.0000E+00  0.4800E-01  0.4800E-01
     -1.983  0.0000E+00  0.0000E+00  0.4800E-01  0.4800E-01
     -1.949  0.0000E+00  0.0000E+00  0.4800E-01  0.4800E-01
     -1.916  0.0000E+00  0.0000E+00  0.4800E-01  0.4800E-01
     -1.882  0.0000E+00  0.0000E+00  0.4800E-01  0.4800E-01
     -1.848  0.0000E+00  0.0000E+00  0.4800E-01  0.4800E-01
     -1.814  0.0000E+00  0.0000E+00  0.4800E-01  0.4800E-01
     -1.780  0.0000E+00  0.0000E+00  0.4800E-01  0.4800E-01
     -1.747  0.0000E+00  0.0000E+00  0.4800E-01  0.4800E-01
     -1.713  0.0000E+00  0.0000E+00  0.4800E-01  0.4800E-01
     -1.679  0.0000E+00  0.0000E+00  0.4800E-01  0.4800E-01
     -1.645  0.0000E+00  0.0000E+00  0.4800E-01  0.4800E-01
     -1.611  0.0000E+00  0.0000E+00  0.4900E-01  0.4900E-01
     -1.578  0.0000E+00  0.0000E+00  0.4900E-01  0.4900E-01
     -1.544  0.0000E+00  0.0000E+00  0.4900E-01  0.4900E-01
     -1.510  0.0000E+00  0.0000E+00  0.4900E-01  0.4900E-01
     -1.476  0.0000E+00  0.0000E+00  0.4900E-01  0.4900E-01
     -1.442  0.0000E+00  0.0000E+00  0.5000E-01  0.5000E-01
     -1.409  0.0000E+00  0.0000E+00  0.5000E-01  0.5000E-01
     -1.375  0.0000E+00  0.0000E+00  0.5000E-01  0.5000E-01
     -1.341  0.0000E+00  0.0000E+00  0.5000E-01  0.5000E-01
     -1.307  0.0000E+00  0.0000E+00  0.5000E-01  0.5000E-01
     -1.273  0.0000E+00  0.0000E+00  0.5000E-01  0.5000E-01
     -1.240  0.0000E+00  0.0000E+00  0.5000E-01  0.5000E-01
     -1.206  0.0000E+00  0.0000E+00  0.5000E-01  0.5000E-01
     -1.172  0.0000E+00  0.0000E+00  0.5000E-01  0.5000E-01
     -1.138  0.0000E+00  0.0000E+00  0.5000E-01  0.5000E-01
     -1.104  0.0000E+00  0.0000E+00  0.5000E-01  0.5000E-01
     -1.071  0.0000E+00  0.0000E+00  0.5000E-01  0.5000E-01
     -1.037  0.0000E+00  0.0000E+00  0.5000E-01  0.5000E-01
     -1.003  0.0000E+00  0.0000E+00  0.5000E-01  0.5000E-01
     -0.969  0.0000E+00  0.0000E+00  0.5000E-01  0.5000E-01
     -0.935  0.0000E+00  0.0000E+00  0.5000E-01  0.5000E-01
     -0.902  0.0000E+00  0.0000E+00  0.5000E-01  0.5000E-01
     -0.868  0.0000E+00  0.0000E+00  0.5000E-01  0.5000E-01
     -0.834  0.0000E+00  0.0000E+00  0.5000E-01  0.5000E-01
     -0.800  0.0000E+00  0.0000E+00  0.5000E-01  0.5000E-01
     -0.766  0.0000E+00  0.0000E+00  0.5000E-01  0.5000E-01
     -0.733  0.0000E+00  0.0000E+00  0.5000E-01  0.5000E-01
     -0.699  0.0000E+00  0.0000E+00  0.5000E-01  0.5000E-01
     -0.665  0.0000E+00  0.0000E+00  0.5000E-01  0.5000E-01
     -0.631  0.0000E+00  0.0000E+00  0.5000E-01  0.5000E-01
     -0.597  0.0000E+00  0.0000E+00  0.5000E-01  0.5000E-01
     -0.564  0.0000E+00  0.0000E+00  0.5000E-01  0.5000E-01
     -0.530  0.0000E+00  0.0000E+00  0.5100E-01  0.5100E-01
     -0.496  0.0000E+00  0.0000E+00  0.5100E-01  0.5100E-01
     -0.462  0.0000E+00  0.0000E+00  0.5100E-01  0.5100E-01
     -0.428  0.0000E+00  0.0000E+00  0.5100E-01  0.5100E-01
     -0.395  0.0000E+00  0.0000E+00  0.5100E-01  0.5100E-01
     -0.361  0.0000E+00  0.0000E+00  0.5300E-01  0.5300E-01
     -0.327  0.0000E+00  0.0000E+00  0.5300E-01  0.5300E-01
     -0.293  0.0000E+00  0.0000E+00  0.5300E-01  0.5300E-01
     -0.259  0.0000E+00  0.0000E+00  0.5300E-01  0.5300E-01
     -0.226  0.0000E+00  0.0000E+00  0.5300E-01  0.5300E-01
     -0.192  0.0000E+00  0.0000E+00  0.5300E-01  0.5300E-01
     -0.158  0.0000E+00  0.0000E+00  0.5400E-01  0.5400E-01
     -0.124  0.0000E+00  0.0000E+00  0.5400E-01  0.5400E-01
     -0.090  0.0000E+00  0.0000E+00  0.5400E-01  0.5400E-01
     -0.057  0.0000E+00  0.0000E+00  0.5400E-01  0.5400E-01
     -0.023  0.0000E+00  0.0000E+00  0.5400E-01  0.5400E-01
      0.011  0.0000E+00  0.0000E+00  0.5400E-01  0.5400E-01
      0.045  0.0000E+00  0.0000E+00  0.5400E-01  0.5400E-01
      0.079  0.0000E+00  0.0000E+00  0.5400E-01  0.5400E-01
      0.112  0.0000E+00  0.0000E+00  0.5400E-01  0.5400E-01
      0.146  0.0000E+00  0.0000E+00  0.5400E-01  0.5400E-01
      0.180  0.0000E+00  0.0000E+00  0.5400E-01  0.5400E-01
      0.214  0.0000E+00  0.0000E+00  0.5400E-01  0.5400E-01
      0.248  0.0000E+00  0.0000E+00  0.5500E-01  0.5500E-01
      0.281  0.0000E+00  0.0000E+00  0.5500E-01  0.5500E-01
      0.315  0.0000E+00  0.0000E+00  0.5600E-01  0.5600E-01
      0.349  0.0000E+00  0.0000E+00  0.5600E-01  0.5600E-01
      0.383  0.0000E+00  0.0000E+00  0.5600E-01  0.5600E-01
      0.417  0.0000E+00  0.0000E+00  0.5600E-01  0.5600E-01
      0.450  0.0000E+00  0.0000E+00  0.5600E-01  0.5600E-01
      0.484  0.0000E+00  0.0000E+00  0.5600E-01  0.5600E-01
      0.518  0.0000E+00  0.0000E+00  0.5600E-01  0.5600E-01
      0.552  0.0000E+00  0.0000E+00  0.5600E-01  0.5600E-01
      0.586  0.0000E+00  0.0000E+00  0.5600E-01  0.5600E-01
      0.619  0.0000E+00  0.0000E+00  0.5600E-01  0.5600E-01
      0.653  0.0000E+00  0.0000E+00  0.5600E-01  0.5600E-01
      0.687  0.0000E+00  0.0000E+00  0.5600E-01  0.5600E-01
      0.721  0.0000E+00  0.0000E+00  0.5600E-01  0.5600E-01
      0.754  0.0000E+00  0.0000E+00  0.5600E-01  0.5600E-01
