unknown system                          
           1
    17.270166    0.000000    0.000000
     0.000000   17.270166    0.000000
     0.000000    0.000000   17.270166
   Ag
   8
Direct configuration=     1
   0.50000000  0.60914568  0.53464049
   0.39085432  0.50000000  0.46535951
   0.50000000  0.58503294  0.37637160
   0.50000000  0.41496706  0.37637160
   0.60914568  0.50000000  0.46535951
   0.50000000  0.39085432  0.53464049
   0.41496706  0.50000000  0.62362840
   0.58503294  0.50000000  0.62362840
Direct configuration=     2
   0.50000000  0.60896967  0.53458389
   0.39103033  0.50000000  0.46541611
   0.50000000  0.58492786  0.37651925
   0.50000000  0.41507214  0.37651925
   0.60896967  0.50000000  0.46541611
   0.50000000  0.39103033  0.53458389
   0.41507214  0.50000000  0.62348075
   0.58492786  0.50000000  0.62348075
Direct configuration=     3
   0.50000000  0.60844164  0.53441410
   0.39155836  0.50000000  0.46558590
   0.50000000  0.58461262  0.37696221
   0.50000000  0.41538738  0.37696221
   0.60844164  0.50000000  0.46558590
   0.50000000  0.39155836  0.53441410
   0.41538738  0.50000000  0.62303779
   0.58461262  0.50000000  0.62303779
Direct configuration=     4
   0.50000000  0.60738557  0.53407451
   0.39261443  0.50000000  0.46592549
   0.50000000  0.58398213  0.37784813
   0.50000000  0.41601787  0.37784813
   0.60738557  0.50000000  0.46592549
   0.50000000  0.39261443  0.53407451
   0.41601787  0.50000000  0.62215187
   0.58398213  0.50000000  0.62215187
Direct configuration=     5
   0.50000000  0.60527345  0.53339533
   0.39472655  0.50000000  0.46660467
   0.50000000  0.58272115  0.37961997
   0.50000000  0.41727885  0.37961997
   0.60527345  0.50000000  0.46660467
   0.50000000  0.39472655  0.53339533
   0.41727885  0.50000000  0.62038003
   0.58272115  0.50000000  0.62038003
Direct configuration=     6
   0.50000000  0.60683529  0.53389756
   0.39316471  0.50000000  0.46610244
   0.50000000  0.58365360  0.37830976
   0.50000000  0.41634640  0.37830976
   0.60683529  0.50000000  0.46610244
   0.50000000  0.39316471  0.53389756
   0.41634640  0.50000000  0.62169024
   0.58365360  0.50000000  0.62169024
