29
Energy = -88.38073483 eV
Al 14.22103689071984 11.724854749049964 8.124425473982939
Al 9.488401441277217 14.099036796992548 14.463447094519799
Al 14.201536624374427 9.172443699270135 12.558495748265075
Al 12.87743610204599 14.53269579852103 11.521839335244652
Al 12.185224871028872 10.362969475939073 13.818139960844825
Al 8.829408240026057 9.139594041525388 10.967898392728827
Al 8.880611363600789 11.596929509665655 13.215105857724295
Al 15.405659409915033 9.443811684098122 8.474910291257919
Al 8.050421938336042 11.814967856365497 10.698468730038757
Al 11.611465858194864 8.42568361489516 11.706279548093043
Al 10.59737398559038 11.65251074401827 15.382823099895678
Al 16.89432985846376 11.867628497583405 8.845017584591519
Al 10.208917791411732 13.663152909436782 10.825216800073113
Al 8.024180092678295 9.986538268405992 8.565925405150711
Al 7.885937661589573 12.424362286041866 15.62241556730502
Al 14.88810280227277 13.30335977187886 10.161648500547551
Al 12.914679553781584 9.420261133469054 7.496247106686387
Al 13.143129730781853 9.989451621060368 10.128747790556293
Al 11.607635589604454 12.99170309703378 13.329630308125571
Al 7.902256627461828 14.049479602080135 12.206073484298539
Al 8.535730557746504 9.910994378817565 15.556786510159634
Al 10.739535077602248 15.526674799217309 12.654329494535467
Al 9.790741515092009 9.030943862388254 13.4372266888222
Al 9.82004313331784 11.96303835094889 8.712163157005769
Al 10.824733079435934 11.070146464030051 11.417263525078813
Al 10.71855998847591 9.393268904366012 9.045662166557056
Al 15.683171827295922 10.683360547867194 10.89703034767052
Al 13.631281652024404 11.879258434111994 12.124405494491434
Al 12.249653680616179 12.630174829515843 9.553415448938397
