   43   43 1000    2
  0.3367343E+03  0.2437354E-08  0.2437354E-08  0.2437354E-08  0.1000000E-15
  1.000000000000000E-004
  CAR 
 unknown system                          
    473      1    308
 
  0.0000000E+00  0.0000000E+00  0.0000000E+00  0.1000000E+01
    1       -9.594623     -9.581552
    2       -9.216685     -9.206807
    3       -9.130754     -9.118257
    4       -9.118159     -9.112440
    5       -9.082427     -9.072746
    6       -9.052093     -9.042127
    7       -9.016797     -9.008959
    8       -8.980839     -8.972077
    9       -8.966728     -8.959113
   10       -8.963508     -8.954466
   11       -8.944105     -8.936187
   12       -8.924695     -8.913154
   13       -8.900449     -8.889866
   14       -8.888545     -8.880044
   15       -8.866620     -8.856330
   16       -8.827794     -8.818008
   17       -8.818332     -8.805955
   18       -8.800436     -8.790046
   19       -8.770899     -8.761216
   20       -8.752991     -8.742908
   21       -8.746876     -8.739044
   22       -8.725013     -8.716036
   23       -8.717067     -8.706523
   24       -8.687424     -8.677877
   25       -8.682380     -8.669280
   26       -8.668027     -8.660754
   27       -8.641455     -8.633523
   28       -8.617994     -8.609300
   29       -8.610336     -8.602291
   30       -8.606488     -8.597904
   31       -8.575570     -8.568101
   32       -8.556724     -8.547842
   33       -8.543383     -8.534779
   34       -8.521464     -8.512647
   35       -8.508456     -8.501426
   36       -8.496956     -8.490256
   37       -8.487344     -8.478786
   38       -8.479053     -8.472812
   39       -8.441479     -8.434008
   40       -8.438306     -8.432277
   41       -8.419610     -8.412110
   42       -8.402952     -8.395710
   43       -8.389859     -8.381418
   44       -8.383167     -8.375402
   45       -8.368076     -8.361025
   46       -8.341101     -8.334300
   47       -8.332134     -8.323923
   48       -8.318216     -8.310273
   49       -8.289526     -8.281426
   50       -8.285030     -8.277192
   51       -8.256220     -8.248272
   52       -8.247416     -8.239838
   53       -8.240328     -8.231613
   54       -8.210651     -8.202653
   55       -8.208276     -8.199925
   56       -8.181149     -8.173972
   57       -8.176285     -8.168183
   58       -8.156422     -8.149516
   59       -8.152996     -8.144384
   60       -8.144215     -8.134086
   61       -8.119081     -8.111673
   62       -8.113481     -8.104980
   63       -8.101541     -8.093843
   64       -8.087717     -8.078800
   65       -8.062045     -8.054638
   66       -8.034891     -8.027458
   67       -8.011502     -8.004196
   68       -8.005423     -7.999139
   69       -8.002775     -7.995457
   70       -7.985350     -7.979070
   71       -7.972855     -7.966152
   72       -7.958604     -7.950856
   73       -7.932862     -7.926525
   74       -7.931450     -7.922597
   75       -7.905376     -7.896748
   76       -7.884610     -7.877909
   77       -7.873378     -7.866474
   78       -7.863883     -7.857019
   79       -7.852542     -7.845562
   80       -7.844974     -7.837879
   81       -7.825263     -7.818336
   82       -7.792281     -7.785594
   83       -7.783248     -7.775035
   84       -7.766309     -7.759268
   85       -7.759381     -7.752044
   86       -7.741699     -7.735765
   87       -7.730133     -7.722300
   88       -7.711497     -7.704628
   89       -7.705032     -7.697468
   90       -7.688305     -7.680178
   91       -7.673631     -7.666389
   92       -7.661346     -7.654233
   93       -7.619646     -7.612810
   94       -7.613588     -7.607375
   95       -7.607984     -7.601638
   96       -7.596967     -7.590615
   97       -7.572459     -7.564606
   98       -7.563569     -7.556922
   99       -7.542015     -7.534698
  100       -7.526350     -7.518409
  101       -7.514467     -7.507229
  102       -7.503809     -7.497465
  103       -7.489482     -7.481950
  104       -7.483738     -7.477094
  105       -7.479497     -7.471312
  106       -7.475490     -7.467950
  107       -7.460195     -7.453862
  108       -7.427277     -7.419456
  109       -7.414487     -7.407972
  110       -7.401227     -7.392868
  111       -7.390086     -7.381485
  112       -7.368218     -7.361673
  113       -7.363814     -7.356790
  114       -7.331631     -7.325235
  115       -7.329991     -7.321656
  116       -7.320822     -7.313756
  117       -7.298948     -7.291363
  118       -7.292915     -7.286591
  119       -7.267107     -7.258620
  120       -7.251520     -7.245148
  121       -7.238904     -7.233379
  122       -7.231014     -7.224821
  123       -7.228270     -7.221298
  124       -7.211777     -7.206202
  125       -7.203353     -7.194520
  126       -7.193346     -7.186476
  127       -7.183355     -7.177452
  128       -7.165186     -7.158655
  129       -7.162928     -7.156462
  130       -7.154621     -7.148198
  131       -7.143701     -7.135468
  132       -7.131469     -7.124892
  133       -7.120719     -7.114538
  134       -7.102426     -7.096103
  135       -7.095441     -7.088640
  136       -7.084524     -7.076893
  137       -7.074113     -7.068370
  138       -7.058534     -7.051420
  139       -7.051684     -7.044525
  140       -7.034052     -7.027657
  141       -7.031053     -7.024887
  142       -7.024119     -7.018864
  143       -7.001091     -6.995528
  144       -6.996129     -6.990847
  145       -6.982086     -6.975001
  146       -6.973770     -6.967223
  147       -6.965890     -6.959018
  148       -6.959625     -6.954016
  149       -6.952401     -6.943731
  150       -6.947852     -6.941415
  151       -6.909608     -6.903337
  152       -6.906061     -6.900018
  153       -6.899290     -6.891814
  154       -6.895583     -6.888154
  155       -6.886126     -6.878594
  156       -6.874927     -6.867584
  157       -6.867010     -6.860046
  158       -6.852543     -6.846303
  159       -6.835442     -6.828337
  160       -6.831136     -6.825148
  161       -6.826506     -6.820282
  162       -6.822094     -6.815800
  163       -6.798610     -6.791909
  164       -6.786557     -6.781491
  165       -6.783458     -6.775491
  166       -6.764186     -6.758520
  167       -6.756625     -6.750555
  168       -6.755428     -6.748735
  169       -6.743835     -6.737320
  170       -6.738071     -6.731899
  171       -6.719384     -6.712838
  172       -6.712917     -6.705651
  173       -6.703325     -6.696371
  174       -6.693981     -6.687148
  175       -6.683814     -6.678733
  176       -6.672196     -6.665042
  177       -6.665647     -6.659050
  178       -6.649434     -6.643399
  179       -6.644439     -6.638617
  180       -6.628159     -6.622233
  181       -6.615151     -6.609734
  182       -6.613477     -6.606805
  183       -6.606686     -6.601495
  184       -6.598531     -6.592206
  185       -6.590495     -6.584488
  186       -6.579315     -6.573305
  187       -6.566416     -6.559931
  188       -6.560984     -6.555294
  189       -6.547005     -6.539824
  190       -6.536746     -6.531496
  191       -6.530405     -6.524823
  192       -6.522601     -6.515323
  193       -6.515197     -6.508693
  194       -6.501859     -6.495345
  195       -6.486580     -6.481401
  196       -6.483474     -6.478162
  197       -6.468184     -6.462599
  198       -6.457818     -6.453304
  199       -6.446602     -6.441145
  200       -6.437843     -6.430629
  201       -6.433273     -6.425186
  202       -6.411139     -6.406735
  203       -6.399913     -6.394943
  204       -6.393022     -6.387051
  205       -6.389380     -6.383276
  206       -6.369176     -6.363783
  207       -6.355828     -6.348354
  208       -6.344517     -6.338073
  209       -6.332030     -6.326460
  210       -6.329907     -6.323645
  211       -6.318758     -6.311623
  212       -6.301139     -6.295025
  213       -6.275273     -6.269670
  214       -6.258932     -6.253387
  215       -6.251419     -6.244981
  216       -6.227768     -6.222055
  217       -6.206131     -6.201782
  218       -6.161839     -6.155742
  219       -6.155693     -6.149266
  220       -6.107845     -6.102322
  221       -6.070180     -6.054843
  222       -5.921220     -5.908804
  223       -5.829514     -5.816639
  224       -5.807827     -5.791973
  225       -5.427298     -5.405128
  226       -5.331541     -5.313312
  227       -4.886110     -4.869045
  228       -4.801372     -4.778299
  229       -4.692118     -4.663113
  230       -4.461656     -4.446267
  231       -4.409982     -4.389490
  232       -4.204885     -4.187207
  233       -4.142259     -4.123852
  234       -3.944038     -3.926912
  235       -3.710647     -3.691265
  236       -3.613904     -3.594841
  237       -3.504541     -3.434083
  238       -3.241692     -3.217725
  239       -3.095029     -3.071386
  240       -3.027944     -3.010064
  241       -2.849938     -2.827434
  242       -2.600467     -2.570436
  243       -2.532981     -2.509676
  244       -2.478728     -2.458845
  245       -2.394084     -2.373774
  246       -2.349155     -2.327271
  247       -2.271826     -2.252343
  248       -2.179380     -2.159445
  249       -2.054603     -2.027265
  250       -1.956550     -1.940586
  251       -1.786358     -1.753429
  252       -1.697692     -1.674447
  253       -1.528804     -1.500479
  254       -1.461952     -1.439063
  255       -1.348431     -1.324392
  256       -1.344481     -1.316419
  257       -1.300556     -1.275720
  258       -1.190766     -1.169578
  259       -1.005580     -0.983121
  260       -0.982830     -0.955004
  261       -0.884996     -0.866579
  262       -0.815628     -0.787126
  263       -0.749927     -0.727352
  264       -0.703870     -0.681975
  265       -0.609908     -0.588974
  266       -0.546595     -0.525868
  267       -0.459118     -0.439374
  268       -0.446973     -0.421248
  269       -0.361671     -0.337948
  270       -0.284264     -0.261570
  271       -0.224721     -0.191829
  272       -0.166689     -0.137171
  273       -0.061883     -0.037188
  274       -0.009088      0.009070
  275        0.203662      0.223531
  276        0.307846      0.336178
  277        0.372912      0.396227
  278        0.484653      0.495473
  279        0.519063      0.543668
  280        0.548298      0.558841
  281        0.594845      0.619022
  282        0.646388      0.653116
  283        0.663201      0.668548
  284        0.696282      0.710853
  285        0.739827      0.756716
  286        0.751990      0.759921
  287        0.778522      0.791825
  288        0.803016      0.795349
  289        0.826455      0.855759
  290        0.844229      0.878276
  291        0.896251      0.903791
  292        0.916174      0.914257
  293        0.931568      0.932025
  294        0.937130      0.944684
  295        0.951919      0.956180
  296        0.977031      0.975863
  297        0.983175      0.999631
  298        1.004124      1.011008
  299        1.020859      1.035733
  300        1.033486      1.050207
  301        1.053475      1.071919
  302        1.123908      1.130388
  303        1.129066      1.144724
  304        1.157235      1.158760
  305        1.180930      1.174312
  306        1.193240      1.183657
  307        1.210942      1.218426
  308        1.217677      1.224511
