unknown system                          
           1
    20.268005    0.000000    0.000000
     0.000000   20.268005    0.000000
     0.000000    0.000000   20.268005
   Ag
  19
Direct configuration=     1
   0.60590472  0.66782392  0.62771641
   0.64544217  0.56304603  0.56142961
   0.69881230  0.51716994  0.45017907
   0.60485772  0.62768198  0.43575963
   0.50122972  0.60864308  0.67157807
   0.51781097  0.63065148  0.53220076
   0.61788308  0.43596541  0.51817855
   0.54101593  0.49972747  0.61405275
   0.39166243  0.55252316  0.71278974
   0.51209707  0.37006765  0.57848638
   0.42647841  0.44561872  0.64630748
   0.40144260  0.57338663  0.57893830
   0.56909174  0.50205226  0.41753820
   0.55725341  0.32858066  0.46261673
   0.43947119  0.45820995  0.51231984
   0.43137532  0.57233203  0.45159317
   0.51189355  0.59214152  0.34614957
   0.48032005  0.41192286  0.39870753
   0.41207827  0.50421748  0.33809760
Direct configuration=     2
   0.60618080  0.66808431  0.62762545
   0.64551080  0.56308905  0.56130769
   0.69898068  0.51728218  0.45010764
   0.60520645  0.62784350  0.43572855
   0.50105792  0.60879333  0.67171129
   0.51775240  0.63066841  0.53241751
   0.61793703  0.43568230  0.51848051
   0.54114476  0.49958773  0.61398473
   0.39145264  0.55258276  0.71295450
   0.51223297  0.36988432  0.57861116
   0.42621970  0.44548584  0.64638328
   0.40141075  0.57333331  0.57910377
   0.56913599  0.50205293  0.41751905
   0.55741313  0.32843293  0.46258405
   0.43933381  0.45815763  0.51245973
   0.43131083  0.57251599  0.45128597
   0.51178982  0.59245742  0.34590546
   0.48013464  0.41156866  0.39846341
   0.41191554  0.50425961  0.33800565
Direct configuration=     3
   0.60700904  0.66886547  0.62735256
   0.64571668  0.56321811  0.56094194
   0.69948583  0.51761890  0.44989336
   0.60625261  0.62832809  0.43563531
   0.50054253  0.60924411  0.67211093
   0.51757668  0.63071920  0.53306774
   0.61809888  0.43483296  0.51938639
   0.54153124  0.49916853  0.61378068
   0.39082327  0.55276155  0.71344878
   0.51264065  0.36933434  0.57898548
   0.42544357  0.44508720  0.64661066
   0.40131520  0.57317336  0.57960017
   0.56926873  0.50205496  0.41746161
   0.55789232  0.32798975  0.46248603
   0.43892167  0.45800068  0.51287941
   0.43111734  0.57306787  0.45036437
   0.51147866  0.59340511  0.34517314
   0.47957841  0.41050607  0.39773104
   0.41142735  0.50438598  0.33772981
Direct configuration=     4
   0.60866551  0.67042779  0.62680678
   0.64612844  0.56347622  0.56021043
   0.70049613  0.51829233  0.44946480
   0.60834494  0.62929725  0.43544882
   0.49951175  0.61014565  0.67291022
   0.51722525  0.63082077  0.53436822
   0.61842258  0.43313428  0.52119816
   0.54230421  0.49833011  0.61337258
   0.38956452  0.55311914  0.71443733
   0.51345601  0.36823437  0.57973413
   0.42389131  0.44428992  0.64706542
   0.40112410  0.57285345  0.58059296
   0.56953422  0.50205901  0.41734671
   0.55885068  0.32710339  0.46228999
   0.43809739  0.45768678  0.51371876
   0.43073038  0.57417164  0.44852116
   0.51085633  0.59530050  0.34370851
   0.47846595  0.40838087  0.39626631
   0.41045096  0.50463873  0.33717811
Direct configuration=     5
   0.61197845  0.67355242  0.62571522
   0.64695195  0.56399244  0.55874741
   0.70251672  0.51963919  0.44860767
   0.61252961  0.63123559  0.43507585
   0.49745018  0.61194874  0.67450880
   0.51652238  0.63102392  0.53696916
   0.61906998  0.42973693  0.52482170
   0.54385015  0.49665329  0.61255638
   0.38704703  0.55383431  0.71641443
   0.51508672  0.36603444  0.58123144
   0.42078679  0.44269536  0.64797494
   0.40074190  0.57221364  0.58257855
   0.57006519  0.50206712  0.41711693
   0.56076741  0.32533067  0.46189792
   0.43644883  0.45705899  0.51539747
   0.42995645  0.57637918  0.44483475
   0.50961166  0.59909128  0.34077925
   0.47624104  0.40413049  0.39333684
   0.40849820  0.50514423  0.33607472
Direct configuration=     6
   0.61069823  0.67234497  0.62613703
   0.64663372  0.56379295  0.55931276
   0.70173590  0.51911872  0.44893889
   0.61091253  0.63048656  0.43521998
   0.49824683  0.61125198  0.67389106
   0.51679399  0.63094542  0.53596408
   0.61881981  0.43104977  0.52342146
   0.54325276  0.49730126  0.61287178
   0.38801987  0.55355794  0.71565042
   0.51445657  0.36688456  0.58065283
   0.42198647  0.44331154  0.64762348
   0.40088960  0.57246088  0.58181126
   0.56986001  0.50206398  0.41720572
   0.56002673  0.32601571  0.46204943
   0.43708588  0.45730159  0.51474877
   0.43025552  0.57552612  0.44625929
   0.51009264  0.59762641  0.34191120
   0.47710081  0.40577296  0.39446887
   0.40925280  0.50494889  0.33650110
Direct configuration=     7
   0.61097221  0.67267175  0.62577871
   0.64650161  0.56397819  0.55898924
   0.70175991  0.51920363  0.44889485
   0.61119687  0.63051118  0.43529203
   0.49855538  0.61158258  0.67372403
   0.51690493  0.63066158  0.53602362
   0.61965704  0.43086773  0.52350474
   0.54272659  0.49743472  0.61324297
   0.38743513  0.55358179  0.71608869
   0.51436890  0.36635034  0.58108725
   0.42170895  0.44304927  0.64776271
   0.40103165  0.57214709  0.58163909
   0.56930841  0.50209430  0.41726021
   0.56035453  0.32585771  0.46194863
   0.43708281  0.45737357  0.51421226
   0.43026937  0.57574473  0.44682302
   0.51033582  0.59830243  0.34172802
   0.47675455  0.40540560  0.39439440
   0.40919600  0.50494403  0.33624495
Direct configuration=     8
   0.61170000  0.67353977  0.62482689
   0.64615070  0.56447024  0.55812984
   0.70182369  0.51942918  0.44877785
   0.61195219  0.63057659  0.43548342
   0.49937499  0.61246079  0.67328033
   0.51719962  0.62990759  0.53618179
   0.62188102  0.43038418  0.52372595
   0.54132888  0.49778922  0.61422899
   0.38588185  0.55364514  0.71725288
   0.51413601  0.36493127  0.58224121
   0.42097176  0.44235259  0.64813258
   0.40140900  0.57131355  0.58118175
   0.56784317  0.50217482  0.41740493
   0.56122528  0.32543802  0.46168089
   0.43707465  0.45756480  0.51278710
   0.43030618  0.57632542  0.44832050
   0.51098178  0.60009818  0.34124141
   0.47583477  0.40442975  0.39419659
   0.40904510  0.50493112  0.33556451
Direct configuration=     9
   0.61188872  0.67387527  0.62418367
   0.64554096  0.56450774  0.55799323
   0.70155787  0.51937978  0.44861797
   0.61195700  0.63040628  0.43558604
   0.49936852  0.61266871  0.67315391
   0.51775827  0.62948235  0.53607624
   0.62251235  0.43044352  0.52389942
   0.54066490  0.49764498  0.61424894
   0.38584511  0.55375327  0.71711115
   0.51413137  0.36494277  0.58238971
   0.42076074  0.44222157  0.64800932
   0.40161547  0.57077446  0.58153265
   0.56674095  0.50225228  0.41777294
   0.56147462  0.32574564  0.46184181
   0.43750957  0.45725417  0.51234816
   0.43049661  0.57642352  0.44817900
   0.51109661  0.60060755  0.34168013
   0.47557833  0.40406022  0.39422712
   0.40962270  0.50531814  0.33578800
Direct configuration=    10
   0.61245488  0.67488177  0.62225401
   0.64371175  0.56462025  0.55758338
   0.70076040  0.51923158  0.44813831
   0.61197141  0.62989537  0.43589388
   0.49934910  0.61329246  0.67277467
   0.51943421  0.62820663  0.53575959
   0.62440631  0.43062152  0.52441981
   0.53867294  0.49721228  0.61430882
   0.38573488  0.55407763  0.71668594
   0.51411742  0.36497727  0.58283522
   0.42012767  0.44182850  0.64763954
   0.40223487  0.56915718  0.58258537
   0.56343430  0.50248468  0.41887696
   0.56222264  0.32666851  0.46232457
   0.43881433  0.45632228  0.51103136
   0.43106792  0.57671783  0.44775448
   0.51144110  0.60213565  0.34299628
   0.47480902  0.40295163  0.39431872
   0.41135550  0.50647921  0.33645848
Direct configuration=    11
   0.61358721  0.67689476  0.61839471
   0.64005334  0.56484528  0.55676369
   0.69916547  0.51893519  0.44717901
   0.61200022  0.62887354  0.43650958
   0.49931026  0.61453996  0.67201619
   0.52278610  0.62565519  0.53512629
   0.62819424  0.43097752  0.52546061
   0.53468903  0.49634689  0.61442857
   0.38551442  0.55472636  0.71583552
   0.51408953  0.36504626  0.58372623
   0.41886154  0.44104237  0.64689999
   0.40347368  0.56592262  0.58469079
   0.55682099  0.50294946  0.42108501
   0.56371868  0.32851426  0.46329010
   0.44142385  0.45445850  0.50839775
   0.43221054  0.57730644  0.44690546
   0.51213007  0.60519185  0.34562858
   0.47327039  0.40073445  0.39450192
   0.41482110  0.50880133  0.33779943
Direct configuration=    12
   0.61280254  0.67549982  0.62106909
   0.64258851  0.56468934  0.55733171
   0.70027071  0.51914058  0.44784378
   0.61198025  0.62958164  0.43608292
   0.49933717  0.61367548  0.67254179
   0.52046335  0.62742326  0.53556515
   0.62556932  0.43073082  0.52473937
   0.53744976  0.49694658  0.61434559
   0.38566719  0.55427681  0.71642483
   0.51410886  0.36499845  0.58310879
   0.41973893  0.44158713  0.64741248
   0.40261522  0.56816407  0.58323180
   0.56140381  0.50262738  0.41955490
   0.56268197  0.32723521  0.46262102
   0.43961553  0.45575004  0.51022276
   0.43141874  0.57689855  0.44749381
   0.51165263  0.60307400  0.34380448
   0.47433661  0.40227088  0.39437497
   0.41241955  0.50719217  0.33687020
Direct configuration=    13
   0.61296421  0.67599654  0.62057866
   0.64212784  0.56437342  0.55727495
   0.69982482  0.51907047  0.44770015
   0.61212765  0.62948363  0.43600216
   0.49943223  0.61393913  0.67242232
   0.52053135  0.62694637  0.53546358
   0.62583277  0.43083701  0.52501497
   0.53708646  0.49686114  0.61415597
   0.38579106  0.55435842  0.71628978
   0.51428339  0.36505005  0.58314457
   0.41932044  0.44134317  0.64726048
   0.40297702  0.56761160  0.58313138
   0.56040112  0.50264281  0.42026787
   0.56290174  0.32765339  0.46285806
   0.44002997  0.45560583  0.51009414
   0.43151204  0.57703595  0.44789817
   0.51179593  0.60374890  0.34404679
   0.47410987  0.40169091  0.39408158
   0.41307075  0.50751350  0.33695384
Direct configuration=    14
   0.61344920  0.67748670  0.61910739
   0.64074584  0.56342565  0.55710465
   0.69848717  0.51886011  0.44726925
   0.61256983  0.62918960  0.43575989
   0.49971742  0.61473007  0.67206390
   0.52073538  0.62551573  0.53515886
   0.62662312  0.43115558  0.52584175
   0.53599655  0.49660483  0.61358711
   0.38616265  0.55460322  0.71588464
   0.51480698  0.36520485  0.58325193
   0.41806498  0.44061127  0.64680450
   0.40406242  0.56595421  0.58283011
   0.55739304  0.50268910  0.42240680
   0.56356104  0.32890792  0.46356916
   0.44127330  0.45517319  0.50970829
   0.43179192  0.57744815  0.44911126
   0.51222582  0.60577360  0.34477371
   0.47342964  0.39995097  0.39320142
   0.41502437  0.50847748  0.33720478
Direct configuration=    15
   0.61441919  0.68046702  0.61616485
   0.63798185  0.56153011  0.55676406
   0.69581186  0.51843941  0.44640746
   0.61345418  0.62860154  0.43527534
   0.50028780  0.61631196  0.67134706
   0.52114342  0.62265443  0.53454943
   0.62820382  0.43179271  0.52749533
   0.53381674  0.49609220  0.61244941
   0.38690582  0.55509284  0.71507434
   0.51585416  0.36551444  0.58346666
   0.41555405  0.43914748  0.64589253
   0.40623321  0.56263941  0.58222759
   0.55137689  0.50278169  0.42668464
   0.56487964  0.33141699  0.46499138
   0.44375995  0.45430791  0.50893659
   0.43235169  0.57827256  0.45153743
   0.51308561  0.60982300  0.34622756
   0.47206918  0.39647111  0.39144110
   0.41893161  0.51040544  0.33770666
Direct configuration=    16
   0.61395496  0.67904066  0.61757313
   0.63930467  0.56243730  0.55692706
   0.69709224  0.51864075  0.44681991
   0.61303094  0.62888298  0.43550724
   0.50001482  0.61555488  0.67169013
   0.52094813  0.62402382  0.53484110
   0.62744731  0.43148779  0.52670394
   0.53485998  0.49633754  0.61299391
   0.38655014  0.55485851  0.71546214
   0.51535298  0.36536627  0.58336389
   0.41675576  0.43984804  0.64632899
   0.40519429  0.56422585  0.58251595
   0.55425617  0.50273738  0.42463730
   0.56424857  0.33021617  0.46431072
   0.44256986  0.45472202  0.50930592
   0.43208379  0.57787800  0.45037628
   0.51267412  0.60788499  0.34553176
   0.47272028  0.39813654  0.39228358
   0.41706163  0.50948273  0.33746647
Direct configuration=    17
   0.61391604  0.67937384  0.61660997
   0.63948623  0.56232979  0.55757817
   0.69644044  0.51831778  0.44641642
   0.61354965  0.62900099  0.43525977
   0.50056559  0.61597373  0.67143105
   0.52081797  0.62417812  0.53518942
   0.62715449  0.43124926  0.52731608
   0.53470901  0.49650525  0.61295497
   0.38720162  0.55489997  0.71524562
   0.51575221  0.36514157  0.58373350
   0.41581471  0.43912253  0.64609295
   0.40544452  0.56377676  0.58228582
   0.55303804  0.50286647  0.42608668
   0.56447043  0.33069774  0.46427526
   0.44298703  0.45425815  0.50916288
   0.43135265  0.57802530  0.45035350
   0.51267541  0.60906025  0.34581335
   0.47249150  0.39730763  0.39130060
   0.41825311  0.50967709  0.33753338
Direct configuration=    18
   0.61384411  0.67998964  0.61482983
   0.63982178  0.56213110  0.55878158
   0.69523577  0.51772085  0.44567069
   0.61450836  0.62921910  0.43480239
   0.50158356  0.61674787  0.67095220
   0.52057739  0.62446331  0.53583321
   0.62661329  0.43080840  0.52844745
   0.53442998  0.49681521  0.61288302
   0.38840571  0.55497659  0.71484546
   0.51649008  0.36472627  0.58441664
   0.41407542  0.43778161  0.64565670
   0.40590700  0.56294674  0.58186049
   0.55078663  0.50310505  0.42876548
   0.56488049  0.33158781  0.46420971
   0.44375807  0.45340080  0.50889851
   0.43000133  0.57829755  0.45031138
   0.51267779  0.61123242  0.34633380
   0.47206866  0.39577560  0.38948383
   0.42045525  0.51003630  0.33765705
Direct configuration=    19
   0.61370024  0.68122123  0.61126955
   0.64049290  0.56173372  0.56118839
   0.69282641  0.51652700  0.44417922
   0.61642577  0.62965533  0.43388763
   0.50361948  0.61829615  0.66999450
   0.52009624  0.62503368  0.53712079
   0.62553090  0.42992670  0.53071020
   0.53387192  0.49743513  0.61273910
   0.39081388  0.55512983  0.71404512
   0.51796581  0.36389566  0.58578291
   0.41059684  0.43509979  0.64478418
   0.40683196  0.56128669  0.58100981
   0.54628382  0.50358221  0.43412308
   0.56570060  0.33336793  0.46407863
   0.44530016  0.45168610  0.50836978
   0.42729870  0.57884204  0.45022716
   0.51268255  0.61557676  0.34737470
   0.47122297  0.39271155  0.38585028
   0.42485952  0.51075473  0.33790439
Direct configuration=    20
   0.61380232  0.68034737  0.61379569
   0.64001672  0.56201567  0.55948068
   0.69453593  0.51737408  0.44523747
   0.61506531  0.62934581  0.43453668
   0.50217492  0.61719760  0.67067402
   0.52043763  0.62462898  0.53620721
   0.62629890  0.43055230  0.52910471
   0.53426788  0.49699528  0.61284121
   0.38910520  0.55502110  0.71461298
   0.51691873  0.36448500  0.58481349
   0.41306501  0.43700263  0.64540326
   0.40617567  0.56246455  0.58161339
   0.54947871  0.50324365  0.43032169
   0.56511870  0.33210487  0.46417164
   0.44420600  0.45290273  0.50874493
   0.42921631  0.57845571  0.45028692
   0.51267917  0.61249431  0.34663615
   0.47182301  0.39488559  0.38842840
   0.42173455  0.51024498  0.33772890
Direct configuration=    21
   0.61400130  0.68119565  0.61268584
   0.64109263  0.56190704  0.55994001
   0.69320405  0.51653223  0.44522050
   0.61538543  0.62935919  0.43496781
   0.50286019  0.61767534  0.67072128
   0.52005209  0.62505342  0.53514420
   0.62594377  0.43061038  0.52998370
   0.53352145  0.49692022  0.61330526
   0.39061226  0.55485403  0.71417498
   0.51714792  0.36404168  0.58580664
   0.41237624  0.43618568  0.64465468
   0.40615905  0.56213384  0.58172083
   0.54849618  0.50399834  0.43189219
   0.56484475  0.33252874  0.46349760
   0.44442603  0.45170901  0.50833466
   0.42779234  0.57894050  0.45011473
   0.51244760  0.61368456  0.34755978
   0.47194209  0.39435449  0.38751197
   0.42381532  0.51007786  0.33740273
Direct configuration=    22
   0.61431140  0.68251769  0.61095613
   0.64276945  0.56173773  0.56065589
   0.69112830  0.51522021  0.44519405
   0.61588434  0.62938004  0.43563972
   0.50392818  0.61841990  0.67079493
   0.51945122  0.62571492  0.53348748
   0.62539031  0.43070091  0.53135362
   0.53235813  0.49680325  0.61402849
   0.39296102  0.55459365  0.71349236
   0.51750511  0.36335077  0.58735446
   0.41130279  0.43491245  0.64348802
   0.40613314  0.56161844  0.58188828
   0.54696489  0.50517455  0.43433984
   0.56441779  0.33318934  0.46244711
   0.44476894  0.44984858  0.50769524
   0.42557306  0.57969606  0.44984637
   0.51208669  0.61553958  0.34899928
   0.47212768  0.39352676  0.38608370
   0.42705822  0.50981738  0.33689441
Direct configuration=    23
   0.61493162  0.68516178  0.60749672
   0.64612308  0.56139912  0.56208766
   0.68697680  0.51259617  0.44514116
   0.61688216  0.62942173  0.43698354
   0.50606415  0.61990903  0.67094223
   0.51824948  0.62703791  0.53017405
   0.62428339  0.43088197  0.53409347
   0.53003149  0.49656931  0.61547495
   0.39765854  0.55407288  0.71212712
   0.51821950  0.36196893  0.59045011
   0.40915589  0.43236600  0.64115470
   0.40608134  0.56058763  0.58222319
   0.54390232  0.50752695  0.43923514
   0.56356386  0.33451054  0.46034613
   0.44545478  0.44612773  0.50641641
   0.42113452  0.58120718  0.44930964
   0.51136487  0.61924962  0.35187827
   0.47249886  0.39187129  0.38322717
   0.43354402  0.50929644  0.33587776
Direct configuration=    24
   0.61452959  0.68344785  0.60973915
   0.64394922  0.56161861  0.56115957
   0.68966784  0.51429710  0.44517544
   0.61623536  0.62939470  0.43611246
   0.50467959  0.61894376  0.67084675
   0.51902846  0.62618033  0.53232185
   0.62500091  0.43076461  0.53231747
   0.53153965  0.49672095  0.61453734
   0.39461355  0.55441045  0.71301208
   0.51775642  0.36286465  0.58844348
   0.41054753  0.43401664  0.64266719
   0.40611492  0.56125581  0.58200610
   0.54588751  0.50600210  0.43606195
   0.56411739  0.33365413  0.46170801
   0.44501021  0.44853963  0.50724537
   0.42401164  0.58022766  0.44965755
   0.51183276  0.61684473  0.35001208
   0.47225826  0.39294438  0.38507880
   0.42933985  0.50963412  0.33653676
Direct configuration=    25
   0.61450098  0.68414204  0.60790018
   0.64395470  0.56230756  0.56211414
   0.68783704  0.51260775  0.44511765
   0.61663966  0.62953034  0.43745996
   0.50625501  0.61989124  0.66986205
   0.51892519  0.62602513  0.53084833
   0.62402743  0.43049146  0.53383878
   0.53063709  0.49705362  0.61490320
   0.39715069  0.55325487  0.71326739
   0.51819200  0.36206346  0.58903747
   0.41010594  0.43340500  0.64122167
   0.40640504  0.56086900  0.58094336
   0.54530206  0.50778068  0.43697458
   0.56342449  0.33458893  0.46195272
   0.44450224  0.44717739  0.50703619
   0.42181961  0.58008539  0.44958711
   0.51149449  0.61795309  0.35222398
   0.47295284  0.39292736  0.38452842
   0.43199414  0.50960790  0.33582222
Direct configuration=    26
   0.61445022  0.68537362  0.60463761
   0.64396443  0.56352983  0.56380766
   0.68458896  0.50961064  0.44501511
   0.61735695  0.62977096  0.43985058
   0.50905001  0.62157220  0.66811509
   0.51874198  0.62574978  0.52823412
   0.62230037  0.43000685  0.53653776
   0.52903584  0.49764382  0.61555229
   0.40165191  0.55120472  0.71372034
   0.51896477  0.36064204  0.59009129
   0.40932251  0.43231989  0.63865715
   0.40691975  0.56018275  0.57905794
   0.54426340  0.51093611  0.43859370
   0.56219519  0.33624738  0.46238687
   0.44360104  0.44476062  0.50666508
   0.41793067  0.57983300  0.44946214
   0.51089436  0.61991947  0.35614818
   0.47418513  0.39289716  0.38355198
   0.43670318  0.50956139  0.33455453
Direct configuration=    27
   0.61439439  0.68639366  0.60274406
   0.64318416  0.56320613  0.56424345
   0.68314142  0.50819482  0.44540694
   0.61876454  0.63032545  0.44088344
   0.51029202  0.62224636  0.66672399
   0.51791186  0.62527282  0.52748756
   0.62171701  0.43040663  0.53788036
   0.52831723  0.49779400  0.61566093
   0.40448882  0.54987980  0.71342702
   0.51904627  0.36005088  0.59051288
   0.40897159  0.43198545  0.63776724
   0.40718981  0.55991563  0.57907839
   0.54348699  0.51187831  0.43895325
   0.56185293  0.33675591  0.46331419
   0.44324114  0.44388511  0.50618487
   0.41604822  0.57894788  0.44870368
   0.51065995  0.62123580  0.35835825
   0.47475455  0.39335841  0.38331044
   0.43865775  0.51002918  0.33399847
Direct configuration=    28
   0.61422692  0.68945379  0.59706342
   0.64084337  0.56223503  0.56555082
   0.67879880  0.50394736  0.44658246
   0.62298730  0.63198893  0.44398199
   0.51401805  0.62426881  0.66255069
   0.51542153  0.62384192  0.52524789
   0.61996694  0.43160596  0.54190814
   0.52616140  0.49824455  0.61598685
   0.41299955  0.54590505  0.71254705
   0.51929076  0.35827740  0.59177764
   0.40791885  0.43098213  0.63509752
   0.40800001  0.55911429  0.57913976
   0.54115778  0.51470489  0.44003189
   0.56082612  0.33828150  0.46609615
   0.44216145  0.44125859  0.50474425
   0.41040087  0.57629251  0.44642830
   0.50995671  0.62518480  0.36498845
   0.47646281  0.39474217  0.38258583
   0.44452144  0.51143256  0.33233030
Direct configuration=    29
   0.61389198  0.69557405  0.58570215
   0.63616179  0.56029283  0.56816554
   0.67011356  0.49545244  0.44893350
   0.63143283  0.63531588  0.45017910
   0.52147012  0.62831371  0.65420410
   0.51044085  0.62098012  0.52076854
   0.61646679  0.43400463  0.54996372
   0.52184974  0.49914564  0.61663869
   0.43002102  0.53795555  0.71078711
   0.51977973  0.35473043  0.59430717
   0.40581336  0.42897548  0.62975808
   0.40962039  0.55751160  0.57926250
   0.53649935  0.52035806  0.44218917
   0.55877251  0.34133266  0.47166008
   0.44000207  0.43600555  0.50186301
   0.39910617  0.57098177  0.44187754
   0.50855025  0.63308281  0.37824886
   0.47987934  0.39750968  0.38113660
   0.45624882  0.51423932  0.32899395
Direct configuration=    30
   0.61417299  0.69043924  0.59523409
   0.64008957  0.56192231  0.56597183
   0.67740035  0.50257955  0.44696101
   0.62434716  0.63252462  0.44497982
   0.51521794  0.62492010  0.66120677
   0.51461956  0.62338113  0.52452665
   0.61940336  0.43199219  0.54320521
   0.52546716  0.49838964  0.61609180
   0.41574026  0.54462506  0.71226367
   0.51936949  0.35770628  0.59218493
   0.40757983  0.43065903  0.63423779
   0.40826091  0.55885623  0.57915952
   0.54040770  0.51561513  0.44037924
   0.56049546  0.33877278  0.46699203
   0.44181376  0.44041277  0.50428033
   0.40858225  0.57543740  0.44569556
   0.50973025  0.62645650  0.36712357
   0.47701292  0.39518778  0.38235248
   0.44640972  0.51188449  0.33179310
Direct configuration=    31
   0.61442585  0.69172038  0.59145958
   0.63803803  0.56215382  0.56659740
   0.67605139  0.50121180  0.44734319
   0.62638795  0.63330427  0.44698739
   0.51634233  0.62558380  0.65946821
   0.51328329  0.62347885  0.52258155
   0.61899069  0.43188789  0.54501531
   0.52458709  0.49757789  0.61670727
   0.42059160  0.54294434  0.71167337
   0.51843748  0.35738985  0.59365060
   0.40670590  0.42949451  0.63396498
   0.40761561  0.55886270  0.57878201
   0.53946345  0.51524866  0.44048894
   0.56061604  0.33909377  0.46793685
   0.44163835  0.43983352  0.50350239
   0.40659708  0.57323877  0.44536439
   0.50976877  0.62919632  0.37076983
   0.47800173  0.39595615  0.38191952
   0.44857802  0.51358494  0.33042662
Direct configuration=    32
   0.61518441  0.69556379  0.58013606
   0.63188340  0.56284835  0.56847413
   0.67200452  0.49710855  0.44848973
   0.63251031  0.63564322  0.45301010
   0.51971550  0.62757490  0.65425255
   0.50927449  0.62377202  0.51674627
   0.61775267  0.43157502  0.55044559
   0.52194686  0.49514265  0.61855366
   0.43514562  0.53790216  0.70990246
   0.51564147  0.35644054  0.59804761
   0.40408411  0.42600097  0.63314653
   0.40567971  0.55888210  0.57764948
   0.53663069  0.51414922  0.44081801
   0.56097779  0.34005675  0.47077134
   0.44111213  0.43809578  0.50116859
   0.40064156  0.56664288  0.44437087
   0.50988431  0.63741578  0.38170860
   0.48096817  0.39826127  0.38062064
   0.45508294  0.51868626  0.32632718
Direct configuration=    33
   0.61484555  0.69384690  0.58519439
   0.63463273  0.56253810  0.56763578
   0.67381230  0.49894151  0.44797756
   0.62977539  0.63459839  0.45031970
   0.51820868  0.62668545  0.65658244
   0.51106526  0.62364106  0.51935294
   0.61830570  0.43171478  0.54801983
   0.52312628  0.49623050  0.61772886
   0.42864420  0.54015455  0.71069354
   0.51689048  0.35686461  0.59608342
   0.40525529  0.42756157  0.63351214
   0.40654449  0.55887343  0.57815539
   0.53789611  0.51464035  0.44067101
   0.56081619  0.33962658  0.46950515
   0.44134720  0.43887204  0.50221112
   0.40330195  0.56958933  0.44481469
   0.50983269  0.63374407  0.37682215
   0.47964303  0.39723155  0.38120087
   0.45217713  0.51640745  0.32815844
Direct configuration=    34
   0.61486282  0.69401201  0.58290340
   0.63335699  0.56294263  0.56799176
   0.67410864  0.49991329  0.44809421
   0.62931234  0.63398457  0.45101734
   0.51884501  0.62645324  0.65521364
   0.51084688  0.62515189  0.51879642
   0.61877056  0.43044469  0.54843331
   0.52305208  0.49537111  0.61826620
   0.42971364  0.53974034  0.71096384
   0.51597278  0.35705800  0.59667963
   0.40397805  0.42732411  0.63401297
   0.40557824  0.55858134  0.57826049
   0.53882839  0.51320023  0.43973331
   0.56105833  0.33971051  0.46960946
   0.44125307  0.43936427  0.50357403
   0.40422332  0.56806782  0.44466326
   0.50986067  0.63428494  0.37847200
   0.48034140  0.39795603  0.38018251
   0.45215745  0.51820117  0.32777164
Direct configuration=    35
   0.61488703  0.69424348  0.57969140
   0.63156838  0.56350979  0.56849086
   0.67452412  0.50127574  0.44825774
   0.62866313  0.63312399  0.45199545
   0.51973715  0.62612767  0.65329456
   0.51054070  0.62727010  0.51801616
   0.61942230  0.42866400  0.54901301
   0.52294805  0.49416625  0.61901956
   0.43121300  0.53915962  0.71134279
   0.51468616  0.35732915  0.59751551
   0.40218734  0.42699120  0.63471514
   0.40422353  0.55817182  0.57840783
   0.54013546  0.51118117  0.43841865
   0.56139782  0.33982819  0.46975572
   0.44112110  0.44005439  0.50548484
   0.40551509  0.56593464  0.44445097
   0.50989990  0.63504326  0.38078511
   0.48132053  0.39897175  0.37875475
   0.45212987  0.52071600  0.32722935
Direct configuration=    36
   0.61513020  0.69562613  0.57757831
   0.63004952  0.56183422  0.56929416
   0.67544581  0.50225379  0.44936032
   0.62833516  0.63248508  0.45138818
   0.52047886  0.62518889  0.65204079
   0.50863651  0.62787648  0.51771721
   0.62065231  0.42868313  0.54916984
   0.52288406  0.49303465  0.61950395
   0.43175950  0.53928580  0.71168267
   0.51384419  0.35745098  0.59751871
   0.40058270  0.42726222  0.63587281
   0.40385000  0.55807107  0.57877532
   0.54110416  0.50996064  0.43780595
   0.56086502  0.34007909  0.46938794
   0.44175352  0.44043473  0.50593226
   0.40697013  0.56403091  0.44530040
   0.50975652  0.63526648  0.38136803
   0.48208538  0.40045898  0.37855409
   0.45193711  0.52247894  0.32638848
Direct configuration=    37
   0.61532826  0.69675232  0.57585716
   0.62881238  0.56046945  0.56994846
   0.67619655  0.50305043  0.45025839
   0.62806803  0.63196468  0.45089355
   0.52108299  0.62442423  0.65101957
   0.50708551  0.62837039  0.51747372
   0.62165418  0.42869871  0.54929758
   0.52283194  0.49211295  0.61989849
   0.43220464  0.53938858  0.71195950
   0.51315839  0.35755022  0.59752132
   0.39927568  0.42748298  0.63681575
   0.40354576  0.55798901  0.57907465
   0.54189318  0.50896649  0.43730689
   0.56043104  0.34028345  0.46908838
   0.44226863  0.44074452  0.50629670
   0.40815530  0.56248028  0.44599227
   0.50963974  0.63544830  0.38184283
   0.48270836  0.40167036  0.37839065
   0.45178010  0.52391489  0.32570357
Direct configuration=    38
   0.61502971  0.69687368  0.57375354
   0.62714073  0.56099684  0.57057910
   0.67807458  0.50360215  0.45182092
   0.62721059  0.63113100  0.45064522
   0.52239206  0.62330849  0.65017630
   0.50565238  0.62858266  0.51730401
   0.62229988  0.42768841  0.54918055
   0.52184197  0.49023070  0.62081393
   0.43244040  0.54011018  0.71227032
   0.51271728  0.35776485  0.59663957
   0.39829250  0.42824063  0.63750502
   0.40365229  0.55783819  0.58039695
   0.54332297  0.50930593  0.43718431
   0.55957490  0.34125671  0.46902639
   0.44327642  0.44019168  0.50684451
   0.40950168  0.56055815  0.44668457
   0.50924438  0.63541491  0.38114026
   0.48290390  0.40363727  0.37819488
   0.45155203  0.52502978  0.32447907
Direct configuration=    39
   0.61459441  0.69705063  0.57068631
   0.62470335  0.56176582  0.57149862
   0.68081288  0.50440661  0.45409920
   0.62596037  0.62991544  0.45028313
   0.52430077  0.62168165  0.64894675
   0.50356276  0.62889218  0.51705656
   0.62324137  0.42621532  0.54900991
   0.52039853  0.48748626  0.62214871
   0.43278415  0.54116233  0.71272351
   0.51207411  0.35807779  0.59535392
   0.39685895  0.42934534  0.63851004
   0.40380763  0.55761828  0.58232495
   0.54540771  0.50980084  0.43700559
   0.55832660  0.34267581  0.46893601
   0.44474584  0.43938561  0.50764325
   0.41146481  0.55775555  0.44769399
   0.50866792  0.63536622  0.38011587
   0.48318900  0.40650517  0.37790943
   0.45121949  0.52665537  0.32269366
Direct configuration=    40
   0.61478308  0.69697393  0.57201567
   0.62575973  0.56143254  0.57110009
   0.67962607  0.50405795  0.45311177
   0.62650223  0.63044228  0.45044006
   0.52347352  0.62238674  0.64947965
   0.50446842  0.62875803  0.51716381
   0.62283332  0.42685377  0.54908387
   0.52102413  0.48867573  0.62157020
   0.43263517  0.54070632  0.71252709
   0.51235287  0.35794216  0.59591113
   0.39748026  0.42886655  0.63807446
   0.40374030  0.55771359  0.58148934
   0.54450417  0.50958634  0.43708305
   0.55886762  0.34206076  0.46897518