11
Energy = -29.63841991 eV
Al 7.274178158834158 11.9989361075523 9.144895665742093
Al 9.304773375919858 10.45177840237139 8.27524315074616
Al 9.638148667432986 12.926787434557282 9.540310415155282
Al 11.485631705459236 11.247933414371486 10.056803819525866
Al 6.5505417581047976 9.503339955264721 9.146164890487746
Al 11.256276457832193 8.953029460851944 8.716413828316247
Al 8.779450481393415 10.632411613899821 10.916187405039452
Al 8.750180631251348 8.199711221099543 9.703859548172023
Al 10.696713906385995 9.119770325212848 11.469729852329873
Al 10.907458610633014 6.72230631200009 10.224937432550378
Al 13.14794412463505 8.03529363070077 10.59675186981749
