25
Energy = -76.38297094 eV
Al 12.666124635857603 14.831103981220298 8.392185636117498
Al 11.795939280783395 13.11915688756358 6.57026995992951
Al 13.188982979057391 12.06790113910395 8.627135026187227
Al 10.5018154286562 13.175924904529419 9.037159019948142
Al 10.970318267136774 10.79782547647399 7.537982316459063
Al 13.005379981943895 9.458094626973766 8.691490357842042
Al 12.702458977206831 13.621254277051108 10.802694466269307
Al 13.965994238275323 11.110156698871933 11.024364278189276
Al 8.030932242113014 13.271303519099398 10.373077445059943
Al 8.806701232624926 11.08614734734441 9.106221594579507
Al 11.299100030996987 10.953067333987573 10.56578300718784
Al 10.230172304800744 8.781802138533942 9.055109480059198
Al 10.24354364981063 13.151371464804901 11.861443544775703
Al 6.390723875412511 11.247729467237399 10.371585503239974
Al 12.657785694769073 12.479219189994474 13.139488990679746
Al 12.588783429747009 9.756511702788087 12.85549220998184
Al 7.875110341677059 9.049646131810379 10.544915492785789
Al 12.219676504631593 8.114330640526294 10.784386353381413
Al 8.165127017793438 11.285788144474406 12.310240403052342
Al 9.59629027731298 6.896315622450943 10.824675146570971
Al 10.201075567287894 11.325308004335124 13.896943825504492
Al 12.51248775161597 11.04966276286398 15.310073544845237
Al 9.922638275784083 9.24373606248841 12.21690163317637
Al 11.000450759544105 8.877150773396936 14.890672636801327
Al 11.219783592044234 7.006888038959575 12.967104464260983
