26
Energy = -79.64022206 eV
Al 14.739341416696249 9.963263919050531 12.52693003303244
Al 14.242951675249822 9.417543954775395 10.009240410037894
Al 13.640906438926274 11.855972606670274 10.81482751185275
Al 12.124235592277492 9.487541095889853 11.85987479128888
Al 10.9167448519823 7.093496947821125 11.564909020421576
Al 13.018465249606747 11.824231399240755 13.37176816618058
Al 13.627959089044081 14.262896897712556 11.933821409864365
Al 10.50165079212113 10.99384343480312 13.379409580149261
Al 12.989041286113501 7.078600419621214 10.001474169958199
Al 9.989388676516649 8.342116345907028 13.618440641414981
Al 13.02323387017438 8.5562675591029 7.640458881049517
Al 12.588721661906353 11.087376363980082 8.583141437081819
Al 10.982492155100516 8.798478400084555 9.333574879766003
Al 11.147411739030595 13.452882213129254 12.182686415730863
Al 10.587991812220167 11.336255166974748 10.504769084838303
Al 9.099362532177986 9.011264127859729 11.105520300560679
Al 12.095474250971208 13.662097328161806 9.60080549144652
Al 7.941401384561882 9.952276387300818 13.322398735147354
Al 8.691880710218047 12.570066479704488 12.31004425790061
Al 10.865007755611922 10.022444872933146 6.801469320616287
Al 8.858365570175863 10.228801260391927 8.646102027312738
Al 8.60905416649863 12.99369010170291 9.390394130476356
Al 10.510585438145604 12.51311559183943 7.752649712796574
Al 7.247564009653331 10.83085124712479 10.596541573757738
Al 6.140452352822883 11.837451905211067 12.880363075848177
Al 6.52818133619507 13.53503978700535 10.976250755468687
