26
Energy = -79.04594519 eV
Al 7.359130383958982 9.915003079476364 12.47718865525631
Al 8.043933521131756 8.161938702570255 10.682329158595563
Al 9.892422667573442 9.141126374217098 12.40560538469706
Al 6.328222236451659 10.354580315403622 9.832955619764048
Al 6.425682858313751 12.290136079948017 11.952152120258045
Al 8.965097093265179 10.946790790820165 10.364595523449093
Al 10.635477758442757 7.20139989898558 10.6632468928456
Al 8.338775924822212 9.026454020615347 8.215820419777279
Al 6.738214018935218 13.171723665371855 9.443550181067723
Al 9.379674187819965 11.758288749801865 13.120705612039695
Al 8.763790068956743 13.593436443905507 11.270148253645404
Al 7.930906393663046 11.559554261151932 7.7804590986544255
Al 8.851131790018675 6.414399682203387 8.768607596967847
Al 9.898350424782581 13.248226533630396 8.867383033230322
Al 11.997085363484022 10.791458548441826 13.101077650340224
Al 12.320556935860669 8.080454516532319 12.440532904811539
Al 11.192023376597104 12.669653395534187 11.239950824694375
Al 10.929596817909594 8.064985428861222 8.195646680114649
Al 11.742312632648746 9.916074407271445 10.343156813268731
Al 10.439128302114062 10.714443289209871 7.903713720662476
Al 14.571205985127738 9.272884691773383 11.889479403454803
Al 13.636259806874982 11.784992615613708 11.229566770925807
Al 12.516446706833387 12.272730513407396 8.845030170659527
Al 13.347364041486262 7.748736627488961 9.783310778998695
Al 12.886986790632244 9.715144958777886 7.7420168782875365
Al 14.868893678529403 10.149634809295952 9.377174824304117
