26
Energy = -79.24819154 eV
Al 12.106005868933295 11.905473520197281 10.917161733345047
Al 10.436028772303715 10.355106862106712 14.678925244804413
Al 9.856268146167896 8.378912242722668 12.034709260720339
Al 16.12290368730655 10.666623058780152 11.102247651990256
Al 12.159659285309807 9.715200708153716 12.77791013553759
Al 7.917720764427841 13.266992983835967 11.087303760595399
Al 10.400283690665269 13.881127747824701 11.68397398507989
Al 12.175837218043961 11.45222840545472 8.16227921577979
Al 8.362579027291625 9.638321177184798 9.987590243101405
Al 11.788784932921741 12.418078736702594 13.626585558130207
Al 8.107325846974629 9.84306101416714 13.647145273892697
Al 12.336268501823184 7.64985250007449 10.99403920501514
Al 13.10117262185354 14.120165190652592 11.762191442942479
Al 11.703387829392335 14.003601957339344 9.260946557358157
Al 14.692254831866533 8.62821299511417 12.047762600726125
Al 9.090916314224065 14.800207053012532 9.272718601774098
Al 14.186023711373677 11.570228795886319 12.660330209222156
Al 6.875409320761947 10.986400858803382 11.692896613987168
Al 14.621674249785976 12.63970135699405 9.952538633235203
Al 13.72031387067425 9.970550670435925 9.879862922200912
Al 10.163940013335365 7.6231809168275975 9.225440876826154
Al 9.744931870582118 11.137983129468493 11.967066663676615
Al 8.962462354681039 12.748570159720815 13.943579648118503
Al 11.088809642161904 9.830540105140333 10.013939816733913
Al 9.85448758670247 9.92043098143186 7.592552473056657
Al 9.664912799892837 12.089609631425386 9.268664431607895
