32
Energy = -99.32831627 eV
Al 12.61937238619249 13.753683537582887 10.40405810186446
Al 12.05782320116697 13.600834538028618 13.295730621641917
Al 9.997445941651026 14.029693946089287 11.38809823623913
Al 14.17731169257097 11.980449523608607 12.28461217142353
Al 10.727577033085442 14.948229194720684 8.664084087944229
Al 12.026594482481531 10.79830526018663 14.062420288896934
Al 9.618833176326088 12.222809965474314 13.609502714989981
Al 8.315960660397268 11.92497054539581 11.26410926628451
Al 12.579476305227352 13.084527029746962 7.653606902755623
Al 13.352739907785823 11.236962153863919 9.689500053060591
Al 10.551062149900991 11.964192043652657 9.32633361585541
Al 8.352769013473251 13.704794022455529 9.158937488860841
Al 13.014802553146003 9.455236037367802 11.913476341572133
Al 11.521472954198579 11.69086394512375 11.631880974114521
Al 9.646672143815573 9.693294861613579 15.155663304845786
Al 9.794556457033242 12.614145573461354 6.944715530461613
Al 11.553657850969117 8.02799265697898 13.947987817898937
Al 10.089232620825776 9.677537019343031 12.116716069194023
Al 11.999089251196235 10.553077730259686 7.393702011479107
Al 7.649463943210183 10.292779951454069 13.39100395014187
Al 12.661345045587629 8.630938900007651 9.339247745358378
Al 7.989057121305647 11.133168154434816 8.713172950677494
Al 11.378600216992815 7.288573748722144 11.458767033353364
Al 10.007232864318498 9.140819657631168 9.303090807225711
Al 8.762063863737914 7.698841199295295 13.12506022608255
Al 11.551076177845472 8.021565941276545 6.93861539588457
Al 9.283860738612287 9.74708147919378 6.7171735530229
Al 7.610044598711189 9.356791279386186 10.939307112097561
Al 11.240422461504338 6.335660638415284 9.031688518564668
Al 7.207029113077641 8.604091302887868 8.424021781461553
Al 8.745757898949615 6.934425887299693 10.351870842932756
Al 9.137976308479033 7.070461359989942 7.581390542777397
