32
Energy = -99.15004275 eV
Al 10.641785953670635 10.453735366709179 12.017225293372784
Al 12.45382941555105 10.302555872779784 7.389492020241718
Al 10.638734910598677 13.758486384231274 7.352150543838876
Al 8.130474947819703 11.751497568616395 12.448195347495895
Al 13.81563155974233 10.334911396316112 12.158535949513563
Al 14.100390932344396 8.384604877359239 8.220285807228318
Al 10.033454159018637 11.755277634018062 14.433831341185238
Al 8.028006695041233 9.03073069868544 12.349485834818434
Al 8.192159463714551 10.276550383521682 10.044344048018893
Al 13.180913451548356 12.83297659761858 8.005936039604967
Al 14.429037782563372 8.166833801911872 13.563062377497625
Al 9.505479521905638 6.719858839655245 12.78088864888134
Al 14.337038724618015 8.092878293109973 10.868093299506596
Al 12.168989511099939 9.485645785919305 9.973645014187062
Al 10.624851522389877 15.933013440736316 11.754411422587909
Al 12.14978344641998 14.622022382377478 9.676956160586906
Al 9.972388164174788 8.853008722652488 14.334344787580863
Al 9.920873830213424 8.09910876100249 10.571835358750576
Al 14.548489765715413 10.761867461441588 9.333398238889368
Al 13.030881766791813 12.384861925085705 10.795866099383183
Al 8.61771337891645 11.741547062369095 7.717208970917952
Al 10.776713683942805 11.88914358705168 9.364093714691165
Al 12.888488472510325 14.622449154055776 12.278199227038396
Al 8.118864181656997 12.924384809477079 10.028753946376074
Al 7.760353870403342 10.349361058755198 14.742191073256008
Al 12.509257384617873 12.33164560478449 13.501763546576868
Al 10.421619775663588 13.197332710009844 11.690386178615123
Al 10.06563718803892 9.531790214410474 8.261003053547572
Al 10.694897145594505 14.384133255975902 14.098228808993882
Al 9.5487470017748 15.01060844096398 9.544921151886683
Al 11.919668214793308 7.9781104536879806 12.410727194152585
Al 12.414577625256603 9.815934918069374 14.446025910959891
