30
Energy = -92.91171345 eV
Al 10.534180264198522 10.267882162610757 12.352315539284916
Al 11.02864957066693 10.152421451143434 15.33713449663851
Al 8.829894536479943 9.532258354695362 10.079991806190774
Al 8.39185631500171 11.46133878891029 7.951266756461895
Al 8.910894888612585 7.804317942612712 12.138966111655373
Al 9.55776734659357 13.16510259404356 12.41049092847483
Al 10.661902071825754 7.9171186872862345 14.100516748666175
Al 11.617067564607984 12.37585068525892 14.043732498762775
Al 13.592738811731374 11.028528840394731 15.506718681913025
Al 9.294964501500038 8.542321439851632 7.650432860668139
Al 13.025562906438308 10.119558866223997 11.10509083178143
Al 14.098353165194967 11.738855390783558 13.014648774078545
Al 8.948971037988956 11.546780336722012 14.431269250988084
Al 11.712502676755882 7.814543289671796 11.65741705544147
Al 13.027617491931883 9.148499179162998 13.594319216083683
Al 14.899756351906175 12.953108884893734 7.944233481834157
Al 9.823348618598784 6.971647239145618 9.768124203464913
Al 12.076608726352395 12.939878732102175 11.567490454449537
Al 7.769177628533862 10.258938849041181 12.369276269686713
Al 11.562616123514783 8.95093601587466 9.19369129164105
Al 12.446313976839468 13.569640463773334 9.064946200075006
Al 14.532096911999108 12.385175970251545 10.490018648201968
Al 13.307371886128376 10.838942660695889 8.568886170707401
Al 10.154876001635284 13.365262958976444 7.394348976196745
Al 6.908281372043459 12.766797465337454 12.930034920593299
Al 12.639583300979012 12.609304693224264 6.599363713517805
Al 7.844368527104027 12.154672614303902 10.434903246154652
Al 10.648564087011783 11.496593471425845 9.803980827911886
Al 9.889025937326068 14.100128624356762 9.94018676889404
Al 10.887939658109994 10.646445604836961 7.179055527192972
