4
Energy = -7.15210853 eV
Al 7.1911671449065215 8.23300301800233 8.716647029222635
Al 8.940196901425661 10.338433832854488 8.89382442585884
Al 9.541700705989248 7.959262777421006 10.105019656328789
Al 9.571218488501025 8.146819203216664 7.3686173854362025
