5
Energy = -10.1710627 eV
Al 8.220394500335557 9.99871610648805 8.100882853942075
Al 9.899861940653226 8.102743930749481 7.5316375923447385
Al 6.51143722603381 9.417735552720181 9.96312865779686
Al 8.758399582021106 5.896496586212154 6.782868709478938
Al 7.474830567025014 7.449231639898847 8.486406002506346
