unknown system                          
           1
    22.997912    0.000000    0.000000
     0.000000   22.997912    0.000000
     0.000000    0.000000   22.997912
   Ag
  50
Direct configuration=     1
   0.63784886  0.35490908  0.38911075
   0.63417702  0.31208191  0.50101631
   0.72899620  0.43602071  0.36495972
   0.62668468  0.43816581  0.29278314
   0.69856371  0.41423772  0.48111476
   0.53141217  0.40351987  0.36816676
   0.55704611  0.32183028  0.58492710
   0.64586457  0.39991697  0.58868850
   0.62299510  0.47690781  0.41235623
   0.43776361  0.45596737  0.32301632
   0.65941564  0.51229577  0.54089091
   0.47100657  0.30108167  0.65983231
   0.67769658  0.54588610  0.32754874
   0.55808316  0.40436606  0.48958596
   0.72722438  0.53468529  0.44130654
   0.45716418  0.39300820  0.57731786
   0.54460250  0.52425840  0.33546415
   0.44253093  0.41124474  0.44951081
   0.42191120  0.39546108  0.71084157
   0.34851338  0.38518082  0.52109397
   0.54124437  0.40978135  0.67879596
   0.35649810  0.32519209  0.62759861
   0.33085924  0.46991325  0.43873790
   0.34291491  0.52557773  0.33658958
   0.54567517  0.48251638  0.58385748
   0.64417150  0.48145236  0.67072849
   0.35195535  0.44752274  0.62923274
   0.54946013  0.54677259  0.69189818
   0.53680818  0.52867774  0.47463897
   0.62354737  0.60383978  0.42206670
   0.28278210  0.49634827  0.54637814
   0.43631795  0.53066661  0.41570909
   0.41639754  0.49749176  0.53368404
   0.71257234  0.62096689  0.52117193
   0.59126866  0.61827804  0.53828049
   0.48375696  0.58252322  0.58909133
   0.43934213  0.50883433  0.69086794
   0.66393664  0.59469343  0.63359261
   0.50315544  0.62745287  0.37152827
   0.55630966  0.70052860  0.45285516
   0.36252502  0.56762660  0.61811098
   0.45491217  0.63190645  0.48302422
   0.44952323  0.63250734  0.69147179
   0.33616714  0.59126535  0.49557343
   0.37735346  0.62982345  0.38180999
   0.56583730  0.65909242  0.65196621
   0.39528604  0.67692100  0.58184413
   0.44888286  0.72745352  0.40537046
   0.50958986  0.70750146  0.56265578
   0.35071935  0.70668341  0.47411317
Direct configuration=     2
   0.63790937  0.35494693  0.38909371
   0.63441236  0.31197576  0.50094752
   0.72896571  0.43606606  0.36501070
   0.62660671  0.43814538  0.29283795
   0.69867922  0.41411947  0.48109121
   0.53146146  0.40351012  0.36813022
   0.55694086  0.32183611  0.58503104
   0.64583555  0.39983562  0.58863158
   0.62307603  0.47688579  0.41231439
   0.43773260  0.45595193  0.32297906
   0.65932571  0.51236225  0.54091141
   0.47097530  0.30101920  0.65989649
   0.67766171  0.54584340  0.32752315
   0.55810019  0.40431481  0.48958712
   0.72731269  0.53464068  0.44121070
   0.45722381  0.39286891  0.57741786
   0.54457042  0.52420700  0.33541877
   0.44257343  0.41125158  0.44944197
   0.42191134  0.39538099  0.71087076
   0.34839259  0.38524052  0.52121825
   0.54119650  0.40981079  0.67879360
   0.35656569  0.32526451  0.62756827
   0.33093297  0.46992556  0.43873835
   0.34286568  0.52563057  0.33646954
   0.54575985  0.48240500  0.58398160
   0.64418167  0.48147949  0.67074664
   0.35191294  0.44744583  0.62930815
   0.54955450  0.54680789  0.69188300
   0.53670789  0.52874714  0.47472937
   0.62359298  0.60379291  0.42195801
   0.28281371  0.49634766  0.54641206
   0.43617579  0.53066873  0.41549430
   0.41635046  0.49753822  0.53354502
   0.71248564  0.62097900  0.52119944
   0.59127936  0.61833644  0.53837436
   0.48376397  0.58266142  0.58915602
   0.43936358  0.50880739  0.69076729
   0.66396505  0.59465700  0.63360844
   0.50329456  0.62737181  0.37147302
   0.55635380  0.70055633  0.45279023
   0.36235863  0.56772021  0.61815532
   0.45486871  0.63188805  0.48300102
   0.44948469  0.63251449  0.69137252
   0.33627730  0.59114399  0.49560372
   0.37733284  0.62988075  0.38178752
   0.56584062  0.65910485  0.65210849
   0.39516108  0.67688221  0.58193477
   0.44883674  0.72759049  0.40537857
   0.50957271  0.70766197  0.56270621
   0.35075373  0.70681352  0.47416751
Direct configuration=     3
   0.63809091  0.35506046  0.38904258
   0.63511840  0.31165728  0.50074114
   0.72887424  0.43620210  0.36516364
   0.62637281  0.43808409  0.29300235
   0.69902576  0.41376474  0.48102055
   0.53160935  0.40348086  0.36802058
   0.55662509  0.32185360  0.58534286
   0.64574849  0.39959158  0.58846082
   0.62331884  0.47681972  0.41218884
   0.43763959  0.45590560  0.32286729
   0.65905591  0.51256170  0.54097290
   0.47088147  0.30083182  0.66008903
   0.67755710  0.54571529  0.32744638
   0.55815129  0.40416107  0.48959061
   0.72757762  0.53450686  0.44092318
   0.45740268  0.39245102  0.57771785
   0.54447420  0.52405282  0.33528263
   0.44270092  0.41127211  0.44923547
   0.42191177  0.39514071  0.71095833
   0.34803020  0.38541964  0.52159110
   0.54105287  0.40989910  0.67878650
   0.35676845  0.32548178  0.62747728
   0.33115417  0.46996249  0.43873971
   0.34271801  0.52578907  0.33610941
   0.54601391  0.48207087  0.58435396
   0.64421219  0.48156087  0.67080109
   0.35178570  0.44721508  0.62953436
   0.54983764  0.54691378  0.69183743
   0.53640703  0.52895533  0.47500055
   0.62372981  0.60365230  0.42163196
   0.28290851  0.49634583  0.54651383
   0.43574928  0.53067510  0.41484991
   0.41620922  0.49767760  0.53312795
   0.71222554  0.62101531  0.52128196
   0.59131146  0.61851163  0.53865597
   0.48378498  0.58307601  0.58935009
   0.43942793  0.50872657  0.69046532
   0.66405028  0.59454770  0.63365593
   0.50371194  0.62712865  0.37130728
   0.55648624  0.70063952  0.45259545
   0.36185945  0.56800103  0.61828834
   0.45473835  0.63183286  0.48293142
   0.44936908  0.63253592  0.69107472
   0.33660781  0.59077991  0.49569456
   0.37727101  0.63005264  0.38172013
   0.56585056  0.65914213  0.65253535
   0.39478620  0.67676582  0.58220669
   0.44869837  0.72800139  0.40540289
   0.50952123  0.70814350  0.56285750
   0.35085687  0.70720385  0.47433056
Direct configuration=     4
   0.63845397  0.35528753  0.38894033
   0.63653048  0.31102034  0.50032839
   0.72869129  0.43647419  0.36546952
   0.62590500  0.43796150  0.29333117
   0.69971884  0.41305527  0.48087924
   0.53190513  0.40342235  0.36780131
   0.55599355  0.32188858  0.58596650
   0.64557436  0.39910348  0.58811931
   0.62380444  0.47668758  0.41193776
   0.43745356  0.45581294  0.32264375
   0.65851630  0.51296060  0.54109589
   0.47069383  0.30045705  0.66047410
   0.67734788  0.54545909  0.32729284
   0.55825348  0.40385359  0.48959758
   0.72810748  0.53423922  0.44034815
   0.45776043  0.39161525  0.57831782
   0.54428176  0.52374445  0.33501035
   0.44295591  0.41131318  0.44882245
   0.42191263  0.39466016  0.71113347
   0.34730543  0.38577786  0.52233679
   0.54076561  0.41007572  0.67877229
   0.35717396  0.32591631  0.62729529
   0.33159658  0.47003634  0.43874242
   0.34242265  0.52610608  0.33538914
   0.54652202  0.48140260  0.58509868
   0.64427324  0.48172363  0.67090998
   0.35153124  0.44675358  0.62998678
   0.55040390  0.54712556  0.69174631
   0.53580531  0.52937170  0.47554292
   0.62400348  0.60337108  0.42097986
   0.28309812  0.49634219  0.54671735
   0.43489627  0.53068784  0.41356112
   0.41592675  0.49795637  0.53229382
   0.71170534  0.62108795  0.52144700
   0.59137565  0.61886200  0.53921920
   0.48382701  0.58390518  0.58973823
   0.43955663  0.50856493  0.68986138
   0.66422074  0.59432910  0.63375093
   0.50454670  0.62664232  0.37097580
   0.55675110  0.70080589  0.45220588
   0.36086110  0.56856266  0.61855439
   0.45447763  0.63172248  0.48279221
   0.44913784  0.63257878  0.69047911
   0.33726882  0.59005176  0.49587626
   0.37714733  0.63039643  0.38158535
   0.56587043  0.65921669  0.65338906
   0.39403644  0.67653305  0.58275053
   0.44842163  0.72882320  0.40545153
   0.50941828  0.70910656  0.56316007
   0.35106316  0.70798451  0.47465664
Direct configuration=     5
   0.63918010  0.35574167  0.38873582
   0.63935463  0.30974645  0.49950289
   0.72832538  0.43701835  0.36608127
   0.62496938  0.43771633  0.29398880
   0.70110500  0.41163633  0.48059661
   0.53249669  0.40330532  0.36736277
   0.55473047  0.32195854  0.58721378
   0.64522611  0.39812730  0.58743627
   0.62477564  0.47642331  0.41143560
   0.43708151  0.45562763  0.32219667
   0.65743709  0.51375839  0.54134186
   0.47031853  0.29970751  0.66124426
   0.67692945  0.54494668  0.32698575
   0.55845787  0.40323863  0.48961152
   0.72916721  0.53370394  0.43919808
   0.45847594  0.38994371  0.57951777
   0.54389688  0.52312771  0.33446579
   0.44346588  0.41139532  0.44799642
   0.42191436  0.39369906  0.71148374
   0.34585589  0.38649432  0.52382818
   0.54019109  0.41042897  0.67874389
   0.35798500  0.32678536  0.62693131
   0.33248138  0.47018405  0.43874783
   0.34183195  0.52674009  0.33394861
   0.54753825  0.48006607  0.58658812
   0.64439532  0.48204915  0.67112778
   0.35102230  0.44583058  0.63089162
   0.55153642  0.54754912  0.69156406
   0.53460187  0.53020445  0.47662765
   0.62455081  0.60280865  0.41967565
   0.28347734  0.49633489  0.54712439
   0.43319024  0.53071332  0.41098356
   0.41536181  0.49851390  0.53062556
   0.71066493  0.62123321  0.52177707
   0.59150404  0.61956275  0.54034565
   0.48391106  0.58556353  0.59051449
   0.43981403  0.50824164  0.68865350
   0.66456166  0.59389191  0.63394092
   0.50621622  0.62566965  0.37031283
   0.55728084  0.70113863  0.45142676
   0.35886439  0.56968592  0.61908649
   0.45395618  0.63150172  0.48251380
   0.44867538  0.63266451  0.68928789
   0.33859085  0.58859546  0.49623965
   0.37689998  0.63108401  0.38131578
   0.56591019  0.65936582  0.65509649
   0.39253692  0.67606750  0.58383821
   0.44786815  0.73046682  0.40554881
   0.50921238  0.71103268  0.56376521
   0.35147574  0.70954583  0.47530881
Direct configuration=     6
   0.63964094  0.35572646  0.38869188
   0.64031754  0.30923486  0.49980538
   0.72861539  0.43708443  0.36597278
   0.62453957  0.43747054  0.29402938
   0.70181846  0.41127641  0.48074046
   0.53253842  0.40321783  0.36718830
   0.55531207  0.32171251  0.58692270
   0.64515606  0.39785157  0.58706792
   0.62451905  0.47653206  0.41199457
   0.43692682  0.45519309  0.32169204
   0.65698888  0.51364791  0.54093350
   0.46998804  0.29880429  0.66217400
   0.67673756  0.54477952  0.32643201
   0.55876508  0.40282478  0.48963442
   0.72968184  0.53375338  0.43910829
   0.45816785  0.38991043  0.57963599
   0.54375790  0.52250496  0.33413765
   0.44356705  0.41143487  0.44786595
   0.42191639  0.39339990  0.71184140
   0.34543948  0.38712566  0.52422323
   0.53983714  0.41039286  0.67930843
   0.35827323  0.32682373  0.62679613
   0.33272388  0.47018270  0.43849715
   0.34130360  0.52704849  0.33312719
   0.54759645  0.48008684  0.58669069
   0.64472596  0.48162663  0.67105241
   0.35078090  0.44599605  0.63136767
   0.55180051  0.54776054  0.69156911
   0.53395682  0.53041829  0.47709232
   0.62460133  0.60254236  0.41946602
   0.28359694  0.49623163  0.54746513
   0.43313327  0.53115758  0.41010310
   0.41546554  0.49853102  0.53042486
   0.71022153  0.62116396  0.52163753
   0.59123933  0.62021944  0.54069789
   0.48414009  0.58569431  0.59026422
   0.44018395  0.50797289  0.68765634
   0.66472505  0.59382497  0.63421237
   0.50673500  0.62579082  0.37045776
   0.55726602  0.70107175  0.45118706
   0.35779848  0.56951280  0.61950810
   0.45389300  0.63172550  0.48223328
   0.44815901  0.63291901  0.68916397
   0.33930134  0.58854855  0.49607730
   0.37687692  0.63175628  0.38129848
   0.56590288  0.65979137  0.65569126
   0.39188588  0.67622428  0.58419016
   0.44788218  0.73080578  0.40563080
   0.50903941  0.71160573  0.56402800
   0.35183067  0.70992509  0.47578969
Direct configuration=     7
   0.64102346  0.35568082  0.38856006
   0.64320628  0.30770007  0.50071286
   0.72948540  0.43728266  0.36564732
   0.62325016  0.43673317  0.29415113
   0.70395884  0.41019664  0.48117204
   0.53266364  0.40295536  0.36666489
   0.55705688  0.32097440  0.58604945
   0.64494591  0.39702439  0.58596289
   0.62374928  0.47685831  0.41367147
   0.43646276  0.45388949  0.32017816
   0.65564425  0.51331648  0.53970842
   0.46899659  0.29609465  0.66496323
   0.67616187  0.54427805  0.32477077
   0.55968671  0.40158320  0.48970310
   0.73122573  0.53390170  0.43883891
   0.45724360  0.38981058  0.57999064
   0.54334097  0.52063672  0.33315322
   0.44387058  0.41155354  0.44747454
   0.42192247  0.39250241  0.71291436
   0.34419022  0.38901966  0.52540838
   0.53877528  0.41028453  0.68100205
   0.35913791  0.32693883  0.62639059
   0.33345135  0.47017865  0.43774509
   0.33971857  0.52797370  0.33066293
   0.54777106  0.48014915  0.58699840
   0.64571790  0.48035905  0.67082632
   0.35005669  0.44649245  0.63279581
   0.55259280  0.54839480  0.69158425
   0.53202168  0.53105980  0.47848632
   0.62475288  0.60174350  0.41883715
   0.28395576  0.49592187  0.54848732
   0.43296234  0.53249034  0.40746171
   0.41577673  0.49858240  0.52982276
   0.70889132  0.62095620  0.52121889
   0.59044521  0.62218950  0.54175461
   0.48482718  0.58608665  0.58951339
   0.44129369  0.50716663  0.68466486
   0.66521524  0.59362415  0.63502672
   0.50829134  0.62615433  0.37089254
   0.55722154  0.70087112  0.45046799
   0.35460074  0.56899344  0.62077295
   0.45370347  0.63239686  0.48139173
   0.44660992  0.63368253  0.68879219
   0.34143283  0.58840780  0.49559023
   0.37680773  0.63377310  0.38124660
   0.56588095  0.66106802  0.65747558
   0.38993278  0.67669461  0.58524600
   0.44792429  0.73182265  0.40587676
   0.50852049  0.71332487  0.56481634
   0.35289545  0.71106287  0.47723233
Direct configuration=     8
   0.64134897  0.35563948  0.38897265
   0.64358179  0.30760861  0.50116717
   0.72959243  0.43738498  0.36545433
   0.62346734  0.43641946  0.29400527
   0.70439032  0.41053587  0.48101936
   0.53243443  0.40252053  0.36696145
   0.55648523  0.32036834  0.58620702
   0.64536830  0.39759696  0.58594227
   0.62363825  0.47701258  0.41447828
   0.43605056  0.45363959  0.31991261
   0.65544096  0.51301529  0.53887914
   0.46963057  0.29574149  0.66512595
   0.67587007  0.54383844  0.32456934
   0.55987995  0.40127624  0.48963836
   0.73107796  0.53400987  0.43892300
   0.45725358  0.39000441  0.58005157
   0.54296940  0.52074996  0.33307216
   0.44388964  0.41176213  0.44775737
   0.42179924  0.39256421  0.71309622
   0.34433657  0.38956357  0.52512771
   0.53846311  0.41018919  0.68126107
   0.35918884  0.32661250  0.62637020
   0.33348730  0.47049862  0.43705311
   0.33975766  0.52831420  0.33058654
   0.54720922  0.48017359  0.58700407
   0.64576140  0.47970808  0.67042801
   0.34986771  0.44674666  0.63342781
   0.55276048  0.54836388  0.69147479
   0.53172002  0.53100340  0.47857799
   0.62456896  0.60154590  0.41939534
   0.28393411  0.49616984  0.54831155
   0.43348823  0.53272602  0.40702183
   0.41623871  0.49836106  0.53044301
   0.70859777  0.62069198  0.52087549
   0.59033918  0.62276176  0.54171218
   0.48453786  0.58589584  0.58936102
   0.44207957  0.50686695  0.68351604
   0.66485277  0.59357402  0.63505091
   0.50834184  0.62613711  0.37095081
   0.55708395  0.70079982  0.45085699
   0.35443620  0.56870285  0.62099328
   0.45411346  0.63315029  0.48142392
   0.44613492  0.63365685  0.68862129
   0.34166812  0.58883573  0.49532395
   0.37679974  0.63418817  0.38113007
   0.56571804  0.66167114  0.65734645
   0.38994666  0.67658544  0.58549940
   0.44831428  0.73166023  0.40590601
   0.50816016  0.71299555  0.56491046
   0.35319490  0.71099804  0.47758137
Direct configuration=     9
   0.64202963  0.35555302  0.38983539
   0.64436698  0.30741737  0.50211714
   0.72981625  0.43759895  0.36505078
   0.62392148  0.43576347  0.29370028
   0.70529256  0.41124523  0.48070009
   0.53195513  0.40161129  0.36758156
   0.55528988  0.31910106  0.58653649
   0.64625152  0.39879422  0.58589916
   0.62340609  0.47733518  0.41616535
   0.43518864  0.45311702  0.31935736
   0.65501586  0.51238549  0.53714507
   0.47095626  0.29500302  0.66546623
   0.67525990  0.54291921  0.32414813
   0.56028402  0.40063437  0.48950300
   0.73076897  0.53423604  0.43909884
   0.45727446  0.39040971  0.58017898
   0.54219244  0.52098676  0.33290265
   0.44392949  0.41219830  0.44834878
   0.42154157  0.39269344  0.71347649
   0.34464258  0.39070089  0.52454082
   0.53781035  0.40998983  0.68180270
   0.35929533  0.32593011  0.62632758
   0.33356247  0.47116770  0.43560617
   0.33983940  0.52902621  0.33042683
   0.54603441  0.48022468  0.58701593
   0.64585236  0.47834688  0.66959514
   0.34947254  0.44727821  0.63474935
   0.55311112  0.54829922  0.69124591
   0.53108925  0.53088545  0.47876967
   0.62418438  0.60113271  0.42056254
   0.28388886  0.49668835  0.54794401
   0.43458788  0.53321884  0.40610202
   0.41720471  0.49789824  0.53173998
   0.70798396  0.62013949  0.52015743
   0.59011747  0.62395838  0.54162347
   0.48393286  0.58549685  0.58904241
   0.44372286  0.50624030  0.68111382
   0.66409484  0.59346920  0.63510148
   0.50844744  0.62610111  0.37107266
   0.55679624  0.70065074  0.45167041
   0.35409214  0.56809522  0.62145400
   0.45497078  0.63472576  0.48149122
   0.44514168  0.63360317  0.68826396
   0.34216013  0.58973054  0.49476716
   0.37678302  0.63505610  0.38088641
   0.56537738  0.66293228  0.65707644
   0.38997568  0.67635714  0.58602927
   0.44912977  0.73132060  0.40596719
   0.50740668  0.71230691  0.56510725
   0.35382106  0.71086246  0.47831123
Direct configuration=    10
   0.64222920  0.35573690  0.39060321
   0.64460331  0.30788725  0.50312624
   0.72959709  0.43792747  0.36479901
   0.62396315  0.43528208  0.29413577
   0.70608876  0.41158663  0.48049211
   0.53197120  0.40138396  0.36779304
   0.55546001  0.31902471  0.58630432
   0.64612467  0.39821730  0.58512444
   0.62308345  0.47727191  0.41632845
   0.43469738  0.45281766  0.31941442
   0.65425952  0.51242903  0.53616773
   0.47146730  0.29510938  0.66580465
   0.67454812  0.54224482  0.32444882
   0.56045450  0.40002120  0.48983527
   0.73058644  0.53418177  0.43881950
   0.45724929  0.39028506  0.58057733
   0.54209962  0.52043411  0.33292633
   0.44395070  0.41270302  0.44889944
   0.42131353  0.39240433  0.71350723
   0.34512820  0.39148555  0.52449790
   0.53747149  0.40986183  0.68183260
   0.35966364  0.32591665  0.62608701
   0.33393628  0.47190021  0.43503718
   0.34026356  0.52990298  0.33044990
   0.54536840  0.47990379  0.58712136
   0.64550925  0.47837716  0.66943794
   0.34864134  0.44701045  0.63514196
   0.55397732  0.54864110  0.69084986
   0.53083891  0.53082291  0.47890310
   0.62387879  0.60084946  0.42139755
   0.28430624  0.49718956  0.54736004
   0.43501579  0.53341543  0.40574207
   0.41735867  0.49787856  0.53233531
   0.70763654  0.61992167  0.51993412
   0.59002720  0.62429226  0.54178004
   0.48351518  0.58565056  0.58897758
   0.44495039  0.50542952  0.67905229
   0.66308305  0.59305455  0.63478919
   0.50848393  0.62630565  0.37104182
   0.55700336  0.70082660  0.45235486
   0.35417513  0.56799439  0.62153083
   0.45538505  0.63531462  0.48162790
   0.44468137  0.63332854  0.68800176
   0.34272817  0.58985192  0.49455793
   0.37693088  0.63526947  0.38073999
   0.56505255  0.66338781  0.65686721
   0.38996623  0.67590469  0.58646673
   0.44965194  0.73137467  0.40578216
   0.50660986  0.71190824  0.56531463
   0.35428479  0.71091732  0.47865612
Direct configuration=    11
   0.64259947  0.35607807  0.39202781
   0.64504181  0.30875906  0.50499851
   0.72919045  0.43853702  0.36433187
   0.62404046  0.43438891  0.29494377
   0.70756601  0.41222006  0.48010623
   0.53200103  0.40096217  0.36818542
   0.55577568  0.31888307  0.58587354
   0.64588931  0.39714689  0.58368703
   0.62248482  0.47715450  0.41663105
   0.43378592  0.45226222  0.31952029
   0.65285620  0.51250981  0.53435439
   0.47241549  0.29530672  0.66643254
   0.67322749  0.54099357  0.32500672
   0.56077079  0.39888354  0.49045177
   0.73024777  0.53408109  0.43830122
   0.45720258  0.39005378  0.58131642
   0.54192739  0.51940873  0.33297027
   0.44399005  0.41363946  0.44992112
   0.42089043  0.39186792  0.71356428
   0.34602922  0.39294140  0.52441826
   0.53684279  0.40962436  0.68188807
   0.36034699  0.32589168  0.62564065
   0.33462985  0.47325930  0.43398148
   0.34105054  0.53152973  0.33049271
   0.54413270  0.47930841  0.58731697
   0.64487265  0.47843335  0.66914629
   0.34709914  0.44651365  0.63587042
   0.55558446  0.54927543  0.69011502
   0.53037443  0.53070687  0.47915065
   0.62331181  0.60032392  0.42294681
   0.28508066  0.49811949  0.54627654
   0.43580972  0.53378019  0.40507422
   0.41764432  0.49784204  0.53343988
   0.70699194  0.61951754  0.51951980
   0.58985969  0.62491174  0.54207055
   0.48274021  0.58593576  0.58885729
   0.44722794  0.50392522  0.67522735
   0.66120579  0.59228522  0.63420977
   0.50855166  0.62668514  0.37098460
   0.55738763  0.70115288  0.45362477
   0.35432911  0.56780731  0.62167338
   0.45615369  0.63640718  0.48188150
   0.44382732  0.63281901  0.68751528
   0.34378212  0.59007714  0.49416974
   0.37720523  0.63566536  0.38046833
   0.56444986  0.66423298  0.65647900
   0.38994871  0.67506520  0.58727837
   0.45062076  0.73147499  0.40543884
   0.50513147  0.71116853  0.56569940
   0.35514518  0.71101911  0.47929602
Direct configuration=    12
   0.64253479  0.35616640  0.39292609
   0.64569908  0.30867972  0.50535695
   0.72901267  0.43876290  0.36402586
   0.62374284  0.43361187  0.29564223
   0.70869988  0.41245283  0.48003209
   0.53183937  0.40090362  0.36842094
   0.55585286  0.31886894  0.58589643
   0.64572171  0.39753748  0.58370268
   0.62189383  0.47652081  0.41640341
   0.43347309  0.45188118  0.32007268
   0.65149502  0.51252155  0.53391272
   0.47292285  0.29574093  0.66674968
   0.67231863  0.54098238  0.32542986
   0.56046720  0.39857263  0.49059597
   0.73032303  0.53401877  0.43773385
   0.45714916  0.38953853  0.58192650
   0.54179486  0.51892992  0.33310619
   0.44447754  0.41415517  0.45036261
   0.42038872  0.39160484  0.71353388
   0.34642462  0.39348502  0.52455903
   0.53680978  0.40924958  0.68190595
   0.36089032  0.32605253  0.62515867
   0.33520581  0.47412797  0.43403819
   0.34154965  0.53261950  0.33006503
   0.54392353  0.47897681  0.58720198
   0.64468685  0.47775745  0.66856489
   0.34588968  0.44612257  0.63601757
   0.55596066  0.55029087  0.68971539
   0.53020296  0.53062259  0.47947075
   0.62290552  0.60007283  0.42355412
   0.28583198  0.49856137  0.54570869
   0.43614072  0.53402288  0.40494880
   0.41745098  0.49810286  0.53380087
   0.70688365  0.61953368  0.51960863
   0.58939216  0.62490329  0.54240777
   0.48283699  0.58638919  0.58854231
   0.44820125  0.50234623  0.67286390
   0.66030425  0.59179084  0.63367231
   0.50899165  0.62679000  0.37087577
   0.55788104  0.70163547  0.45401998
   0.35433396  0.56741054  0.62181117
   0.45627787  0.63624816  0.48156207
   0.44364227  0.63234777  0.68785868
   0.34469225  0.58999252  0.49396129
   0.37771451  0.63605072  0.38060773
   0.56407715  0.66442013  0.65659337
   0.38938648  0.67492304  0.58738342
   0.45116979  0.73187147  0.40499266
   0.50403322  0.71139496  0.56602011
   0.35577206  0.71127342  0.47945451
Direct configuration=    13
   0.64243417  0.35630380  0.39432340
   0.64672150  0.30855631  0.50591451
   0.72873611  0.43911428  0.36354984
   0.62327988  0.43240316  0.29672872
   0.71046366  0.41281491  0.47991676
   0.53158792  0.40081254  0.36878729
   0.55597291  0.31884697  0.58593204
   0.64546099  0.39814506  0.58372703
   0.62097452  0.47553507  0.41604931
   0.43298646  0.45128845  0.32093196
   0.64937765  0.51253980  0.53322569
   0.47371207  0.29641634  0.66724300
   0.67090486  0.54096497  0.32608807
   0.55999496  0.39808901  0.49082029
   0.73044009  0.53392183  0.43685129
   0.45706606  0.38873704  0.58287552
   0.54158870  0.51818512  0.33331762
   0.44523584  0.41495738  0.45104936
   0.41960830  0.39119560  0.71348658
   0.34703969  0.39433063  0.52477801
   0.53675843  0.40866661  0.68193376
   0.36173549  0.32630275  0.62440894
   0.33610175  0.47547922  0.43412641
   0.34232603  0.53431469  0.32939975
   0.54359816  0.47846098  0.58702311
   0.64439783  0.47670605  0.66766050
   0.34400831  0.44551422  0.63624647
   0.55654585  0.55187044  0.68909374
   0.52993625  0.53049148  0.47996866
   0.62227351  0.59968225  0.42449880
   0.28700070  0.49924874  0.54482537
   0.43665559  0.53440041  0.40475370
   0.41715024  0.49850858  0.53436241
   0.70671520  0.61955878  0.51974681
   0.58866490  0.62489014  0.54293233
   0.48298753  0.58709452  0.58805234
   0.44971526  0.49989005  0.66918747
   0.65890187  0.59102180  0.63283626
   0.50967607  0.62695312  0.37070648
   0.55864855  0.70238617  0.45463474
   0.35434150  0.56679335  0.62202552
   0.45647105  0.63600081  0.48106519
   0.44335441  0.63161474  0.68839285
   0.34610799  0.58986089  0.49363703
   0.37850672  0.63665015  0.38082457
   0.56349738  0.66471125  0.65677127
   0.38851191  0.67470190  0.58754682
   0.45202382  0.73248820  0.40429860
   0.50232484  0.71174719  0.56651898
   0.35674721  0.71166901  0.47970106
Direct configuration=    14
   0.64246615  0.35626013  0.39387931
   0.64639656  0.30859553  0.50573730
   0.72882401  0.43900260  0.36370113
   0.62342702  0.43278731  0.29638341
   0.70990310  0.41269983  0.47995341
   0.53166784  0.40084149  0.36867086
   0.55593476  0.31885395  0.58592072
   0.64554385  0.39795196  0.58371929
   0.62126669  0.47584835  0.41616185
   0.43314112  0.45147683  0.32065886
   0.65005059  0.51253400  0.53344404
   0.47346124  0.29620168  0.66708622
   0.67135419  0.54097050  0.32587888
   0.56014505  0.39824272  0.49074900
   0.73040289  0.53395264  0.43713179
   0.45709247  0.38899177  0.58257390
   0.54165422  0.51842183  0.33325042
   0.44499484  0.41470243  0.45083110
   0.41985633  0.39132567  0.71350161
   0.34684421  0.39406188  0.52470842
   0.53677475  0.40885189  0.68192492
   0.36146688  0.32622322  0.62464722
   0.33581701  0.47504976  0.43409837
   0.34207928  0.53377593  0.32961119
   0.54370157  0.47862492  0.58707996
   0.64448968  0.47704021  0.66794793
   0.34460624  0.44570756  0.63617372
   0.55635987  0.55136842  0.68929131
   0.53002102  0.53053315  0.47981041
   0.62247437  0.59980638  0.42419856
   0.28662926  0.49903028  0.54510611
   0.43649196  0.53428042  0.40481570
   0.41724582  0.49837964  0.53418394
   0.70676873  0.61955080  0.51970289
   0.58889604  0.62489432  0.54276562
   0.48293968  0.58687036  0.58820806
   0.44923408  0.50067067  0.67035591
   0.65934757  0.59126621  0.63310197
   0.50945855  0.62690128  0.37076028
   0.55840462  0.70214758  0.45443936
   0.35433910  0.56698951  0.62195739
   0.45640966  0.63607942  0.48122311
   0.44344589  0.63184771  0.68822308
   0.34565804  0.58990272  0.49374008
   0.37825494  0.63645964  0.38075566
   0.56368164  0.66461873  0.65671473
   0.38878987  0.67477218  0.58749489
   0.45175240  0.73229219  0.40451918
   0.50286779  0.71163524  0.56636043
   0.35643729  0.71154328  0.47962270
Direct configuration=    15
   0.64230598  0.35589643  0.39419181
   0.64694087  0.30828193  0.50545349
   0.72890021  0.43886908  0.36357687
   0.62320874  0.43247955  0.29648552
   0.70992915  0.41266597  0.48029258
   0.53122475  0.40057260  0.36872669
   0.55619097  0.31875985  0.58606342
   0.64571176  0.39827257  0.58362541
   0.62135912  0.47542623  0.41629469
   0.43308467  0.45133698  0.32136215
   0.64970581  0.51256793  0.53344277
   0.47360209  0.29631240  0.66724979
   0.67080073  0.54175405  0.32576593
   0.55984623  0.39834621  0.49069203
   0.73027444  0.53410103  0.43717338
   0.45715057  0.38907333  0.58255260
   0.54138558  0.51886817  0.33324071
   0.44536337  0.41475207  0.45095133
   0.41938459  0.39149267  0.71357639
   0.34665768  0.39368773  0.52455309
   0.53727800  0.40835572  0.68201741
   0.36156226  0.32589076  0.62446307
   0.33601075  0.47520238  0.43433591
   0.34224644  0.53381460  0.32919762
   0.54409517  0.47857848  0.58706670
   0.64427494  0.47702081  0.66819567
   0.34422692  0.44566967  0.63624848
   0.55547719  0.55131536  0.68933139
   0.53004662  0.53041767  0.47985534
   0.62242223  0.59968798  0.42399815
   0.28654794  0.49886387  0.54528096
   0.43656134  0.53442136  0.40488349
   0.41736205  0.49835480  0.53418732
   0.70677953  0.61941772  0.51994497
   0.58843692  0.62503064  0.54249814
   0.48317111  0.58720201  0.58835773
   0.44889312  0.50009540  0.66957439
   0.65973720  0.59113959  0.63300740
   0.51013943  0.62691176  0.37073697
   0.55838858  0.70238048  0.45415588
   0.35442920  0.56671083  0.62229490
   0.45673435  0.63583905  0.48055702
   0.44372586  0.63132789  0.68851307
   0.34585483  0.59012385  0.49362429
   0.37876150  0.63696852  0.38096393
   0.56354854  0.66502731  0.65695036
   0.38805638  0.67486602  0.58746580
   0.45208126  0.73251522  0.40426447
   0.50251191  0.71227913  0.56629204
   0.35688183  0.71189104  0.47924268
Direct configuration=    16
   0.64200658  0.35521660  0.39477593
   0.64795830  0.30769574  0.50492299
   0.72904264  0.43861950  0.36334461
   0.62280073  0.43190428  0.29667639
   0.70997785  0.41260269  0.48092657
   0.53039654  0.40007000  0.36883106
   0.55666990  0.31858394  0.58633014
   0.64602561  0.39887186  0.58344994
   0.62153188  0.47463720  0.41654301
   0.43297914  0.45107557  0.32267672
   0.64906136  0.51263135  0.53344039
   0.47386538  0.29651937  0.66755554
   0.66976621  0.54321867  0.32555480
   0.55928768  0.39853967  0.49058554
   0.73003433  0.53437841  0.43725113
   0.45725918  0.38922579  0.58251277
   0.54088342  0.51970247  0.33322257
   0.44605224  0.41484487  0.45117607
   0.41850282  0.39180484  0.71371615
   0.34630900  0.39298836  0.52426276
   0.53821867  0.40742828  0.68219029
   0.36174056  0.32526933  0.62411887