<?xml version="1.0" encoding="ISO-8859-1"?>
<modeling>
 <generator>
  <i name="program" type="string">vasp </i>
  <i name="version" type="string">5.3.5  </i>
  <i name="subversion" type="string">31Mar14 (build Feb 01 2018 12:10:03) gamma-only                       parallel </i>
  <i name="platform" type="string">LinuxIFC </i>
  <i name="date" type="string">2019 03 24 </i>
  <i name="time" type="string">00:11:56 </i>
 </generator>
 <incar>
  <i type="string" name="PREC">normal</i>
  <i type="int" name="ISPIN">     2</i>
  <i type="int" name="IBRION">     2</i>
  <i type="int" name="NSW">  1000</i>
  <i type="int" name="ISIF">     2</i>
  <i name="POTIM">      0.10000000</i>
  <i type="logical" name="LPLANE"> T  </i>
  <i type="int" name="ISMEAR">     0</i>
  <i name="SIGMA">      0.00010000</i>
  <i type="logical" name="LWAVE"> F  </i>
  <i type="logical" name="LCHARG"> F  </i>
  <i type="logical" name="LVTOT"> F  </i>
  <i type="string" name="GGA"> PE</i>
 </incar>
 <kpoints>
  <varray name="kpointlist" >
   <v>       0.00000000       0.00000000       0.00000000 </v>
  </varray>
  <varray name="weights" >
   <v>       1.00000000 </v>
  </varray>
 </kpoints>
 <parameters>
  <separator name="general" >
   <i type="string" name="SYSTEM">unknown system</i>
   <i type="logical" name="LCOMPAT"> F  </i>
  </separator>
  <separator name="electronic" >
   <i type="string" name="PREC">normal</i>
   <i name="ENMAX">    249.84400000</i>
   <i name="ENAUG">    412.49600000</i>
   <i name="EDIFF">      0.00010000</i>
   <i type="int" name="IALGO">    38</i>
   <i type="int" name="IWAVPR">    11</i>
   <i type="int" name="NBANDS">   312</i>
   <i name="NELECT">    484.00000000</i>
   <i type="int" name="TURBO">     0</i>
   <i type="int" name="IRESTART">     0</i>
   <i type="int" name="NREBOOT">     0</i>
   <i type="int" name="NMIN">     0</i>
   <i name="EREF">      0.00000000</i>
   <separator name="electronic smearing" >
    <i type="int" name="ISMEAR">     0</i>
    <i name="SIGMA">      0.00010000</i>
    <i name="KSPACING">      0.50000000</i>
    <i type="logical" name="KGAMMA"> T  </i>
   </separator>
   <separator name="electronic projectors" >
    <i type="logical" name="LREAL"> F  </i>
    <v name="ROPT">      0.00000000</v>
    <i type="int" name="LMAXPAW">  -100</i>
    <i type="int" name="LMAXMIX">     2</i>
    <i type="logical" name="NLSPLINE"> F  </i>
   </separator>
   <separator name="electronic startup" >
    <i type="int" name="ISTART">     0</i>
    <i type="int" name="ICHARG">     2</i>
    <i type="int" name="INIWAV">     1</i>
   </separator>
   <separator name="electronic spin" >
    <i type="int" name="ISPIN">     2</i>
    <i type="logical" name="LNONCOLLINEAR"> F  </i>
    <v name="MAGMOM">      1.00000000      1.00000000      1.00000000      1.00000000      1.00000000      1.00000000      1.00000000      1.00000000      1.00000000      1.00000000      1.00000000      1.00000000      1.00000000      1.00000000      1.00000000      1.00000000      1.00000000      1.00000000      1.00000000      1.00000000
      1.00000000      1.00000000      1.00000000      1.00000000      1.00000000      1.00000000      1.00000000      1.00000000      1.00000000      1.00000000      1.00000000      1.00000000      1.00000000      1.00000000      1.00000000      1.00000000      1.00000000      1.00000000      1.00000000      1.00000000
      1.00000000      1.00000000      1.00000000      1.00000000</v>
    <i name="NUPDOWN">     -1.00000000</i>
    <i type="logical" name="LSORBIT"> F  </i>
    <v name="SAXIS">      0.00000000      0.00000000      1.00000000</v>
    <i type="logical" name="LSPIRAL"> F  </i>
    <v name="QSPIRAL">      0.00000000      0.00000000      0.00000000</v>
    <i type="logical" name="LZEROZ"> F  </i>
   </separator>
   <separator name="electronic exchange-correlation" >
    <i type="logical" name="LASPH"> F  </i>
    <i type="logical" name="LMETAGGA"> F  </i>
   </separator>
   <separator name="electronic convergence" >
    <i type="int" name="NELM">    60</i>
    <i type="int" name="NELMDL">    -5</i>
    <i type="int" name="NELMIN">     2</i>
    <i name="ENINI">    249.84400000</i>
    <separator name="electronic convergence detail" >
     <i type="logical" name="LDIAG"> T  </i>
     <i type="logical" name="LSUBROT"> F  </i>
     <i name="WEIMIN">      0.00100000</i>
     <i name="EBREAK">      0.00000008</i>
     <i name="DEPER">      0.30000000</i>
     <i type="int" name="NRMM">     4</i>
     <i name="TIME">      0.40000000</i>
    </separator>
   </separator>
   <separator name="electronic mixer" >
    <i name="AMIX">      0.40000000</i>
    <i name="BMIX">      1.00000000</i>
    <i name="AMIN">      0.10000000</i>
    <i name="AMIX_MAG">      1.60000000</i>
    <i name="BMIX_MAG">      1.00000000</i>
    <separator name="electronic mixer details" >
     <i type="int" name="IMIX">     4</i>
     <i type="int" name="MAXMIX">   -45</i>
     <i name="WC">    100.00000000</i>
     <i type="int" name="INIMIX">     1</i>
     <i type="int" name="MIXPRE">     1</i>
     <i type="int" name="MREMOVE">     5</i>
    </separator>
   </separator>
   <separator name="electronic dipolcorrection" >
    <i type="logical" name="LDIPOL"> F  </i>
    <i type="logical" name="LMONO"> F  </i>
    <i type="int" name="IDIPOL">     0</i>
    <i name="EPSILON">      1.00000000</i>
    <v name="DIPOL">   -100.00000000   -100.00000000   -100.00000000</v>
    <i name="EFIELD">      0.00000000</i>
   </separator>
  </separator>
  <separator name="grids" >
   <i type="int" name="NGX">    90</i>
   <i type="int" name="NGY">    90</i>
   <i type="int" name="NGZ">    90</i>
   <i type="int" name="NGXF">   180</i>
   <i type="int" name="NGYF">   180</i>
   <i type="int" name="NGZF">   180</i>
   <i type="logical" name="ADDGRID"> F  </i>
  </separator>
  <separator name="ionic" >
   <i type="int" name="NSW">  1000</i>
   <i type="int" name="IBRION">     2</i>
   <i type="int" name="ISIF">     2</i>
   <i name="PSTRESS">      0.00000000</i>
   <i name="EDIFFG">      0.00100000</i>
   <i type="int" name="NFREE">     1</i>
   <i name="POTIM">      0.10000000</i>
   <i name="SMASS">     -3.00000000</i>
   <i name="SCALEE">      1.00000000</i>
  </separator>
  <separator name="ionic md" >
   <i name="TEBEG">      0.00010000</i>
   <i name="TEEND">      0.00010000</i>
   <i type="int" name="NBLOCK">     1</i>
   <i type="int" name="KBLOCK">  1000</i>
   <i type="int" name="NPACO">   256</i>
   <i name="APACO">     16.00000000</i>
  </separator>
  <separator name="symmetry" >
   <i type="int" name="ISYM">     2</i>
   <i name="SYMPREC">      0.00001000</i>
  </separator>
  <separator name="dos" >
   <i type="logical" name="LORBIT"> F  </i>
   <v name="RWIGS">     -1.00000000</v>
   <i type="int" name="NEDOS">   301</i>
   <i name="EMIN">     10.00000000</i>
   <i name="EMAX">    -10.00000000</i>
   <i name="EFERMI">      0.00000000</i>
  </separator>
  <separator name="writing" >
   <i type="int" name="NWRITE">     2</i>
   <i type="logical" name="LWAVE"> F  </i>
   <i type="logical" name="LCHARG"> F  </i>
   <i type="logical" name="LPARD"> F  </i>
   <i type="logical" name="LVTOT"> F  </i>
   <i type="logical" name="LVHAR"> F  </i>
   <i type="logical" name="LELF"> F  </i>
   <i type="logical" name="LOPTICS"> F  </i>
   <v name="STM">      0.00000000      0.00000000      0.00000000      0.00000000      0.00000000      0.00000000      0.00000000</v>
  </separator>
  <separator name="performance" >
   <i type="int" name="NPAR">     4</i>
   <i type="int" name="NSIM">     4</i>
   <i type="int" name="NBLK">    -1</i>
   <i type="logical" name="LPLANE"> T  </i>
   <i type="logical" name="LSCALAPACK"> T  </i>
   <i type="logical" name="LSCAAWARE"> F  </i>
   <i type="logical" name="LSCALU"> F  </i>
   <i type="logical" name="LASYNC"> F  </i>
   <i type="logical" name="LORBITALREAL"> F  </i>
  </separator>
  <separator name="miscellaneous" >
   <i type="int" name="IDIOT">     3</i>
   <i type="logical" name="LMUSIC"> F  </i>
   <v name="POMASS">    107.86800000</v>
   <v name="DARWINR">      0.00000000</v>
   <v name="DARWINV">      1.00000000</v>
   <i type="logical" name="LCORR"> T  </i>
  </separator>
  <i type="logical" name="GGA_COMPAT"> T  </i>
  <i type="logical" name="LBERRY"> F  </i>
  <i type="int" name="ICORELEVEL">     0</i>
  <i type="logical" name="LDAU"> F  </i>
  <i type="int" name="I_CONSTRAINED_M">     0</i>
  <separator name="electronic exchange-correlation" >
   <i type="string" name="GGA">PE</i>
   <i type="int" name="VOSKOWN">     0</i>
   <i type="logical" name="LHFCALC"> F  </i>
   <i type="string" name="PRECFOCK"></i>
   <i type="logical" name="LSYMGRAD"> F  </i>
   <i type="logical" name="LHFONE"> F  </i>
   <i type="logical" name="LRHFCALC"> F  </i>
   <i type="logical" name="LTHOMAS"> F  </i>
   <i type="logical" name="LMODELHF"> F  </i>
   <i name="ENCUT4O">     -1.00000000</i>
   <i type="int" name="EXXOEP">     0</i>
   <i type="int" name="FOURORBIT">     0</i>
   <i name="AEXX">      0.00000000</i>
   <i name="HFALPHA">      0.00000000</i>
   <i name="MCALPHA">      0.00000000</i>
   <i name="ALDAX">      1.00000000</i>
   <i name="AGGAX">      1.00000000</i>
   <i name="ALDAC">      1.00000000</i>
   <i name="AGGAC">      1.00000000</i>
   <i type="int" name="NKREDX">     1</i>
   <i type="int" name="NKREDY">     1</i>
   <i type="int" name="NKREDZ">     1</i>
   <i type="logical" name="SHIFTRED"> F  </i>
   <i type="logical" name="ODDONLY"> F  </i>
   <i type="logical" name="EVENONLY"> F  </i>
   <i type="int" name="LMAXFOCK">     0</i>
   <i type="int" name="NMAXFOCKAE">     0</i>
   <i type="logical" name="LFOCKAEDFT"> F  </i>
   <i name="HFSCREEN">      0.00000000</i>
   <i name="HFSCREENC">      0.00000000</i>
   <i type="int" name="NBANDSGWLOW">     0</i>
  </separator>
  <separator name="vdW DFT" >
   <i type="logical" name="LUSE_VDW"> F  </i>
   <i name="Zab_VDW">     -0.84910000</i>
   <i name="PARAM1">      0.12340000</i>
   <i name="PARAM2">      1.00000000</i>
   <i name="PARAM3">      0.00000000</i>
  </separator>
  <separator name="model GW" >
   <i type="int" name="MODEL_GW">     0</i>
   <i name="MODEL_EPS0">    169.46452059</i>
   <i name="MODEL_ALPHA">      1.00000000</i>
  </separator>
  <separator name="linear response parameters" >
   <i type="logical" name="LEPSILON"> F  </i>
   <i type="logical" name="LRPA"> F  </i>
   <i type="logical" name="LNABLA"> F  </i>
   <i type="logical" name="LVEL"> F  </i>
   <i type="int" name="KINTER">     0</i>
   <i name="CSHIFT">      0.10000000</i>
   <i name="OMEGAMAX">     -1.00000000</i>
   <i name="DEG_THRESHOLD">      0.00200000</i>
  </separator>
  <separator name="orbital magnetization" >
   <i type="logical" name="NUCIND"> F  </i>
   <v name="MAGPOS">      0.00000000      0.00000000      0.00000000</v>
   <i type="logical" name="LNICSALL"> T  </i>
   <i type="logical" name="ORBITALMAG"> F  </i>
   <i type="logical" name="LMAGBLOCH"> F  </i>
   <i type="logical" name="LCHIMAG"> F  </i>
   <i type="logical" name="LGAUGE"> T  </i>
   <i type="int" name="MAGATOM">     0</i>
   <v name="MAGDIPOL">      0.00000000      0.00000000      0.00000000</v>
   <v name="AVECCONST">      0.00000000      0.00000000      0.00000000</v>
  </separator>
  <separator name="response functions" >
   <i type="logical" name="LADDER"> F  </i>
   <i type="logical" name="LFXC"> F  </i>
   <i type="logical" name="LHARTREE"> T  </i>
   <i type="int" name="IBSE">     0</i>
   <i type="logical" name="LTCTE"> F  </i>
   <i type="logical" name="LTETE"> F  </i>
   <i type="logical" name="LTRIPLET"> F  </i>
   <i type="logical" name="LFXCEPS"> F  </i>
   <i type="logical" name="LFXHEG"> F  </i>
   <i type="logical" name="L2ORDER"> F  </i>
   <i type="logical" name="LUSEW"> F  </i>
   <i name="ENCUTGW">     -2.00000000</i>
   <i name="ENCUTGWSOFT">     -2.00000000</i>
   <i name="ENCUTLF">     -1.00000000</i>
   <i type="int" name="LMAXMP2">    -1</i>
   <i name="SCISSOR">      0.00000000</i>
   <i type="int" name="NOMEGA">     0</i>
   <i type="int" name="NOMEGAR">     0</i>
   <i type="int" name="NBANDSGW">    -1</i>
   <i type="int" name="NBANDSO">    -1</i>
   <i type="int" name="NBANDSV">    -1</i>
   <i type="int" name="NELM">     1</i>
   <i type="int" name="DIM">     3</i>
   <i type="int" name="ANTIRES">     0</i>
   <i name="OMEGAMAX">    -30.00000000</i>
   <i name="OMEGAMIN">    -30.00000000</i>
   <i name="OMEGATL">   -200.00000000</i>
   <i type="int" name="OMEGAGRID">     0</i>
   <i name="CSHIFT">     -0.10000000</i>
   <i type="logical" name="SELFENERGY"> F  </i>
   <i type="logical" name="LSPECTRAL"> F  </i>
   <i type="logical" name="ODDONLYGW"> F  </i>
   <i type="logical" name="EVENONLYGW"> F  </i>
   <i type="int" name="NKREDLFX">     1</i>
   <i type="int" name="NKREDLFY">     1</i>
   <i type="int" name="NKREDLFZ">     1</i>
   <i type="int" name="MAXMEM">  1800</i>
   <i type="int" name="TELESCOPE">     0</i>
   <i type="int" name="TAUPAR">     1</i>
  </separator>
  <separator name="External order field" >
   <i name="OFIELD_KAPPA">      0.00000000</i>
   <v name="OFIELD_K">      0.00000000      0.00000000      0.00000000</v>
   <i name="OFIELD_Q6_NEAR">      0.00000000</i>
   <i name="OFIELD_Q6_FAR">      0.00000000</i>
   <i name="OFIELD_A">      0.00000000</i>
  </separator>
 </parameters>
 <atominfo>
  <atoms>      44 </atoms>
  <types>       1 </types>
  <array name="atoms" >
   <dimension dim="1">ion</dimension>
   <field type="string">element</field>
   <field type="int">atomtype</field>
   <set>
    <rc><c>Ag</c><c>   1</c></rc>
    <rc><c>Ag</c><c>   1</c></rc>
    <rc><c>Ag</c><c>   1</c></rc>
    <rc><c>Ag</c><c>   1</c></rc>
    <rc><c>Ag</c><c>   1</c></rc>
    <rc><c>Ag</c><c>   1</c></rc>
    <rc><c>Ag</c><c>   1</c></rc>
    <rc><c>Ag</c><c>   1</c></rc>
    <rc><c>Ag</c><c>   1</c></rc>
    <rc><c>Ag</c><c>   1</c></rc>
    <rc><c>Ag</c><c>   1</c></rc>
    <rc><c>Ag</c><c>   1</c></rc>
    <rc><c>Ag</c><c>   1</c></rc>
    <rc><c>Ag</c><c>   1</c></rc>
    <rc><c>Ag</c><c>   1</c></rc>
    <rc><c>Ag</c><c>   1</c></rc>
    <rc><c>Ag</c><c>   1</c></rc>
    <rc><c>Ag</c><c>   1</c></rc>
    <rc><c>Ag</c><c>   1</c></rc>
    <rc><c>Ag</c><c>   1</c></rc>
    <rc><c>Ag</c><c>   1</c></rc>
    <rc><c>Ag</c><c>   1</c></rc>
    <rc><c>Ag</c><c>   1</c></rc>
    <rc><c>Ag</c><c>   1</c></rc>
    <rc><c>Ag</c><c>   1</c></rc>
    <rc><c>Ag</c><c>   1</c></rc>
    <rc><c>Ag</c><c>   1</c></rc>
    <rc><c>Ag</c><c>   1</c></rc>
    <rc><c>Ag</c><c>   1</c></rc>
    <rc><c>Ag</c><c>   1</c></rc>
    <rc><c>Ag</c><c>   1</c></rc>
    <rc><c>Ag</c><c>   1</c></rc>
    <rc><c>Ag</c><c>   1</c></rc>
    <rc><c>Ag</c><c>   1</c></rc>
    <rc><c>Ag</c><c>   1</c></rc>
    <rc><c>Ag</c><c>   1</c></rc>
    <rc><c>Ag</c><c>   1</c></rc>
    <rc><c>Ag</c><c>   1</c></rc>
    <rc><c>Ag</c><c>   1</c></rc>
    <rc><c>Ag</c><c>   1</c></rc>
    <rc><c>Ag</c><c>   1</c></rc>
    <rc><c>Ag</c><c>   1</c></rc>
    <rc><c>Ag</c><c>   1</c></rc>
    <rc><c>Ag</c><c>   1</c></rc>
   </set>
  </array>
  <array name="atomtypes" >
   <dimension dim="1">type</dimension>
   <field type="int">atomspertype</field>
   <field type="string">element</field>
   <field>mass</field>
   <field>valence</field>
   <field type="string">pseudopotential</field>
   <set>
    <rc><c>  44</c><c>Ag</c><c>    107.86800000</c><c>     11.00000000</c><c>  PAW_PBE Ag 02Apr2005                  </c></rc>
   </set>
  </array>
 </atominfo>
 <structure name="initialpos" >
  <crystal>
   <varray name="basis" >
    <v>      23.16292519       0.00000000       0.00000000 </v>
    <v>       0.00000000      23.16292519       0.00000000 </v>
    <v>       0.00000000       0.00000000      23.16292519 </v>
   </varray>
   <i name="volume">  12427.39817629 </i>
   <varray name="rec_basis" >
    <v>       0.04317244       0.00000000       0.00000000 </v>
    <v>       0.00000000       0.04317244       0.00000000 </v>
    <v>       0.00000000       0.00000000       0.04317244 </v>
   </varray>
  </crystal>
  <varray name="positions" >
   <v>       0.40626155       0.60289644       0.63413144 </v>
   <v>       0.48417450       0.71622917       0.47213652 </v>
   <v>       0.27713008       0.52039550       0.49744685 </v>
   <v>       0.39380828       0.65262358       0.51873975 </v>
   <v>       0.43577305       0.63392774       0.40268977 </v>
   <v>       0.35632547       0.50118986       0.59512541 </v>
   <v>       0.49051215       0.67361370       0.58575947 </v>
   <v>       0.58848639       0.67646593       0.50683811 </v>
   <v>       0.30323679       0.60559329       0.57558897 </v>
   <v>       0.51140133       0.60448275       0.68233398 </v>
   <v>       0.39066450       0.53660554       0.48964014 </v>
   <v>       0.30173938       0.46633039       0.39662226 </v>
   <v>       0.50708811       0.54175535       0.37370448 </v>
   <v>       0.55540129       0.65311595       0.39279874 </v>
   <v>       0.45864263       0.49922041       0.65643041 </v>
   <v>       0.47638813       0.42485081       0.36756614 </v>
   <v>       0.49871658       0.59017831       0.49417768 </v>
   <v>       0.62311705       0.60064694       0.72552982 </v>
   <v>       0.35134001       0.42565969       0.50010852 </v>
   <v>       0.42622790       0.40489417       0.59073516 </v>
   <v>       0.39202240       0.53272686       0.37275741 </v>
   <v>       0.55987902       0.55048096       0.58441189 </v>
   <v>       0.60327739       0.65783554       0.62238654 </v>
   <v>       0.37137406       0.37092099       0.39240034 </v>
   <v>       0.49700007       0.47137422       0.52412287 </v>
   <v>       0.38030706       0.44190185       0.30125926 </v>
   <v>       0.58881325       0.52008878       0.47606438 </v>
   <v>       0.62012801       0.56502248       0.34177443 </v>
   <v>       0.66185222       0.60876280       0.43903088 </v>
   <v>       0.57509801       0.50034199       0.69346961 </v>
   <v>       0.45026430       0.36934789       0.47666536 </v>
   <v>       0.52390678       0.39925949       0.65897038 </v>
   <v>       0.69394134       0.64572238       0.54462372 </v>
   <v>       0.59000820       0.45685234       0.37376336 </v>
   <v>       0.67968597       0.56555059       0.62714306 </v>
   <v>       0.54493663       0.36725550       0.54534216 </v>
   <v>       0.70553471       0.52917704       0.52017600 </v>
   <v>       0.62106115       0.39753860       0.72777882 </v>
   <v>       0.55748621       0.36128009       0.42905839 </v>
   <v>       0.69718035       0.49385900       0.40517260 </v>
   <v>       0.63024393       0.40941737       0.60947994 </v>
   <v>       0.64609174       0.41811189       0.48995097 </v>
   <v>       0.73558403       0.43228754       0.57181865 </v>
   <v>       0.70355527       0.46987554       0.67994262 </v>
  </varray>
 </structure>
 <calculation>
  <scstep>
   <time name="dav">    4.87    4.88</time>
   <time name="total">    5.15    5.18</time>
   <energy>
    <i name="alphaZ">    132.50715220 </i>
    <i name="ewald"> 122726.86314648 </i>
    <i name="hartreedc">-166565.18257305 </i>
    <i name="XCdc">   -478.08384853 </i>
    <i name="pawpsdc">  44148.37583506 </i>
    <i name="pawaedc"> -42119.64279067 </i>
    <i name="eentropy">      0.00000000 </i>
    <i name="bandstr">    642.10060773 </i>
    <i name="atom">  45636.73972380 </i>
    <i name="e_fr_energy">   4123.67725302 </i>
    <i name="e_wo_entrp">   4123.67725302 </i>
    <i name="e_0_energy">   4123.67725302 </i>
   </energy>
  </scstep>
  <scstep>
   <time name="dav">    7.24    7.25</time>
   <time name="total">    7.24    8.02</time>
   <energy>
    <i name="e_fr_energy">    713.82246011 </i>
    <i name="e_wo_entrp">    713.82246011 </i>
    <i name="e_0_energy">    713.82246011 </i>
   </energy>
  </scstep>
  <scstep>
   <time name="dav">    5.88    5.88</time>
   <time name="total">    5.88    5.89</time>
   <energy>
    <i name="e_fr_energy">    -60.33359884 </i>
    <i name="e_wo_entrp">    -60.33359884 </i>
    <i name="e_0_energy">    -60.33359884 </i>
   </energy>
  </scstep>
  <scstep>
   <time name="dav">    5.32    5.33</time>
   <time name="total">    5.33    5.34</time>
   <energy>
    <i name="e_fr_energy">    -93.12744198 </i>
    <i name="e_wo_entrp">    -93.12744198 </i>
    <i name="e_0_energy">    -93.12744198 </i>
   </energy>
  </scstep>
  <scstep>
   <time name="dav">    5.38    5.39</time>
   <time name="total">    5.52    5.72</time>
   <energy>
    <i name="e_fr_energy">    -93.61067205 </i>
    <i name="e_wo_entrp">    -93.61067205 </i>
    <i name="e_0_energy">    -93.61067205 </i>
   </energy>
  </scstep>
  <scstep>
   <time name="dav">    4.99    4.99</time>
   <time name="total">    5.34    5.35</time>
   <energy>
    <i name="e_fr_energy">    -42.87532567 </i>
    <i name="e_wo_entrp">    -42.87532567 </i>
    <i name="e_0_energy">    -42.87532567 </i>
   </energy>
  </scstep>
  <scstep>
   <time name="dav">    5.15    5.16</time>
   <time name="total">    5.51    5.55</time>
   <energy>
    <i name="e_fr_energy">    -29.18624107 </i>
    <i name="e_wo_entrp">    -29.18624107 </i>
    <i name="e_0_energy">    -29.18624107 </i>
   </energy>
  </scstep>
  <scstep>
   <time name="dav">    5.17    5.17</time>
   <time name="total">    5.52    7.06</time>
   <energy>
    <i name="e_fr_energy">    -28.08986919 </i>
    <i name="e_wo_entrp">    -28.08986919 </i>
    <i name="e_0_energy">    -28.08986919 </i>
   </energy>
  </scstep>
  <scstep>
   <time name="dav">    5.15    5.16</time>
   <time name="total">    5.55    5.63</time>
   <energy>
    <i name="e_fr_energy">    -32.80117444 </i>
    <i name="e_wo_entrp">    -32.80117444 </i>
    <i name="e_0_energy">    -32.80117444 </i>
   </energy>
  </scstep>
  <scstep>
   <time name="dav">    5.06    5.07</time>
   <time name="total">    5.42    5.42</time>
   <energy>
    <i name="e_fr_energy">    -46.41291668 </i>
    <i name="e_wo_entrp">    -46.41291668 </i>
    <i name="e_0_energy">    -46.41291668 </i>
   </energy>
  </scstep>
  <scstep>
   <time name="dav">    5.08    5.08</time>
   <time name="total">    5.43    5.44</time>
   <energy>
    <i name="e_fr_energy">    -66.18357082 </i>
    <i name="e_wo_entrp">    -66.18357082 </i>
    <i name="e_0_energy">    -66.18357082 </i>
   </energy>
  </scstep>
  <scstep>
   <time name="dav">    5.69    5.70</time>
   <time name="total">    6.12    6.13</time>
   <energy>
    <i name="e_fr_energy">    -67.16010213 </i>
    <i name="e_wo_entrp">    -67.16010213 </i>
    <i name="e_0_energy">    -67.16010213 </i>
   </energy>
  </scstep>
  <scstep>
   <time name="dav">    5.08    5.09</time>
   <time name="total">    5.48    5.49</time>
   <energy>
    <i name="e_fr_energy">    -72.52351491 </i>
    <i name="e_wo_entrp">    -72.52351491 </i>
    <i name="e_0_energy">    -72.52351491 </i>
   </energy>
  </scstep>
  <scstep>
   <time name="dav">    5.08    5.08</time>
   <time name="total">    5.43    5.47</time>
   <energy>
    <i name="e_fr_energy">    -81.84026891 </i>
    <i name="e_wo_entrp">    -81.84026891 </i>
    <i name="e_0_energy">    -81.84026891 </i>
   </energy>
  </scstep>
  <scstep>
   <time name="dav">    5.30    5.30</time>
   <time name="total">    5.70    6.79</time>
   <energy>
    <i name="e_fr_energy">    -83.67461752 </i>
    <i name="e_wo_entrp">    -83.67461752 </i>
    <i name="e_0_energy">    -83.67461752 </i>
   </energy>
  </scstep>
  <scstep>
   <time name="dav">    5.10    5.11</time>
   <time name="total">    5.46    5.47</time>
   <energy>
    <i name="e_fr_energy">    -86.01209359 </i>
    <i name="e_wo_entrp">    -86.01209359 </i>
    <i name="e_0_energy">    -86.01209359 </i>
   </energy>
  </scstep>
  <scstep>
   <time name="dav">    5.13    5.13</time>
   <time name="total">    5.50    5.51</time>
   <energy>
    <i name="e_fr_energy">    -86.63773304 </i>
    <i name="e_wo_entrp">    -86.63773304 </i>
    <i name="e_0_energy">    -86.63773304 </i>
   </energy>
  </scstep>
  <scstep>
   <time name="dav">    4.98    4.98</time>
   <time name="total">    5.36    5.39</time>
   <energy>
    <i name="e_fr_energy">    -88.19296697 </i>
    <i name="e_wo_entrp">    -88.19296697 </i>
    <i name="e_0_energy">    -88.19296697 </i>
   </energy>
  </scstep>
  <scstep>
   <time name="dav">    5.12    5.12</time>
   <time name="total">    5.48    5.49</time>
   <energy>
    <i name="e_fr_energy">    -90.15590826 </i>
    <i name="e_wo_entrp">    -90.15590826 </i>
    <i name="e_0_energy">    -90.15590826 </i>
   </energy>
  </scstep>
  <scstep>
   <time name="dav">    5.10    5.10</time>
   <time name="total">    5.46    5.71</time>
   <energy>
    <i name="e_fr_energy">    -91.02182285 </i>
    <i name="e_wo_entrp">    -91.02182285 </i>
    <i name="e_0_energy">    -91.02182285 </i>
   </energy>
  </scstep>
  <scstep>
   <time name="dav">    5.07    5.08</time>
   <time name="total">    5.46    5.51</time>
   <energy>
    <i name="e_fr_energy">    -91.70047954 </i>
    <i name="e_wo_entrp">    -91.70047954 </i>
    <i name="e_0_energy">    -91.70047954 </i>
   </energy>
  </scstep>
  <scstep>
   <time name="dav">    5.13    5.13</time>
   <time name="total">    5.49    8.57</time>
   <energy>
    <i name="e_fr_energy">    -92.01095355 </i>
    <i name="e_wo_entrp">    -92.01095355 </i>
    <i name="e_0_energy">    -92.01095355 </i>
   </energy>
  </scstep>
  <scstep>
   <time name="dav">    5.11    5.11</time>
   <time name="total">    5.47    5.49</time>
   <energy>
    <i name="e_fr_energy">    -92.12055753 </i>
    <i name="e_wo_entrp">    -92.12055753 </i>
    <i name="e_0_energy">    -92.12055753 </i>
   </energy>
  </scstep>
  <scstep>
   <time name="dav">    5.21    5.22</time>
   <time name="total">    5.62    5.62</time>
   <energy>
    <i name="e_fr_energy">    -92.15793464 </i>
    <i name="e_wo_entrp">    -92.15793464 </i>
    <i name="e_0_energy">    -92.15793464 </i>
   </energy>
  </scstep>
  <scstep>
   <time name="dav">    3.96    3.97</time>
   <time name="total">    4.32    4.33</time>
   <energy>
    <i name="e_fr_energy">    -92.17325398 </i>
    <i name="e_wo_entrp">    -92.17325398 </i>
    <i name="e_0_energy">    -92.17325398 </i>
   </energy>
  </scstep>
  <scstep>
   <time name="dav">    3.88    3.88</time>
   <time name="total">    4.24    4.34</time>
   <energy>
    <i name="e_fr_energy">    -92.18404754 </i>
    <i name="e_wo_entrp">    -92.18404754 </i>
    <i name="e_0_energy">    -92.18404754 </i>
   </energy>
  </scstep>
  <scstep>
   <time name="dav">    3.80    3.80</time>
   <time name="total">    4.19    4.20</time>
   <energy>
    <i name="e_fr_energy">    -92.19166939 </i>
    <i name="e_wo_entrp">    -92.19166939 </i>
    <i name="e_0_energy">    -92.19166939 </i>
   </energy>
  </scstep>
  <scstep>
   <time name="dav">    3.85    3.85</time>
   <time name="total">    4.22    4.79</time>
   <energy>
    <i name="e_fr_energy">    -92.19831943 </i>
    <i name="e_wo_entrp">    -92.19831943 </i>
    <i name="e_0_energy">    -92.19831943 </i>
   </energy>
  </scstep>
  <scstep>
   <time name="dav">    3.80    3.81</time>
   <time name="total">    4.16    4.40</time>
   <energy>
    <i name="e_fr_energy">    -92.20093075 </i>
    <i name="e_wo_entrp">    -92.20093075 </i>
    <i name="e_0_energy">    -92.20093075 </i>
   </energy>
  </scstep>
  <scstep>
   <time name="dav">    3.69    3.69</time>
   <time name="total">    4.10    4.13</time>
   <energy>
    <i name="e_fr_energy">    -92.20315674 </i>
    <i name="e_wo_entrp">    -92.20315674 </i>
    <i name="e_0_energy">    -92.20315674 </i>
   </energy>
  </scstep>
  <scstep>
   <time name="dav">    3.73    3.74</time>
   <time name="total">    4.09    4.12</time>
   <energy>
    <i name="e_fr_energy">    -92.20444966 </i>
    <i name="e_wo_entrp">    -92.20444966 </i>
    <i name="e_0_energy">    -92.20444966 </i>
   </energy>
  </scstep>
  <scstep>
   <time name="dav">    3.62    3.62</time>
   <time name="total">    3.98    4.02</time>
   <energy>
    <i name="e_fr_energy">    -92.20460851 </i>
    <i name="e_wo_entrp">    -92.20460851 </i>
    <i name="e_0_energy">    -92.20460851 </i>
   </energy>
  </scstep>
  <scstep>
   <time name="dav">    4.76    4.77</time>
   <time name="total">    5.12    5.16</time>
   <energy>
    <i name="e_fr_energy">    -92.20472683 </i>
    <i name="e_wo_entrp">    -92.20472683 </i>
    <i name="e_0_energy">    -92.20472683 </i>
   </energy>
  </scstep>
  <scstep>
   <time name="dav">    3.70    3.70</time>
   <time name="total">    3.92    3.94</time>
   <energy>
    <i name="alphaZ">    132.50715220 </i>
    <i name="ewald"> 122726.86314648 </i>
    <i name="hartreedc">-166491.15057495 </i>
    <i name="XCdc">   -495.38563809 </i>
    <i name="pawpsdc">  48179.98285945 </i>
    <i name="pawaedc"> -46242.93878538 </i>
    <i name="eentropy">      0.00000000 </i>
    <i name="bandstr">  -3538.82264945 </i>
    <i name="atom">  45636.73972380 </i>
    <i name="e_fr_energy">    -92.20476594 </i>
    <i name="e_wo_entrp">    -92.20476594 </i>
    <i name="e_0_energy">    -92.20476594 </i>
   </energy>
  </scstep>
  <structure>
   <crystal>
    <varray name="basis" >
     <v>      23.16292519       0.00000000       0.00000000 </v>
     <v>       0.00000000      23.16292519       0.00000000 </v>
     <v>       0.00000000       0.00000000      23.16292519 </v>
    </varray>
    <i name="volume">  12427.39817629 </i>
    <varray name="rec_basis" >
     <v>       0.04317244       0.00000000       0.00000000 </v>
     <v>       0.00000000       0.04317244       0.00000000 </v>
     <v>       0.00000000       0.00000000       0.04317244 </v>
    </varray>
   </crystal>
   <varray name="positions" >
    <v>       0.40626155       0.60289644       0.63413144 </v>
    <v>       0.48417450       0.71622917       0.47213652 </v>
    <v>       0.27713008       0.52039550       0.49744685 </v>
    <v>       0.39380828       0.65262358       0.51873975 </v>
    <v>       0.43577305       0.63392774       0.40268977 </v>
    <v>       0.35632547       0.50118986       0.59512541 </v>
    <v>       0.49051215       0.67361370       0.58575947 </v>
    <v>       0.58848639       0.67646593       0.50683811 </v>
    <v>       0.30323679       0.60559329       0.57558897 </v>
    <v>       0.51140133       0.60448275       0.68233398 </v>
    <v>       0.39066450       0.53660554       0.48964014 </v>
    <v>       0.30173938       0.46633039       0.39662226 </v>
    <v>       0.50708811       0.54175535       0.37370448 </v>
    <v>       0.55540129       0.65311595       0.39279874 </v>
    <v>       0.45864263       0.49922041       0.65643041 </v>
    <v>       0.47638813       0.42485081       0.36756614 </v>
    <v>       0.49871658       0.59017831       0.49417768 </v>
    <v>       0.62311705       0.60064694       0.72552982 </v>
    <v>       0.35134001       0.42565969       0.50010852 </v>
    <v>       0.42622790       0.40489417       0.59073516 </v>
    <v>       0.39202240       0.53272686       0.37275741 </v>
    <v>       0.55987902       0.55048096       0.58441189 </v>
    <v>       0.60327739       0.65783554       0.62238654 </v>
    <v>       0.37137406       0.37092099       0.39240034 </v>
    <v>       0.49700007       0.47137422       0.52412287 </v>
    <v>       0.38030706       0.44190185       0.30125926 </v>
    <v>       0.58881325       0.52008878       0.47606438 </v>
    <v>       0.62012801       0.56502248       0.34177443 </v>
    <v>       0.66185222       0.60876280       0.43903088 </v>
    <v>       0.57509801       0.50034199       0.69346961 </v>
    <v>       0.45026430       0.36934789       0.47666536 </v>
    <v>       0.52390678       0.39925949       0.65897038 </v>
    <v>       0.69394134       0.64572238       0.54462372 </v>
    <v>       0.59000820       0.45685234       0.37376336 </v>
    <v>       0.67968597       0.56555059       0.62714306 </v>
    <v>       0.54493663       0.36725550       0.54534216 </v>
    <v>       0.70553471       0.52917704       0.52017600 </v>
    <v>       0.62106115       0.39753860       0.72777882 </v>
    <v>       0.55748621       0.36128009       0.42905839 </v>
    <v>       0.69718035       0.49385900       0.40517260 </v>
    <v>       0.63024393       0.40941737       0.60947994 </v>
    <v>       0.64609174       0.41811189       0.48995097 </v>
    <v>       0.73558403       0.43228754       0.57181865 </v>
    <v>       0.70355527       0.46987554       0.67994262 </v>
   </varray>
  </structure>
  <varray name="forces" >
   <v>      -0.23425989       0.21439922      -0.02788905 </v>
   <v>       0.03106564       0.23474577      -0.02674316 </v>
   <v>      -0.50392538       0.11326040       0.07602864 </v>
   <v>      -0.12880597       0.05949507      -0.00022729 </v>
   <v>      -0.16918212       0.18305436       0.03671286 </v>
   <v>      -0.28159460      -0.04491202       0.41871640 </v>
   <v>       0.07908413       0.26963350       0.18782949 </v>
   <v>      -0.05388188       0.17028979      -0.03547069 </v>
   <v>      -0.36877505      -0.01280477       0.05792774 </v>
   <v>       0.00292115       0.09135336       0.26363470 </v>
   <v>       0.50320097       0.49894953      -0.17341176 </v>
   <v>      -0.34504187      -0.18270345      -0.07365839 </v>
   <v>       0.19059941       0.08593012      -0.09178699 </v>
   <v>       0.11691349      -0.03311345       0.01665081 </v>
   <v>       0.10109411       0.13055412      -0.10975605 </v>
   <v>      -0.19238953      -0.08013009      -0.01522428 </v>
   <v>      -0.56769290       0.40161412      -0.37862741 </v>
   <v>       0.31476421       0.03695670       0.14598726 </v>
   <v>      -0.49227930      -0.42111562      -0.22920489 </v>
   <v>       0.07429338      -0.42358025      -0.02213226 </v>
   <v>      -0.16796714      -0.19552177      -0.37968292 </v>
   <v>       0.15352755       0.04257073       0.65262615 </v>
   <v>       0.17555790       0.25388779       0.28746623 </v>
   <v>      -0.22805525      -0.40353617       0.00258151 </v>
   <v>      -0.70727682       0.10546510       0.01067672 </v>
   <v>      -0.26841451       0.13226808      -0.28855187 </v>
   <v>       0.84273437       0.03602123      -0.67990386 </v>
   <v>       0.08748463       0.10101964      -0.51840754 </v>
   <v>       0.32220887       0.29563990      -0.20070921 </v>
   <v>       0.28053398      -0.11664576       0.06746510 </v>
   <v>      -0.03667181      -0.38472875      -0.08943560 </v>
   <v>      -0.15913598      -0.17257918       0.04685664 </v>
   <v>       0.45387969       0.25192227       0.21184509 </v>
   <v>       0.15898543      -0.33198116      -0.23637896 </v>
   <v>      -0.02139592       0.28787214       0.22982668 </v>
   <v>       0.00328932      -0.41013938       0.12285347 </v>
   <v>      -0.08948160       0.01900088      -0.37078821 </v>
   <v>       0.13579855      -0.12796925       0.26558024 </v>
   <v>       0.17377462      -0.16680155      -0.03128521 </v>
   <v>       0.02667667       0.10159630       0.26418307 </v>
   <v>       0.08815659       0.01682364       0.15013245 </v>
   <v>       0.17215038      -0.17513945      -0.06950190 </v>
   <v>       0.42311832      -0.19331988      -0.07439224 </v>
   <v>       0.10441414      -0.25760182       0.60758848 </v>
  </varray>
  <varray name="stress" >
   <v>       0.83068684       0.30859117       0.64623719 </v>
   <v>       0.30859117       0.20022557       0.14103114 </v>
   <v>       0.64623718       0.14103114       0.21485905 </v>
  </varray>
  <energy>
   <i name="e_fr_energy">    -92.20476594 </i>
   <i name="e_wo_entrp">    -92.20476594 </i>
   <i name="e_0_energy">      0.00000000 </i>
  </energy>
  <time name="totalsc">  185.68  198.78</time>
 </calculation>
 <calculation>
  <scstep>
   <time name="dav">    5.08    5.08</time>
   <time name="total">    5.43    5.45</time>
   <energy>
    <i name="alphaZ">    132.50715220 </i>
    <i name="ewald"> 122547.48084064 </i>
    <i name="hartreedc">-166312.71028208 </i>
    <i name="XCdc">   -495.56161446 </i>
    <i name="pawpsdc">  48179.98029515 </i>
    <i name="pawaedc"> -46242.93670878 </i>
    <i name="eentropy">      0.00000000 </i>
    <i name="bandstr">  -3537.78582222 </i>
    <i name="atom">  45636.73972380 </i>
    <i name="e_fr_energy">    -92.28641574 </i>
    <i name="e_wo_entrp">    -92.28641574 </i>
    <i name="e_0_energy">    -92.28641574 </i>
   </energy>
  </scstep>
  <scstep>
   <time name="dav">    5.05    5.06</time>
   <time name="total">    5.41    5.42</time>
   <energy>
    <i name="e_fr_energy">    -92.28905993 </i>
    <i name="e_wo_entrp">    -92.28905993 </i>
    <i name="e_0_energy">    -92.28905993 </i>
   </energy>
  </scstep>
  <scstep>
   <time name="dav">    5.08    5.09</time>
   <time name="total">    5.34    5.35</time>
   <energy>
    <i name="alphaZ">    132.50715220 </i>
    <i name="ewald"> 122547.48084064 </i>
    <i name="hartreedc">-166313.80269165 </i>
    <i name="XCdc">   -495.53812171 </i>
    <i name="pawpsdc">  48163.52574701 </i>
    <i name="pawaedc"> -46226.21728551 </i>
    <i name="eentropy">      0.00000000 </i>
    <i name="bandstr">  -3536.98433881 </i>
    <i name="atom">  45636.73972380 </i>
    <i name="e_fr_energy">    -92.28897402 </i>
    <i name="e_wo_entrp">    -92.28897402 </i>
    <i name="e_0_energy">    -92.28897402 </i>
   </energy>
  </scstep>
  <structure>
   <crystal>
    <varray name="basis" >
     <v>      23.16292519       0.00000000       0.00000000 </v>
     <v>       0.00000000      23.16292519       0.00000000 </v>
     <v>       0.00000000       0.00000000      23.16292519 </v>
    </varray>
    <i name="volume">  12427.39817629 </i>
    <varray name="rec_basis" >
     <v>       0.04317244       0.00000000       0.00000000 </v>
     <v>       0.00000000       0.04317244       0.00000000 </v>
     <v>       0.00000000       0.00000000       0.04317244 </v>
    </varray>
   </crystal>
   <varray name="positions" >
    <v>       0.40616397       0.60298575       0.63411982 </v>
    <v>       0.48418744       0.71632695       0.47212538 </v>
    <v>       0.27692017       0.52044268       0.49747852 </v>
    <v>       0.39375463       0.65264836       0.51873966 </v>
    <v>       0.43570257       0.63400399       0.40270507 </v>
    <v>       0.35620817       0.50117115       0.59529982 </v>
    <v>       0.49054510       0.67372602       0.58583771 </v>
    <v>       0.58846394       0.67653686       0.50682333 </v>
    <v>       0.30308317       0.60558796       0.57561310 </v>
    <v>       0.51140254       0.60452080       0.68244380 </v>
    <v>       0.39087411       0.53681338       0.48956790 </v>
    <v>       0.30159565       0.46625429       0.39659158 </v>
    <v>       0.50716751       0.54179114       0.37366625 </v>
    <v>       0.55544999       0.65310215       0.39280567 </v>
    <v>       0.45868474       0.49927479       0.65638470 </v>
    <v>       0.47630799       0.42481743       0.36755980 </v>
    <v>       0.49848011       0.59034560       0.49401996 </v>
    <v>       0.62324817       0.60066233       0.72559063 </v>
    <v>       0.35113495       0.42548427       0.50001304 </v>
    <v>       0.42625885       0.40471773       0.59072594 </v>
    <v>       0.39195244       0.53264541       0.37259925 </v>
    <v>       0.55994297       0.55049870       0.58468374 </v>
    <v>       0.60335052       0.65794129       0.62250628 </v>
    <v>       0.37127907       0.37075290       0.39240141 </v>
    <v>       0.49670546       0.47141815       0.52412731 </v>
    <v>       0.38019525       0.44195694       0.30113906 </v>
    <v>       0.58916429       0.52010378       0.47578117 </v>
    <v>       0.62016445       0.56506456       0.34155849 </v>
    <v>       0.66198643       0.60888595       0.43894727 </v>
    <v>       0.57521486       0.50029340       0.69349771 </v>
    <v>       0.45024902       0.36918763       0.47662811 </v>
    <v>       0.52384049       0.39918761       0.65898990 </v>
    <v>       0.69413041       0.64582732       0.54471196 </v>
    <v>       0.59007443       0.45671406       0.37366489 </v>
    <v>       0.67967706       0.56567050       0.62723879 </v>
    <v>       0.54493800       0.36708465       0.54539334 </v>
    <v>       0.70549743       0.52918496       0.52002155 </v>
    <v>       0.62111771       0.39748530       0.72788945 </v>
    <v>       0.55755860       0.36121061       0.42904536 </v>
    <v>       0.69719146       0.49390132       0.40528265 </v>
    <v>       0.63028065       0.40942438       0.60954248 </v>
    <v>       0.64616345       0.41803894       0.48992202 </v>
    <v>       0.73576028       0.43220701       0.57178766 </v>
    <v>       0.70359876       0.46976823       0.68019571 </v>
   </varray>
  </structure>
  <varray name="forces" >
   <v>      -0.22057007       0.20754350      -0.02567738 </v>
   <v>       0.02679093       0.22983477      -0.02476178 </v>
   <v>      -0.44627085       0.10159200       0.06864694 </v>
   <v>      -0.13233733       0.07292586       0.01052574 </v>
   <v>      -0.17211439       0.16715961       0.01645577 </v>
   <v>      -0.26465447      -0.04994541       0.37295930 </v>
   <v>       0.07657087       0.25843937       0.18028262 </v>
   <v>      -0.03342557       0.15315648      -0.02052937 </v>
   <v>      -0.35524609      -0.01502697       0.05496490 </v>
   <v>      -0.00000044       0.09265586       0.26192731 </v>
   <v>       0.41599344       0.43105941      -0.14787357 </v>
   <v>      -0.33136478      -0.17682820      -0.06822791 </v>
   <v>       0.17527044       0.07852901      -0.08838125 </v>
   <v>       0.11316963      -0.03378420       0.01684963 </v>
   <v>       0.09939816       0.12514522      -0.11593719 </v>
   <v>      -0.18887450      -0.07572100      -0.01308586 </v>
   <v>      -0.46341812       0.34687476      -0.33559664 </v>
   <v>       0.30169168       0.03508231       0.14570348 </v>
   <v>      -0.46778259      -0.37422617      -0.21148555 </v>
   <v>       0.05531870      -0.40660940      -0.02657330 </v>
   <v>      -0.15037957      -0.17698955      -0.36299794 </v>
   <v>       0.12677872       0.03195937       0.54110178 </v>
   <v>       0.16987787       0.25521638       0.27192415 </v>
   <v>      -0.22706930      -0.38383693      -0.01238970 </v>
   <v>      -0.62801684       0.13564447      -0.00455310 </v>
   <v>      -0.26438290       0.11293351      -0.27028218 </v>
   <v>       0.72075958       0.05800256      -0.59063986 </v>
   <v>       0.08894632       0.09141238      -0.48911630 </v>
   <v>       0.31840640       0.30065771      -0.20189757 </v>
   <v>       0.27443622      -0.11791436       0.07108159 </v>
   <v>      -0.03722937      -0.37113555      -0.08428485 </v>
   <v>      -0.14019527      -0.16240601       0.05162185 </v>
   <v>       0.43084023       0.24214773       0.19702720 </v>
   <v>       0.15134789      -0.31430761      -0.24295185 </v>
   <v>      -0.00252551       0.24438856       0.21941222 </v>
   <v>      -0.00065182      -0.37861650       0.11158853 </v>
   <v>      -0.08294412       0.02016552      -0.31873320 </v>
   <v>       0.12358807      -0.12896934       0.25984703 </v>
   <v>       0.16297048      -0.16353924      -0.02397505 </v>
   <v>       0.02296880       0.09970814       0.24363493 </v>
   <v>       0.09261352       0.02123379       0.14087431 </v>
   <v>       0.16855560      -0.18005314      -0.05615651 </v>
   <v>       0.39288361      -0.17486640      -0.06483644 </v>
   <v>       0.10027670      -0.22869230       0.56451507 </v>
  </varray>
  <varray name="stress" >
   <v>       0.70610869       0.31589547       0.64600967 </v>
   <v>       0.31589548       0.09116224       0.14585871 </v>
   <v>       0.64600968       0.14585871       0.10416476 </v>
  </varray>
  <energy>
   <i name="e_fr_energy">    -92.28897402 </i>
   <i name="e_wo_entrp">    -92.28897402 </i>
   <i name="e_0_energy">      0.00000000 </i>
  </energy>
  <time name="totalsc">   25.51   26.37</time>
 </calculation>
 <calculation>
  <scstep>
   <time name="dav">    4.93    4.94</time>
   <time name="total">    5.28    5.30</time>
   <energy>
    <i name="alphaZ">    132.50715220 </i>
    <i name="ewald"> 122011.72253319 </i>
    <i name="hartreedc">-165781.06935821 </i>
    <i name="XCdc">   -496.04431466 </i>
    <i name="pawpsdc">  48153.80029095 </i>
    <i name="pawaedc"> -46216.34149192 </i>
    <i name="eentropy">      0.00000000 </i>
    <i name="bandstr">  -3533.79036270 </i>
    <i name="atom">  45636.73972380 </i>
    <i name="e_fr_energy">    -92.47582736 </i>
    <i name="e_wo_entrp">    -92.47582736 </i>
    <i name="e_0_energy">    -92.47582736 </i>
   </energy>
  </scstep>
  <scstep>
   <time name="dav">    5.06    5.06</time>
   <time name="total">    5.41    5.42</time>
   <energy>
    <i name="e_fr_energy">    -92.49959329 </i>
    <i name="e_wo_entrp">    -92.49959329 </i>
    <i name="e_0_energy">    -92.49959329 </i>
   </energy>
  </scstep>
  <scstep>
   <time name="dav">    5.03    5.04</time>
   <time name="total">    5.38    6.15</time>
   <energy>
    <i name="e_fr_energy">    -92.49892802 </i>
    <i name="e_wo_entrp">    -92.49892802 </i>
    <i name="e_0_energy">    -92.49892802 </i>
   </energy>
  </scstep>
  <scstep>
   <time name="dav">    5.14    5.14</time>
   <time name="total">    5.56    5.57</time>
   <energy>
    <i name="e_fr_energy">    -92.49860468 </i>
    <i name="e_wo_entrp">    -92.49860468 </i>
    <i name="e_0_energy">    -92.49860468 </i>
   </energy>
  </scstep>
  <scstep>
   <time name="dav">    3.72    3.73</time>
   <time name="total">    3.94    4.44</time>
   <energy>
    <i name="alphaZ">    132.50715220 </i>
    <i name="ewald"> 122011.72253319 </i>
    <i name="hartreedc">-165784.89094418 </i>
    <i name="XCdc">   -495.95532318 </i>
    <i name="pawpsdc">  48078.43529504 </i>
    <i name="pawaedc"> -46139.75056908 </i>
    <i name="eentropy">      0.00000000 </i>
    <i name="bandstr">  -3531.30643178 </i>
    <i name="atom">  45636.73972380 </i>
    <i name="e_fr_energy">    -92.49856400 </i>
    <i name="e_wo_entrp">    -92.49856400 </i>
    <i name="e_0_energy">    -92.49856400 </i>
   </energy>
  </scstep>
  <structure>
   <crystal>
    <varray name="basis" >
     <v>      23.16292519       0.00000000       0.00000000 </v>
     <v>       0.00000000      23.16292519       0.00000000 </v>
     <v>       0.00000000       0.00000000      23.16292519 </v>
    </varray>
    <i name="volume">  12427.39817629 </i>
    <varray name="rec_basis" >
     <v>       0.04317244       0.00000000       0.00000000 </v>
     <v>       0.00000000       0.04317244       0.00000000 </v>
     <v>       0.00000000       0.00000000       0.04317244 </v>
    </varray>
   </crystal>
   <varray name="positions" >
    <v>       0.40587122       0.60325368       0.63408497 </v>
    <v>       0.48422626       0.71662030       0.47209196 </v>
    <v>       0.27629044       0.52058422       0.49757353 </v>
    <v>       0.39359367       0.65272271       0.51873938 </v>
    <v>       0.43549115       0.63423275       0.40275095 </v>
    <v>       0.35585627       0.50111503       0.59582307 </v>
    <v>       0.49064392       0.67406297       0.58607244 </v>
    <v>       0.58839661       0.67674966       0.50677900 </v>
    <v>       0.30262233       0.60557196       0.57568549 </v>
    <v>       0.51140619       0.60463496       0.68277325 </v>
    <v>       0.39150294       0.53743689       0.48935120 </v>
    <v>       0.30116447       0.46602597       0.39649953 </v>
    <v>       0.50740569       0.54189852       0.37355155 </v>
    <v>       0.55559609       0.65306077       0.39282648 </v>
    <v>       0.45881107       0.49943794       0.65624754 </v>
    <v>       0.47606757       0.42471730       0.36754077 </v>
    <v>       0.49777069       0.59084748       0.49354681 </v>
    <v>       0.62364152       0.60070852       0.72577307 </v>
    <v>       0.35051977       0.42495803       0.49972662 </v>
    <v>       0.42635169       0.40418840       0.59069828 </v>
    <v>       0.39174254       0.53240108       0.37212478 </v>
    <v>       0.56013483       0.55055189       0.58549930 </v>
    <v>       0.60356991       0.65825856       0.62286551 </v>
    <v>       0.37099408       0.37024862       0.39240464 </v>
    <v>       0.49582161       0.47154994       0.52414066 </v>
    <v>       0.37985983       0.44212223       0.30077847 </v>
    <v>       0.59021741       0.52014880       0.47493153 </v>
    <v>       0.62027377       0.56519080       0.34091066 </v>
    <v>       0.66238908       0.60925540       0.43869645 </v>
    <v>       0.57556543       0.50014764       0.69358202 </v>
    <v>       0.45020319       0.36870685       0.47651634 </v>
    <v>       0.52364163       0.39897194       0.65904845 </v>
    <v>       0.69469760       0.64614213       0.54497669 </v>
    <v>       0.59027311       0.45629920       0.37336950 </v>
    <v>       0.67965032       0.56603024       0.62752600 </v>
    <v>       0.54494211       0.36657212       0.54554686 </v>
    <v>       0.70538561       0.52920870       0.51955820 </v>
    <v>       0.62128741       0.39732538       0.72822133 </v>
    <v>       0.55777576       0.36100216       0.42900626 </v>
    <v>       0.69722479       0.49402828       0.40561278 </v>
    <v>       0.63039081       0.40944541       0.60973009 </v>
    <v>       0.64637858       0.41782008       0.48983517 </v>
    <v>       0.73628903       0.43196543       0.57169470 </v>
    <v>       0.70372924       0.46944632       0.68095499 </v>
   </varray>
  </structure>
  <varray name="forces" >
   <v>      -0.18438998       0.19097648      -0.01974066 </v>
   <v>       0.01544195       0.22125060      -0.01899812 </v>
   <v>      -0.29533427       0.06843427       0.04898805 </v>
   <v>      -0.14578685       0.11446608       0.04217338 </v>
   <v>      -0.18467038       0.12719979      -0.04347818 </v>
   <v>      -0.21927327      -0.06124548       0.25190696 </v>
   <v>       0.06979673       0.22807693       0.16071154 </v>
   <v>       0.02225167       0.10825188       0.02058387 </v>
   <v>      -0.32040136      -0.02269467       0.04805153 </v>
   <v>      -0.00937952       0.09811025       0.26042135 </v>
   <v>       0.17851274       0.25021820      -0.08382680 </v>
   <v>      -0.29667826      -0.16192698      -0.05378513 </v>
   <v>       0.13521388       0.05736816      -0.07954133 </v>
   <v>       0.10513780      -0.03607676       0.01749345 </v>
   <v>       0.09522338       0.11124643      -0.13341041 </v>
   <v>      -0.18002531      -0.06400446      -0.00694240 </v>
   <v>      -0.17778795       0.20844993      -0.22650474 </v>
   <v>       0.26867328       0.03107707       0.14877665 </v>
   <v>      -0.41152412      -0.25330218      -0.16504230 </v>
   <v>       0.00358443      -0.36405211      -0.03844496 </v>
   <v>      -0.10233440      -0.12587471      -0.31939132 </v>
   <v>       0.05967502       0.00556034       0.25633771 </v>
   <v>       0.15549654       0.26222416       0.23162737 </v>
   <v>      -0.22646155      -0.32997645      -0.05281038 </v>
   <v>      -0.43186859       0.21424288      -0.04191867 </v>
   <v>      -0.25675670       0.05955494      -0.22500778 </v>
   <v>       0.40566967       0.11520473      -0.36728848 </v>
   <v>       0.09385549       0.06605512      -0.41271332 </v>
   <v>       0.30856443       0.31611490      -0.20972045 </v>
   <v>       0.26142193      -0.12335901       0.08211325 </v>
   <v>      -0.03924713      -0.33485578      -0.07050871 </v>
   <v>      -0.08891548      -0.13673111       0.06580439 </v>
   <v>       0.37750998       0.21812950       0.15819114 </v>
   <v>       0.13014171      -0.26702957      -0.26824037 </v>
   <v>       0.04893674       0.12717895       0.19327107 </v>
   <v>      -0.01161424      -0.29788393       0.08209362 </v>
   <v>      -0.06160120       0.02475590      -0.17231295 </v>
   <v>       0.09102552      -0.13401714       0.24922343 </v>
   <v>       0.13544150      -0.16260972      -0.00396880 </v>
   <v>       0.01506479       0.09555829       0.18509153 </v>
   <v>       0.10595418       0.03377437       0.11671675 </v>
   <v>       0.16004768      -0.19962231      -0.02004349 </v>
   <v>       0.31206430      -0.12712442      -0.04111323 </v>
   <v>       0.08934518      -0.15109336       0.45517595 </v>
  </varray>
  <varray name="stress" >
   <v>       0.39880982       0.33523893       0.64748274 </v>
   <v>       0.33523893      -0.17228371       0.15663931 </v>
   <v>       0.64748273       0.15663932      -0.16893354 </v>
  </varray>
  <energy>
   <i name="e_fr_energy">    -92.49856400 </i>
   <i name="e_wo_entrp">    -92.49856400 </i>
   <i name="e_0_energy">      0.00000000 </i>
  </energy>
  <time name="totalsc">   35.01   44.46</time>
 </calculation>
 <calculation>
  <scstep>
   <time name="dav">    4.93    4.93</time>
   <time name="total">    5.28    5.30</time>
   <energy>
    <i name="alphaZ">    132.50715220 </i>
    <i name="ewald"> 120950.77258612 </i>
    <i name="hartreedc">-164728.63277531 </i>
    <i name="XCdc">   -496.90632885 </i>
    <i name="pawpsdc">  48079.19213737 </i>
    <i name="pawaedc"> -46140.51966693 </i>
    <i name="eentropy">     -0.00000000 </i>
    <i name="bandstr">  -3525.80565777 </i>
    <i name="atom">  45636.73972380 </i>
    <i name="e_fr_energy">    -92.65282937 </i>
    <i name="e_wo_entrp">    -92.65282937 </i>
    <i name="e_0_energy">    -92.65282937 </i>
   </energy>
  </scstep>
  <scstep>
   <time name="dav">    5.02    5.03</time>
   <time name="total">    5.42    5.43</time>
   <energy>
    <i name="e_fr_energy">    -92.74871237 </i>
    <i name="e_wo_entrp">    -92.74871237 </i>
    <i name="e_0_energy">    -92.74871237 </i>
   </energy>
  </scstep>
  <scstep>
   <time name="dav">    4.95    4.96</time>
   <time name="total">    5.34    5.38</time>
   <energy>
    <i name="e_fr_energy">    -92.74672614 </i>
    <i name="e_wo_entrp">    -92.74672614 </i>
    <i name="e_0_energy">    -92.74672614 </i>
   </energy>
  </scstep>
  <scstep>
   <time name="dav">    5.11    5.12</time>
   <time name="total">    5.48    5.49</time>
   <energy>
    <i name="e_fr_energy">    -92.74474605 </i>
    <i name="e_wo_entrp">    -92.74474605 </i>
    <i name="e_0_energy">    -92.74474605 </i>
   </energy>
  </scstep>
  <scstep>
   <time name="dav">    3.73    3.73</time>
   <time name="total">    3.95    4.05</time>
   <energy>
    <i name="alphaZ">    132.50715220 </i>
    <i name="ewald"> 120950.77258612 </i>
    <i name="hartreedc">-164736.07452866 </i>
    <i name="XCdc">   -496.73682023 </i>
    <i name="pawpsdc">  47948.06552220 </i>
    <i name="pawaedc"> -46007.16642603 </i>
    <i name="eentropy">      0.00000000 </i>
    <i name="bandstr">  -3520.85192517 </i>
    <i name="atom">  45636.73972380 </i>
    <i name="e_fr_energy">    -92.74471576 </i>
    <i name="e_wo_entrp">    -92.74471576 </i>
    <i name="e_0_energy">    -92.74471576 </i>
   </energy>
  </scstep>
  <structure>
   <crystal>
    <varray name="basis" >
     <v>      23.16292519       0.00000000       0.00000000 </v>
     <v>       0.00000000      23.16292519       0.00000000 </v>
     <v>       0.00000000       0.00000000      23.16292519 </v>
    </varray>
    <i name="volume">  12427.39817629 </i>
    <varray name="rec_basis" >
     <v>       0.04317244       0.00000000       0.00000000 </v>
     <v>       0.00000000       0.04317244       0.00000000 </v>
     <v>       0.00000000       0.00000000       0.04317244 </v>
    </varray>
   </crystal>
   <varray name="positions" >
    <v>       0.40528574       0.60378953       0.63401526 </v>
    <v>       0.48430391       0.71720701       0.47202512 </v>
    <v>       0.27503098       0.52086729       0.49776355 </v>
    <v>       0.39327174       0.65287140       0.51873881 </v>
    <v>       0.43506832       0.63469026       0.40284270 </v>
    <v>       0.35515248       0.50100278       0.59686957 </v>
    <v>       0.49084158       0.67473686       0.58654188 </v>
    <v>       0.58826194       0.67717527       0.50669035 </v>
    <v>       0.30170065       0.60553995       0.57583027 </v>
    <v>       0.51141350       0.60486328       0.68343215 </v>
    <v>       0.39276059       0.53868392       0.48891779 </v>
    <v>       0.30030210       0.46556934       0.39631544 </v>
    <v>       0.50788205       0.54211329       0.37332214 </v>
    <v>       0.55588829       0.65297801       0.39286810 </v>
    <v>       0.45906374       0.49976424       0.65597323 </v>
    <v>       0.47558673       0.42451703       0.36750272 </v>
    <v>       0.49635186       0.59185124       0.49260050 </v>
    <v>       0.62442821       0.60080088       0.72613793 </v>
    <v>       0.34928942       0.42390553       0.49915376 </v>
    <v>       0.42653737       0.40312974       0.59064297 </v>
    <v>       0.39132273       0.53191241       0.37117584 </v>
    <v>       0.56051854       0.55065829       0.58713041 </v>
    <v>       0.60400868       0.65889311       0.62358398 </v>
    <v>       0.37042410       0.36924006       0.39241109 </v>
    <v>       0.49405391       0.47181353       0.52416734 </v>
    <v>       0.37918898       0.44245281       0.30005729 </v>
    <v>       0.59232366       0.52023882       0.47323224 </v>
    <v>       0.62049242       0.56544328       0.33961500 </v>
    <v>       0.66319438       0.60999429       0.43819482 </v>
    <v>       0.57626657       0.49985610       0.69375064 </v>
    <v>       0.45011154       0.36774530       0.47629282 </v>
    <v>       0.52324390       0.39854061       0.65916556 </v>
    <v>       0.69583198       0.64677176       0.54550616 </v>
    <v>       0.59067046       0.45546947       0.37277872 </v>
    <v>       0.67959685       0.56674972       0.62810040 </v>
    <v>       0.54495033       0.36554706       0.54585391 </v>
    <v>       0.70516197       0.52925619       0.51863148 </v>
    <v>       0.62162682       0.39700555       0.72888510 </v>
    <v>       0.55821007       0.36058528       0.42892807 </v>
    <v>       0.69729147       0.49428220       0.40627306 </v>
    <v>       0.63061114       0.40948745       0.61010532 </v>
    <v>       0.64680884       0.41738235       0.48966146 </v>
    <v>       0.73734653       0.43148226       0.57150877 </v>
    <v>       0.70399021       0.46880249       0.68247353 </v>
   </varray>
  </structure>
  <varray name="forces" >
   <v>      -0.12097060       0.15813714      -0.00916113 </v>
   <v>      -0.00475640       0.19845412      -0.00770163 </v>
   <v>      -0.03354260       0.00158548       0.01169216 </v>
   <v>      -0.17399670       0.20420634       0.10803600 </v>
   <v>      -0.21391181       0.06144210      -0.17442606 </v>
   <v>      -0.13777436      -0.07946238       0.03723604 </v>
   <v>       0.05647508       0.16107247       0.12017691 </v>
   <v>       0.12540748       0.02357907       0.09800264 </v>
   <v>      -0.24725451      -0.03927487       0.03805657 </v>
   <v>      -0.02592474       0.10664272       0.25202108 </v>
   <v>      -0.26338178      -0.06958267       0.00681156 </v>
   <v>      -0.23170797      -0.13222312      -0.02749184 </v>
   <v>       0.05910001       0.01262388      -0.06624207 </v>
   <v>       0.09074558      -0.04104758       0.01918571 </v>
   <v>       0.08708581       0.08312164      -0.16433204 </v>
   <v>      -0.15954011      -0.04167081       0.00634357 </v>
   <v>       0.36924366      -0.00354296      -0.00895317 </v>
   <v>       0.19786123       0.02488041       0.16016331 </v>
   <v>      -0.30883169      -0.05051890      -0.07507452 </v>
   <v>      -0.09121412      -0.27150883      -0.05905607 </v>
   <v>      -0.01108890      -0.02366636      -0.22904757 </v>
   <v>      -0.04511468      -0.03492551      -0.21975526 </v>
   <v>       0.12633051       0.27066478       0.15220073 </v>
   <v>      -0.21608204      -0.21960227      -0.12402973 </v>
   <v>      -0.13583660       0.32228096      -0.08910705 </v>
   <v>      -0.23908591      -0.04750442      -0.14650442 </v>
   <v>      -0.14496437       0.21233052      -0.03308080 </v>
   <v>       0.10501442       0.01969097      -0.29779819 </v>
   <v>       0.28262536       0.34541990      -0.21312164 </v>
   <v>       0.23648197      -0.13767604       0.10900700 </v>
   <v>      -0.04060977      -0.26281780      -0.04137105 </v>
   <v>       0.01048023      -0.08546637       0.09365876 </v>
   <v>       0.25870376       0.16906055       0.08622675 </v>
   <v>       0.08832344      -0.17872102      -0.31638796 </v>
   <v>       0.14822240      -0.08368258       0.14301167 </v>
   <v>      -0.02750424      -0.15602665       0.03107576 </v>
   <v>      -0.00052151       0.03964994       0.12433233 </v>
   <v>       0.02726272      -0.14657183       0.22488279 </v>
   <v>       0.08216275      -0.15538197       0.03580291 </v>
   <v>       0.01445515       0.07700847       0.04201850 </v>
   <v>       0.13094685       0.05647332       0.07327757 </v>
   <v>       0.14519053      -0.23863491       0.05051445 </v>
   <v>       0.15531563      -0.03764472       0.00084052 </v>
   <v>       0.07618086      -0.01117023       0.27806690 </v>
  </varray>
  <varray name="stress" >
   <v>      -0.15445617       0.37335758       0.64022462 </v>
   <v>       0.37335757      -0.64789758       0.17517403 </v>
   <v>       0.64022463       0.17517403      -0.65132865 </v>
  </varray>
  <energy>
   <i name="e_fr_energy">    -92.74471576 </i>
   <i name="e_wo_entrp">    -92.74471576 </i>
   <i name="e_0_energy">      0.00000000 </i>
  </energy>
  <time name="totalsc">   34.91   35.30</time>
 </calculation>
 <calculation>
  <scstep>
   <time name="dav">    4.88    4.88</time>
   <time name="total">    5.27    5.28</time>
   <energy>
    <i name="alphaZ">    132.50715220 </i>
    <i name="ewald"> 118869.71832691 </i>
    <i name="hartreedc">-162662.27584635 </i>
    <i name="XCdc">   -498.37210736 </i>
    <i name="pawpsdc">  47949.37982725 </i>
    <i name="pawaedc"> -46008.50075630 </i>
    <i name="eentropy">      0.00000000 </i>
    <i name="bandstr">  -3511.47381954 </i>
    <i name="atom">  45636.73972380 </i>
    <i name="e_fr_energy">    -92.27749940 </i>
    <i name="e_wo_entrp">    -92.27749940 </i>
    <i name="e_0_energy">    -92.27749940 </i>
   </energy>
  </scstep>
  <scstep>
   <time name="dav">    4.99    4.99</time>
   <time name="total">    5.34    5.36</time>
   <energy>
    <i name="e_fr_energy">    -92.68540688 </i>
    <i name="e_wo_entrp">    -92.68540688 </i>
    <i name="e_0_energy">    -92.68540688 </i>
   </energy>
  </scstep>
  <scstep>
   <time name="dav">    4.99    4.99</time>
   <time name="total">    5.38    5.40</time>
   <energy>
    <i name="e_fr_energy">    -92.68163783 </i>
    <i name="e_wo_entrp">    -92.68163783 </i>
    <i name="e_0_energy">    -92.68163783 </i>
   </energy>
  </scstep>
  <scstep>
   <time name="dav">    5.14    5.14</time>
   <time name="total">    5.49    5.51</time>
   <energy>
    <i name="e_fr_energy">    -92.67143820 </i>
    <i name="e_wo_entrp">    -92.67143820 </i>
    <i name="e_0_energy">    -92.67143820 </i>
   </energy>
  </scstep>
  <scstep>
   <time name="dav">    5.05    5.06</time>
   <time name="total">    5.40    5.43</time>
   <energy>
    <i name="e_fr_energy">    -92.67125536 </i>
    <i name="e_wo_entrp">    -92.67125536 </i>
    <i name="e_0_energy">    -92.67125536 </i>
   </energy>
  </scstep>
  <scstep>
   <time name="dav">    5.12    5.12</time>
   <time name="total">    5.50    7.16</time>
   <energy>
    <i name="e_fr_energy">    -92.67104712 </i>
    <i name="e_wo_entrp">    -92.67104712 </i>
    <i name="e_0_energy">    -92.67104712 </i>
   </energy>
  </scstep>
  <scstep>
   <time name="dav">    3.62    3.63</time>
   <time name="total">    3.87    3.92</time>
   <energy>
    <i name="alphaZ">    132.50715220 </i>
    <i name="ewald"> 118869.71832691 </i>
    <i name="hartreedc">-162675.00995607 </i>
    <i name="XCdc">   -498.05306152 </i>
    <i name="pawpsdc">  47754.57659365 </i>
    <i name="pawaedc"> -45810.06208152 </i>
    <i name="eentropy">      0.00000000 </i>
    <i name="bandstr">  -3503.08776930 </i>
    <i name="atom">  45636.73972380 </i>
    <i name="e_fr_energy">    -92.67107185 </i>
    <i name="e_wo_entrp">    -92.67107185 </i>
    <i name="e_0_energy">    -92.67107185 </i>
   </energy>
  </scstep>
  <structure>
   <crystal>
    <varray name="basis" >
     <v>      23.16292519       0.00000000       0.00000000 </v>
     <v>       0.00000000      23.16292519       0.00000000 </v>
     <v>       0.00000000       0.00000000      23.16292519 </v>
    </varray>
    <i name="volume">  12427.39817629 </i>
    <varray name="rec_basis" >
     <v>       0.04317244       0.00000000       0.00000000 </v>
     <v>       0.00000000       0.04317244       0.00000000 </v>
     <v>       0.00000000       0.00000000       0.04317244 </v>
    </varray>
   </crystal>
   <varray name="positions" >
    <v>       0.40411476       0.60486122       0.63387586 </v>
    <v>       0.48445919       0.71838041       0.47189144 </v>
    <v>       0.27251206       0.52143343       0.49814359 </v>
    <v>       0.39262789       0.65316880       0.51873767 </v>
    <v>       0.43422264       0.63560527       0.40302622 </v>
    <v>       0.35374490       0.50077828       0.59896257 </v>
    <v>       0.49123689       0.67608465       0.58748076 </v>
    <v>       0.58799261       0.67802648       0.50651305 </v>
    <v>       0.29985729       0.60547595       0.57611983 </v>
    <v>       0.51142810       0.60531992       0.68474996 </v>
    <v>       0.39527589       0.54117797       0.48805097 </v>
    <v>       0.29857737       0.46465608       0.39594725 </v>
    <v>       0.50883479       0.54254282       0.37286333 </v>
    <v>       0.55647269       0.65281249       0.39295133 </v>
    <v>       0.45956907       0.50041682       0.65542460 </v>
    <v>       0.47462505       0.42411649       0.36742662 </v>
    <v>       0.49351418       0.59385875       0.49070789 </v>
    <v>       0.62600159       0.60098561       0.72686767 </v>
    <v>       0.34682871       0.42180054       0.49800806 </v>
    <v>       0.42690874       0.40101243       0.59053234 </v>
    <v>       0.39048313       0.53093507       0.36927795 </v>
    <v>       0.56128596       0.55087109       0.59039263 </v>
    <v>       0.60488622       0.66016219       0.62502091 </v>
    <v>       0.36928414       0.36722294       0.39242399 </v>
    <v>       0.49051851       0.47234071       0.52422071 </v>
    <v>       0.37784728       0.44311397       0.29861493 </v>
    <v>       0.59653616       0.52041888       0.46983367 </v>
    <v>       0.62092972       0.56594824       0.33702369 </v>
    <v>       0.66480498       0.61147208       0.43719155 </v>
    <v>       0.57766885       0.49927304       0.69408787 </v>
    <v>       0.44992823       0.36582219       0.47584576 </v>
    <v>       0.52244844       0.39767796       0.65939978 </v>
    <v>       0.69810075       0.64803102       0.54656509 </v>
    <v>       0.59146517       0.45381003       0.37159716 </v>
    <v>       0.67948990       0.56818868       0.62924922 </v>
    <v>       0.54496677       0.36349693       0.54646801 </v>
    <v>       0.70471469       0.52935117       0.51677806 </v>
    <v>       0.62230562       0.39636588       0.73021263 </v>
    <v>       0.55907870       0.35975150       0.42877169 </v>
    <v>       0.69742481       0.49479004       0.40759360 </v>
    <v>       0.63105180       0.40957155       0.61085577 </v>
    <v>       0.64766935       0.41650690       0.48931405 </v>
    <v>       0.73946153       0.43051593       0.57113691 </v>
    <v>       0.70451213       0.46751484       0.68551063 </v>
   </varray>
  </structure>
  <varray name="forces" >
   <v>       0.00793790       0.09826404       0.00795036 </v>
   <v>      -0.04268214       0.14705443       0.01199350 </v>
   <v>       0.28656497      -0.12186080      -0.04934911 </v>
   <v>      -0.25398735       0.40808549       0.25176685 </v>
   <v>      -0.30736403      -0.00578930      -0.48655941 </v>
   <v>       0.00254113      -0.09813390      -0.29090004 </v>
   <v>       0.02683743       0.02071135       0.04371684 </v>
   <v>       0.29172134      -0.12401790       0.23291617 </v>
   <v>      -0.11896351      -0.06657501       0.02631814 </v>
   <v>      -0.05747317       0.12489451       0.20362279 </v>
   <v>      -1.10705498      -0.69641106       0.07070840 </v>
   <v>      -0.11598432      -0.07222949       0.01961751 </v>
   <v>      -0.07150446      -0.07908655      -0.03619578 </v>
   <v>       0.06458881      -0.05106544       0.02308997 </v>
   <v>       0.06172437       0.02858792      -0.20858602 </v>
   <v>      -0.12287572      -0.00190881       0.03380285 </v>
   <v>       1.39284356      -0.16957184       0.40834186 </v>
   <v>       0.05738673       0.01547329       0.22794113 </v>
   <v>      -0.11774597       0.22480481       0.07958244 </v>
   <v>      -0.24428182      -0.10000914      -0.09627927 </v>
   <v>       0.14563406       0.17898533       0.00107858 </v>
   <v>      -0.18337221      -0.06282017      -0.87115140 </v>
   <v>       0.06617740       0.29810659       0.00089402 </v>
   <v>      -0.17371667      -0.01914388      -0.23162534 </v>
   <v>       0.30094632       0.41428232      -0.10603839 </v>
   <v>      -0.21140094      -0.26387882      -0.03126074 </v>
   <v>      -0.94678143       0.33702366       0.32022242 </v>
   <v>       0.10715991      -0.06256804      -0.09009818 </v>
   <v>       0.21439491       0.41723541      -0.20187845 </v>
   <v>       0.18235055      -0.17729116       0.18756855 </v>
   <v>      -0.04299686      -0.13283345       0.00312809 </v>
   <v>       0.18928771       0.01551409       0.14341471 </v>
   <v>      -0.00137921       0.05251668      -0.03985058 </v>
   <v>       0.00688110      -0.02306224      -0.39563121 </v>
   <v>       0.32614656      -0.42670115       0.00476890 </v>
   <v>      -0.04686911       0.07253317      -0.05851417 </v>
   <v>       0.18278811       0.10212267       0.73409419 </v>
   <v>      -0.10084839      -0.17290891       0.16421163 </v>
   <v>      -0.02151073      -0.13340158       0.11087156 </v>
   <v>       0.08854644       0.00164906      -0.37022805 </v>
   <v>       0.16657473       0.09355535       0.00361819 </v>
   <v>       0.11878747      -0.31253532       0.18012894 </v>
   <v>      -0.06526868       0.10334726       0.05734360 </v>
   <v>       0.06624020       0.21905657       0.01143397 </v>
  </varray>
  <varray name="stress" >
   <v>      -0.89986213       0.45053713       0.59972793 </v>
   <v>       0.45053713      -1.31580869       0.20197943 </v>
   <v>       0.59972792       0.20197943      -1.28496031 </v>
  </varray>
  <energy>
   <i name="e_fr_energy">    -92.67107185 </i>
   <i name="e_wo_entrp">    -92.67107185 </i>
   <i name="e_0_energy">      0.00000000 </i>
  </energy>
  <time name="totalsc">   45.70   47.69</time>
 </calculation>
 <calculation>
  <scstep>
   <time name="dav">    4.94    4.94</time>
   <time name="total">    5.29    6.38</time>
   <energy>
    <i name="alphaZ">    132.50715220 </i>
    <i name="ewald"> 120077.98392629 </i>
    <i name="hartreedc">-163880.63064802 </i>
    <i name="XCdc">   -497.10152383 </i>
    <i name="pawpsdc">  47754.34490274 </i>
    <i name="pawaedc"> -45809.82470170 </i>
    <i name="eentropy">      0.00000000 </i>
    <i name="bandstr">  -3506.68534010 </i>
    <i name="atom">  45636.73972380 </i>
    <i name="e_fr_energy">    -92.66650861 </i>
    <i name="e_wo_entrp">    -92.66650861 </i>
    <i name="e_0_energy">    -92.66650861 </i>
   </energy>
  </scstep>
  <scstep>
   <time name="dav">    5.04    5.05</time>
   <time name="total">    5.40    5.40</time>
   <energy>
    <i name="e_fr_energy">    -92.80239134 </i>
    <i name="e_wo_entrp">    -92.80239134 </i>
    <i name="e_0_energy">    -92.80239134 </i>
   </energy>
  </scstep>
  <scstep>
   <time name="dav">    5.09    5.10</time>
   <time name="total">    5.44    5.46</time>
   <energy>
    <i name="e_fr_energy">    -92.79967679 </i>
    <i name="e_wo_entrp">    -92.79967679 </i>
    <i name="e_0_energy">    -92.79967679 </i>
   </energy>
  </scstep>
  <scstep>
   <time name="dav">    5.17    5.17</time>
   <time name="total">    5.53    6.02</time>
   <energy>
    <i name="e_fr_energy">    -92.79757442 </i>
    <i name="e_wo_entrp">    -92.79757442 </i>
    <i name="e_0_energy">    -92.79757442 </i>
   </energy>
  </scstep>
  <scstep>
   <time name="dav">    4.06    4.07</time>
   <time name="total">    4.35    4.38</time>
   <energy>
    <i name="alphaZ">    132.50715220 </i>
    <i name="ewald"> 120077.98392629 </i>
    <i name="hartreedc">-163873.20637478 </i>
    <i name="XCdc">   -497.31552991 </i>
    <i name="pawpsdc">  47862.14312876 </i>
    <i name="pawaedc"> -45919.62319467 </i>
    <i name="eentropy">      0.00000000 </i>
    <i name="bandstr">  -3512.02647818 </i>
    <i name="atom">  45636.73972380 </i>
    <i name="e_fr_energy">    -92.79764649 </i>
    <i name="e_wo_entrp">    -92.79764649 </i>
    <i name="e_0_energy">    -92.79764649 </i>
   </energy>
  </scstep>
  <structure>
   <crystal>
    <varray name="basis" >
     <v>      23.16292519       0.00000000       0.00000000 </v>
     <v>       0.00000000      23.16292519       0.00000000 </v>
     <v>       0.00000000       0.00000000      23.16292519 </v>
    </varray>
    <i name="volume">  12427.39817629 </i>
    <varray name="rec_basis" >
     <v>       0.04317244       0.00000000       0.00000000 </v>
     <v>       0.00000000       0.04317244       0.00000000 </v>
     <v>       0.00000000       0.00000000       0.04317244 </v>
    </varray>
   </crystal>
   <varray name="positions" >
    <v>       0.40479829       0.60423564       0.63395723 </v>
    <v>       0.48436855       0.71769546       0.47196947 </v>
    <v>       0.27398242       0.52110296       0.49792175 </v>
    <v>       0.39300372       0.65299520       0.51873833 </v>
    <v>       0.43471628       0.63507115       0.40291909 </v>
    <v>       0.35456654       0.50090932       0.59774083 </v>
    <v>       0.49100614       0.67529791       0.58693271 </v>
    <v>       0.58814982       0.67752961       0.50661655 </v>
    <v>       0.30093331       0.60551331       0.57595080 </v>
    <v>       0.51141957       0.60505337       0.68398072 </v>
    <v>       0.39380764       0.53972213       0.48855696 </v>
    <v>       0.29958415       0.46518917       0.39616217 </v>
    <v>       0.50827865       0.54229209       0.37313115 </v>
    <v>       0.55613156       0.65290911       0.39290274 </v>
    <v>       0.45927409       0.50003589       0.65574485 </v>
    <v>       0.47518641       0.42435030       0.36747104 </v>
    <v>       0.49517061       0.59268691       0.49181266 </v>
    <v>       0.62508316       0.60087778       0.72644170 </v>
    <v>       0.34826509       0.42302928       0.49867684 </v>
    <v>       0.42669196       0.40224836       0.59059692 </v>
    <v>       0.39097323       0.53150557       0.37038580 </v>
    <v>       0.56083800       0.55074687       0.58848838 </v>
    <v>       0.60437398       0.65942139       0.62418213 </v>
    <v>       0.36994956       0.36840039       0.39241646 </v>
    <v>       0.49258222       0.47203298       0.52418956 </v>
    <v>       0.37863047       0.44272803       0.29945688 </v>
    <v>       0.59407721       0.52031378       0.47181751 </v>
    <v>       0.62067446       0.56565348       0.33853631 </v>
    <v>       0.66386483       0.61060946       0.43777719 </v>
    <v>       0.57685030       0.49961339       0.69389102 </v>
    <v>       0.45003523       0.36694476       0.47610672 </v>
    <v>       0.52291277       0.39818151       0.65926306 </v>
    <v>       0.69677641       0.64729596       0.54594696 </v>
    <v>       0.59100127       0.45477869       0.37228687 </v>
    <v>       0.67955233       0.56734872       0.62857862 </v>
    <v>       0.54495717       0.36469365       0.54610954 </v>
    <v>       0.70497578       0.52929573       0.51785995 </v>
    <v>       0.62190938       0.39673927       0.72943771 </v>
    <v>       0.55857166       0.36023820       0.42886297 </v>
    <v>       0.69734698       0.49449360       0.40682277 </v>
    <v>       0.63079458       0.40952246       0.61041771 </v>
    <v>       0.64716704       0.41701792       0.48951685 </v>
    <v>       0.73822695       0.43108001       0.57135397 </v>
    <v>       0.70420747       0.46826648       0.68373780 </v>
   </varray>
  </structure>
  <varray name="forces" >
   <v>      -0.06520764       0.12705818      -0.00306944 </v>
   <v>      -0.02156012       0.17494846       0.00136994 </v>
   <v>       0.14185482      -0.05143823      -0.01617667 </v>
   <v>      -0.20290615       0.28409682       0.16746258 </v>
   <v>      -0.24497493       0.02088567      -0.29582325 </v>
   <v>      -0.07361099      -0.09053758      -0.12085138 </v>
   <v>       0.04405422       0.09714158       0.08482035 </v>
   <v>       0.20060886      -0.04555517       0.15863101 </v>
   <v>      -0.18677142      -0.05258775       0.03161369 </v>
   <v>      -0.03942730       0.11148048       0.23173307 </v>
   <v>      -0.62150294      -0.32569669       0.05269735 </v>
   <v>      -0.17765419      -0.10470494      -0.00496306 </v>
   <v>      -0.00072245      -0.02761199      -0.05332911 </v>
   <v>       0.07767239      -0.04593238       0.02128896 </v>
   <v>       0.07736966       0.05917135      -0.18444512 </v>
   <v>      -0.14325441      -0.02337521       0.01904497 </v>
   <v>       0.79932112      -0.11537246       0.17317648 </v>
   <v>       0.13456284       0.01926233       0.17932610 </v>
   <v>      -0.22356514       0.09178667      -0.00579333 </v>
   <v>      -0.16146842      -0.18970572      -0.07576307 </v>
   <v>       0.05962179       0.05938351      -0.13691646 </v>
   <v>      -0.11394737      -0.05709055      -0.53542271 </v>
   <v>       0.09932401       0.27276414       0.08275314 </v>
   <v>      -0.19802412      -0.12426643      -0.17456206 </v>
   <v>       0.07046489       0.37453543      -0.10322910 </v>
   <v>      -0.22411290      -0.13880201      -0.09030793 </v>
   <v>      -0.51436766       0.27582919       0.13864275 </v>
   <v>       0.10883247      -0.01868403      -0.21293306 </v>
   <v>       0.25237255       0.37180190      -0.20913155 </v>
   <v>       0.21160799      -0.15240082       0.13538353 </v>
   <v>      -0.04080379      -0.20077710      -0.01998697 </v>
   <v>       0.08924037      -0.04059468       0.11504676 </v>
   <v>       0.14584676       0.11759221       0.03078973 </v>
   <v>       0.05201960      -0.10975491      -0.34804673 </v>
   <v>       0.22491974      -0.24318340       0.08586261 </v>
   <v>      -0.03667102      -0.04610599      -0.00821896 </v>
   <v>       0.06626393       0.05808251       0.37970111 </v>
   <v>      -0.02857726      -0.15816381       0.19982518 </v>
   <v>       0.03584595      -0.14413359       0.06880854 </v>
   <v>       0.02976601       0.05927875      -0.10611673 </v>
   <v>       0.14701197       0.07417593       0.04107824 </v>
   <v>       0.12991979      -0.26580109       0.10861981 </v>
   <v>       0.05249085       0.03017139       0.02954713 </v>
   <v>       0.06813764       0.09283003       0.16786365 </v>
  </varray>
[...]
       <r>     0.5275     0.0000   283.0000 </r>
       <r>     0.5678     0.0000   284.0000 </r>
       <r>     0.6081     0.0000   285.0000 </r>
       <r>     0.6483     0.0000   286.0000 </r>
       <r>     0.6886     0.0000   286.0000 </r>
       <r>     0.7289     0.0000   288.0000 </r>
       <r>     0.7692     0.0000   289.0000 </r>
       <r>     0.8094     0.0000   289.0000 </r>
       <r>     0.8497     0.0000   290.0000 </r>
       <r>     0.8900     0.0000   291.0000 </r>
       <r>     0.9303     0.0000   293.0000 </r>
       <r>     0.9705     2.3080   294.0930 </r>
       <r>     1.0108     0.0000   297.0000 </r>
       <r>     1.0511     0.0000   298.0000 </r>
       <r>     1.0914     0.0000   300.0000 </r>
       <r>     1.1316     0.0000   302.0000 </r>
       <r>     1.1719     0.0000   305.0000 </r>
       <r>     1.2122     0.0000   305.0000 </r>
       <r>     1.2524     0.0000   306.0000 </r>
       <r>     1.2927     0.0000   309.0000 </r>
       <r>     1.3330     0.0000   310.0000 </r>
       <r>     1.3733     0.0000   312.0000 </r>
       <r>     1.4135     0.0000   312.0000 </r>
       <r>     1.4538     0.0000   312.0000 </r>
       <r>     1.4941     0.0000   312.0000 </r>
       <r>     1.5344     0.0000   312.0000 </r>
       <r>     1.5746     0.0000   312.0000 </r>
       <r>     1.6149     0.0000   312.0000 </r>
       <r>     1.6552     0.0000   312.0000 </r>
       <r>     1.6954     0.0000   312.0000 </r>
       <r>     1.7357     0.0000   312.0000 </r>
       <r>     1.7760     0.0000   312.0000 </r>
       <r>     1.8163     0.0000   312.0000 </r>
       <r>     1.8565     0.0000   312.0000 </r>
       <r>     1.8968     0.0000   312.0000 </r>
      </set>
      <set comment="spin 2">
       <r>   -10.1851     0.0000     0.0000 </r>
       <r>   -10.1448     0.0000     0.0000 </r>
       <r>   -10.1046     0.0000     0.0000 </r>
       <r>   -10.0643     0.0000     0.0000 </r>
       <r>   -10.0240     0.0000     0.0000 </r>
       <r>    -9.9837     0.0000     0.0000 </r>
       <r>    -9.9435     0.0000     0.0000 </r>
       <r>    -9.9032     0.0000     0.0000 </r>
       <r>    -9.8629     0.0000     0.0000 </r>
       <r>    -9.8227     0.0000     0.0000 </r>
       <r>    -9.7824     0.0000     0.0000 </r>
       <r>    -9.7421     0.0000     0.0000 </r>
       <r>    -9.7018     0.0000     0.0000 </r>
       <r>    -9.6616     0.0000     0.0000 </r>
       <r>    -9.6213     0.0000     1.0000 </r>
       <r>    -9.5810     0.0000     1.0000 </r>
       <r>    -9.5407     0.0000     1.0000 </r>
       <r>    -9.5005     0.0000     1.0000 </r>
       <r>    -9.4602     0.0000     1.0000 </r>
       <r>    -9.4199     0.0000     1.0000 </r>
       <r>    -9.3797     0.0000     1.0000 </r>
       <r>    -9.3394     0.0000     1.0000 </r>
       <r>    -9.2991     0.0000     1.0000 </r>
       <r>    -9.2588     0.0000     1.0000 </r>
       <r>    -9.2186     0.0000     1.0000 </r>
       <r>    -9.1783     0.0000     1.0000 </r>
       <r>    -9.1380     0.0000     2.0000 </r>
       <r>    -9.0977     0.0000     2.0000 </r>
       <r>    -9.0575     0.0000     3.0000 </r>
       <r>    -9.0172     0.0000     5.0000 </r>
       <r>    -8.9769     0.0000     6.0000 </r>
       <r>    -8.9366     0.0000     8.0000 </r>
       <r>    -8.8964     0.0000     9.0000 </r>
       <r>    -8.8561    24.8305    12.0000 </r>
       <r>    -8.8158     0.0000    14.0000 </r>
       <r>    -8.7756     0.0000    15.0000 </r>
       <r>    -8.7353     0.0000    18.0000 </r>
       <r>    -8.6950     0.0000    20.0000 </r>
       <r>    -8.6547     0.0000    21.0000 </r>
       <r>    -8.6145     0.0000    24.0000 </r>
       <r>    -8.5742     0.0000    26.0000 </r>
       <r>    -8.5339     0.0000    30.0000 </r>
       <r>    -8.4936     0.0000    33.0000 </r>
       <r>    -8.4534     0.0000    35.0000 </r>
       <r>    -8.4131    24.8305    39.0000 </r>
       <r>    -8.3728     0.0000    40.0000 </r>
       <r>    -8.3326     0.0000    43.0000 </r>
       <r>    -8.2923     0.0000    46.0000 </r>
       <r>    -8.2520     0.0000    48.0000 </r>
       <r>    -8.2117     0.0000    50.0000 </r>
       <r>    -8.1715     0.0000    52.0000 </r>
       <r>    -8.1312     0.0000    56.0000 </r>
       <r>    -8.0909     0.0000    59.0000 </r>
       <r>    -8.0506    10.9427    62.4407 </r>
       <r>    -8.0104     0.0000    65.0000 </r>
       <r>    -7.9701     0.0000    68.0000 </r>
       <r>    -7.9298     0.0000    71.0000 </r>
       <r>    -7.8895     0.0000    74.0000 </r>
       <r>    -7.8493     0.0000    76.0000 </r>
       <r>    -7.8090     0.0000    79.0000 </r>
       <r>    -7.7687     0.0000    81.0000 </r>
       <r>    -7.7285     0.0000    84.0000 </r>
       <r>    -7.6882     0.0000    87.0000 </r>
       <r>    -7.6479     0.0000    89.0000 </r>
       <r>    -7.6076     0.0000    91.0000 </r>
       <r>    -7.5674     0.0000    95.0000 </r>
       <r>    -7.5271     0.0000    97.0000 </r>
       <r>    -7.4868     0.0000   100.0000 </r>
       <r>    -7.4465     0.0000   102.0000 </r>
       <r>    -7.4063     0.0000   106.0000 </r>
       <r>    -7.3660     0.0000   108.0000 </r>
       <r>    -7.3257     0.0000   112.0000 </r>
       <r>    -7.2855     0.0000   115.0000 </r>
       <r>    -7.2452     0.0000   118.0000 </r>
       <r>    -7.2049     0.0000   121.0000 </r>
       <r>    -7.1646     0.0000   124.0000 </r>
       <r>    -7.1244     0.0000   127.0000 </r>
       <r>    -7.0841     0.0000   129.0000 </r>
       <r>    -7.0438     0.0000   134.0000 </r>
       <r>    -7.0035     0.0000   136.0000 </r>
       <r>    -6.9633     0.0000   140.0000 </r>
       <r>    -6.9230     0.0000   143.0000 </r>
       <r>    -6.8827    24.8218   148.9997 </r>
       <r>    -6.8424    23.9710   150.9654 </r>
       <r>    -6.8022     0.0000   155.0000 </r>
       <r>    -6.7619     0.0000   160.0000 </r>
       <r>    -6.7216     0.0000   165.0000 </r>
       <r>    -6.6814     0.0000   170.0000 </r>
       <r>    -6.6411     0.0000   175.0000 </r>
       <r>    -6.6008     0.0000   178.0000 </r>
       <r>    -6.5605     0.0000   182.0000 </r>
       <r>    -6.5203     0.0000   187.0000 </r>
       <r>    -6.4800     0.0000   191.0000 </r>
       <r>    -6.4397     0.0000   196.0000 </r>
       <r>    -6.3994     0.0000   200.0000 </r>
       <r>    -6.3592     0.0000   203.0000 </r>
       <r>    -6.3189     0.0000   207.0000 </r>
       <r>    -6.2786     0.0000   211.0000 </r>
       <r>    -6.2384     0.0000   215.0000 </r>
       <r>    -6.1981     0.0000   217.0000 </r>
       <r>    -6.1578     0.0000   219.0000 </r>
       <r>    -6.1175     0.0000   222.0000 </r>
       <r>    -6.0773     0.0000   223.0000 </r>
       <r>    -6.0370     0.0000   225.0000 </r>
       <r>    -5.9967     0.0000   226.0000 </r>
       <r>    -5.9564     0.0000   226.0000 </r>
       <r>    -5.9162     0.0000   227.0000 </r>
       <r>    -5.8759     0.0000   227.0000 </r>
       <r>    -5.8356     0.0000   227.0000 </r>
       <r>    -5.7953     0.0000   227.0000 </r>
       <r>    -5.7551     0.0000   228.0000 </r>
       <r>    -5.7148     0.0000   228.0000 </r>
       <r>    -5.6745     0.0000   229.0000 </r>
       <r>    -5.6343     0.0000   229.0000 </r>
       <r>    -5.5940     0.0000   229.0000 </r>
       <r>    -5.5537     0.0000   229.0000 </r>
       <r>    -5.5134     0.0000   229.0000 </r>
       <r>    -5.4732     0.0000   229.0000 </r>
       <r>    -5.4329     0.0000   229.0000 </r>
       <r>    -5.3926     0.0000   229.0000 </r>
       <r>    -5.3523     0.0000   230.0000 </r>
       <r>    -5.3121     0.0000   230.0000 </r>
       <r>    -5.2718     0.0000   230.0000 </r>
       <r>    -5.2315     0.0000   230.0000 </r>
       <r>    -5.1913     0.0000   231.0000 </r>
       <r>    -5.1510     0.0000   231.0000 </r>
       <r>    -5.1107     0.0000   231.0000 </r>
       <r>    -5.0704     0.0000   231.0000 </r>
       <r>    -5.0302     0.0000   231.0000 </r>
       <r>    -4.9899     0.0000   231.0000 </r>
       <r>    -4.9496     0.0000   231.0000 </r>
       <r>    -4.9093     0.0000   232.0000 </r>
       <r>    -4.8691     0.0000   232.0000 </r>
       <r>    -4.8288     0.0000   232.0000 </r>
       <r>    -4.7885     0.0000   233.0000 </r>
       <r>    -4.7482     0.0000   233.0000 </r>
       <r>    -4.7080     0.0000   233.0000 </r>
       <r>    -4.6677     0.0000   233.0000 </r>
       <r>    -4.6274     0.0000   233.0000 </r>
       <r>    -4.5872     0.0000   233.0000 </r>
       <r>    -4.5469     0.0000   234.0000 </r>
       <r>    -4.5066     0.0000   234.0000 </r>
       <r>    -4.4663     0.0000   235.0000 </r>
       <r>    -4.4261     0.0000   235.0000 </r>
       <r>    -4.3858     0.0000   235.0000 </r>
       <r>    -4.3455     0.0000   236.0000 </r>
       <r>    -4.3052     0.0000   236.0000 </r>
       <r>    -4.2650     0.0000   236.0000 </r>
       <r>    -4.2247     0.0000   236.0000 </r>
       <r>    -4.1844     0.0000   236.0000 </r>
       <r>    -4.1441     0.0000   236.0000 </r>
       <r>    -4.1039     0.0000   237.0000 </r>
       <r>    -4.0636     0.0000   237.0000 </r>
       <r>    -4.0233     0.0000   237.0000 </r>
       <r>    -3.9831     0.0000   237.0000 </r>
       <r>    -3.9428     0.0000   238.0000 </r>
       <r>    -3.9025     0.0000   238.0000 </r>
       <r>    -3.8622     0.0000   238.0000 </r>
       <r>    -3.8220     0.0000   239.0000 </r>
       <r>    -3.7817     0.0000   239.0000 </r>
       <r>    -3.7414     0.0000   239.0000 </r>
       <r>    -3.7011     0.0000   239.0000 </r>
       <r>    -3.6609     0.0000   240.0000 </r>
       <r>    -3.6206     0.0000   240.0000 </r>
       <r>    -3.5803     0.0000   240.0000 </r>
       <r>    -3.5401     0.0000   241.0000 </r>
       <r>    -3.4998     0.0000   241.0000 </r>
       <r>    -3.4595     0.0000   242.0000 </r>
       <r>    -3.4192     0.0000   242.0000 </r>
       <r>    -3.3790     0.0000   242.0000 </r>
       <r>    -3.3387     0.0000   242.0000 </r>
       <r>    -3.2984     0.0000   242.0000 </r>
       <r>    -3.2581     0.0000   242.0000 </r>
       <r>    -3.2179     0.0000   242.0000 </r>
       <r>    -3.1776     0.0000   242.0000 </r>
       <r>    -3.1373     0.0000   243.0000 </r>
       <r>    -3.0970     0.0000   243.0000 </r>
       <r>    -3.0568     0.0000   243.0000 </r>
       <r>    -3.0165     0.0000   244.0000 </r>
       <r>    -2.9762     0.0000   244.0000 </r>
       <r>    -2.9360     0.0000   244.0000 </r>
       <r>    -2.8957     0.0000   245.0000 </r>
       <r>    -2.8554     0.0000   245.0000 </r>
       <r>    -2.8151     0.0000   245.0000 </r>
       <r>    -2.7749     0.0000   246.0000 </r>
       <r>    -2.7346     0.0000   246.0000 </r>
       <r>    -2.6943     0.0000   246.0000 </r>
       <r>    -2.6540     0.0000   246.0000 </r>
       <r>    -2.6138     0.0000   247.0000 </r>
       <r>    -2.5735     0.0000   247.0000 </r>
       <r>    -2.5332     0.0000   249.0000 </r>
       <r>    -2.4930     0.0000   249.0000 </r>
       <r>    -2.4527     0.0000   249.0000 </r>
       <r>    -2.4124     0.0000   249.0000 </r>
       <r>    -2.3721    24.8305   250.0000 </r>
       <r>    -2.3319     0.0000   250.0000 </r>
       <r>    -2.2916     0.0000   251.0000 </r>
       <r>    -2.2513     0.0000   251.0000 </r>
       <r>    -2.2110     0.0000   251.0000 </r>
       <r>    -2.1708     0.0000   252.0000 </r>
       <r>    -2.1305     0.0000   252.0000 </r>
       <r>    -2.0902     0.0000   253.0000 </r>
       <r>    -2.0499     0.0000   253.0000 </r>
       <r>    -2.0097     0.0000   253.0000 </r>
       <r>    -1.9694     0.0000   254.0000 </r>
       <r>    -1.9291     0.0000   255.0000 </r>
       <r>    -1.8889     0.0000   255.0000 </r>
       <r>    -1.8486     0.0000   255.0000 </r>
       <r>    -1.8083     0.0000   255.0000 </r>
       <r>    -1.7680     0.0000   255.0000 </r>
       <r>    -1.7278     0.0000   256.0000 </r>
       <r>    -1.6875     0.0000   256.0000 </r>
       <r>    -1.6472     0.0000   257.0000 </r>
       <r>    -1.6069     0.0000   257.0000 </r>
       <r>    -1.5667     0.0000   258.0000 </r>
       <r>    -1.5264     0.0000   258.0000 </r>
       <r>    -1.4861     0.0000   259.0000 </r>
       <r>    -1.4459     0.0000   259.0000 </r>
       <r>    -1.4056     0.0000   259.0000 </r>
       <r>    -1.3653     0.0000   259.0000 </r>
       <r>    -1.3250     0.0000   260.0000 </r>
       <r>    -1.2848     0.0000   261.0000 </r>
       <r>    -1.2445     0.0000   261.0000 </r>
       <r>    -1.2042     0.0000   262.0000 </r>
       <r>    -1.1639     0.0000   262.0000 </r>
       <r>    -1.1237     0.0000   262.0000 </r>
       <r>    -1.0834     0.0000   262.0000 </r>
       <r>    -1.0431     0.0000   263.0000 </r>
       <r>    -1.0028     0.0000   263.0000 </r>
       <r>    -0.9626     0.0000   264.0000 </r>
       <r>    -0.9223     0.0000   265.0000 </r>
       <r>    -0.8820     0.0000   265.0000 </r>
       <r>    -0.8418     0.0000   266.0000 </r>
       <r>    -0.8015     0.0000   266.0000 </r>
       <r>    -0.7612     0.0000   267.0000 </r>
       <r>    -0.7209     0.0000   268.0000 </r>
       <r>    -0.6807     0.0000   268.0000 </r>
       <r>    -0.6404     0.0000   268.0000 </r>
       <r>    -0.6001     0.0000   269.0000 </r>
       <r>    -0.5598     0.0000   270.0000 </r>
       <r>    -0.5196     0.0000   271.0000 </r>
       <r>    -0.4793     0.0000   271.0000 </r>
       <r>    -0.4390     0.0000   272.0000 </r>
       <r>    -0.3988     0.0000   272.0000 </r>
       <r>    -0.3585     0.0000   273.0000 </r>
       <r>    -0.3182     0.0000   273.0000 </r>
       <r>    -0.2779     0.0000   273.0000 </r>
       <r>    -0.2377     0.0000   274.0000 </r>
       <r>    -0.1974     0.0000   274.0000 </r>
       <r>    -0.1571     0.0000   274.0000 </r>
       <r>    -0.1168     0.0000   275.0000 </r>
       <r>    -0.0766     0.0000   276.0000 </r>
       <r>    -0.0363     0.0000   277.0000 </r>
       <r>     0.0040     0.0000   277.0000 </r>
       <r>     0.0443     0.0000   277.0000 </r>
       <r>     0.0845     0.0000   278.0000 </r>
       <r>     0.1248     0.0000   278.0000 </r>
       <r>     0.1651     0.0000   279.0000 </r>
       <r>     0.2053     0.0000   279.0000 </r>
       <r>     0.2456     0.0000   279.0000 </r>
       <r>     0.2859     0.0000   280.0000 </r>
       <r>     0.3262     0.0000   280.0000 </r>
       <r>     0.3664     0.0000   281.0000 </r>
       <r>     0.4067     0.0000   281.0000 </r>
       <r>     0.4470     0.0000   281.0000 </r>
       <r>     0.4873     0.0000   281.0000 </r>
       <r>     0.5275     0.0000   283.0000 </r>
       <r>     0.5678     0.0000   284.0000 </r>
       <r>     0.6081     0.0000   285.0000 </r>
       <r>     0.6483     0.0000   286.0000 </r>
       <r>     0.6886     0.0000   286.0000 </r>
       <r>     0.7289     0.0000   288.0000 </r>
       <r>     0.7692     0.0000   289.0000 </r>
       <r>     0.8094     0.0000   289.0000 </r>
       <r>     0.8497     0.0000   290.0000 </r>
       <r>     0.8900     0.0000   291.0000 </r>
       <r>     0.9303     0.0000   293.0000 </r>
       <r>     0.9705     2.3687   294.0954 </r>
       <r>     1.0108     0.0000   297.0000 </r>
       <r>     1.0511     0.0000   298.0000 </r>
       <r>     1.0914     0.0000   300.0000 </r>
       <r>     1.1316     0.0000   302.0000 </r>
       <r>     1.1719     0.0000   305.0000 </r>
       <r>     1.2122     0.0000   305.0000 </r>
       <r>     1.2524     0.0000   306.0000 </r>
       <r>     1.2927     0.0000   309.0000 </r>
       <r>     1.3330     0.0000   310.0000 </r>
       <r>     1.3733     0.0000   312.0000 </r>
       <r>     1.4135     0.0000   312.0000 </r>
       <r>     1.4538     0.0000   312.0000 </r>
       <r>     1.4941     0.0000   312.0000 </r>
       <r>     1.5344     0.0000   312.0000 </r>
       <r>     1.5746     0.0000   312.0000 </r>
       <r>     1.6149     0.0000   312.0000 </r>
       <r>     1.6552     0.0000   312.0000 </r>
       <r>     1.6954     0.0000   312.0000 </r>
       <r>     1.7357     0.0000   312.0000 </r>
       <r>     1.7760     0.0000   312.0000 </r>
       <r>     1.8163     0.0000   312.0000 </r>
       <r>     1.8565     0.0000   312.0000 </r>
       <r>     1.8968     0.0000   312.0000 </r>
      </set>
     </set>
    </array>
   </total>
  </dos>
 </calculation>
 <structure name="finalpos" >
  <crystal>
   <varray name="basis" >
    <v>      23.16292519       0.00000000       0.00000000 </v>
    <v>       0.00000000      23.16292519       0.00000000 </v>
    <v>       0.00000000       0.00000000      23.16292519 </v>
   </varray>
   <i name="volume">  12427.39817629 </i>
   <varray name="rec_basis" >
    <v>       0.04317244       0.00000000       0.00000000 </v>
    <v>       0.00000000       0.04317244       0.00000000 </v>
    <v>       0.00000000       0.00000000       0.04317244 </v>
   </varray>
  </crystal>
  <varray name="positions" >
   <v>       0.41271094       0.59688593       0.62888517 </v>
   <v>       0.49872214       0.70962782       0.47988309 </v>
   <v>       0.26974673       0.51457064       0.49180633 </v>
   <v>       0.39797130       0.66867828       0.53267328 </v>
   <v>       0.44388061       0.61572329       0.42618869 </v>
   <v>       0.35130619       0.48877494       0.60122474 </v>
   <v>       0.50295283       0.69108544       0.60012060 </v>
   <v>       0.59885272       0.65257938       0.51713609 </v>
   <v>       0.30038407       0.59989249       0.57776292 </v>
   <v>       0.52962506       0.59302135       0.66040277 </v>
   <v>       0.38210656       0.55250041       0.50723319 </v>
   <v>       0.28062236       0.45293728       0.39008429 </v>
   <v>       0.50306339       0.53767908       0.35856131 </v>
   <v>       0.55650773       0.64567379       0.39743684 </v>
   <v>       0.47359183       0.49274821       0.61784541 </v>
   <v>       0.46688998       0.42238019       0.35635983 </v>
   <v>       0.49783084       0.58839053       0.53568355 </v>
   <v>       0.63145164       0.58781470       0.72595527 </v>
   <v>       0.35539559       0.43063625       0.48693049 </v>
   <v>       0.42438093       0.39176552       0.57889554 </v>
   <v>       0.38688138       0.51163470       0.39282668 </v>
   <v>       0.58990292       0.51287994       0.57571431 </v>
   <v>       0.62218631       0.66843036       0.63347847 </v>
   <v>       0.36453962       0.36333895       0.38769300 </v>
   <v>       0.47607599       0.48067602       0.48276436 </v>
   <v>       0.36215223       0.44416690       0.29868606 </v>
   <v>       0.58245053       0.54136715       0.45660870 </v>
   <v>       0.62167284       0.56634929       0.33634000 </v>
   <v>       0.67618152       0.62859591       0.42596947 </v>
   <v>       0.56694190       0.48849044       0.69894943 </v>
   <v>       0.45665447       0.36117614       0.46356618 </v>
   <v>       0.51318098       0.38634838       0.66518544 </v>
   <v>       0.71344559       0.65824050       0.54474886 </v>
   <v>       0.58173364       0.45431003       0.31947896 </v>
   <v>       0.69815238       0.57579153       0.62919324 </v>
   <v>       0.54154492       0.39383187       0.54684196 </v>
   <v>       0.69456436       0.54323014       0.50945348 </v>
   <v>       0.60897709       0.38777946       0.74561271 </v>
   <v>       0.56546959       0.41270261       0.42967872 </v>
   <v>       0.66954631       0.47872211       0.40398108 </v>
   <v>       0.63021190       0.40228058       0.62950399 </v>
   <v>       0.65287682       0.42603081       0.51093871 </v>
   <v>       0.72565232       0.46603960       0.59696797 </v>
   <v>       0.68667820       0.47988833       0.71041604 </v>
  </varray>
 </structure>
</modeling>
