 running on   64 total cores
 distrk:  each k-point on   64 cores,    1 groups
 distr:  one band on   16 cores,    4 groups
 using from now: INCAR     
 vasp.5.3.5 31Mar14 (build Feb 01 2018 12:10:03) gamma-only                     
  
 POSCAR found type information on POSCAR  Ag
 POSCAR found :  1 types and      42 ions
 scaLAPACK will be used

 ----------------------------------------------------------------------------- 
|                                                                             |
|  ADVICE TO THIS USER RUNNING 'VASP/VAMP'   (HEAR YOUR MASTER'S VOICE ...):  |
|                                                                             |
|      You have a (more or less) 'large supercell' and for larger cells       |
|      it might be more efficient to use real space projection opertators     |
|      So try LREAL= Auto  in the INCAR   file.                               |
|      Mind: At the moment your POTCAR file does not contain real space       |
|       projectors, and has to be modified,  BUT if you                       |
|      want to do an extremely  accurate calculation you might also keep the  |
|      reciprocal projection scheme          (i.e. LREAL=.FALSE.)             |
|                                                                             |
 ----------------------------------------------------------------------------- 

 LDA part: xc-table for Pade appr. of Perdew
 POSCAR, INCAR and KPOINTS ok, starting setup
 WARNING: small aliasing (wrap around) errors must be expected
 FFT: planning ...
 WAVECAR not read
 entering main loop
       N       E                     dE             d eps       ncg     rms          rms(c)
DAV:   1     0.395129098580E+04    0.39513E+04   -0.90446E+04  1216   0.606E+02
DAV:   2     0.744875037343E+03   -0.32064E+04   -0.28668E+04  1984   0.157E+02
DAV:   3    -0.535154703449E+02   -0.79839E+03   -0.73024E+03  1536   0.856E+01
DAV:   4    -0.899054203070E+02   -0.36390E+02   -0.36003E+02  1304   0.197E+01
DAV:   5    -0.904434904030E+02   -0.53807E+00   -0.53748E+00  1336   0.283E+00    0.376E+01
DAV:   6    -0.374958035393E+02    0.52948E+02   -0.16695E+02  1220   0.164E+01    0.203E+01
DAV:   7    -0.277187866537E+02    0.97770E+01   -0.99309E+00  1284   0.565E+00    0.126E+01
DAV:   8    -0.269359856894E+02    0.78280E+00   -0.26668E+00  1292   0.295E+00    0.713E+00
DAV:   9    -0.309226806400E+02   -0.39867E+01   -0.10555E+00  1320   0.147E+00    0.453E+00
DAV:  10    -0.418879837090E+02   -0.10965E+02   -0.32234E+00  1248   0.228E+00    0.343E+00
DAV:  11    -0.621449496074E+02   -0.20257E+02   -0.11517E+01  1232   0.364E+00    0.330E+00
DAV:  12    -0.634777243394E+02   -0.13328E+01   -0.37944E-01  1448   0.876E-01    0.358E+00
DAV:  13    -0.631667339633E+02    0.31099E+00   -0.22546E-02  1336   0.555E-01    0.377E+00
DAV:  14    -0.652764272880E+02   -0.21097E+01   -0.37048E-01  1240   0.135E+00    0.326E+00
DAV:  15    -0.754187712666E+02   -0.10142E+02   -0.66171E+00  1240   0.519E+00    0.212E+00
DAV:  16    -0.780975558827E+02   -0.26788E+01   -0.78832E-01  1288   0.153E+00    0.208E+00
DAV:  17    -0.800670462296E+02   -0.19695E+01   -0.23131E-01  1216   0.700E-01    0.202E+00
DAV:  18    -0.843084406302E+02   -0.42414E+01   -0.78924E-01  1204   0.184E+00    0.117E+00
DAV:  19    -0.848874310804E+02   -0.57899E+00   -0.63175E-02  1296   0.606E-01    0.102E+00
DAV:  20    -0.859294003585E+02   -0.10420E+01   -0.86818E-02  1232   0.582E-01    0.802E-01
DAV:  21    -0.872868516516E+02   -0.13575E+01   -0.15147E-01  1248   0.940E-01    0.537E-01
DAV:  22    -0.882826671844E+02   -0.99582E+00   -0.66874E-02  1256   0.407E-01    0.467E-01
DAV:  23    -0.886094812550E+02   -0.32681E+00   -0.92610E-03  1284   0.221E-01    0.328E-01
DAV:  24    -0.888110557091E+02   -0.20157E+00   -0.99577E-03  1268   0.310E-01    0.192E-01
DAV:  25    -0.889242125810E+02   -0.11316E+00   -0.47055E-03  1272   0.176E-01    0.115E-01
DAV:  26    -0.889907726217E+02   -0.66560E-01   -0.11715E-03  1280   0.553E-02    0.925E-02
DAV:  27    -0.890143491323E+02   -0.23577E-01   -0.69007E-04   896   0.555E-02    0.366E-02
DAV:  28    -0.890284024085E+02   -0.14053E-01   -0.87934E-04  1064   0.589E-02    0.489E-02
DAV:  29    -0.890328746230E+02   -0.44722E-02   -0.13989E-04   864   0.277E-02    0.295E-02
DAV:  30    -0.890375801563E+02   -0.47055E-02   -0.34161E-04   824   0.302E-02    0.207E-02
DAV:  31    -0.890404920132E+02   -0.29119E-02   -0.93978E-05   864   0.178E-02    0.104E-02
DAV:  32    -0.890425704677E+02   -0.20785E-02   -0.31334E-05   808   0.119E-02    0.800E-03
DAV:  33    -0.890456642418E+02   -0.30938E-02   -0.54312E-05   840   0.896E-03    0.828E-03
DAV:  34    -0.890465125595E+02   -0.84832E-03   -0.18689E-05   816   0.611E-03    0.432E-03
DAV:  35    -0.890468708395E+02   -0.35828E-03   -0.67160E-06   808   0.348E-03    0.250E-03
DAV:  36    -0.890470186029E+02   -0.14776E-03   -0.69244E-06   776   0.234E-03    0.214E-03
DAV:  37    -0.890470461359E+02   -0.27533E-04   -0.27325E-06   792   0.193E-03
   1 F= -.89047046E+02 E0= -.89047046E+02  d E =-.890470E+02  mag=     0.0009
 curvature:   0.00 expect dE= 0.000E+00 dE for cont linesearch  0.000E+00
 trial: gam= 0.00000 g(F)=  0.351E-01 g(S)=  0.000E+00 ort = 0.000E+00 (trialstep = 0.100E+01)
 search vector abs. value=  0.351E-01
 bond charge predicted
       N       E                     dE             d eps       ncg     rms          rms(c)
DAV:   1    -0.890802188168E+02   -0.33200E-01   -0.23539E+00  1248   0.241E+00    0.983E-02
DAV:   2    -0.890812662816E+02   -0.10475E-02   -0.10598E-02  1264   0.226E-01    0.702E-02
DAV:   3    -0.890812495375E+02    0.16744E-04   -0.25153E-04   784   0.461E-02
   2 F= -.89081250E+02 E0= -.89081250E+02  d E =-.342034E-01  mag=     0.0006
 ZBRENT: can't locate minimum, use default step
 trial-energy change:   -0.034203  1 .order   -0.033729   -0.035109   -0.032350
 step:   4.0000(harm= 12.7267)  dis= 0.01414  next Energy=   -89.270456 (dE=-0.223E+00)
 bond charge predicted
       N       E                     dE             d eps       ncg     rms          rms(c)
DAV:   1    -0.891626924697E+02   -0.81426E-01   -0.21230E+01  1208   0.724E+00    0.294E-01
DAV:   2    -0.891718895693E+02   -0.91971E-02   -0.94650E-02  1244   0.674E-01    0.211E-01
DAV:   3    -0.891716237448E+02    0.26582E-03   -0.19863E-03  1272   0.116E-01    0.143E-01
DAV:   4    -0.891714816074E+02    0.14214E-03   -0.12647E-03  1240   0.840E-02    0.410E-02
DAV:   5    -0.891714687850E+02    0.12822E-04   -0.33536E-04   756   0.655E-02
   3 F= -.89171469E+02 E0= -.89171469E+02  d E =-.124423E+00  mag=     0.0003
 curvature:  -2.84 expect dE=-0.625E-01 dE for cont linesearch -0.598E-01
 ZBRENT: increasing intervall
 opt :  10.0000  next Energy=   -89.303629 (dE=-0.257E+00)
 bond charge predicted
       N       E                     dE             d eps       ncg     rms          rms(c)
DAV:   1    -0.892640309242E+02   -0.92549E-01   -0.84849E+01  1200   0.145E+01    0.543E-01
DAV:   2    -0.893012212743E+02   -0.37190E-01   -0.38217E-01  1256   0.136E+00    0.390E-01
DAV:   3    -0.893002376106E+02    0.98366E-03   -0.75470E-03  1248   0.236E-01    0.276E-01
DAV:   4    -0.892995554562E+02    0.68215E-03   -0.40645E-03  1248   0.147E-01    0.869E-02
DAV:   5    -0.892995285793E+02    0.26877E-04   -0.10604E-03  1148   0.115E-01    0.319E-02
DAV:   6    -0.892995053890E+02    0.23190E-04   -0.10192E-04   744   0.329E-02
   4 F= -.89299505E+02 E0= -.89299505E+02  d E =-.252459E+00  mag=     0.0001
 curvature:  -6.28 expect dE=-0.803E-01 dE for cont linesearch -0.448E-01
 ZBRENT: increasing intervall
 opt :  22.0000  next Energy=   -89.353366 (dE=-0.306E+00)
 bond charge predicted
       N       E                     dE             d eps       ncg     rms          rms(c)
DAV:   1    -0.892152074889E+02    0.84321E-01   -0.34101E+02  1200   0.292E+01    0.103E+00
DAV:   2    -0.893667822741E+02   -0.15157E+00   -0.15446E+00  1256   0.273E+00    0.735E-01
DAV:   3    -0.893632193771E+02    0.35629E-02   -0.26748E-02  1256   0.421E-01    0.531E-01
DAV:   4    -0.893600823793E+02    0.31370E-02   -0.13256E-02  1260   0.235E-01    0.165E-01
DAV:   5    -0.893600922735E+02   -0.98942E-05   -0.25966E-03  1252   0.176E-01    0.614E-02
DAV:   6    -0.893600220003E+02    0.70273E-04   -0.31853E-04   808   0.625E-02
   5 F= -.89360022E+02 E0= -.89360022E+02  d E =-.312976E+00  mag=     0.0001
 curvature:  -7.54 expect dE=-0.189E+00 dE for cont linesearch -0.518E-02
 trial: gam= 0.85261 g(F)=  0.250E-01 g(S)=  0.000E+00 ort =-0.491E-02 (trialstep = 0.433E+01)
 search vector abs. value=  0.422E-01
 bond charge predicted
       N       E                     dE             d eps       ncg     rms          rms(c)
DAV:   1    -0.894166166019E+02   -0.56524E-01   -0.52915E+01  1204   0.114E+01    0.336E-01
DAV:   2    -0.894403976523E+02   -0.23781E-01   -0.24171E-01  1268   0.110E+00    0.316E-01
DAV:   3    -0.894400488582E+02    0.34879E-03   -0.39709E-03  1280   0.151E-01    0.230E-01
DAV:   4    -0.894393074815E+02    0.74138E-03   -0.17342E-03  1280   0.720E-02    0.109E-01
DAV:   5    -0.894393189557E+02   -0.11474E-04   -0.71223E-04  1232   0.560E-02
   6 F= -.89439319E+02 E0= -.89439319E+02  d E =-.792970E-01  mag=     0.0000
 ZBRENT: can't locate minimum, use default step
 trial-energy change:   -0.079297  1 .order   -0.079999   -0.090206   -0.069792
 step:  17.3154(harm= 19.1286)  dis= 0.06958  next Energy=   -89.559326 (dE=-0.199E+00)
 bond charge predicted
       N       E                     dE             d eps       ncg     rms          rms(c)
DAV:   1    -0.893516305905E+02    0.87677E-01   -0.48068E+02  1200   0.346E+01    0.904E-01
DAV:   2    -0.895679511329E+02   -0.21632E+00   -0.21885E+00  1252   0.332E+00    0.947E-01
DAV:   3    -0.895661154584E+02    0.18357E-02   -0.35018E-02  1296   0.432E-01    0.713E-01
DAV:   4    -0.895595820198E+02    0.65334E-02   -0.97866E-03  1280   0.177E-01    0.440E-01
DAV:   5    -0.895586258180E+02    0.95620E-03   -0.10392E-02  1272   0.188E-01    0.145E-01
DAV:   6    -0.895586227921E+02    0.30259E-05   -0.30587E-04   816   0.563E-02
   7 F= -.89558623E+02 E0= -.89558623E+02  d E =-.198601E+00  mag=     0.0000
 curvature: -19.07 expect dE=-0.180E+00 dE for cont linesearch -0.465E-02
 ZBRENT: extrapolating
 opt :  20.5410  next Energy=   -89.563796 (dE=-0.204E+00)
 bond charge predicted
       N       E                     dE             d eps       ncg     rms          rms(c)
DAV:   1    -0.895494211439E+02    0.92047E-02   -0.29337E+01  1212   0.848E+00    0.231E-01
DAV:   2    -0.895627142264E+02   -0.13293E-01   -0.13556E-01  1264   0.819E-01    0.213E-01
DAV:   3    -0.895625788198E+02    0.13541E-03   -0.22008E-03  1272   0.112E-01    0.152E-01
DAV:   4    -0.895622598756E+02    0.31894E-03   -0.66753E-04  1256   0.462E-02    0.827E-02
DAV:   5    -0.895622676804E+02   -0.78048E-05   -0.46851E-04  1224   0.424E-02
   8 F= -.89562268E+02 E0= -.89562268E+02  d E =-.202246E+00  mag=     0.0000
 curvature: -21.20 expect dE=-0.204E+00 dE for cont linesearch -0.246E-04
 trial: gam= 0.07822 g(F)=  0.961E-02 g(S)=  0.000E+00 ort =-0.221E-03 (trialstep = 0.757E+01)
 search vector abs. value=  0.984E-02
 bond charge predicted
       N       E                     dE             d eps       ncg     rms          rms(c)
DAV:   1    -0.896049790416E+02   -0.42719E-01   -0.37935E+01  1204   0.968E+00    0.339E-01
DAV:   2    -0.896220746510E+02   -0.17096E-01   -0.17579E-01  1244   0.918E-01    0.261E-01
DAV:   3    -0.896217959480E+02    0.27870E-03   -0.28841E-03  1280   0.118E-01    0.170E-01
DAV:   4    -0.896215243734E+02    0.27157E-03   -0.12177E-03  1252   0.703E-02    0.594E-02
DAV:   5    -0.896215587945E+02   -0.34421E-04   -0.13722E-04   776   0.368E-02
   9 F= -.89621559E+02 E0= -.89621559E+02  d E =-.592911E-01  mag=     0.0000
 trial-energy change:   -0.059291  1 .order   -0.059573   -0.072645   -0.046500
 step:  21.0370(harm= 21.0370)  dis= 0.04076  next Energy=   -89.663191 (dE=-0.101E+00)
 bond charge predicted
       N       E                     dE             d eps       ncg     rms          rms(c)
DAV:   1    -0.896085052967E+02    0.13019E-01   -0.12013E+02  1200   0.172E+01    0.609E-01
DAV:   2    -0.896627963321E+02   -0.54291E-01   -0.55987E-01  1256   0.164E+00    0.460E-01
DAV:   3    -0.896619209839E+02    0.87535E-03   -0.92221E-03  1288   0.214E-01    0.298E-01
DAV:   4    -0.896610291772E+02    0.89181E-03   -0.36604E-03  1244   0.122E-01    0.106E-01
DAV:   5    -0.896610987561E+02   -0.69579E-04   -0.44433E-04  1112   0.618E-02
  10 F= -.89661099E+02 E0= -.89661099E+02  d E =-.988311E-01  mag=     0.0000
 curvature: -10.78 expect dE=-0.478E-01 dE for cont linesearch -0.191E-04
 trial: gam= 0.47515 g(F)=  0.443E-02 g(S)=  0.000E+00 ort =-0.132E-03 (trialstep = 0.103E+02)
 search vector abs. value=  0.653E-02
 bond charge predicted
       N       E                     dE             d eps       ncg     rms          rms(c)
DAV:   1    -0.896771470949E+02   -0.16118E-01   -0.46129E+01  1200   0.106E+01    0.335E-01
DAV:   2    -0.896981892843E+02   -0.21042E-01   -0.21693E-01  1260   0.103E+00    0.251E-01
DAV:   3    -0.896977869352E+02    0.40235E-03   -0.38709E-03  1248   0.157E-01    0.174E-01
DAV:   4    -0.896973672060E+02    0.41973E-03   -0.12724E-03  1264   0.724E-02    0.721E-02
DAV:   5    -0.896974077681E+02   -0.40562E-04   -0.44011E-04  1240   0.483E-02
  11 F= -.89697408E+02 E0= -.89697408E+02  d E =-.363090E-01  mag=     0.0000
 trial-energy change:   -0.036309  1 .order   -0.036470   -0.044845   -0.028095
 step:  27.4803(harm= 27.4803)  dis= 0.06250  next Energy=   -89.721129 (dE=-0.600E-01)
 bond charge predicted
       N       E                     dE             d eps       ncg     rms          rms(c)
DAV:   1    -0.896612512335E+02    0.36116E-01   -0.12999E+02  1208   0.179E+01    0.615E-01
DAV:   2    -0.897210138757E+02   -0.59763E-01   -0.61592E-01  1260   0.173E+00    0.429E-01
DAV:   3    -0.897197064666E+02    0.13074E-02   -0.11119E-02  1264   0.268E-01    0.289E-01
DAV:   4    -0.897185312549E+02    0.11752E-02   -0.39899E-03  1276   0.124E-01    0.105E-01
DAV:   5    -0.897186206418E+02   -0.89387E-04   -0.78552E-04  1256   0.677E-02
  12 F= -.89718621E+02 E0= -.89718621E+02  d E =-.575219E-01  mag=     0.0000
 curvature: -20.53 expect dE=-0.586E-01 dE for cont linesearch -0.241E-03
 trial: gam= 0.62009 g(F)=  0.286E-02 g(S)=  0.000E+00 ort =-0.277E-03 (trialstep = 0.137E+02)
 search vector abs. value=  0.502E-02
 bond charge predicted
       N       E                     dE             d eps       ncg     rms          rms(c)
DAV:   1    -0.897169158564E+02    0.16154E-02   -0.63149E+01  1208   0.125E+01    0.362E-01
DAV:   2    -0.897452880969E+02   -0.28372E-01   -0.29479E-01  1244   0.120E+00    0.287E-01
DAV:   3    -0.897447543311E+02    0.53377E-03   -0.52461E-03  1264   0.187E-01    0.205E-01
DAV:   4    -0.897441018633E+02    0.65247E-03   -0.15073E-03  1320   0.708E-02    0.916E-02
DAV:   5    -0.897441102434E+02   -0.83801E-05   -0.79561E-04  1248   0.536E-02
  13 F= -.89744110E+02 E0= -.89744110E+02  d E =-.254896E-01  mag=     0.0000
 trial-energy change:   -0.025490  1 .order   -0.026091   -0.036807   -0.015375
 step:  28.9808(harm= 23.5414)  dis= 0.05693  next Energy=   -89.751844 (dE=-0.332E-01)
 bond charge predicted
       N       E                     dE             d eps       ncg     rms          rms(c)
DAV:   1    -0.897123641564E+02    0.31738E-01   -0.78419E+01  1200   0.139E+01    0.412E-01
DAV:   2    -0.897475370529E+02   -0.35173E-01   -0.36645E-01  1232   0.134E+00    0.321E-01
DAV:   3    -0.897468590089E+02    0.67804E-03   -0.65360E-03  1248   0.209E-01    0.228E-01
DAV:   4    -0.897460463397E+02    0.81267E-03   -0.19232E-03  1312   0.799E-02    0.989E-02
DAV:   5    -0.897460601618E+02   -0.13822E-04   -0.89659E-04  1248   0.576E-02
  14 F= -.89746060E+02 E0= -.89746060E+02  d E =-.274395E-01  mag=     0.0000
 curvature: -15.28 expect dE=-0.431E-01 dE for cont linesearch -0.160E-02
 ZBRENT: interpolating
 opt :  22.9878  next Energy=   -89.748231 (dE=-0.296E-01)
 bond charge predicted
       N       E                     dE             d eps       ncg     rms          rms(c)
DAV:   1    -0.897436710094E+02    0.23753E-02   -0.12080E+01  1208   0.544E+00    0.151E-01
DAV:   2    -0.897490094521E+02   -0.53384E-02   -0.54830E-02  1256   0.518E-01    0.133E-01
DAV:   3    -0.897488802464E+02    0.12921E-03   -0.94375E-04  1296   0.766E-02    0.996E-02
DAV:   4    -0.897487146205E+02    0.16563E-03   -0.39526E-04  1152   0.341E-02    0.418E-02
DAV:   5    -0.897487271267E+02   -0.12506E-04   -0.16790E-04   800   0.257E-02
  15 F= -.89748727E+02 E0= -.89748727E+02  d E =-.301065E-01  mag=     0.0000
 curvature: -20.78 expect dE=-0.364E-01 dE for cont linesearch -0.956E-04
 trial: gam= 0.52727 g(F)=  0.175E-02 g(S)=  0.000E+00 ort =-0.152E-03 (trialstep = 0.156E+02)
 search vector abs. value=  0.299E-02
 bond charge predicted
       N       E                     dE             d eps       ncg     rms          rms(c)
DAV:   1    -0.897478642928E+02    0.85033E-03   -0.48469E+01  1200   0.109E+01    0.276E-01
DAV:   2    -0.897693796147E+02   -0.21515E-01   -0.22454E-01  1240   0.106E+00    0.264E-01
DAV:   3    -0.897690178262E+02    0.36179E-03   -0.40644E-03  1272   0.166E-01    0.190E-01
DAV:   4    -0.897684118627E+02    0.60596E-03   -0.86243E-04  1296   0.513E-02    0.111E-01
DAV:   5    -0.897683031099E+02    0.10875E-03   -0.12671E-03  1232   0.601E-02    0.336E-02
DAV:   6    -0.897682868877E+02    0.16222E-04   -0.40858E-05   768   0.124E-02
  16 F= -.89768287E+02 E0= -.89768287E+02  d E =-.195598E-01  mag=     0.0000
 trial-energy change:   -0.019560  1 .order   -0.019487   -0.026028   -0.012945
 step:  30.9636(harm= 30.9636)  dis= 0.04393  next Energy=   -89.774619 (dE=-0.259E-01)
 bond charge predicted
       N       E                     dE             d eps       ncg     rms          rms(c)
DAV:   1    -0.897540249090E+02    0.14278E-01   -0.47427E+01  1200   0.108E+01    0.269E-01
DAV:   2    -0.897751334656E+02   -0.21109E-01   -0.22050E-01  1240   0.105E+00    0.257E-01
DAV:   3    -0.897748243654E+02    0.30910E-03   -0.39546E-03  1240   0.163E-01    0.184E-01
DAV:   4    -0.897742762831E+02    0.54808E-03   -0.77124E-04  1312   0.491E-02    0.110E-01
DAV:   5    -0.897741767959E+02    0.99487E-04   -0.12505E-03  1224   0.596E-02    0.332E-02
DAV:   6    -0.897741644527E+02    0.12343E-04   -0.37925E-05   768   0.120E-02
  17 F= -.89774164E+02 E0= -.89774164E+02  d E =-.254373E-01  mag=     0.0000
 curvature: -27.67 expect dE=-0.313E-01 dE for cont linesearch -0.294E-05
 trial: gam= 0.68539 g(F)=  0.113E-02 g(S)=  0.000E+00 ort =-0.178E-04 (trialstep = 0.186E+02)
 search vector abs. value=  0.251E-02
 bond charge predicted
       N       E                     dE             d eps       ncg     rms          rms(c)
DAV:   1    -0.897641545879E+02    0.10022E-01   -0.58312E+01  1200   0.120E+01    0.283E-01
DAV:   2    -0.897902412304E+02   -0.26087E-01   -0.26713E-01  1224   0.116E+00    0.273E-01
DAV:   3    -0.897898633959E+02    0.37783E-03   -0.46984E-03  1240   0.173E-01    0.199E-01
DAV:   4    -0.897891637815E+02    0.69961E-03   -0.87851E-04  1312   0.519E-02    0.122E-01
DAV:   5    -0.897889979777E+02    0.16580E-03   -0.16878E-03  1200   0.684E-02    0.366E-02
DAV:   6    -0.897889873824E+02    0.10595E-04   -0.38751E-05   784   0.128E-02
  18 F= -.89788987E+02 E0= -.89788987E+02  d E =-.148229E-01  mag=     0.0000
 trial-energy change:   -0.014823  1 .order   -0.015168   -0.020860   -0.009476
 step:  34.1631(harm= 34.1631)  dis= 0.03822  next Energy=   -89.793276 (dE=-0.191E-01)
 bond charge predicted
       N       E                     dE             d eps       ncg     rms          rms(c)
DAV:   1    -0.897750923918E+02    0.13906E-01   -0.40382E+01  1200   0.996E+00    0.231E-01
DAV:   2    -0.897931650193E+02   -0.18073E-01   -0.18481E-01  1224   0.959E-01    0.222E-01
DAV:   3    -0.897929149584E+02    0.25006E-03   -0.31871E-03  1256   0.140E-01    0.163E-01
DAV:   4    -0.897924440645E+02    0.47089E-03   -0.59553E-04  1296   0.427E-02    0.100E-01
DAV:   5    -0.897923373010E+02    0.10676E-03   -0.11592E-03  1208   0.565E-02    0.304E-02
DAV:   6    -0.897923316733E+02    0.56277E-05   -0.26323E-05   768   0.103E-02
  19 F= -.89792332E+02 E0= -.89792332E+02  d E =-.181672E-01  mag=     0.0000
 curvature: -38.33 expect dE=-0.386E-01 dE for cont linesearch -0.944E-05
 trial: gam= 0.89459 g(F)=  0.101E-02 g(S)=  0.000E+00 ort =-0.249E-04 (trialstep = 0.184E+02)
 search vector abs. value=  0.297E-02
 bond charge predicted
       N       E                     dE             d eps       ncg     rms          rms(c)
DAV:   1    -0.897768878752E+02    0.15449E-01   -0.67029E+01  1200   0.128E+01    0.267E-01
DAV:   2    -0.898071902920E+02   -0.30302E-01   -0.30884E-01  1208   0.124E+00    0.278E-01
DAV:   3    -0.898068019527E+02    0.38834E-03   -0.52455E-03  1248   0.175E-01    0.206E-01
DAV:   4    -0.898060384225E+02    0.76353E-03   -0.73457E-04  1296   0.473E-02    0.140E-01
DAV:   5    -0.898057169807E+02    0.32144E-03   -0.24907E-03  1216   0.813E-02    0.420E-02
DAV:   6    -0.898057162608E+02    0.71987E-06   -0.33770E-05   752   0.134E-02
  20 F= -.89805716E+02 E0= -.89805716E+02  d E =-.133846E-01  mag=     0.0000
 trial-energy change:   -0.013385  1 .order   -0.014021   -0.018101   -0.009940
 step:  40.7418(harm= 40.7418)  dis= 0.05466  next Energy=   -89.812406 (dE=-0.201E-01)
 bond charge predicted
       N       E                     dE             d eps       ncg     rms          rms(c)
DAV:   1    -0.897676088919E+02    0.38108E-01   -0.99500E+01  1200   0.156E+01    0.328E-01
DAV:   2    -0.898125913163E+02   -0.44982E-01   -0.45821E-01  1216   0.151E+00    0.336E-01
DAV:   3    -0.898120031557E+02    0.58816E-03   -0.76779E-03  1248   0.210E-01    0.249E-01
DAV:   4    -0.898108640770E+02    0.11391E-02   -0.11231E-03  1328   0.583E-02    0.168E-01
DAV:   5    -0.898104089179E+02    0.45516E-03   -0.34835E-03  1216   0.960E-02    0.500E-02
DAV:   6    -0.898104105315E+02   -0.16136E-05   -0.45668E-05   744   0.153E-02
  21 F= -.89810411E+02 E0= -.89810411E+02  d E =-.180789E-01  mag=     0.0000
 curvature: -61.45 expect dE=-0.917E-01 dE for cont linesearch -0.498E-07
 trial: gam= 1.42218 g(F)=  0.149E-02 g(S)=  0.000E+00 ort = 0.155E-05 (trialstep = 0.904E+01)
 search vector abs. value=  0.751E-02
 bond charge predicted
       N       E                     dE             d eps       ncg     rms          rms(c)
DAV:   1    -0.898040578302E+02    0.63511E-02   -0.41007E+01  1200   0.100E+01    0.212E-01
DAV:   2    -0.898227000012E+02   -0.18642E-01   -0.19129E-01  1208   0.976E-01    0.215E-01
DAV:   3    -0.898224572308E+02    0.24277E-03   -0.32939E-03  1264   0.141E-01    0.157E-01
DAV:   4    -0.898220119026E+02    0.44533E-03   -0.45288E-04  1264   0.368E-02    0.105E-01
DAV:   5    -0.898218456892E+02    0.16621E-03   -0.15043E-03  1224   0.628E-02    0.314E-02
DAV:   6    -0.898218469469E+02   -0.12577E-05   -0.24785E-05   768   0.113E-02
  22 F= -.89821847E+02 E0= -.89821847E+02  d E =-.114364E-01  mag=     0.0000
 ZBRENT: can't locate minimum, use default step
 trial-energy change:   -0.011436  1 .order   -0.012048   -0.013519   -0.010577
 step:  36.1681(harm= 41.5459)  dis= 0.08320  next Energy=   -89.841468 (dE=-0.311E-01)
 bond charge predicted
       N       E                     dE             d eps       ncg     rms          rms(c)
DAV:   1    -0.896740647662E+02    0.14778E+00   -0.37201E+02  1200   0.303E+01    0.757E-01
DAV:   2    -0.898466170332E+02   -0.17255E+00   -0.17566E+00  1232   0.296E+00    0.639E-01
DAV:   3    -0.898437967587E+02    0.28203E-02   -0.29782E-02  1280   0.418E-01    0.448E-01
DAV:   4    -0.898395126783E+02    0.42841E-02   -0.53018E-03  1296   0.125E-01    0.270E-01
DAV:   5    -0.898383657858E+02    0.11469E-02   -0.81787E-03  1228   0.147E-01    0.710E-02
DAV:   6    -0.898383762273E+02   -0.10441E-04   -0.14951E-04   848   0.255E-02
  23 F= -.89838376E+02 E0= -.89838376E+02  d E =-.279657E-01  mag=     0.0000
 curvature: ****** expect dE=-0.167E+00 dE for cont linesearch -0.675E-03
 trial: gam= 0.96712 g(F)=  0.165E-02 g(S)=  0.000E+00 ort = 0.223E-03 (trialstep = 0.119E+02)
 search vector abs. value=  0.911E-02
 bond charge predicted
       N       E                     dE             d eps       ncg     rms          rms(c)
DAV:   1    -0.898171542197E+02    0.21212E-01   -0.86606E+01  1200   0.146E+01    0.330E-01
DAV:   2    -0.898564927551E+02   -0.39339E-01   -0.39876E-01  1216   0.141E+00    0.310E-01
DAV:   3    -0.898558889367E+02    0.60382E-03   -0.65506E-03  1280   0.192E-01    0.227E-01
DAV:   4    -0.898548039289E+02    0.10850E-02   -0.13474E-03  1280   0.625E-02    0.136E-01
DAV:   5    -0.898545691488E+02    0.23478E-03   -0.23407E-03  1224   0.794E-02    0.412E-02
DAV:   6    -0.898545754830E+02   -0.63341E-05   -0.52031E-05   816   0.139E-02
  24 F= -.89854575E+02 E0= -.89854575E+02  d E =-.161993E-01  mag=     0.0000
 trial-energy change:   -0.016199  1 .order   -0.017476   -0.022259   -0.012694
 step:  27.7648(harm= 27.7648)  dis= 0.07326  next Energy=   -89.864275 (dE=-0.259E-01)
 bond charge predicted
       N       E                     dE             d eps       ncg     rms          rms(c)
DAV:   1    -0.897964598217E+02    0.58109E-01   -0.15277E+02  1200   0.194E+01    0.454E-01
DAV:   2    -0.898658770687E+02   -0.69417E-01   -0.70336E-01  1208   0.186E+00    0.409E-01
DAV:   3    -0.898647159246E+02    0.11611E-02   -0.11439E-02  1264   0.252E-01    0.298E-01
DAV:   4    -0.898627575193E+02    0.19584E-02   -0.25726E-03  1288   0.863E-02    0.171E-01
DAV:   5    -0.898623699612E+02    0.38756E-03   -0.35193E-03  1208   0.978E-02    0.512E-02
DAV:   6    -0.898623675913E+02    0.23698E-05   -0.85035E-05   800   0.174E-02
  25 F= -.89862368E+02 E0= -.89862368E+02  d E =-.239914E-01  mag=     0.0000
 curvature: -67.76 expect dE=-0.116E+00 dE for cont linesearch -0.335E-04
 trial: gam= 0.91866 g(F)=  0.170E-02 g(S)=  0.000E+00 ort = 0.671E-04 (trialstep = 0.145E+02)
 search vector abs. value=  0.951E-02
 bond charge predicted
       N       E                     dE             d eps       ncg     rms          rms(c)
DAV:   1    -0.898255985166E+02    0.36771E-01   -0.13273E+02  1200   0.181E+01    0.372E-01
DAV:   2    -0.898854489622E+02   -0.59850E-01   -0.59987E-01  1240   0.172E+00    0.382E-01
DAV:   3    -0.898845894457E+02    0.85952E-03   -0.93366E-03  1264   0.218E-01    0.291E-01
DAV:   4    -0.898827639880E+02    0.18255E-02   -0.19064E-03  1272   0.742E-02    0.186E-01
DAV:   5    -0.898821828206E+02    0.58117E-03   -0.41944E-03  1208   0.106E-01    0.594E-02
DAV:   6    -0.898822010248E+02   -0.18204E-04   -0.53943E-05   768   0.148E-02
  26 F= -.89882201E+02 E0= -.89882201E+02  d E =-.198334E-01  mag=     0.0000
 trial-energy change:   -0.019833  1 .order   -0.021237   -0.025528   -0.016946
 step:  42.9875(harm= 42.9875)  dis= 0.09324  next Energy=   -89.900335 (dE=-0.380E-01)
 bond charge predicted
       N       E                     dE             d eps       ncg     rms          rms(c)
DAV:   1    -0.896643864156E+02    0.21780E+00   -0.52137E+02  1200   0.360E+01    0.852E-01
DAV:   2    -0.899024074265E+02   -0.23802E+00   -0.23855E+00  1240   0.344E+00    0.769E-01
DAV:   3    -0.898983548850E+02    0.40525E-02   -0.37198E-02  1264   0.437E-01    0.559E-01
DAV:   4    -0.898912318300E+02    0.71231E-02   -0.88894E-03  1288   0.159E-01    0.330E-01
DAV:   5    -0.898895654991E+02    0.16663E-02   -0.10554E-02  1208   0.169E-01    0.994E-02
DAV:   6    -0.898896225128E+02   -0.57014E-04   -0.15568E-04   832   0.250E-02
  27 F= -.89889623E+02 E0= -.89889623E+02  d E =-.272549E-01  mag=     0.0000
 curvature: ****** expect dE=-0.286E+00 dE for cont linesearch -0.837E-03
 trial: gam= 1.26194 g(F)=  0.247E-02 g(S)=  0.000E+00 ort =-0.262E-03 (trialstep = 0.113E+02)
 search vector abs. value=  0.170E-01
 bond charge predicted
       N       E                     dE             d eps       ncg     rms          rms(c)
DAV:   1    -0.898447395500E+02    0.44826E-01   -0.14483E+02  1200   0.189E+01    0.365E-01
DAV:   2    -0.899089646118E+02   -0.64225E-01   -0.64238E-01  1240   0.178E+00    0.400E-01
DAV:   3    -0.899080547124E+02    0.90990E-03   -0.96964E-03  1328   0.214E-01    0.314E-01
DAV:   4    -0.899058965344E+02    0.21582E-02   -0.21111E-03  1240   0.783E-02    0.206E-01
DAV:   5    -0.899051384975E+02    0.75804E-03   -0.48036E-03  1232   0.113E-01    0.705E-02
DAV:   6    -0.899051917663E+02   -0.53269E-04   -0.47489E-05   800   0.143E-02
  28 F= -.89905192E+02 E0= -.89905192E+02  d E =-.155693E-01  mag=     0.0000
 trial-energy change:   -0.015569  1 .order   -0.018509   -0.024199   -0.012819
 step:  24.0455(harm= 24.0455)  dis= 0.06813  next Energy=   -89.915350 (dE=-0.257E-01)
 bond charge predicted
       N       E                     dE             d eps       ncg     rms          rms(c)
DAV:   1    -0.898325700072E+02    0.72568E-01   -0.18393E+02  1200   0.213E+01    0.419E-01
DAV:   2    -0.899142390292E+02   -0.81669E-01   -0.81659E-01  1240   0.200E+00    0.448E-01
DAV:   3    -0.899130488971E+02    0.11901E-02   -0.12320E-02  1312   0.241E-01    0.350E-01
DAV:   4    -0.899103079279E+02    0.27410E-02   -0.27632E-03  1256   0.894E-02    0.226E-01
DAV:   5    -0.899093892736E+02    0.91865E-03   -0.56568E-03  1216   0.122E-01    0.762E-02
DAV:   6    -0.899094418031E+02   -0.52529E-04   -0.56075E-05   776   0.156E-02
  29 F= -.89909442E+02 E0= -.89909442E+02  d E =-.198193E-01  mag=     0.0000
 curvature: -95.27 expect dE=-0.222E+00 dE for cont linesearch -0.182E-04
 trial: gam= 0.38531 g(F)=  0.233E-02 g(S)=  0.000E+00 ort =-0.569E-04 (trialstep = 0.139E+02)
 search vector abs. value=  0.480E-02
 bond charge predicted
       N       E                     dE             d eps       ncg     rms          rms(c)
DAV:   1    -0.899093003491E+02    0.88924E-04   -0.61600E+01  1200   0.123E+01    0.267E-01
DAV:   2    -0.899365277358E+02   -0.27227E-01   -0.27251E-01  1240   0.115E+00    0.261E-01
DAV:   3    -0.899360291778E+02    0.49856E-03   -0.39028E-03  1312   0.135E-01    0.202E-01
DAV:   4    -0.899350563126E+02    0.97287E-03   -0.14482E-03  1240   0.642E-02    0.107E-01
DAV:   5    -0.899349478613E+02    0.10845E-03   -0.13161E-03  1264   0.612E-02    0.386E-02
DAV:   6    -0.899349529166E+02   -0.50553E-05   -0.27568E-05   736   0.998E-03
  30 F= -.89934953E+02 E0= -.89934953E+02  d E =-.255111E-01  mag=     0.0000
 trial-energy change:   -0.025511  1 .order   -0.026431   -0.031990   -0.020872
 step:  39.8669(harm= 39.8669)  dis= 0.06443  next Energy=   -89.955464 (dE=-0.460E-01)
 bond charge predicted
       N       E                     dE             d eps       ncg     rms          rms(c)
DAV:   1    -0.898635706935E+02    0.71377E-01   -0.21798E+02  1200   0.232E+01    0.529E-01
DAV:   2    -0.899605123355E+02   -0.96942E-01   -0.97013E-01  1240   0.217E+00    0.493E-01
DAV:   3    -0.899585549342E+02    0.19574E-02   -0.14031E-02  1296   0.257E-01    0.375E-01
DAV:   4    -0.899551752058E+02    0.33797E-02   -0.51554E-03  1232   0.121E-01    0.194E-01
DAV:   5    -0.899547701043E+02    0.40510E-03   -0.39059E-03  1264   0.106E-01    0.656E-02
DAV:   6    -0.899547776420E+02   -0.75378E-05   -0.82675E-05   768   0.177E-02
  31 F= -.89954778E+02 E0= -.89954778E+02  d E =-.453358E-01  mag=     0.0000
 curvature: -41.48 expect dE=-0.103E+00 dE for cont linesearch -0.265E-03
 trial: gam= 0.93600 g(F)=  0.247E-02 g(S)=  0.000E+00 ort = 0.175E-03 (trialstep = 0.131E+02)
 search vector abs. value=  0.701E-02
 bond charge predicted
       N       E                     dE             d eps       ncg     rms          rms(c)
DAV:   1    -0.899495473394E+02    0.52228E-02   -0.79916E+01  1200   0.140E+01    0.287E-01
DAV:   2    -0.899850861595E+02   -0.35539E-01   -0.35537E-01  1256   0.131E+00    0.300E-01
DAV:   3    -0.899845092812E+02    0.57688E-03   -0.51356E-03  1280   0.155E-01    0.234E-01
DAV:   4    -0.899832576550E+02    0.12516E-02   -0.15072E-03  1232   0.657E-02    0.141E-01
DAV:   5    -0.899829831100E+02    0.27455E-03   -0.22591E-03  1264   0.788E-02    0.489E-02
DAV:   6    -0.899829976568E+02   -0.14547E-04   -0.31305E-05   736   0.108E-02
  32 F= -.89982998E+02 E0= -.89982998E+02  d E =-.282200E-01  mag=     0.0000
 trial-energy change:   -0.028220  1 .order   -0.029308   -0.034445   -0.024171
 step:  43.7903(harm= 43.7903)  dis= 0.08690  next Energy=   -90.012517 (dE=-0.577E-01)
 bond charge predicted
       N       E                     dE             d eps       ncg     rms          rms(c)
DAV:   1    -0.898165547562E+02    0.16643E+00   -0.44686E+02  1200   0.333E+01    0.793E-01
DAV:   2    -0.900189645332E+02   -0.20241E+00   -0.20278E+00  1256   0.315E+00    0.722E-01
DAV:   3    -0.900151581680E+02    0.38064E-02   -0.30227E-02  1264   0.385E-01    0.530E-01
DAV:   4    -0.900086739176E+02    0.64843E-02   -0.88004E-03  1240   0.160E-01    0.302E-01
DAV:   5    -0.900074025884E+02    0.12713E-02   -0.81076E-03  1232   0.152E-01    0.930E-02
DAV:   6    -0.900074620243E+02   -0.59436E-04   -0.12478E-04   824   0.223E-02
  33 F= -.90007462E+02 E0= -.90007462E+02  d E =-.526844E-01  mag=     0.0000
 curvature: -58.20 expect dE=-0.267E+00 dE for cont linesearch -0.142E-04
 trial: gam= 1.98846 g(F)=  0.459E-02 g(S)=  0.000E+00 ort =-0.414E-04 (trialstep = 0.419E+01)
 search vector abs. value=  0.321E-01
 bond charge predicted
       N       E                     dE             d eps       ncg     rms          rms(c)
DAV:   1    -0.900074311061E+02   -0.28518E-04   -0.37609E+01  1200   0.960E+00    0.185E-01
DAV:   2    -0.900241051634E+02   -0.16674E-01   -0.16591E-01  1264   0.897E-01    0.198E-01
DAV:   3    -0.900238537002E+02    0.25146E-03   -0.23851E-03  1312   0.106E-01    0.157E-01
DAV:   4    -0.900232908234E+02    0.56288E-03   -0.61015E-04  1248   0.415E-02    0.981E-02
DAV:   5    -0.900231416020E+02    0.14922E-03   -0.12403E-03  1232   0.578E-02    0.335E-02
DAV:   6    -0.900231624169E+02   -0.20815E-04   -0.14356E-05   768   0.742E-03
  34 F= -.90023162E+02 E0= -.90023162E+02  d E =-.157004E-01  mag=    -0.0000
 ZBRENT: can't locate minimum, use default step
 trial-energy change:   -0.015700  1 .order   -0.016744   -0.018882   -0.014605
 step:  16.7558(harm= 18.4930)  dis= 0.08590  next Energy=   -90.049142 (dE=-0.417E-01)
 bond charge predicted
       N       E                     dE             d eps       ncg     rms          rms(c)
DAV:   1    -0.899029214468E+02    0.12022E+00   -0.34195E+02  1200   0.291E+01    0.655E-01
DAV:   2    -0.900563684525E+02   -0.15345E+00   -0.15347E+00  1296   0.274E+00    0.610E-01
DAV:   3    -0.900533380592E+02    0.30304E-02   -0.22676E-02  1280   0.333E-01    0.455E-01
DAV:   4    -0.900482716756E+02    0.50664E-02   -0.62331E-03  1264   0.132E-01    0.265E-01
DAV:   5    -0.900470307146E+02    0.12410E-02   -0.69849E-03  1240   0.139E-01    0.798E-02
DAV:   6    -0.900470954818E+02   -0.64767E-04   -0.86542E-05   800   0.192E-02
  35 F= -.90047095E+02 E0= -.90047095E+02  d E =-.396335E-01  mag=    -0.0000
 curvature: -64.96 expect dE=-0.232E+00 dE for cont linesearch -0.942E-03
 trial: gam= 0.08393 g(F)=  0.356E-02 g(S)=  0.000E+00 ort = 0.683E-03 (trialstep = 0.670E+01)
 search vector abs. value=  0.391E-02
 bond charge predicted
       N       E                     dE             d eps       ncg     rms          rms(c)
DAV:   1    -0.900623843513E+02   -0.15354E-01   -0.11767E+01  1200   0.538E+00    0.156E-01
DAV:   2    -0.900676744831E+02   -0.52901E-02   -0.53878E-02  1232   0.506E-01    0.127E-01
DAV:   3    -0.900675937776E+02    0.80705E-04   -0.82920E-04  1328   0.612E-02
  36 F= -.90067594E+02 E0= -.90067594E+02  d E =-.204983E-01  mag=    -0.0000
 trial-energy change:   -0.020498  1 .order   -0.020447   -0.024275   -0.016619
 step:  21.2518(harm= 21.2518)  dis= 0.03398  next Energy=   -90.085581 (dE=-0.385E-01)
 bond charge predicted
       N       E                     dE             d eps       ncg     rms          rms(c)
DAV:   1    -0.900624788195E+02    0.51957E-02   -0.55595E+01  1200   0.117E+01    0.366E-01
DAV:   2    -0.900873392197E+02   -0.24860E-01   -0.25392E-01  1232   0.110E+00    0.291E-01
DAV:   3    -0.900868583926E+02    0.48083E-03   -0.39451E-03  1312   0.132E-01    0.199E-01
DAV:   4    -0.900863193925E+02    0.53900E-03   -0.20525E-03  1224   0.785E-02    0.637E-02
DAV:   5    -0.900863664557E+02   -0.47063E-04   -0.16760E-04   800   0.306E-02
  37 F= -.90086366E+02 E0= -.90086366E+02  d E =-.392710E-01  mag=    -0.0000
 curvature: -11.46 expect dE=-0.286E-01 dE for cont linesearch -0.660E-04
 trial: gam= 0.66515 g(F)=  0.250E-02 g(S)=  0.000E+00 ort = 0.150E-03 (trialstep = 0.848E+01)
 search vector abs. value=  0.443E-02
 bond charge predicted
       N       E                     dE             d eps       ncg     rms          rms(c)
DAV:   1    -0.900960455721E+02   -0.97262E-02   -0.21245E+01  1200   0.720E+00    0.168E-01
DAV:   2    -0.901055688886E+02   -0.95233E-02   -0.95580E-02  1248   0.675E-01    0.153E-01
DAV:   3    -0.901054347926E+02    0.13410E-03   -0.13792E-03  1296   0.792E-02    0.114E-01
DAV:   4    -0.901051728114E+02    0.26198E-03   -0.51949E-04  1216   0.384E-02    0.565E-02
DAV:   5    -0.901051761074E+02   -0.32961E-05   -0.29054E-04   912   0.303E-02
  38 F= -.90105176E+02 E0= -.90105176E+02  d E =-.188097E-01  mag=    -0.0000
 ZBRENT: can't locate minimum, use default step
 trial-energy change:   -0.018810  1 .order   -0.019388   -0.022040   -0.016737
 step:  33.9262(harm= 35.2516)  dis= 0.05218  next Energy=   -90.132168 (dE=-0.458E-01)
 bond charge predicted
       N       E                     dE             d eps       ncg     rms          rms(c)
DAV:   1    -0.900441997358E+02    0.60973E-01   -0.19207E+02  1200   0.217E+01    0.545E-01
DAV:   2    -0.901309719068E+02   -0.86772E-01   -0.87111E-01  1240   0.204E+00    0.466E-01
DAV:   3    -0.901295065382E+02    0.14654E-02   -0.12757E-02  1296   0.242E-01    0.340E-01
DAV:   4    -0.901269938426E+02    0.25127E-02   -0.50545E-03  1232   0.119E-01    0.158E-01
DAV:   5    -0.901269416206E+02    0.52222E-04   -0.21569E-03  1248   0.805E-02    0.574E-02
DAV:   6    -0.901269194786E+02    0.22142E-04   -0.10481E-04   768   0.183E-02
  39 F= -.90126919E+02 E0= -.90126919E+02  d E =-.405530E-01  mag=    -0.0000
 curvature: -29.95 expect dE=-0.674E-01 dE for cont linesearch -0.152E-03
 trial: gam= 0.99644 g(F)=  0.225E-02 g(S)=  0.000E+00 ort =-0.150E-03 (trialstep = 0.947E+01)
 search vector abs. value=  0.635E-02
 bond charge predicted
       N       E                     dE             d eps       ncg     rms          rms(c)
DAV:   1    -0.901275200325E+02   -0.57841E-03   -0.37922E+01  1200   0.963E+00    0.196E-01
DAV:   2    -0.901444230344E+02   -0.16903E-01   -0.16940E-01  1240   0.904E-01    0.193E-01
DAV:   3    -0.901441657954E+02    0.25724E-03   -0.24729E-03  1264   0.110E-01    0.149E-01
DAV:   4    -0.901436717580E+02    0.49404E-03   -0.57457E-04  1248   0.404E-02    0.894E-02
DAV:   5    -0.901435536871E+02    0.11807E-03   -0.10297E-03  1216   0.527E-02    0.281E-02
DAV:   6    -0.901435654026E+02   -0.11716E-04   -0.12986E-05   736   0.708E-03
  40 F= -.90143565E+02 E0= -.90143565E+02  d E =-.166459E-01  mag=    -0.0000
 trial-energy change:   -0.016646  1 .order   -0.016997   -0.019880   -0.014115
 step:  32.6448(harm= 32.6448)  dis= 0.06584  next Energy=   -90.161197 (dE=-0.343E-01)
 bond charge predicted
       N       E                     dE             d eps       ncg     rms          rms(c)
DAV:   1    -0.900600785595E+02    0.83475E-01   -0.22864E+02  1200   0.237E+01    0.539E-01
DAV:   2    -0.901631213284E+02   -0.10304E+00   -0.10344E+00  1256   0.224E+00    0.477E-01
DAV:   3    -0.901612994029E+02    0.18219E-02   -0.15388E-02  1264   0.279E-01    0.354E-01
DAV:   4    -0.901583548049E+02    0.29446E-02   -0.37634E-03  1280   0.103E-01    0.202E-01
DAV:   5    -0.901576962460E+02    0.65856E-03   -0.45386E-03  1248   0.112E-01    0.581E-02
DAV:   6    -0.901577207010E+02   -0.24455E-04   -0.61871E-05   784   0.158E-02
  41 F= -.90157721E+02 E0= -.90157721E+02  d E =-.308012E-01  mag=    -0.0000
 curvature: -49.32 expect dE=-0.114E+00 dE for cont linesearch -0.639E-04
 trial: gam= 0.82271 g(F)=  0.231E-02 g(S)=  0.000E+00 ort =-0.907E-04 (trialstep = 0.139E+02)
 search vector abs. value=  0.645E-02
 bond charge predicted
       N       E                     dE             d eps       ncg     rms          rms(c)
DAV:   1    -0.901485279950E+02    0.91683E-02   -0.82786E+01  1200   0.142E+01    0.281E-01
DAV:   2    -0.901854086455E+02   -0.36881E-01   -0.36885E-01  1264   0.134E+00    0.299E-01
DAV:   3    -0.901848531175E+02    0.55553E-03   -0.53622E-03  1296   0.161E-01    0.234E-01
DAV:   4    -0.901836557043E+02    0.11974E-02   -0.12210E-03  1280   0.589E-02    0.150E-01
DAV:   5    -0.901832604784E+02    0.39523E-03   -0.26844E-03  1240   0.850E-02    0.489E-02
DAV:   6    -0.901832811706E+02   -0.20692E-04   -0.28526E-05   736   0.106E-02
  42 F= -.90183281E+02 E0= -.90183281E+02  d E =-.255605E-01  mag=    -0.0000
 trial-energy change:   -0.025560  1 .order   -0.027046   -0.030971   -0.023122
 step:  54.7094(harm= 54.7094)  dis= 0.10315  next Energy=   -90.218827 (dE=-0.611E-01)
 bond charge predicted
       N       E                     dE             d eps       ncg     rms          rms(c)
DAV:   1    -0.898938714992E+02    0.28939E+00   -0.73179E+02  1200   0.427E+01    0.107E+00
DAV:   2    -0.902314411664E+02   -0.33757E+00   -0.33748E+00  1272   0.408E+00    0.931E-01
DAV:   3    -0.902257194211E+02    0.57217E-02   -0.52672E-02  1280   0.512E-01    0.674E-01
DAV:   4    -0.902162456995E+02    0.94737E-02   -0.11472E-02  1312   0.182E-01    0.413E-01
DAV:   5    -0.902136715966E+02    0.25741E-02   -0.13305E-02  1232   0.191E-01    0.120E-01
DAV:   6    -0.902138320616E+02   -0.16046E-03   -0.16397E-04   864   0.269E-02    0.688E-02
DAV:   7    -0.902139042453E+02   -0.72184E-04   -0.75441E-05   784   0.175E-02
  43 F= -.90213904E+02 E0= -.90213904E+02  d E =-.561835E-01  mag=    -0.0000
 curvature: -79.03 expect dE=-0.364E+00 dE for cont linesearch -0.155E-04
 trial: gam= 1.87395 g(F)=  0.461E-02 g(S)=  0.000E+00 ort = 0.356E-04 (trialstep = 0.519E+01)
 search vector abs. value=  0.274E-01
 bond charge predicted
       N       E                     dE             d eps       ncg     rms          rms(c)
DAV:   1    -0.902140944350E+02   -0.26237E-03   -0.49223E+01  1200   0.110E+01    0.204E-01
DAV:   2    -0.902362571019E+02   -0.22163E-01   -0.21959E-01  1264   0.103E+00    0.226E-01
DAV:   3    -0.902359931617E+02    0.26394E-03   -0.31719E-03  1312   0.122E-01    0.181E-01
DAV:   4    -0.902352955664E+02    0.69760E-03   -0.66994E-04  1264   0.440E-02    0.120E-01
DAV:   5    -0.902350428224E+02    0.25274E-03   -0.17918E-03  1224   0.690E-02    0.405E-02
DAV:   6    -0.902350693990E+02   -0.26577E-04   -0.17794E-05   768   0.849E-03
  44 F= -.90235069E+02 E0= -.90235069E+02  d E =-.211652E-01  mag=    -0.0000
 ZBRENT: can't locate minimum, use default step
 trial-energy change:   -0.021165  1 .order   -0.022290   -0.024271   -0.020310
 step:  20.7526(harm= 31.7894)  dis= 0.08465  next Energy=   -90.288262 (dE=-0.744E-01)
 bond charge predicted
       N       E                     dE             d eps       ncg     rms          rms(c)
DAV:   1    -0.900802542259E+02    0.15479E+00   -0.44883E+02  1200   0.333E+01    0.747E-01
DAV:   2    -0.902872817507E+02   -0.20703E+00   -0.20509E+00  1248   0.317E+00    0.699E-01
DAV:   3    -0.902843341814E+02    0.29476E-02   -0.31511E-02  1328   0.389E-01    0.520E-01
DAV:   4    -0.902784382853E+02    0.58959E-02   -0.66377E-03  1248   0.138E-01    0.326E-01
DAV:   5    -0.902765915165E+02    0.18468E-02   -0.95309E-03  1240   0.161E-01    0.970E-02
DAV:   6    -0.902767057303E+02   -0.11421E-03   -0.11152E-04   832   0.220E-02    0.582E-02
DAV:   7    -0.902767560670E+02   -0.50337E-04   -0.61003E-05   752   0.147E-02
  45 F= -.90276756E+02 E0= -.90276756E+02  d E =-.628518E-01  mag=    -0.0000
 curvature: -77.10 expect dE=-0.263E+00 dE for cont linesearch -0.940E-02
 ZBRENT: increasing intervall
 opt :  51.8815  next Energy=   -90.268690 (dE=-0.548E-01)
 bond charge predicted
       N       E                     dE             d eps       ncg     rms          rms(c)
DAV:   1    -0.893340760540E+02    0.94263E+00   -0.18717E+03  1200   0.693E+01    0.235E+00
DAV:   2    -0.902551393502E+02   -0.92106E+00   -0.92442E+00  1264   0.684E+00    0.159E+00
DAV:   3    -0.902412748173E+02    0.13865E-01   -0.14903E-01  1312   0.873E-01    0.105E+00
DAV:   4    -0.902225175932E+02    0.18757E-01   -0.24294E-02  1264   0.272E-01    0.682E-01
DAV:   5    -0.902169271389E+02    0.55905E-02   -0.23612E-02  1240   0.255E-01    0.199E-01
DAV:   6    -0.902172831543E+02   -0.35602E-03   -0.49749E-04  1328   0.457E-02    0.107E-01
DAV:   7    -0.902174852613E+02   -0.20211E-03   -0.67481E-05   768   0.245E-02    0.294E-02
DAV:   8    -0.902175510144E+02   -0.65753E-04   -0.17979E-05   832   0.800E-03
  46 F= -.90217551E+02 E0= -.90217551E+02  d E =-.364677E-02  mag=    -0.0000
 curvature:  66.18 expect dE= 0.102E+01 dE for cont linesearch  0.924E-01
 ZBRENT: bracketing found
 ZBRENT: interpolating
 opt :  27.8515  next Energy=   -90.283244 (dE=-0.693E-01)
 bond charge predicted
       N       E                     dE             d eps       ncg     rms          rms(c)
DAV:   1    -0.897849516086E+02    0.43253E+00   -0.10916E+03  1200   0.524E+01    0.145E+00
DAV:   2    -0.903069297617E+02   -0.52198E+00   -0.52056E+00  1248   0.506E+00    0.111E+00
DAV:   3    -0.902989189049E+02    0.80109E-02   -0.80268E-02  1328   0.611E-01    0.789E-01
DAV:   4    -0.902864234782E+02    0.12495E-01   -0.16099E-02  1280   0.216E-01    0.476E-01
DAV:   5    -0.902832473936E+02    0.31761E-02   -0.15839E-02  1248   0.206E-01    0.130E-01
DAV:   6    -0.902834313727E+02   -0.18398E-03   -0.20554E-04   880   0.333E-02    0.720E-02
DAV:   7    -0.902835082208E+02   -0.76848E-04   -0.69492E-05   784   0.182E-02
  47 F= -.90283508E+02 E0= -.90283508E+02  d E =-.696040E-01  mag=     0.0000
 curvature:  -4.65 expect dE=-0.211E-01 dE for cont linesearch -0.282E-05
 trial: gam= 0.68685 g(F)=  0.455E-02 g(S)=  0.000E+00 ort =-0.129E-03 (trialstep = 0.972E+01)
 search vector abs. value=  0.173E-01
 bond charge predicted
       N       E                     dE             d eps       ncg     rms          rms(c)
DAV:   1    -0.902756432564E+02    0.77881E-02   -0.10963E+02  1200   0.163E+01    0.335E-01
DAV:   2    -0.903253033064E+02   -0.49660E-01   -0.49477E-01  1264   0.154E+00    0.328E-01
DAV:   3    -0.903246002019E+02    0.70310E-03   -0.70989E-03  1312   0.180E-01    0.255E-01
DAV:   4    -0.903231401629E+02    0.14600E-02   -0.18369E-03  1264   0.716E-02    0.148E-01
DAV:   5    -0.903228301143E+02    0.31005E-03   -0.24523E-03  1248   0.814E-02    0.478E-02
DAV:   6    -0.903228450322E+02   -0.14918E-04   -0.31023E-05   768   0.111E-02
  48 F= -.90322845E+02 E0= -.90322845E+02  d E =-.393368E-01  mag=     0.0000
 trial-energy change:   -0.039337  1 .order   -0.038551   -0.043362   -0.033741
 step:  24.8557(harm= 43.8093)  dis= 0.09304  next Energy=   -90.352076 (dE=-0.686E-01)
 bond charge predicted
       N       E                     dE             d eps       ncg     rms          rms(c)
DAV:   1    -0.902371788456E+02    0.85651E-01   -0.26727E+02  1200   0.255E+01    0.585E-01
DAV:   2    -0.903599538377E+02   -0.12277E+00   -0.12247E+00  1248   0.243E+00    0.524E-01
DAV:   3    -0.903581376199E+02    0.18162E-02   -0.18669E-02  1296   0.294E-01    0.390E-01
DAV:   4    -0.903547466563E+02    0.33910E-02   -0.46662E-03  1264   0.114E-01    0.222E-01
DAV:   5    -0.903541168142E+02    0.62984E-03   -0.46830E-03  1248   0.114E-01    0.685E-02
DAV:   6    -0.903541556987E+02   -0.38885E-04   -0.66931E-05   784   0.165E-02
  49 F= -.90354156E+02 E0= -.90354156E+02  d E =-.706475E-01  mag=    -0.0000
 curvature: -58.70 expect dE=-0.177E+00 dE for cont linesearch -0.372E-02
 ZBRENT: extrapolating
 opt :  31.3965  next Energy=   -90.357581 (dE=-0.741E-01)
 bond charge predicted
       N       E                     dE             d eps       ncg     rms          rms(c)
DAV:   1    -0.903337040528E+02    0.20413E-01   -0.49472E+01  1200   0.110E+01    0.231E-01
DAV:   2    -0.903561446474E+02   -0.22441E-01   -0.22262E-01  1264   0.103E+00    0.225E-01
DAV:   3    -0.903558710516E+02    0.27360E-03   -0.33295E-03  1296   0.122E-01    0.173E-01
DAV:   4    -0.903552177889E+02    0.65326E-03   -0.95838E-04  1248   0.518E-02    0.975E-02
DAV:   5    -0.903551431957E+02    0.74593E-04   -0.10581E-03  1208   0.540E-02    0.345E-02
DAV:   6    -0.903551523930E+02   -0.91974E-05   -0.19194E-05   752   0.812E-03
  50 F= -.90355152E+02 E0= -.90355152E+02  d E =-.716442E-01  mag=    -0.0000
 curvature: -54.03 expect dE=-0.224E+00 dE for cont linesearch -0.536E-03
 trial: gam= 0.68959 g(F)=  0.414E-02 g(S)=  0.000E+00 ort =-0.414E-03 (trialstep = 0.141E+02)
 search vector abs. value=  0.118E-01
 bond charge predicted
       N       E                     dE             d eps       ncg     rms          rms(c)
DAV:   1    -0.903300795137E+02    0.25064E-01   -0.15651E+02  1200   0.195E+01    0.438E-01
DAV:   2    -0.904026881166E+02   -0.72609E-01   -0.71958E-01  1264   0.185E+00    0.391E-01
DAV:   3    -0.904017005323E+02    0.98758E-03   -0.10961E-02  1296   0.224E-01    0.295E-01
DAV:   4    -0.903997362557E+02    0.19643E-02   -0.28688E-03  1248   0.899E-02    0.160E-01
DAV:   5    -0.903994478966E+02    0.28836E-03   -0.28257E-03  1216   0.879E-02    0.500E-02
DAV:   6    -0.903994600771E+02   -0.12180E-04   -0.50658E-05   736   0.135E-02
  51 F= -.90399460E+02 E0= -.90399460E+02  d E =-.443077E-01  mag=     0.0000
 trial-energy change:   -0.044308  1 .order   -0.045530   -0.054222   -0.036838
 step:  43.8412(harm= 43.8412)  dis= 0.17350  next Energy=   -90.439712 (dE=-0.846E-01)
 bond charge predicted
       N       E                     dE             d eps       ncg     rms          rms(c)
DAV:   1    -0.900911370842E+02    0.30831E+00   -0.71731E+02  1200   0.421E+01    0.123E+00
DAV:   2    -0.904364240845E+02   -0.34529E+00   -0.34519E+00  1264   0.409E+00    0.869E-01
DAV:   3    -0.904310246033E+02    0.53995E-02   -0.55064E-02  1288   0.516E-01    0.601E-01
DAV:   4    -0.904233155477E+02    0.77091E-02   -0.12165E-02  1280   0.187E-01    0.325E-01
DAV:   5    -0.904221309268E+02    0.11846E-02   -0.79929E-03  1216   0.150E-01    0.860E-02
DAV:   6    -0.904222203516E+02   -0.89425E-04   -0.14838E-04   832   0.253E-02
  52 F= -.90422220E+02 E0= -.90422220E+02  d E =-.670680E-01  mag=     0.0000
 curvature: -67.05 expect dE=-0.447E+00 dE for cont linesearch -0.507E-02
 trial: gam= 1.39382 g(F)=  0.667E-02 g(S)=  0.000E+00 ort =-0.944E-03 (trialstep = 0.876E+01)
 search vector abs. value=  0.270E-01
 bond charge predicted
       N       E                     dE             d eps       ncg     rms          rms(c)
DAV:   1    -0.903955957933E+02    0.26535E-01   -0.13883E+02  1200   0.183E+01    0.387E-01
DAV:   2    -0.904593920184E+02   -0.63796E-01   -0.63580E-01  1312   0.174E+00    0.362E-01
DAV:   3    -0.904584809872E+02    0.91103E-03   -0.92668E-03  1296   0.205E-01    0.275E-01
DAV:   4    -0.904567832642E+02    0.16977E-02   -0.21813E-03  1248   0.788E-02    0.162E-01
DAV:   5    -0.904564300798E+02    0.35318E-03   -0.29913E-03  1232   0.898E-02    0.493E-02
DAV:   6    -0.904564702503E+02   -0.40170E-04   -0.36653E-05   816   0.120E-02
  53 F= -.90456470E+02 E0= -.90456470E+02  d E =-.342499E-01  mag=     0.0000
 trial-energy change:   -0.034250  1 .order   -0.037039   -0.046885   -0.027193
 step:  20.8551(harm= 20.8551)  dis= 0.14749  next Energy=   -90.478036 (dE=-0.558E-01)
 bond charge predicted
       N       E                     dE             d eps       ncg     rms          rms(c)
DAV:   1    -0.903516918331E+02    0.10474E+00   -0.26640E+02  1200   0.255E+01    0.595E-01
DAV:   2    -0.904765945872E+02   -0.12490E+00   -0.12387E+00  1288   0.243E+00    0.506E-01
DAV:   3    -0.904748391513E+02    0.17554E-02   -0.18373E-02  1296   0.291E-01    0.372E-01
DAV:   4    -0.904717018526E+02    0.31373E-02   -0.44108E-03  1240   0.112E-01    0.210E-01
DAV:   5    -0.904711200419E+02    0.58181E-03   -0.44464E-03  1256   0.111E-01    0.598E-02
DAV:   6    -0.904711704357E+02   -0.50394E-04   -0.61589E-05   816   0.159E-02
  54 F= -.90471170E+02 E0= -.90471170E+02  d E =-.489501E-01  mag=    -0.0000
 curvature: -52.52 expect dE=-0.344E+00 dE for cont linesearch -0.271E-03
 trial: gam= 0.27108 g(F)=  0.655E-02 g(S)=  0.000E+00 ort =-0.373E-03 (trialstep = 0.112E+02)
 search vector abs. value=  0.833E-02
 bond charge predicted
       N       E                     dE             d eps       ncg     rms          rms(c)
DAV:   1    -0.905019878800E+02   -0.30868E-01   -0.69491E+01  1200   0.131E+01    0.317E-01
DAV:   2    -0.905328466107E+02   -0.30859E-01   -0.30860E-01  1240   0.122E+00    0.290E-01
DAV:   3    -0.905323772849E+02    0.46933E-03   -0.47457E-03  1344   0.145E-01    0.218E-01
DAV:   4    -0.905314113930E+02    0.96589E-03   -0.20194E-03  1248   0.751E-02    0.100E-01
DAV:   5    -0.905314233642E+02   -0.11971E-04   -0.91275E-04  1296   0.525E-02
  55 F= -.90531423E+02 E0= -.90531423E+02  d E =-.602529E-01  mag=    -0.0000
 trial-energy change:   -0.060253  1 .order   -0.061267   -0.072049   -0.050484
 step:  37.3480(harm= 37.3480)  dis= 0.09146  next Energy=   -90.591532 (dE=-0.120E+00)
 bond charge predicted
       N       E                     dE             d eps       ncg     rms          rms(c)
DAV:   1    -0.904208634440E+02    0.11055E+00   -0.38389E+02  1200   0.309E+01    0.802E-01
DAV:   2    -0.905941155492E+02   -0.17325E+00   -0.17359E+00  1256   0.289E+00    0.667E-01
DAV:   3    -0.905913395998E+02    0.27759E-02   -0.26840E-02  1328   0.348E-01    0.487E-01
DAV:   4    -0.905864978626E+02    0.48417E-02   -0.98927E-03  1248   0.167E-01    0.223E-01
DAV:   5    -0.905863831810E+02    0.11468E-03   -0.39686E-03  1296   0.109E-01    0.769E-02
DAV:   6    -0.905863565958E+02    0.26585E-04   -0.17055E-04   832   0.235E-02
  56 F= -.90586357E+02 E0= -.90586357E+02  d E =-.115186E+00  mag=    -0.0000
 curvature: -24.12 expect dE=-0.126E+00 dE for cont linesearch -0.357E-04
 trial: gam= 0.78705 g(F)=  0.522E-02 g(S)=  0.000E+00 ort =-0.111E-03 (trialstep = 0.134E+02)
 search vector abs. value=  0.102E-01
 bond charge predicted
       N       E                     dE             d eps       ncg     rms          rms(c)
DAV:   1    -0.905854150534E+02    0.96813E-03   -0.12253E+02  1200   0.173E+01    0.405E-01
DAV:   2    -0.906402931903E+02   -0.54878E-01   -0.55312E-01  1264   0.163E+00    0.393E-01
DAV:   3    -0.906395369165E+02    0.75627E-03   -0.86285E-03  1312   0.201E-01    0.292E-01
DAV:   4    -0.906378064669E+02    0.17304E-02   -0.27816E-03  1232   0.895E-02    0.164E-01
DAV:   5    -0.906376645576E+02    0.14191E-03   -0.24301E-03  1272   0.825E-02    0.583E-02
DAV:   6    -0.906376606884E+02    0.38692E-05   -0.66204E-05   784   0.142E-02
  57 F= -.90637661E+02 E0= -.90637661E+02  d E =-.513041E-01  mag=    -0.0000
 trial-energy change:   -0.051304  1 .order   -0.052125   -0.068746   -0.035503
 step:  38.1105(harm= 27.6943)  dis= 0.09772  next Energy=   -90.665267 (dE=-0.789E-01)
 bond charge predicted
       N       E                     dE             d eps       ncg     rms          rms(c)
DAV:   1    -0.904577132704E+02    0.17995E+00   -0.42145E+02  1200   0.323E+01    0.847E-01
DAV:   2    -0.906512909400E+02   -0.19358E+00   -0.19484E+00  1256   0.309E+00    0.748E-01
DAV:   3    -0.906484745646E+02    0.28164E-02   -0.31070E-02  1312   0.387E-01    0.531E-01
DAV:   4    -0.906429100476E+02    0.55645E-02   -0.92763E-03  1216   0.164E-01    0.292E-01
DAV:   5    -0.906424015063E+02    0.50854E-03   -0.63130E-03  1280   0.134E-01    0.938E-02
DAV:   6    -0.906423993036E+02    0.22028E-05   -0.18067E-04   848   0.237E-02
  58 F= -.90642399E+02 E0= -.90642399E+02  d E =-.560427E-01  mag=    -0.0000
 curvature: -12.92 expect dE=-0.870E-01 dE for cont linesearch -0.562E-02
 ZBRENT: interpolating
 opt :  27.1680  next Energy=   -90.653921 (dE=-0.676E-01)
 bond charge predicted
       N       E                     dE             d eps       ncg     rms          rms(c)
DAV:   1    -0.906202440621E+02    0.22157E-01   -0.81796E+01  1200   0.142E+01    0.335E-01
DAV:   2    -0.906569238162E+02   -0.36680E-01   -0.36702E-01  1256   0.133E+00    0.317E-01
DAV:   3    -0.906564433372E+02    0.48048E-03   -0.57589E-03  1328   0.163E-01    0.237E-01
DAV:   4    -0.906553196684E+02    0.11237E-02   -0.19893E-03  1240   0.761E-02    0.126E-01
DAV:   5    -0.906552828557E+02    0.36813E-04   -0.15009E-03  1256   0.656E-02    0.455E-02
DAV:   6    -0.906552669871E+02    0.15869E-04   -0.57004E-05   784   0.128E-02
  59 F= -.90655267E+02 E0= -.90655267E+02  d E =-.689104E-01  mag=    -0.0000
 curvature: -26.51 expect dE=-0.821E-01 dE for cont linesearch -0.290E-04
 trial: gam= 0.56300 g(F)=  0.310E-02 g(S)=  0.000E+00 ort =-0.106E-03 (trialstep = 0.161E+02)
 search vector abs. value=  0.621E-02
 bond charge predicted
       N       E                     dE             d eps       ncg     rms          rms(c)
DAV:   1    -0.906449394848E+02    0.10343E-01   -0.10863E+02  1200   0.163E+01    0.362E-01
DAV:   2    -0.906942852980E+02   -0.49346E-01   -0.49346E-01  1240   0.154E+00    0.344E-01
DAV:   3    -0.906936833520E+02    0.60195E-03   -0.77723E-03  1296   0.192E-01    0.257E-01
DAV:   4    -0.906923083047E+02    0.13750E-02   -0.19054E-03  1256   0.734E-02    0.149E-01
DAV:   5    -0.906920968568E+02    0.21145E-03   -0.23743E-03  1240   0.807E-02    0.489E-02
DAV:   6    -0.906920895366E+02    0.73202E-05   -0.47777E-05   752   0.125E-02
  60 F= -.90692090E+02 E0= -.90692090E+02  d E =-.368225E-01  mag=    -0.0000
 trial-energy change:   -0.036823  1 .order   -0.036994   -0.049073   -0.024915
 step:  32.8003(harm= 32.8003)  dis= 0.08167  next Energy=   -90.705109 (dE=-0.498E-01)
 bond charge predicted
       N       E                     dE             d eps       ncg     rms          rms(c)
DAV:   1    -0.906515856965E+02    0.40511E-01   -0.11551E+02  1200   0.168E+01    0.384E-01
DAV:   2    -0.907041788927E+02   -0.52593E-01   -0.52577E-01  1256   0.159E+00    0.360E-01
DAV:   3    -0.907035317698E+02    0.64712E-03   -0.82841E-03  1288   0.199E-01    0.266E-01
DAV:   4    -0.907020636744E+02    0.14681E-02   -0.21647E-03  1240   0.780E-02    0.151E-01
DAV:   5    -0.907018702333E+02    0.19344E-03   -0.23535E-03  1264   0.807E-02    0.502E-02
DAV:   6    -0.907018619171E+02    0.83162E-05   -0.55511E-05   768   0.132E-02
  61 F= -.90701862E+02 E0= -.90701862E+02  d E =-.465949E-01  mag=    -0.0000
 curvature: -33.53 expect dE=-0.622E-01 dE for cont linesearch -0.355E-03
 trial: gam= 0.59769 g(F)=  0.186E-02 g(S)=  0.000E+00 ort =-0.257E-03 (trialstep = 0.195E+02)
 search vector abs. value=  0.377E-02
 bond charge predicted
       N       E                     dE             d eps       ncg     rms          rms(c)
DAV:   1    -0.906783043193E+02    0.23566E-01   -0.95714E+01  1200   0.153E+01    0.372E-01
DAV:   2    -0.907215367891E+02   -0.43232E-01   -0.43478E-01  1256   0.144E+00    0.326E-01
DAV:   3    -0.907208984556E+02    0.63833E-03   -0.65167E-03  1296   0.174E-01    0.238E-01
DAV:   4    -0.907197183743E+02    0.11801E-02   -0.22577E-03  1248   0.807E-02    0.118E-01
DAV:   5    -0.907196831993E+02    0.35175E-04   -0.13084E-03  1248   0.610E-02    0.409E-02
DAV:   6    -0.907196715920E+02    0.11607E-04   -0.51334E-05   752   0.123E-02
  62 F= -.90719672E+02 E0= -.90719672E+02  d E =-.178097E-01  mag=    -0.0000
 trial-energy change:   -0.017810  1 .order   -0.018327   -0.033145   -0.003509
 step:  22.0948(harm= 21.7839)  dis= 0.04910  next Energy=   -90.719906 (dE=-0.180E-01)
 bond charge predicted
       N       E                     dE             d eps       ncg     rms          rms(c)
DAV:   1    -0.907190662936E+02    0.61691E-03   -0.17192E+00  1200   0.204E+00    0.472E-02
DAV:   2    -0.907198413716E+02   -0.77508E-03   -0.77703E-03  1280   0.193E-01    0.447E-02
DAV:   3    -0.907198332817E+02    0.80900E-05   -0.10185E-04   704   0.230E-02
  63 F= -.90719833E+02 E0= -.90719833E+02  d E =-.179714E-01  mag=    -0.0000
 curvature: -23.68 expect dE=-0.215E-01 dE for cont linesearch -0.318E-03
 trial: gam= 0.36040 g(F)=  0.907E-03 g(S)=  0.000E+00 ort =-0.225E-03 (trialstep = 0.200E+02)
 search vector abs. value=  0.123E-02
 bond charge predicted
       N       E                     dE             d eps       ncg     rms          rms(c)
DAV:   1    -0.907172052869E+02    0.26361E-02   -0.33012E+01  1200   0.901E+00    0.216E-01
DAV:   2    -0.907318785519E+02   -0.14673E-01   -0.14687E-01  1240   0.835E-01    0.194E-01
DAV:   3    -0.907316478358E+02    0.23072E-03   -0.22119E-03  1312   0.969E-02    0.147E-01
DAV:   4    -0.907312030024E+02    0.44483E-03   -0.10554E-03  1248   0.546E-02    0.609E-02
DAV:   5    -0.907312210901E+02   -0.18088E-04   -0.34058E-04  1040   0.332E-02
  64 F= -.90731221E+02 E0= -.90731221E+02  d E =-.113878E-01  mag=    -0.0000
 trial-energy change:   -0.011388  1 .order   -0.011365   -0.016518   -0.006213
 step:  32.0612(harm= 32.0612)  dis= 0.03195  next Energy=   -90.733072 (dE=-0.132E-01)
 bond charge predicted
       N       E                     dE             d eps       ncg     rms          rms(c)
DAV:   1    -0.907270420541E+02    0.41609E-02   -0.11976E+01  1200   0.542E+00    0.135E-01
DAV:   2    -0.907324197658E+02   -0.53777E-02   -0.53879E-02  1240   0.504E-01    0.113E-01
DAV:   3    -0.907323533224E+02    0.66443E-04   -0.81270E-04  1312   0.587E-02
  65 F= -.90732353E+02 E0= -.90732353E+02  d E =-.125200E-01  mag=    -0.0000
 curvature: -23.96 expect dE=-0.177E-01 dE for cont linesearch -0.140E-03
 trial: gam= 0.90014 g(F)=  0.740E-03 g(S)=  0.000E+00 ort =-0.848E-04 (trialstep = 0.174E+02)
 search vector abs. value=  0.159E-02
 bond charge predicted
       N       E                     dE             d eps       ncg     rms          rms(c)
DAV:   1    -0.907258023015E+02    0.66175E-02   -0.32211E+01  1200   0.887E+00    0.190E-01
DAV:   2    -0.907402394353E+02   -0.14437E-01   -0.14450E-01  1240   0.831E-01    0.188E-01
DAV:   3    -0.907400463815E+02    0.19305E-03   -0.21675E-03  1344   0.969E-02    0.147E-01
DAV:   4    -0.907395719066E+02    0.47447E-03   -0.80569E-04  1240   0.478E-02    0.767E-02
DAV:   5    -0.907395528896E+02    0.19017E-04   -0.69418E-04  1248   0.434E-02
  66 F= -.90739553E+02 E0= -.90739553E+02  d E =-.719957E-02  mag=    -0.0000
 trial-energy change:   -0.007200  1 .order   -0.007881   -0.011569   -0.004194
 step:  27.3296(harm= 27.3296)  dis= 0.02848  next Energy=   -90.741427 (dE=-0.907E-02)
 bond charge predicted
       N       E                     dE             d eps       ncg     rms          rms(c)
DAV:   1    -0.907355728536E+02    0.39991E-02   -0.10387E+01  1200   0.504E+00    0.113E-01
DAV:   2    -0.907403176091E+02   -0.47448E-02   -0.47410E-02  1248   0.474E-01    0.102E-01
DAV:   3    -0.907402736636E+02    0.43945E-04   -0.71443E-04  1312   0.559E-02
  67 F= -.90740274E+02 E0= -.90740274E+02  d E =-.792034E-02  mag=    -0.0000
 curvature: -32.67 expect dE=-0.154E-01 dE for cont linesearch -0.523E-04
 trial: gam= 0.51369 g(F)=  0.472E-03 g(S)=  0.000E+00 ort =-0.504E-04 (trialstep = 0.194E+02)
 search vector abs. value=  0.840E-03
 bond charge predicted
       N       E                     dE             d eps       ncg     rms          rms(c)
DAV:   1    -0.907365101083E+02    0.38075E-02   -0.21127E+01  1200   0.721E+00    0.164E-01
DAV:   2    -0.907458257843E+02   -0.93157E-02   -0.93494E-02  1240   0.669E-01    0.158E-01
DAV:   3    -0.907456761000E+02    0.14968E-03   -0.14037E-03  1328   0.772E-02    0.124E-01
DAV:   4    -0.907453400174E+02    0.33608E-03   -0.71847E-04  1232   0.446E-02    0.562E-02
DAV:   5    -0.907453484336E+02   -0.84161E-05   -0.32059E-04   912   0.315E-02
  68 F= -.90745348E+02 E0= -.90745348E+02  d E =-.507477E-02  mag=    -0.0000
 trial-energy change:   -0.005075  1 .order   -0.005727   -0.008664   -0.002790
 step:  28.6196(harm= 28.6196)  dis= 0.01681  next Energy=   -90.746663 (dE=-0.639E-02)
 bond charge predicted
       N       E                     dE             d eps       ncg     rms          rms(c)
DAV:   1    -0.907434708146E+02    0.18692E-02   -0.47514E+00  1200   0.342E+00    0.809E-02
DAV:   2    -0.907456147427E+02   -0.21439E-02   -0.21483E-02  1256   0.319E-01    0.692E-02
DAV:   3    -0.907455888709E+02    0.25872E-04   -0.27545E-04   784   0.366E-02
  69 F= -.90745589E+02 E0= -.90745589E+02  d E =-.531521E-02  mag=    -0.0000
 curvature: -26.91 expect dE=-0.109E-01 dE for cont linesearch -0.120E-02
 ZBRENT: interpolating
 opt :  23.3346  next Energy=   -90.745631 (dE=-0.536E-02)
 bond charge predicted
       N       E                     dE             d eps       ncg     rms          rms(c)
DAV:   1    -0.907449160435E+02    0.69870E-03   -0.15523E+00  1200   0.195E+00    0.384E-02
DAV:   2    -0.907456495282E+02   -0.73348E-03   -0.71982E-03  1264   0.185E-01    0.338E-02
DAV:   3    -0.907456422836E+02    0.72446E-05   -0.95126E-05   720   0.221E-02
  70 F= -.90745642E+02 E0= -.90745642E+02  d E =-.536862E-02  mag=    -0.0000
 curvature:  -6.35 expect dE=-0.162E-02 dE for cont linesearch -0.105E-03
 trial: gam= 0.29688 g(F)=  0.256E-03 g(S)=  0.000E+00 ort = 0.118E-03 (trialstep = 0.202E+02)
 search vector abs. value=  0.400E-03
 bond charge predicted
       N       E                     dE             d eps       ncg     rms          rms(c)
DAV:   1    -0.907442539790E+02    0.13955E-02   -0.10865E+01  1200   0.516E+00    0.120E-01
DAV:   2    -0.907491799723E+02   -0.49260E-02   -0.49206E-02  1256   0.485E-01    0.106E-01
DAV:   3    -0.907491190924E+02    0.60880E-04   -0.72830E-04  1280   0.574E-02
  71 F= -.90749119E+02 E0= -.90749119E+02  d E =-.347681E-02  mag=    -0.0000
 trial-energy change:   -0.003477  1 .order   -0.003758   -0.005867   -0.001648
 step:  28.0783(harm= 28.0783)  dis= 0.01302  next Energy=   -90.749722 (dE=-0.408E-02)
 bond charge predicted
       N       E                     dE             d eps       ncg     rms          rms(c)
DAV:   1    -0.907486736337E+02    0.50634E-03   -0.16683E+00  1216   0.203E+00    0.692E-02
DAV:   2    -0.907493558564E+02   -0.68222E-03   -0.70906E-03  1264   0.185E-01    0.600E-02
DAV:   3    -0.907493247036E+02    0.31153E-04   -0.10075E-04   720   0.211E-02
  72 F= -.90749325E+02 E0= -.90749325E+02  d E =-.368242E-02  mag=    -0.0000
 curvature: -19.31 expect dE=-0.289E-02 dE for cont linesearch -0.977E-04
 trial: gam= 0.00000 g(F)=  0.150E-03 g(S)=  0.000E+00 ort =-0.450E-04 (trialstep = 0.218E+02)
 search vector abs. value=  0.150E-03
 bond charge predicted
       N       E                     dE             d eps       ncg     rms          rms(c)
DAV:   1    -0.907479163582E+02    0.14395E-02   -0.47767E+00  1200   0.343E+00    0.111E-01
DAV:   2    -0.907500029128E+02   -0.20866E-02   -0.21868E-02  1224   0.321E-01    0.880E-02
DAV:   3    -0.907499721186E+02    0.30794E-04   -0.36188E-04  1024   0.403E-02
  73 F= -.90749972E+02 E0= -.90749972E+02  d E =-.647415E-03  mag=    -0.0000
 trial-energy change:   -0.000647  1 .order   -0.000305   -0.003259    0.002649
 step:  12.0077(harm= 12.0077)  dis= 0.00326  next Energy=   -90.750224 (dE=-0.899E-03)
 bond charge predicted
       N       E                     dE             d eps       ncg     rms          rms(c)
DAV:   1    -0.907498492006E+02    0.15371E-03   -0.95244E-01  1208   0.153E+00    0.399E-02
DAV:   2    -0.907502793299E+02   -0.43013E-03   -0.44153E-03  1240   0.146E-01    0.332E-02
DAV:   3    -0.907502747437E+02    0.45861E-05   -0.68255E-05   704   0.188E-02
  74 F= -.90750275E+02 E0= -.90750275E+02  d E =-.950040E-03  mag=    -0.0000
 curvature:  -6.00 expect dE=-0.380E-03 dE for cont linesearch -0.924E-04
 trial: gam= 0.10224 g(F)=  0.633E-04 g(S)=  0.000E+00 ort = 0.480E-04 (trialstep = 0.198E+02)
 search vector abs. value=  0.747E-04
 reached required accuracy - stopping structural energy minimisation
Application 91034415 resources: utime ~191547s, stime ~950s, Rss ~75500, inblocks ~2049571, outblocks ~1127276
