<?xml version="1.0" encoding="ISO-8859-1"?>
<modeling>
 <generator>
  <i name="program" type="string">vasp </i>
  <i name="version" type="string">5.3.5  </i>
  <i name="subversion" type="string">31Mar14 (build Feb 01 2018 12:10:03) gamma-only                       parallel </i>
  <i name="platform" type="string">LinuxIFC </i>
  <i name="date" type="string">2019 03 23 </i>
  <i name="time" type="string">12:38:44 </i>
 </generator>
 <incar>
  <i type="string" name="PREC">normal</i>
  <i type="int" name="ISPIN">     2</i>
  <i type="int" name="IBRION">     2</i>
  <i type="int" name="NSW">  1000</i>
  <i type="int" name="ISIF">     2</i>
  <i name="POTIM">      0.10000000</i>
  <i type="logical" name="LPLANE"> T  </i>
  <i type="int" name="ISMEAR">     0</i>
  <i name="SIGMA">      0.00010000</i>
  <i type="logical" name="LWAVE"> F  </i>
  <i type="logical" name="LCHARG"> F  </i>
  <i type="logical" name="LVTOT"> F  </i>
  <i type="string" name="GGA"> PE</i>
 </incar>
 <kpoints>
  <varray name="kpointlist" >
   <v>       0.00000000       0.00000000       0.00000000 </v>
  </varray>
  <varray name="weights" >
   <v>       1.00000000 </v>
  </varray>
 </kpoints>
 <parameters>
  <separator name="general" >
   <i type="string" name="SYSTEM">unknown system</i>
   <i type="logical" name="LCOMPAT"> F  </i>
  </separator>
  <separator name="electronic" >
   <i type="string" name="PREC">normal</i>
   <i name="ENMAX">    249.84400000</i>
   <i name="ENAUG">    412.49600000</i>
   <i name="EDIFF">      0.00010000</i>
   <i type="int" name="IALGO">    38</i>
   <i type="int" name="IWAVPR">    11</i>
   <i type="int" name="NBANDS">   300</i>
   <i name="NELECT">    462.00000000</i>
   <i type="int" name="TURBO">     0</i>
   <i type="int" name="IRESTART">     0</i>
   <i type="int" name="NREBOOT">     0</i>
   <i type="int" name="NMIN">     0</i>
   <i name="EREF">      0.00000000</i>
   <separator name="electronic smearing" >
    <i type="int" name="ISMEAR">     0</i>
    <i name="SIGMA">      0.00010000</i>
    <i name="KSPACING">      0.50000000</i>
    <i type="logical" name="KGAMMA"> T  </i>
   </separator>
   <separator name="electronic projectors" >
    <i type="logical" name="LREAL"> F  </i>
    <v name="ROPT">      0.00000000</v>
    <i type="int" name="LMAXPAW">  -100</i>
    <i type="int" name="LMAXMIX">     2</i>
    <i type="logical" name="NLSPLINE"> F  </i>
   </separator>
   <separator name="electronic startup" >
    <i type="int" name="ISTART">     0</i>
    <i type="int" name="ICHARG">     2</i>
    <i type="int" name="INIWAV">     1</i>
   </separator>
   <separator name="electronic spin" >
    <i type="int" name="ISPIN">     2</i>
    <i type="logical" name="LNONCOLLINEAR"> F  </i>
    <v name="MAGMOM">      1.00000000      1.00000000      1.00000000      1.00000000      1.00000000      1.00000000      1.00000000      1.00000000      1.00000000      1.00000000      1.00000000      1.00000000      1.00000000      1.00000000      1.00000000      1.00000000      1.00000000      1.00000000      1.00000000      1.00000000
      1.00000000      1.00000000      1.00000000      1.00000000      1.00000000      1.00000000      1.00000000      1.00000000      1.00000000      1.00000000      1.00000000      1.00000000      1.00000000      1.00000000      1.00000000      1.00000000      1.00000000      1.00000000      1.00000000      1.00000000
      1.00000000      1.00000000</v>
    <i name="NUPDOWN">     -1.00000000</i>
    <i type="logical" name="LSORBIT"> F  </i>
    <v name="SAXIS">      0.00000000      0.00000000      1.00000000</v>
    <i type="logical" name="LSPIRAL"> F  </i>
    <v name="QSPIRAL">      0.00000000      0.00000000      0.00000000</v>
    <i type="logical" name="LZEROZ"> F  </i>
   </separator>
   <separator name="electronic exchange-correlation" >
    <i type="logical" name="LASPH"> F  </i>
    <i type="logical" name="LMETAGGA"> F  </i>
   </separator>
   <separator name="electronic convergence" >
    <i type="int" name="NELM">    60</i>
    <i type="int" name="NELMDL">    -5</i>
    <i type="int" name="NELMIN">     2</i>
    <i name="ENINI">    249.84400000</i>
    <separator name="electronic convergence detail" >
     <i type="logical" name="LDIAG"> T  </i>
     <i type="logical" name="LSUBROT"> F  </i>
     <i name="WEIMIN">      0.00100000</i>
     <i name="EBREAK">      0.00000008</i>
     <i name="DEPER">      0.30000000</i>
     <i type="int" name="NRMM">     4</i>
     <i name="TIME">      0.40000000</i>
    </separator>
   </separator>
   <separator name="electronic mixer" >
    <i name="AMIX">      0.40000000</i>
    <i name="BMIX">      1.00000000</i>
    <i name="AMIN">      0.10000000</i>
    <i name="AMIX_MAG">      1.60000000</i>
    <i name="BMIX_MAG">      1.00000000</i>
    <separator name="electronic mixer details" >
     <i type="int" name="IMIX">     4</i>
     <i type="int" name="MAXMIX">   -45</i>
     <i name="WC">    100.00000000</i>
     <i type="int" name="INIMIX">     1</i>
     <i type="int" name="MIXPRE">     1</i>
     <i type="int" name="MREMOVE">     5</i>
    </separator>
   </separator>
   <separator name="electronic dipolcorrection" >
    <i type="logical" name="LDIPOL"> F  </i>
    <i type="logical" name="LMONO"> F  </i>
    <i type="int" name="IDIPOL">     0</i>
    <i name="EPSILON">      1.00000000</i>
    <v name="DIPOL">   -100.00000000   -100.00000000   -100.00000000</v>
    <i name="EFIELD">      0.00000000</i>
   </separator>
  </separator>
  <separator name="grids" >
   <i type="int" name="NGX">    96</i>
   <i type="int" name="NGY">    96</i>
   <i type="int" name="NGZ">    96</i>
   <i type="int" name="NGXF">   192</i>
   <i type="int" name="NGYF">   192</i>
   <i type="int" name="NGZF">   192</i>
   <i type="logical" name="ADDGRID"> F  </i>
  </separator>
  <separator name="ionic" >
   <i type="int" name="NSW">  1000</i>
   <i type="int" name="IBRION">     2</i>
   <i type="int" name="ISIF">     2</i>
   <i name="PSTRESS">      0.00000000</i>
   <i name="EDIFFG">      0.00100000</i>
   <i type="int" name="NFREE">     1</i>
   <i name="POTIM">      0.10000000</i>
   <i name="SMASS">     -3.00000000</i>
   <i name="SCALEE">      1.00000000</i>
  </separator>
  <separator name="ionic md" >
   <i name="TEBEG">      0.00010000</i>
   <i name="TEEND">      0.00010000</i>
   <i type="int" name="NBLOCK">     1</i>
   <i type="int" name="KBLOCK">  1000</i>
   <i type="int" name="NPACO">   256</i>
   <i name="APACO">     16.00000000</i>
  </separator>
  <separator name="symmetry" >
   <i type="int" name="ISYM">     2</i>
   <i name="SYMPREC">      0.00001000</i>
  </separator>
  <separator name="dos" >
   <i type="logical" name="LORBIT"> F  </i>
   <v name="RWIGS">     -1.00000000</v>
   <i type="int" name="NEDOS">   301</i>
   <i name="EMIN">     10.00000000</i>
   <i name="EMAX">    -10.00000000</i>
   <i name="EFERMI">      0.00000000</i>
  </separator>
  <separator name="writing" >
   <i type="int" name="NWRITE">     2</i>
   <i type="logical" name="LWAVE"> F  </i>
   <i type="logical" name="LCHARG"> F  </i>
   <i type="logical" name="LPARD"> F  </i>
   <i type="logical" name="LVTOT"> F  </i>
   <i type="logical" name="LVHAR"> F  </i>
   <i type="logical" name="LELF"> F  </i>
   <i type="logical" name="LOPTICS"> F  </i>
   <v name="STM">      0.00000000      0.00000000      0.00000000      0.00000000      0.00000000      0.00000000      0.00000000</v>
  </separator>
  <separator name="performance" >
   <i type="int" name="NPAR">     4</i>
   <i type="int" name="NSIM">     4</i>
   <i type="int" name="NBLK">    -1</i>
   <i type="logical" name="LPLANE"> T  </i>
   <i type="logical" name="LSCALAPACK"> T  </i>
   <i type="logical" name="LSCAAWARE"> F  </i>
   <i type="logical" name="LSCALU"> F  </i>
   <i type="logical" name="LASYNC"> F  </i>
   <i type="logical" name="LORBITALREAL"> F  </i>
  </separator>
  <separator name="miscellaneous" >
   <i type="int" name="IDIOT">     3</i>
   <i type="logical" name="LMUSIC"> F  </i>
   <v name="POMASS">    107.86800000</v>
   <v name="DARWINR">      0.00000000</v>
   <v name="DARWINV">      1.00000000</v>
   <i type="logical" name="LCORR"> T  </i>
  </separator>
  <i type="logical" name="GGA_COMPAT"> T  </i>
  <i type="logical" name="LBERRY"> F  </i>
  <i type="int" name="ICORELEVEL">     0</i>
  <i type="logical" name="LDAU"> F  </i>
  <i type="int" name="I_CONSTRAINED_M">     0</i>
  <separator name="electronic exchange-correlation" >
   <i type="string" name="GGA">PE</i>
   <i type="int" name="VOSKOWN">     0</i>
   <i type="logical" name="LHFCALC"> F  </i>
   <i type="string" name="PRECFOCK"></i>
   <i type="logical" name="LSYMGRAD"> F  </i>
   <i type="logical" name="LHFONE"> F  </i>
   <i type="logical" name="LRHFCALC"> F  </i>
   <i type="logical" name="LTHOMAS"> F  </i>
   <i type="logical" name="LMODELHF"> F  </i>
   <i name="ENCUT4O">     -1.00000000</i>
   <i type="int" name="EXXOEP">     0</i>
   <i type="int" name="FOURORBIT">     0</i>
   <i name="AEXX">      0.00000000</i>
   <i name="HFALPHA">      0.00000000</i>
   <i name="MCALPHA">      0.00000000</i>
   <i name="ALDAX">      1.00000000</i>
   <i name="AGGAX">      1.00000000</i>
   <i name="ALDAC">      1.00000000</i>
   <i name="AGGAC">      1.00000000</i>
   <i type="int" name="NKREDX">     1</i>
   <i type="int" name="NKREDY">     1</i>
   <i type="int" name="NKREDZ">     1</i>
   <i type="logical" name="SHIFTRED"> F  </i>
   <i type="logical" name="ODDONLY"> F  </i>
   <i type="logical" name="EVENONLY"> F  </i>
   <i type="int" name="LMAXFOCK">     0</i>
   <i type="int" name="NMAXFOCKAE">     0</i>
   <i type="logical" name="LFOCKAEDFT"> F  </i>
   <i name="HFSCREEN">      0.00000000</i>
   <i name="HFSCREENC">      0.00000000</i>
   <i type="int" name="NBANDSGWLOW">     0</i>
  </separator>
  <separator name="vdW DFT" >
   <i type="logical" name="LUSE_VDW"> F  </i>
   <i name="Zab_VDW">     -0.84910000</i>
   <i name="PARAM1">      0.12340000</i>
   <i name="PARAM2">      1.00000000</i>
   <i name="PARAM3">      0.00000000</i>
  </separator>
  <separator name="model GW" >
   <i type="int" name="MODEL_GW">     0</i>
   <i name="MODEL_EPS0">    184.54394045</i>
   <i name="MODEL_ALPHA">      1.00000000</i>
  </separator>
  <separator name="linear response parameters" >
   <i type="logical" name="LEPSILON"> F  </i>
   <i type="logical" name="LRPA"> F  </i>
   <i type="logical" name="LNABLA"> F  </i>
   <i type="logical" name="LVEL"> F  </i>
   <i type="int" name="KINTER">     0</i>
   <i name="CSHIFT">      0.10000000</i>
   <i name="OMEGAMAX">     -1.00000000</i>
   <i name="DEG_THRESHOLD">      0.00200000</i>
  </separator>
  <separator name="orbital magnetization" >
   <i type="logical" name="NUCIND"> F  </i>
   <v name="MAGPOS">      0.00000000      0.00000000      0.00000000</v>
   <i type="logical" name="LNICSALL"> T  </i>
   <i type="logical" name="ORBITALMAG"> F  </i>
   <i type="logical" name="LMAGBLOCH"> F  </i>
   <i type="logical" name="LCHIMAG"> F  </i>
   <i type="logical" name="LGAUGE"> T  </i>
   <i type="int" name="MAGATOM">     0</i>
   <v name="MAGDIPOL">      0.00000000      0.00000000      0.00000000</v>
   <v name="AVECCONST">      0.00000000      0.00000000      0.00000000</v>
  </separator>
  <separator name="response functions" >
   <i type="logical" name="LADDER"> F  </i>
   <i type="logical" name="LFXC"> F  </i>
   <i type="logical" name="LHARTREE"> T  </i>
   <i type="int" name="IBSE">     0</i>
   <i type="logical" name="LTCTE"> F  </i>
   <i type="logical" name="LTETE"> F  </i>
   <i type="logical" name="LTRIPLET"> F  </i>
   <i type="logical" name="LFXCEPS"> F  </i>
   <i type="logical" name="LFXHEG"> F  </i>
   <i type="logical" name="L2ORDER"> F  </i>
   <i type="logical" name="LUSEW"> F  </i>
   <i name="ENCUTGW">     -2.00000000</i>
   <i name="ENCUTGWSOFT">     -2.00000000</i>
   <i name="ENCUTLF">     -1.00000000</i>
   <i type="int" name="LMAXMP2">    -1</i>
   <i name="SCISSOR">      0.00000000</i>
   <i type="int" name="NOMEGA">     0</i>
   <i type="int" name="NOMEGAR">     0</i>
   <i type="int" name="NBANDSGW">    -1</i>
   <i type="int" name="NBANDSO">    -1</i>
   <i type="int" name="NBANDSV">    -1</i>
   <i type="int" name="NELM">     1</i>
   <i type="int" name="DIM">     3</i>
   <i type="int" name="ANTIRES">     0</i>
   <i name="OMEGAMAX">    -30.00000000</i>
   <i name="OMEGAMIN">    -30.00000000</i>
   <i name="OMEGATL">   -200.00000000</i>
   <i type="int" name="OMEGAGRID">     0</i>
   <i name="CSHIFT">     -0.10000000</i>
   <i type="logical" name="SELFENERGY"> F  </i>
   <i type="logical" name="LSPECTRAL"> F  </i>
   <i type="logical" name="ODDONLYGW"> F  </i>
   <i type="logical" name="EVENONLYGW"> F  </i>
   <i type="int" name="NKREDLFX">     1</i>
   <i type="int" name="NKREDLFY">     1</i>
   <i type="int" name="NKREDLFZ">     1</i>
   <i type="int" name="MAXMEM">  1800</i>
   <i type="int" name="TELESCOPE">     0</i>
   <i type="int" name="TAUPAR">     1</i>
  </separator>
  <separator name="External order field" >
   <i name="OFIELD_KAPPA">      0.00000000</i>
   <v name="OFIELD_K">      0.00000000      0.00000000      0.00000000</v>
   <i name="OFIELD_Q6_NEAR">      0.00000000</i>
   <i name="OFIELD_Q6_FAR">      0.00000000</i>
   <i name="OFIELD_A">      0.00000000</i>
  </separator>
 </parameters>
 <atominfo>
  <atoms>      42 </atoms>
  <types>       1 </types>
  <array name="atoms" >
   <dimension dim="1">ion</dimension>
   <field type="string">element</field>
   <field type="int">atomtype</field>
   <set>
    <rc><c>Ag</c><c>   1</c></rc>
    <rc><c>Ag</c><c>   1</c></rc>
    <rc><c>Ag</c><c>   1</c></rc>
    <rc><c>Ag</c><c>   1</c></rc>
    <rc><c>Ag</c><c>   1</c></rc>
    <rc><c>Ag</c><c>   1</c></rc>
    <rc><c>Ag</c><c>   1</c></rc>
    <rc><c>Ag</c><c>   1</c></rc>
    <rc><c>Ag</c><c>   1</c></rc>
    <rc><c>Ag</c><c>   1</c></rc>
    <rc><c>Ag</c><c>   1</c></rc>
    <rc><c>Ag</c><c>   1</c></rc>
    <rc><c>Ag</c><c>   1</c></rc>
    <rc><c>Ag</c><c>   1</c></rc>
    <rc><c>Ag</c><c>   1</c></rc>
    <rc><c>Ag</c><c>   1</c></rc>
    <rc><c>Ag</c><c>   1</c></rc>
    <rc><c>Ag</c><c>   1</c></rc>
    <rc><c>Ag</c><c>   1</c></rc>
    <rc><c>Ag</c><c>   1</c></rc>
    <rc><c>Ag</c><c>   1</c></rc>
    <rc><c>Ag</c><c>   1</c></rc>
    <rc><c>Ag</c><c>   1</c></rc>
    <rc><c>Ag</c><c>   1</c></rc>
    <rc><c>Ag</c><c>   1</c></rc>
    <rc><c>Ag</c><c>   1</c></rc>
    <rc><c>Ag</c><c>   1</c></rc>
    <rc><c>Ag</c><c>   1</c></rc>
    <rc><c>Ag</c><c>   1</c></rc>
    <rc><c>Ag</c><c>   1</c></rc>
    <rc><c>Ag</c><c>   1</c></rc>
    <rc><c>Ag</c><c>   1</c></rc>
    <rc><c>Ag</c><c>   1</c></rc>
    <rc><c>Ag</c><c>   1</c></rc>
    <rc><c>Ag</c><c>   1</c></rc>
    <rc><c>Ag</c><c>   1</c></rc>
    <rc><c>Ag</c><c>   1</c></rc>
    <rc><c>Ag</c><c>   1</c></rc>
    <rc><c>Ag</c><c>   1</c></rc>
    <rc><c>Ag</c><c>   1</c></rc>
    <rc><c>Ag</c><c>   1</c></rc>
    <rc><c>Ag</c><c>   1</c></rc>
   </set>
  </array>
  <array name="atomtypes" >
   <dimension dim="1">type</dimension>
   <field type="int">atomspertype</field>
   <field type="string">element</field>
   <field>mass</field>
   <field>valence</field>
   <field type="string">pseudopotential</field>
   <set>
    <rc><c>  42</c><c>Ag</c><c>    107.86800000</c><c>     11.00000000</c><c>  PAW_PBE Ag 02Apr2005                  </c></rc>
   </set>
  </array>
 </atominfo>
 <structure name="initialpos" >
  <crystal>
   <varray name="basis" >
    <v>      23.46385016       0.00000000       0.00000000 </v>
    <v>       0.00000000      23.46385016       0.00000000 </v>
    <v>       0.00000000       0.00000000      23.46385016 </v>
   </varray>
   <i name="volume">  12918.07583180 </i>
   <varray name="rec_basis" >
    <v>       0.04261875       0.00000000       0.00000000 </v>
    <v>       0.00000000       0.04261875       0.00000000 </v>
    <v>       0.00000000       0.00000000       0.04261875 </v>
   </varray>
  </crystal>
  <varray name="positions" >
   <v>       0.47992501       0.57183329       0.31379134 </v>
   <v>       0.44100748       0.46538149       0.36038982 </v>
   <v>       0.42093079       0.58614126       0.41136307 </v>
   <v>       0.54064106       0.47022277       0.29438674 </v>
   <v>       0.53207430       0.64631108       0.39579304 </v>
   <v>       0.39020433       0.38147947       0.41892903 </v>
   <v>       0.37755642       0.49120686       0.46583200 </v>
   <v>       0.35477836       0.59892276       0.50891500 </v>
   <v>       0.59655190       0.57434417       0.31679203 </v>
   <v>       0.58897702       0.43134606       0.39341758 </v>
   <v>       0.55955783       0.72368778       0.48337002 </v>
   <v>       0.52693875       0.52755238       0.41412620 </v>
   <v>       0.29916988       0.50599519       0.55975430 </v>
   <v>       0.32159745       0.39528850       0.52100234 </v>
   <v>       0.64264143       0.54763843       0.41915641 </v>
   <v>       0.35560046       0.28844558       0.47922425 </v>
   <v>       0.46671806       0.54065100       0.53209911 </v>
   <v>       0.56465059       0.60192848       0.50403404 </v>
   <v>       0.48180309       0.43303360       0.47471453 </v>
   <v>       0.45920195       0.65835956       0.49636486 </v>
   <v>       0.47559890       0.31155519       0.46510370 </v>
   <v>       0.38247714       0.67928701       0.58996002 </v>
   <v>       0.37827993       0.56420986       0.62671677 </v>
   <v>       0.66274023       0.66845064       0.50936609 </v>
   <v>       0.48104015       0.62288356       0.61820830 </v>
   <v>       0.40350614       0.45455231       0.58606601 </v>
   <v>       0.67925645       0.44631551       0.46557988 </v>
   <v>       0.57925702       0.68162611       0.60117864 </v>
   <v>       0.41581806       0.33935666       0.56881112 </v>
   <v>       0.67541374       0.54890986       0.53285129 </v>
   <v>       0.57636476       0.48422941       0.51933390 </v>
   <v>       0.48376433       0.74439312       0.57815053 </v>
   <v>       0.58170461       0.36643225       0.49578774 </v>
   <v>       0.67871903       0.62826368       0.62306953 </v>
   <v>       0.57865686       0.56073166       0.61609846 </v>
   <v>       0.47925036       0.50904924       0.65704449 </v>
   <v>       0.50890641       0.40839712       0.59076941 </v>
   <v>       0.67453733       0.43111422       0.57851643 </v>
   <v>       0.52236380       0.28665759       0.57167916 </v>
   <v>       0.68549581       0.51868197       0.65432127 </v>
   <v>       0.58543663       0.45533893       0.66695094 </v>
   <v>       0.60736489       0.34748942       0.62046082 </v>
  </varray>
 </structure>
 <calculation>
  <scstep>
   <time name="dav">    4.83    4.84</time>
   <time name="total">    5.08    5.13</time>
   <energy>
    <i name="alphaZ">    116.14885477 </i>
    <i name="ewald"> 117946.11484588 </i>
    <i name="hartreedc">-159770.86272535 </i>
    <i name="XCdc">   -458.07853053 </i>
    <i name="pawpsdc">  42141.63147892 </i>
    <i name="pawaedc"> -40205.11357291 </i>
    <i name="eentropy">      0.00000000 </i>
    <i name="bandstr">    619.10817138 </i>
    <i name="atom">  43562.34246363 </i>
    <i name="e_fr_energy">   3951.29098580 </i>
    <i name="e_wo_entrp">   3951.29098580 </i>
    <i name="e_0_energy">   3951.29098580 </i>
   </energy>
  </scstep>
  <scstep>
   <time name="dav">    7.14    7.14</time>
   <time name="total">    7.14    7.15</time>
   <energy>
    <i name="e_fr_energy">    744.87503734 </i>
    <i name="e_wo_entrp">    744.87503734 </i>
    <i name="e_0_energy">    744.87503734 </i>
   </energy>
  </scstep>
  <scstep>
   <time name="dav">    5.81    5.82</time>
   <time name="total">    5.81    6.64</time>
   <energy>
    <i name="e_fr_energy">    -53.51547034 </i>
    <i name="e_wo_entrp">    -53.51547034 </i>
    <i name="e_0_energy">    -53.51547034 </i>
   </energy>
  </scstep>
  <scstep>
   <time name="dav">    5.11    5.12</time>
   <time name="total">    5.12    5.14</time>
   <energy>
    <i name="e_fr_energy">    -89.90542031 </i>
    <i name="e_wo_entrp">    -89.90542031 </i>
    <i name="e_0_energy">    -89.90542031 </i>
   </energy>
  </scstep>
  <scstep>
   <time name="dav">    5.21    5.22</time>
   <time name="total">    5.36    5.36</time>
   <energy>
    <i name="e_fr_energy">    -90.44349040 </i>
    <i name="e_wo_entrp">    -90.44349040 </i>
    <i name="e_0_energy">    -90.44349040 </i>
   </energy>
  </scstep>
  <scstep>
   <time name="dav">    4.84    4.85</time>
   <time name="total">    5.22    5.23</time>
   <energy>
    <i name="e_fr_energy">    -37.49580354 </i>
    <i name="e_wo_entrp">    -37.49580354 </i>
    <i name="e_0_energy">    -37.49580354 </i>
   </energy>
  </scstep>
  <scstep>
   <time name="dav">    5.04    5.05</time>
   <time name="total">    5.43    5.93</time>
   <energy>
    <i name="e_fr_energy">    -27.71878665 </i>
    <i name="e_wo_entrp">    -27.71878665 </i>
    <i name="e_0_energy">    -27.71878665 </i>
   </energy>
  </scstep>
  <scstep>
   <time name="dav">    5.07    5.08</time>
   <time name="total">    5.46    5.46</time>
   <energy>
    <i name="e_fr_energy">    -26.93598569 </i>
    <i name="e_wo_entrp">    -26.93598569 </i>
    <i name="e_0_energy">    -26.93598569 </i>
   </energy>
  </scstep>
  <scstep>
   <time name="dav">    5.17    5.18</time>
   <time name="total">    5.56    6.88</time>
   <energy>
    <i name="e_fr_energy">    -30.92268064 </i>
    <i name="e_wo_entrp">    -30.92268064 </i>
    <i name="e_0_energy">    -30.92268064 </i>
   </energy>
  </scstep>
  <scstep>
   <time name="dav">    4.97    4.97</time>
   <time name="total">    5.35    5.36</time>
   <energy>
    <i name="e_fr_energy">    -41.88798371 </i>
    <i name="e_wo_entrp">    -41.88798371 </i>
    <i name="e_0_energy">    -41.88798371 </i>
   </energy>
  </scstep>
  <scstep>
   <time name="dav">    4.92    4.92</time>
   <time name="total">    5.30    5.31</time>
   <energy>
    <i name="e_fr_energy">    -62.14494961 </i>
    <i name="e_wo_entrp">    -62.14494961 </i>
    <i name="e_0_energy">    -62.14494961 </i>
   </energy>
  </scstep>
  <scstep>
   <time name="dav">    5.57    5.58</time>
   <time name="total">    5.95    5.96</time>
   <energy>
    <i name="e_fr_energy">    -63.47772434 </i>
    <i name="e_wo_entrp">    -63.47772434 </i>
    <i name="e_0_energy">    -63.47772434 </i>
   </energy>
  </scstep>
  <scstep>
   <time name="dav">    5.24    5.25</time>
   <time name="total">    5.63    5.65</time>
   <energy>
    <i name="e_fr_energy">    -63.16673396 </i>
    <i name="e_wo_entrp">    -63.16673396 </i>
    <i name="e_0_energy">    -63.16673396 </i>
   </energy>
  </scstep>
  <scstep>
   <time name="dav">    4.96    4.96</time>
   <time name="total">    5.34    5.52</time>
   <energy>
    <i name="e_fr_energy">    -65.27642729 </i>
    <i name="e_wo_entrp">    -65.27642729 </i>
    <i name="e_0_energy">    -65.27642729 </i>
   </energy>
  </scstep>
  <scstep>
   <time name="dav">    4.97    4.97</time>
   <time name="total">    5.35    6.50</time>
   <energy>
    <i name="e_fr_energy">    -75.41877127 </i>
    <i name="e_wo_entrp">    -75.41877127 </i>
    <i name="e_0_energy">    -75.41877127 </i>
   </energy>
  </scstep>
  <scstep>
   <time name="dav">    5.10    5.11</time>
   <time name="total">    5.48    5.51</time>
   <energy>
    <i name="e_fr_energy">    -78.09755588 </i>
    <i name="e_wo_entrp">    -78.09755588 </i>
    <i name="e_0_energy">    -78.09755588 </i>
   </energy>
  </scstep>
  <scstep>
   <time name="dav">    4.88    4.89</time>
   <time name="total">    5.27    5.28</time>
   <energy>
    <i name="e_fr_energy">    -80.06704623 </i>
    <i name="e_wo_entrp">    -80.06704623 </i>
    <i name="e_0_energy">    -80.06704623 </i>
   </energy>
  </scstep>
  <scstep>
   <time name="dav">    4.85    4.85</time>
   <time name="total">    5.23    7.03</time>
   <energy>
    <i name="e_fr_energy">    -84.30844063 </i>
    <i name="e_wo_entrp">    -84.30844063 </i>
    <i name="e_0_energy">    -84.30844063 </i>
   </energy>
  </scstep>
  <scstep>
   <time name="dav">    5.13    5.13</time>
   <time name="total">    5.52    5.53</time>
   <energy>
    <i name="e_fr_energy">    -84.88743108 </i>
    <i name="e_wo_entrp">    -84.88743108 </i>
    <i name="e_0_energy">    -84.88743108 </i>
   </energy>
  </scstep>
  <scstep>
   <time name="dav">    4.94    4.94</time>
   <time name="total">    5.32    5.35</time>
   <energy>
    <i name="e_fr_energy">    -85.92940036 </i>
    <i name="e_wo_entrp">    -85.92940036 </i>
    <i name="e_0_energy">    -85.92940036 </i>
   </energy>
  </scstep>
  <scstep>
   <time name="dav">    4.98    4.99</time>
   <time name="total">    5.38    6.73</time>
   <energy>
    <i name="e_fr_energy">    -87.28685165 </i>
    <i name="e_wo_entrp">    -87.28685165 </i>
    <i name="e_0_energy">    -87.28685165 </i>
   </energy>
  </scstep>
  <scstep>
   <time name="dav">    5.00    5.01</time>
   <time name="total">    5.39    5.46</time>
   <energy>
    <i name="e_fr_energy">    -88.28266718 </i>
    <i name="e_wo_entrp">    -88.28266718 </i>
    <i name="e_0_energy">    -88.28266718 </i>
   </energy>
  </scstep>
  <scstep>
   <time name="dav">    5.10    5.10</time>
   <time name="total">    5.48    5.51</time>
   <energy>
    <i name="e_fr_energy">    -88.60948126 </i>
    <i name="e_wo_entrp">    -88.60948126 </i>
    <i name="e_0_energy">    -88.60948126 </i>
   </energy>
  </scstep>
  <scstep>
   <time name="dav">    5.05    5.06</time>
   <time name="total">    5.44    5.45</time>
   <energy>
    <i name="e_fr_energy">    -88.81105571 </i>
    <i name="e_wo_entrp">    -88.81105571 </i>
    <i name="e_0_energy">    -88.81105571 </i>
   </energy>
  </scstep>
  <scstep>
   <time name="dav">    5.07    5.08</time>
   <time name="total">    5.46    5.47</time>
   <energy>
    <i name="e_fr_energy">    -88.92421258 </i>
    <i name="e_wo_entrp">    -88.92421258 </i>
    <i name="e_0_energy">    -88.92421258 </i>
   </energy>
  </scstep>
  <scstep>
   <time name="dav">    5.10    5.10</time>
   <time name="total">    5.49    5.73</time>
   <energy>
    <i name="e_fr_energy">    -88.99077262 </i>
    <i name="e_wo_entrp">    -88.99077262 </i>
    <i name="e_0_energy">    -88.99077262 </i>
   </energy>
  </scstep>
  <scstep>
   <time name="dav">    3.94    3.94</time>
   <time name="total">    4.33    6.95</time>
   <energy>
    <i name="e_fr_energy">    -89.01434913 </i>
    <i name="e_wo_entrp">    -89.01434913 </i>
    <i name="e_0_energy">    -89.01434913 </i>
   </energy>
  </scstep>
  <scstep>
   <time name="dav">    4.44    4.44</time>
   <time name="total">    4.83    4.85</time>
   <energy>
    <i name="e_fr_energy">    -89.02840241 </i>
    <i name="e_wo_entrp">    -89.02840241 </i>
    <i name="e_0_energy">    -89.02840241 </i>
   </energy>
  </scstep>
  <scstep>
   <time name="dav">    3.86    3.87</time>
   <time name="total">    4.25    4.34</time>
   <energy>
    <i name="e_fr_energy">    -89.03287462 </i>
    <i name="e_wo_entrp">    -89.03287462 </i>
    <i name="e_0_energy">    -89.03287462 </i>
   </energy>
  </scstep>
  <scstep>
   <time name="dav">    3.75    3.75</time>
   <time name="total">    4.14    7.77</time>
   <energy>
    <i name="e_fr_energy">    -89.03758016 </i>
    <i name="e_wo_entrp">    -89.03758016 </i>
    <i name="e_0_energy">    -89.03758016 </i>
   </energy>
  </scstep>
  <scstep>
   <time name="dav">    3.85    3.85</time>
   <time name="total">    4.24    4.55</time>
   <energy>
    <i name="e_fr_energy">    -89.04049201 </i>
    <i name="e_wo_entrp">    -89.04049201 </i>
    <i name="e_0_energy">    -89.04049201 </i>
   </energy>
  </scstep>
  <scstep>
   <time name="dav">    3.68    3.68</time>
   <time name="total">    4.08    4.08</time>
   <energy>
    <i name="e_fr_energy">    -89.04257047 </i>
    <i name="e_wo_entrp">    -89.04257047 </i>
    <i name="e_0_energy">    -89.04257047 </i>
   </energy>
  </scstep>
  <scstep>
   <time name="dav">    3.78    3.78</time>
   <time name="total">    4.17    4.18</time>
   <energy>
    <i name="e_fr_energy">    -89.04566424 </i>
    <i name="e_wo_entrp">    -89.04566424 </i>
    <i name="e_0_energy">    -89.04566424 </i>
   </energy>
  </scstep>
  <scstep>
   <time name="dav">    3.70    3.71</time>
   <time name="total">    4.10    4.55</time>
   <energy>
    <i name="e_fr_energy">    -89.04651256 </i>
    <i name="e_wo_entrp">    -89.04651256 </i>
    <i name="e_0_energy">    -89.04651256 </i>
   </energy>
  </scstep>
  <scstep>
   <time name="dav">    3.68    3.69</time>
   <time name="total">    4.08    4.60</time>
   <energy>
    <i name="e_fr_energy">    -89.04687084 </i>
    <i name="e_wo_entrp">    -89.04687084 </i>
    <i name="e_0_energy">    -89.04687084 </i>
   </energy>
  </scstep>
  <scstep>
   <time name="dav">    3.58    3.59</time>
   <time name="total">    3.98    4.00</time>
   <energy>
    <i name="e_fr_energy">    -89.04701860 </i>
    <i name="e_wo_entrp">    -89.04701860 </i>
    <i name="e_0_energy">    -89.04701860 </i>
   </energy>
  </scstep>
  <scstep>
   <time name="dav">    3.64    3.65</time>
   <time name="total">    3.88    3.91</time>
   <energy>
    <i name="alphaZ">    116.14885477 </i>
    <i name="ewald"> 117946.11484588 </i>
    <i name="hartreedc">-159700.57620540 </i>
    <i name="XCdc">   -474.71623168 </i>
    <i name="pawpsdc">  45620.60568254 </i>
    <i name="pawaedc"> -43764.04045264 </i>
    <i name="eentropy">      0.00000000 </i>
    <i name="bandstr">  -3394.92600324 </i>
    <i name="atom">  43562.34246363 </i>
    <i name="e_fr_energy">    -89.04704614 </i>
    <i name="e_wo_entrp">    -89.04704614 </i>
    <i name="e_0_energy">    -89.04704614 </i>
   </energy>
  </scstep>
  <structure>
   <crystal>
    <varray name="basis" >
     <v>      23.46385016       0.00000000       0.00000000 </v>
     <v>       0.00000000      23.46385016       0.00000000 </v>
     <v>       0.00000000       0.00000000      23.46385016 </v>
    </varray>
    <i name="volume">  12918.07583180 </i>
    <varray name="rec_basis" >
     <v>       0.04261875       0.00000000       0.00000000 </v>
     <v>       0.00000000       0.04261875       0.00000000 </v>
     <v>       0.00000000       0.00000000       0.04261875 </v>
    </varray>
   </crystal>
   <varray name="positions" >
    <v>       0.47992501       0.57183329       0.31379134 </v>
    <v>       0.44100748       0.46538149       0.36038982 </v>
    <v>       0.42093079       0.58614126       0.41136307 </v>
    <v>       0.54064106       0.47022277       0.29438674 </v>
    <v>       0.53207430       0.64631108       0.39579304 </v>
    <v>       0.39020433       0.38147947       0.41892903 </v>
    <v>       0.37755642       0.49120686       0.46583200 </v>
    <v>       0.35477836       0.59892276       0.50891500 </v>
    <v>       0.59655190       0.57434417       0.31679203 </v>
    <v>       0.58897702       0.43134606       0.39341758 </v>
    <v>       0.55955783       0.72368778       0.48337002 </v>
    <v>       0.52693875       0.52755238       0.41412620 </v>
    <v>       0.29916988       0.50599519       0.55975430 </v>
    <v>       0.32159745       0.39528850       0.52100234 </v>
    <v>       0.64264143       0.54763843       0.41915641 </v>
    <v>       0.35560046       0.28844558       0.47922425 </v>
    <v>       0.46671806       0.54065100       0.53209911 </v>
    <v>       0.56465059       0.60192848       0.50403404 </v>
    <v>       0.48180309       0.43303360       0.47471453 </v>
    <v>       0.45920195       0.65835956       0.49636486 </v>
    <v>       0.47559890       0.31155519       0.46510370 </v>
    <v>       0.38247714       0.67928701       0.58996002 </v>
    <v>       0.37827993       0.56420986       0.62671677 </v>
    <v>       0.66274023       0.66845064       0.50936609 </v>
    <v>       0.48104015       0.62288356       0.61820830 </v>
    <v>       0.40350614       0.45455231       0.58606601 </v>
    <v>       0.67925645       0.44631551       0.46557988 </v>
    <v>       0.57925702       0.68162611       0.60117864 </v>
    <v>       0.41581806       0.33935666       0.56881112 </v>
    <v>       0.67541374       0.54890986       0.53285129 </v>
    <v>       0.57636476       0.48422941       0.51933390 </v>
    <v>       0.48376433       0.74439312       0.57815053 </v>
    <v>       0.58170461       0.36643225       0.49578774 </v>
    <v>       0.67871903       0.62826368       0.62306953 </v>
    <v>       0.57865686       0.56073166       0.61609846 </v>
    <v>       0.47925036       0.50904924       0.65704449 </v>
    <v>       0.50890641       0.40839712       0.59076941 </v>
    <v>       0.67453733       0.43111422       0.57851643 </v>
    <v>       0.52236380       0.28665759       0.57167916 </v>
    <v>       0.68549581       0.51868197       0.65432127 </v>
    <v>       0.58543663       0.45533893       0.66695094 </v>
    <v>       0.60736489       0.34748942       0.62046082 </v>
   </varray>
  </structure>
  <varray name="forces" >
   <v>      -0.09601368       0.07131458      -0.38800185 </v>
   <v>       0.04588975       0.24861417      -0.08700711 </v>
   <v>      -0.12572344       0.02956226       0.01252974 </v>
   <v>      -0.02357278       0.15486096       0.10532582 </v>
   <v>       0.01611351      -0.11930134      -0.15180551 </v>
   <v>      -0.25321165      -0.13974648       0.13089864 </v>
   <v>      -0.38946386      -0.10071420      -0.03924400 </v>
   <v>      -0.10355519      -0.08621552       0.07242062 </v>
   <v>       0.04724270       0.03304253      -0.01720940 </v>
   <v>      -0.09362456      -0.17879530       0.08267757 </v>
   <v>      -0.06988582      -0.08697262       0.19613364 </v>
   <v>      -0.08921816       0.20807683      -0.21520207 </v>
   <v>      -0.18165133      -0.05774823      -0.17419925 </v>
   <v>       0.00382202      -0.01855755      -0.01828615 </v>
   <v>       0.11480003       0.20910789       0.09235080 </v>
   <v>      -0.05587503      -0.00873894       0.11067638 </v>
   <v>       0.12581649      -0.18535266       0.00605360 </v>
   <v>       0.24549921       0.29944771      -0.20888464 </v>
   <v>      -0.09886940      -0.30018749      -0.26048805 </v>
   <v>      -0.07366802       0.23053800       0.05939789 </v>
   <v>       0.06605002       0.01015650       0.12963968 </v>
   <v>      -0.11048845       0.24146199       0.11057331 </v>
   <v>      -0.08329394       0.16704635      -0.07256479 </v>
   <v>       0.04806676      -0.05525833       0.18323704 </v>
   <v>      -0.31959443       0.36632219       0.17441936 </v>
   <v>      -0.49941175       0.05385700      -0.08732327 </v>
   <v>       0.13534687      -0.14931768      -0.11681429 </v>
   <v>       0.27631174       0.20698185      -0.32627037 </v>
   <v>      -0.10628512      -0.25372052      -0.15984164 </v>
   <v>       0.25065697      -0.15364256       0.27232983 </v>
   <v>       0.27697746      -0.11947685      -0.01085422 </v>
   <v>      -0.25279434      -0.23299364      -0.07715900 </v>
   <v>       0.19182872      -0.06129440       0.25079192 </v>
   <v>       0.22041653       0.31135425      -0.03198902 </v>
   <v>       0.29508984      -0.13756115       0.18373785 </v>
   <v>       0.22674316      -0.08942870       0.09505242 </v>
   <v>       0.33979031      -0.10026904       0.10279752 </v>
   <v>      -0.17037585       0.06564300       0.05412445 </v>
   <v>      -0.07097254       0.02391010      -0.11812973 </v>
   <v>       0.15692762      -0.11342779       0.08495295 </v>
   <v>       0.04955323      -0.09330367      -0.01451723 </v>
   <v>       0.13460641      -0.08927350       0.06567055 </v>
  </varray>
  <varray name="stress" >
   <v>      -0.54965508       0.00149667       0.34939162 </v>
   <v>       0.00149667      -1.21469284      -0.13917618 </v>
   <v>       0.34939163      -0.13917618      -1.61385384 </v>
  </varray>
  <energy>
   <i name="e_fr_energy">    -89.04704614 </i>
   <i name="e_wo_entrp">    -89.04704614 </i>
   <i name="e_0_energy">      0.00000000 </i>
  </energy>
  <time name="totalsc">  197.78  213.94</time>
 </calculation>
 <calculation>
  <scstep>
   <time name="dav">    4.98    4.99</time>
   <time name="total">    5.37    5.38</time>
   <energy>
    <i name="alphaZ">    116.14885477 </i>
    <i name="ewald"> 117883.92648550 </i>
    <i name="hartreedc">-159638.62748785 </i>
    <i name="XCdc">   -474.76003034 </i>
    <i name="pawpsdc">  45620.61410756 </i>
    <i name="pawaedc"> -43764.04954620 </i>
    <i name="eentropy">      0.00000000 </i>
    <i name="bandstr">  -3394.67506589 </i>
    <i name="atom">  43562.34246363 </i>
    <i name="e_fr_energy">    -89.08021882 </i>
    <i name="e_wo_entrp">    -89.08021882 </i>
    <i name="e_0_energy">    -89.08021882 </i>
   </energy>
  </scstep>
  <scstep>
   <time name="dav">    5.01    5.01</time>
   <time name="total">    5.40    5.41</time>
   <energy>
    <i name="e_fr_energy">    -89.08126628 </i>
    <i name="e_wo_entrp">    -89.08126628 </i>
    <i name="e_0_energy">    -89.08126628 </i>
   </energy>
  </scstep>
  <scstep>
   <time name="dav">    3.61    3.61</time>
   <time name="total">    3.85    3.88</time>
   <energy>
    <i name="alphaZ">    116.14885477 </i>
    <i name="ewald"> 117883.92648550 </i>
    <i name="hartreedc">-159638.98381384 </i>
    <i name="XCdc">   -474.75531271 </i>
    <i name="pawpsdc">  45617.20611187 </i>
    <i name="pawaedc"> -43760.58389376 </i>
    <i name="eentropy">      0.00000000 </i>
    <i name="bandstr">  -3394.38214500 </i>
    <i name="atom">  43562.34246363 </i>
    <i name="e_fr_energy">    -89.08124954 </i>
    <i name="e_wo_entrp">    -89.08124954 </i>
    <i name="e_0_energy">    -89.08124954 </i>
   </energy>
  </scstep>
  <structure>
   <crystal>
    <varray name="basis" >
     <v>      23.46385016       0.00000000       0.00000000 </v>
     <v>       0.00000000      23.46385016       0.00000000 </v>
     <v>       0.00000000       0.00000000      23.46385016 </v>
    </varray>
    <i name="volume">  12918.07583180 </i>
    <varray name="rec_basis" >
     <v>       0.04261875       0.00000000       0.00000000 </v>
     <v>       0.00000000       0.04261875       0.00000000 </v>
     <v>       0.00000000       0.00000000       0.04261875 </v>
    </varray>
   </crystal>
   <varray name="positions" >
    <v>       0.47988553       0.57186261       0.31363179 </v>
    <v>       0.44102635       0.46548372       0.36035404 </v>
    <v>       0.42087909       0.58615342       0.41136822 </v>
    <v>       0.54063137       0.47028645       0.29443005 </v>
    <v>       0.53208092       0.64626203       0.39573062 </v>
    <v>       0.39010021       0.38142201       0.41898286 </v>
    <v>       0.37739627       0.49116545       0.46581586 </v>
    <v>       0.35473578       0.59888730       0.50894478 </v>
    <v>       0.59657132       0.57435776       0.31678495 </v>
    <v>       0.58893852       0.43127253       0.39345158 </v>
    <v>       0.55952910       0.72365201       0.48345067 </v>
    <v>       0.52690206       0.52763794       0.41403771 </v>
    <v>       0.29909518       0.50597144       0.55968266 </v>
    <v>       0.32159902       0.39528086       0.52099482 </v>
    <v>       0.64268864       0.54772441       0.41919438 </v>
    <v>       0.35557748       0.28844199       0.47926976 </v>
    <v>       0.46676980       0.54057478       0.53210160 </v>
    <v>       0.56475154       0.60205162       0.50394815 </v>
    <v>       0.48176243       0.43291016       0.47460742 </v>
    <v>       0.45917166       0.65845435       0.49638929 </v>
    <v>       0.47562606       0.31155937       0.46515701 </v>
    <v>       0.38243171       0.67938630       0.59000549 </v>
    <v>       0.37824568       0.56427855       0.62668693 </v>
    <v>       0.66276000       0.66842792       0.50944144 </v>
    <v>       0.48090873       0.62303420       0.61828002 </v>
    <v>       0.40330078       0.45457446       0.58603011 </v>
    <v>       0.67931211       0.44625411       0.46553184 </v>
    <v>       0.57937064       0.68171122       0.60104447 </v>
    <v>       0.41577436       0.33925233       0.56874539 </v>
    <v>       0.67551681       0.54884668       0.53296327 </v>
    <v>       0.57647865       0.48418028       0.51932943 </v>
    <v>       0.48366038       0.74429731       0.57811881 </v>
    <v>       0.58178349       0.36640705       0.49589086 </v>
    <v>       0.67880967       0.62839171       0.62305637 </v>
    <v>       0.57877821       0.56067509       0.61617401 </v>
    <v>       0.47934360       0.50901246       0.65708357 </v>
    <v>       0.50904613       0.40835589       0.59081168 </v>
    <v>       0.67446727       0.43114121       0.57853869 </v>
    <v>       0.52233461       0.28666742       0.57163058 </v>
    <v>       0.68556034       0.51863532       0.65435621 </v>
    <v>       0.58545700       0.45530056       0.66694497 </v>
    <v>       0.60742024       0.34745271       0.62048782 </v>
   </varray>
  </structure>
  <varray name="forces" >
   <v>      -0.09599525       0.07456477      -0.36771538 </v>
   <v>       0.02883083       0.22653787      -0.07276203 </v>
   <v>      -0.11691968       0.02669909       0.01036580 </v>
   <v>      -0.01921160       0.14842068       0.10462192 </v>
   <v>       0.01241291      -0.10729199      -0.14575776 </v>
   <v>      -0.23618417      -0.12168208       0.11280318 </v>
   <v>      -0.36531612      -0.09337508      -0.04200447 </v>
   <v>      -0.09225819      -0.07797892       0.07254300 </v>
   <v>       0.04573077       0.03280290      -0.01494226 </v>
   <v>      -0.09495843      -0.16709435       0.08566928 </v>
   <v>      -0.06559466      -0.07915718       0.18238098 </v>
   <v>      -0.07586845       0.19045200      -0.19878342 </v>
   <v>      -0.18405568      -0.05174636      -0.16687892 </v>
   <v>      -0.00669032      -0.02288668      -0.01720191 </v>
   <v>       0.10850462       0.19647343       0.09550112 </v>
   <v>      -0.05658036      -0.01764467       0.10500628 </v>
   <v>       0.12900737      -0.17447269       0.00619225 </v>
   <v>       0.22509218       0.26400861      -0.19094853 </v>
   <v>      -0.08285607      -0.27111137      -0.24210707 </v>
   <v>      -0.07534687       0.20473142       0.05137585 </v>
   <v>       0.06191532       0.00613357       0.11863017 </v>
   <v>      -0.12069796       0.23304852       0.10160419 </v>
   <v>      -0.07530020       0.15441136      -0.07225672 </v>
   <v>       0.05633818      -0.05118114       0.17123702 </v>
   <v>      -0.27373063       0.33453237       0.16586532 </v>
   <v>      -0.44267257       0.04183650      -0.07492284 </v>
   <v>       0.12985320      -0.14006667      -0.11308832 </v>
   <v>       0.25083014       0.18904331      -0.31069105 </v>
   <v>      -0.09352142      -0.22732154      -0.14594877 </v>
   <v>       0.24064677      -0.14741713       0.25828440 </v>
   <v>       0.25129347      -0.10460690      -0.02253628 </v>
   <v>      -0.23842588      -0.21778217      -0.06923561 </v>
   <v>       0.18621223      -0.05924158       0.24008161 </v>
   <v>       0.21674562       0.28577321      -0.02338603 </v>
   <v>       0.26367356      -0.10583244       0.16574623 </v>
   <v>       0.20269706      -0.08091099       0.07548639 </v>
   <v>       0.28640638      -0.08807501       0.08637303 </v>
   <v>      -0.16290465       0.06141484       0.04681513 </v>
   <v>      -0.06300933       0.02074363      -0.10730538 </v>
   <v>       0.15567513      -0.09618201       0.08314959 </v>
   <v>       0.05495898      -0.09177649      -0.00650545 </v>
   <v>       0.13127379      -0.09679264       0.06524550 </v>
  </varray>
  <varray name="stress" >
   <v>      -0.59135522       0.00320000       0.34554739 </v>
   <v>       0.00320000      -1.25274403      -0.13842987 </v>
   <v>       0.34554739      -0.13842987      -1.63458449 </v>
  </varray>
  <energy>
   <i name="e_fr_energy">    -89.08124954 </i>
   <i name="e_wo_entrp">    -89.08124954 </i>
   <i name="e_0_energy">      0.00000000 </i>
  </energy>
  <time name="totalsc">   23.75   27.65</time>
 </calculation>
 <calculation>
  <scstep>
   <time name="dav">    4.88    4.88</time>
   <time name="total">    5.26    5.30</time>
   <energy>
    <i name="alphaZ">    116.14885477 </i>
    <i name="ewald"> 117697.93722817 </i>
    <i name="hartreedc">-159453.79336329 </i>
    <i name="XCdc">   -474.88026639 </i>
    <i name="pawpsdc">  45614.76860260 </i>
    <i name="pawaedc"> -43758.11451759 </i>
    <i name="eentropy">      0.00000000 </i>
    <i name="bandstr">  -3393.57169436 </i>
    <i name="atom">  43562.34246363 </i>
    <i name="e_fr_energy">    -89.16269247 </i>
    <i name="e_wo_entrp">    -89.16269247 </i>
    <i name="e_0_energy">    -89.16269247 </i>
   </energy>
  </scstep>
  <scstep>
   <time name="dav">    4.96    4.97</time>
   <time name="total">    5.35    5.36</time>
   <energy>
    <i name="e_fr_energy">    -89.17188957 </i>
    <i name="e_wo_entrp">    -89.17188957 </i>
    <i name="e_0_energy">    -89.17188957 </i>
   </energy>
  </scstep>
  <scstep>
   <time name="dav">    5.06    5.06</time>
   <time name="total">    5.44    5.45</time>
   <energy>
    <i name="e_fr_energy">    -89.17162374 </i>
    <i name="e_wo_entrp">    -89.17162374 </i>
    <i name="e_0_energy">    -89.17162374 </i>
   </energy>
  </scstep>
  <scstep>
   <time name="dav">    4.94    4.95</time>
   <time name="total">    5.33    5.59</time>
   <energy>
    <i name="e_fr_energy">    -89.17148161 </i>
    <i name="e_wo_entrp">    -89.17148161 </i>
    <i name="e_0_energy">    -89.17148161 </i>
   </energy>
  </scstep>
  <scstep>
   <time name="dav">    3.52    3.52</time>
   <time name="total">    3.76    4.28</time>
   <energy>
    <i name="alphaZ">    116.14885477 </i>
    <i name="ewald"> 117697.93722817 </i>
    <i name="hartreedc">-159455.15092544 </i>
    <i name="XCdc">   -474.86145334 </i>
    <i name="pawpsdc">  45594.84530366 </i>
    <i name="pawaedc"> -43737.88763458 </i>
    <i name="eentropy">      0.00000000 </i>
    <i name="bandstr">  -3392.54530564 </i>
    <i name="atom">  43562.34246363 </i>
    <i name="e_fr_energy">    -89.17146878 </i>
    <i name="e_wo_entrp">    -89.17146878 </i>
    <i name="e_0_energy">    -89.17146878 </i>
   </energy>
  </scstep>
  <structure>
   <crystal>
    <varray name="basis" >
     <v>      23.46385016       0.00000000       0.00000000 </v>
     <v>       0.00000000      23.46385016       0.00000000 </v>
     <v>       0.00000000       0.00000000      23.46385016 </v>
    </varray>
    <i name="volume">  12918.07583180 </i>
    <varray name="rec_basis" >
     <v>       0.04261875       0.00000000       0.00000000 </v>
     <v>       0.00000000       0.04261875       0.00000000 </v>
     <v>       0.00000000       0.00000000       0.04261875 </v>
    </varray>
   </crystal>
   <varray name="positions" >
    <v>       0.47976709       0.57195059       0.31315314 </v>
    <v>       0.44108296       0.46579041       0.36024671 </v>
    <v>       0.42072399       0.58618988       0.41138368 </v>
    <v>       0.54060229       0.47047749       0.29455998 </v>
    <v>       0.53210080       0.64611485       0.39554335 </v>
    <v>       0.38978784       0.38124961       0.41914434 </v>
    <v>       0.37691582       0.49104121       0.46576745 </v>
    <v>       0.35460803       0.59878095       0.50903412 </v>
    <v>       0.59662960       0.57439852       0.31676372 </v>
    <v>       0.58882302       0.43105197       0.39355357 </v>
    <v>       0.55944288       0.72354472       0.48369263 </v>
    <v>       0.52679200       0.52789463       0.41377223 </v>
    <v>       0.29887109       0.50590020       0.55946777 </v>
    <v>       0.32160374       0.39525797       0.52097226 </v>
    <v>       0.64283026       0.54798238       0.41930831 </v>
    <v>       0.35550855       0.28843121       0.47940629 </v>
    <v>       0.46692501       0.54034612       0.53210907 </v>
    <v>       0.56505440       0.60242102       0.50369046 </v>
    <v>       0.48164047       0.43253985       0.47428607 </v>
    <v>       0.45908078       0.65873875       0.49646256 </v>
    <v>       0.47570754       0.31157190       0.46531693 </v>
    <v>       0.38229541       0.67968418       0.59014189 </v>
    <v>       0.37814292       0.56448462       0.62659741 </v>
    <v>       0.66281930       0.66835975       0.50966748 </v>
    <v>       0.48051447       0.62348610       0.61849519 </v>
    <v>       0.40268469       0.45464089       0.58592238 </v>
    <v>       0.67947908       0.44606991       0.46538774 </v>
    <v>       0.57971150       0.68196656       0.60064198 </v>
    <v>       0.41564324       0.33893933       0.56854821 </v>
    <v>       0.67582603       0.54865715       0.53329922 </v>
    <v>       0.57682034       0.48403289       0.51931604 </v>
    <v>       0.48334853       0.74400989       0.57802362 </v>
    <v>       0.58202014       0.36633143       0.49620025 </v>
    <v>       0.67908158       0.62877581       0.62301691 </v>
    <v>       0.57914224       0.56050539       0.61640068 </v>
    <v>       0.47962331       0.50890214       0.65720083 </v>
    <v>       0.50946531       0.40823220       0.59093850 </v>
    <v>       0.67425709       0.43122219       0.57860546 </v>
    <v>       0.52224706       0.28669692       0.57148486 </v>
    <v>       0.68575393       0.51849540       0.65446101 </v>
    <v>       0.58551813       0.45518546       0.66692706 </v>
    <v>       0.60758629       0.34734258       0.62056884 </v>
   </varray>
  </structure>
  <varray name="forces" >
   <v>      -0.10043501       0.08636935      -0.33663377 </v>
   <v>      -0.01526725       0.18461551      -0.03995322 </v>
   <v>      -0.10125488       0.02003348       0.00521118 </v>
   <v>      -0.00867322       0.14266275       0.10753786 </v>
   <v>       0.00432501      -0.08166123      -0.14044533 </v>
   <v>      -0.20821710      -0.08149879       0.07404709 </v>
   <v>      -0.32434956      -0.08009568      -0.05207728 </v>
   <v>      -0.06938130      -0.06026898       0.07654499 </v>
   <v>       0.04429843       0.03517770      -0.01200094 </v>
   <v>      -0.10543704      -0.14832866       0.10031646 </v>
   <v>      -0.05821898      -0.06265930       0.15829453 </v>
   <v>      -0.04512701       0.15586197      -0.16864976 </v>
   <v>      -0.20207624      -0.03947717      -0.15897250 </v>
   <v>      -0.03492717      -0.03539684      -0.01692590 </v>
   <v>       0.09937994       0.17807205       0.11074500 </v>
   <v>      -0.06403405      -0.04381246       0.09778256 </v>
   <v>       0.14541308      -0.15873608       0.00647266 </v>
   <v>       0.18334194       0.18238210      -0.15659162 </v>
   <v>      -0.04329184      -0.20958636      -0.20924918 </v>
   <v>      -0.08600711       0.15111460       0.03328366 </v>
   <v>       0.05545760      -0.00332874       0.09902556 </v>
   <v>      -0.15592744       0.22603632       0.08477574 </v>
   <v>      -0.05975780       0.13139589      -0.07566230 </v>
   <v>       0.08478585      -0.04354466       0.15096874 </v>
   <v>      -0.17019168       0.27192666       0.15536216 </v>
   <v>      -0.32056628       0.01539674      -0.04582784 </v>
   <v>       0.12287703      -0.12465462      -0.11016563 </v>
   <v>       0.20200463       0.15311741      -0.29024585 </v>
   <v>      -0.06695383      -0.17447412      -0.11961473 </v>
   <v>       0.22925320      -0.14098412       0.23812017 </v>
   <v>       0.19752713      -0.07115753      -0.05467269 </v>
   <v>      -0.21923590      -0.19357316      -0.05430398 </v>
   <v>       0.18356250      -0.05745243       0.22921360 </v>
   <v>       0.22253710       0.23901115      -0.00242359 </v>
   <v>       0.19930436      -0.03058666       0.12869036 </v>
   <v>       0.15131453      -0.06271793       0.02819928 </v>
   <v>       0.16456603      -0.06251635       0.04733518 </v>
   <v>      -0.15304169       0.05400836       0.03095204 </v>
   <v>      -0.04541790       0.01303524      -0.08517504 </v>
   <v>       0.16267446      -0.05763833       0.08335408 </v>
   <v>       0.07400911      -0.09384330       0.01530480 </v>
   <v>       0.13115836      -0.12222377       0.06805345 </v>
  </varray>
  <varray name="stress" >
   <v>      -0.68417103       0.00832840       0.33765108 </v>
   <v>       0.00832840      -1.32660906      -0.13635112 </v>
   <v>       0.33765109      -0.13635112      -1.68897414 </v>
  </varray>
  <energy>
   <i name="e_fr_energy">    -89.17146878 </i>
   <i name="e_wo_entrp">    -89.17146878 </i>
   <i name="e_0_energy">      0.00000000 </i>
  </energy>
  <time name="totalsc">   34.25   36.25</time>
 </calculation>
 <calculation>
  <scstep>
   <time name="dav">    4.82    4.82</time>
   <time name="total">    5.20    5.23</time>
   <energy>
    <i name="alphaZ">    116.14885477 </i>
    <i name="ewald"> 117328.53351465 </i>
    <i name="hartreedc">-159086.97784182 </i>
    <i name="XCdc">   -475.08857086 </i>
    <i name="pawpsdc">  45594.70251768 </i>
    <i name="pawaedc"> -43737.74447081 </i>
    <i name="eentropy">      0.00000000 </i>
    <i name="bandstr">  -3391.18049817 </i>
    <i name="atom">  43562.34246363 </i>
    <i name="e_fr_energy">    -89.26403092 </i>
    <i name="e_wo_entrp">    -89.26403092 </i>
    <i name="e_0_energy">    -89.26403092 </i>
   </energy>
  </scstep>
  <scstep>
   <time name="dav">    5.00    5.01</time>
   <time name="total">    5.38    5.39</time>
   <energy>
    <i name="e_fr_energy">    -89.30122127 </i>
    <i name="e_wo_entrp">    -89.30122127 </i>
    <i name="e_0_energy">    -89.30122127 </i>
   </energy>
  </scstep>
  <scstep>
   <time name="dav">    4.97    4.98</time>
   <time name="total">    5.36    5.36</time>
   <energy>
    <i name="e_fr_energy">    -89.30023761 </i>
    <i name="e_wo_entrp">    -89.30023761 </i>
    <i name="e_0_energy">    -89.30023761 </i>
   </energy>
  </scstep>
  <scstep>
   <time name="dav">    4.98    4.99</time>
   <time name="total">    5.36    5.37</time>
   <energy>
    <i name="e_fr_energy">    -89.29955546 </i>
    <i name="e_wo_entrp">    -89.29955546 </i>
    <i name="e_0_energy">    -89.29955546 </i>
   </energy>
  </scstep>
  <scstep>
   <time name="dav">    4.68    4.69</time>
   <time name="total">    5.07    5.08</time>
   <energy>
    <i name="e_fr_energy">    -89.29952858 </i>
    <i name="e_wo_entrp">    -89.29952858 </i>
    <i name="e_0_energy">    -89.29952858 </i>
   </energy>
  </scstep>
  <scstep>
   <time name="dav">    3.48    3.48</time>
   <time name="total">    3.72    3.73</time>
   <energy>
    <i name="alphaZ">    116.14885477 </i>
    <i name="ewald"> 117328.53351465 </i>
    <i name="hartreedc">-159089.50503018 </i>
    <i name="XCdc">   -475.05430497 </i>
    <i name="pawpsdc">  45562.59028092 </i>
    <i name="pawaedc"> -43705.11846079 </i>
    <i name="eentropy">      0.00000000 </i>
    <i name="bandstr">  -3389.23682342 </i>
    <i name="atom">  43562.34246363 </i>
    <i name="e_fr_energy">    -89.29950539 </i>
    <i name="e_wo_entrp">    -89.29950539 </i>
    <i name="e_0_energy">    -89.29950539 </i>
   </energy>
  </scstep>
  <structure>
   <crystal>
    <varray name="basis" >
     <v>      23.46385016       0.00000000       0.00000000 </v>
     <v>       0.00000000      23.46385016       0.00000000 </v>
     <v>       0.00000000       0.00000000      23.46385016 </v>
    </varray>
    <i name="volume">  12918.07583180 </i>
    <varray name="rec_basis" >
     <v>       0.04261875       0.00000000       0.00000000 </v>
     <v>       0.00000000       0.04261875       0.00000000 </v>
     <v>       0.00000000       0.00000000       0.04261875 </v>
    </varray>
   </crystal>
   <varray name="positions" >
    <v>       0.47953020       0.57212654       0.31219584 </v>
    <v>       0.44119618       0.46640381       0.36003204 </v>
    <v>       0.42041380       0.58626282       0.41141460 </v>
    <v>       0.54054413       0.47085957       0.29481985 </v>
    <v>       0.53214056       0.64582051       0.39516881 </v>
    <v>       0.38916310       0.38090482       0.41946730 </v>
    <v>       0.37595492       0.49079272       0.46567062 </v>
    <v>       0.35435253       0.59856823       0.50921279 </v>
    <v>       0.59674616       0.57448005       0.31672126 </v>
    <v>       0.58859203       0.43061084       0.39375756 </v>
    <v>       0.55927046       0.72333014       0.48417654 </v>
    <v>       0.52657188       0.52840801       0.41324127 </v>
    <v>       0.29842291       0.50575772       0.55903797 </v>
    <v>       0.32161317       0.39521219       0.52092714 </v>
    <v>       0.64311350       0.54849830       0.41953616 </v>
    <v>       0.35537069       0.28840965       0.47967936 </v>
    <v>       0.46723543       0.53988881       0.53212400 </v>
    <v>       0.56566010       0.60315983       0.50317509 </v>
    <v>       0.48139653       0.43179921       0.47364338 </v>
    <v>       0.45889902       0.65930755       0.49660911 </v>
    <v>       0.47587050       0.31159696       0.46563679 </v>
    <v>       0.38202280       0.68027992       0.59041471 </v>
    <v>       0.37793742       0.56489677       0.62641837 </v>
    <v>       0.66293789       0.66822341       0.51011957 </v>
    <v>       0.47972595       0.62438991       0.61892553 </v>
    <v>       0.40145252       0.45477377       0.58570693 </v>
    <v>       0.67981301       0.44570150       0.46509953 </v>
    <v>       0.58039323       0.68247724       0.59983699 </v>
    <v>       0.41538101       0.33831334       0.56815384 </v>
    <v>       0.67644446       0.54827807       0.53397113 </v>
    <v>       0.57750371       0.48373811       0.51928926 </v>
    <v>       0.48272482       0.74343503       0.57783325 </v>
    <v>       0.58249343       0.36618020       0.49681901 </v>
    <v>       0.67962540       0.62954400       0.62293799 </v>
    <v>       0.57987030       0.56016600       0.61685400 </v>
    <v>       0.48018274       0.50868150       0.65743535 </v>
    <v>       0.51030365       0.40798481       0.59119213 </v>
    <v>       0.67383673       0.43138415       0.57873899 </v>
    <v>       0.52207195       0.28675591       0.57119340 </v>
    <v>       0.68614111       0.51821554       0.65467061 </v>
    <v>       0.58564039       0.45495525       0.66689124 </v>
    <v>       0.60791840       0.34712232       0.62073086 </v>
   </varray>
  </structure>
  <varray name="forces" >
   <v>      -0.10761486       0.11056384      -0.26223155 </v>
   <v>      -0.10524208       0.09482928       0.02470351 </v>
   <v>      -0.07028160       0.00797746       0.00004513 </v>
   <v>       0.01441992       0.12066506       0.10946946 </v>
   <v>      -0.01452717      -0.01961325      -0.12403476 </v>
   <v>      -0.14814903      -0.00198452      -0.00576882 </v>
   <v>      -0.22546909      -0.04761578      -0.07340048 </v>
   <v>      -0.01972479      -0.02341341       0.07948097 </v>
   <v>       0.04377761       0.04017784      -0.00438378 </v>
   <v>      -0.12233347      -0.10858000       0.12543194 </v>
   <v>      -0.04088884      -0.01864897       0.09810753 </v>
   <v>       0.01822506       0.08120582      -0.10062716 </v>
   <v>      -0.23802806      -0.01162009      -0.13757648 </v>
   <v>      -0.09328273      -0.06217523      -0.01520383 </v>
   <v>       0.07977590       0.13565193       0.13679178 </v>
   <v>      -0.07763402      -0.09907725       0.07601999 </v>
   <v>       0.16908524      -0.12537187       0.00608370 </v>
   <v>       0.09021401       0.01021980      -0.08477877 </v>
   <v>       0.03223131      -0.07750443      -0.13766822 </v>
   <v>      -0.10597070       0.03330970      -0.01007342 </v>
   <v>       0.03849437      -0.02627991       0.04829446 </v>
   <v>      -0.22873153       0.20261895       0.04557775 </v>
   <v>      -0.02741244       0.07915814      -0.08103160 </v>
   <v>       0.14598430      -0.02297104       0.09629603 </v>
   <v>       0.03834809       0.13464293       0.12759932 </v>
   <v>      -0.07120748      -0.03070418       0.01450756 </v>
   <v>       0.10478958      -0.08968663      -0.10058968 </v>
   <v>       0.09432157       0.08218594      -0.22723411 </v>
   <v>      -0.01321525      -0.05972465      -0.05835160 </v>
   <v>       0.19640630      -0.11842922       0.18831959 </v>
   <v>       0.08184090       0.00144420      -0.11639774 </v>
   <v>      -0.16260418      -0.12874908      -0.01419772 </v>
   <v>       0.16955125      -0.05410046       0.19727689 </v>
   <v>       0.22374856       0.13560491       0.04126401 </v>
   <v>       0.07889615       0.11493290       0.05312574 </v>
   <v>       0.04544964      -0.02339920      -0.06481750 </v>
   <v>      -0.07646010      -0.01601421      -0.03239398 </v>
   <v>      -0.12360427       0.03384386      -0.00135150 </v>
   <v>      -0.00704548      -0.00411322      -0.03456893 </v>
   <v>       0.17267916       0.01747263       0.08416177 </v>
   <v>       0.11203492      -0.09428050       0.06193864 </v>
   <v>       0.12915330      -0.17244809       0.07218586 </v>
  </varray>
  <varray name="stress" >
   <v>      -0.85094540       0.01866597       0.32443280 </v>
   <v>       0.01866598      -1.45922965      -0.13221481 </v>
   <v>       0.32443280      -0.13221481      -1.78636154 </v>
  </varray>
  <energy>
   <i name="e_fr_energy">    -89.29950539 </i>
   <i name="e_wo_entrp">    -89.29950539 </i>
   <i name="e_0_energy">      0.00000000 </i>
  </energy>
  <time name="totalsc">   39.21   39.32</time>
 </calculation>
 <calculation>
  <scstep>
   <time name="dav">    4.84    4.84</time>
   <time name="total">    5.23    5.24</time>
   <energy>
    <i name="alphaZ">    116.14885477 </i>
    <i name="ewald"> 116599.88842553 </i>
    <i name="hartreedc">-158362.75865478 </i>
    <i name="XCdc">   -475.41272342 </i>
    <i name="pawpsdc">  45562.26552329 </i>
    <i name="pawaedc"> -43704.79432933 </i>
    <i name="eentropy">      0.00000000 </i>
    <i name="bandstr">  -3386.89476717 </i>
    <i name="atom">  43562.34246363 </i>
    <i name="e_fr_energy">    -89.21520749 </i>
    <i name="e_wo_entrp">    -89.21520749 </i>
    <i name="e_0_energy">    -89.21520749 </i>
   </energy>
  </scstep>
  <scstep>
   <time name="dav">    4.99    5.00</time>
   <time name="total">    5.38    5.38</time>
   <energy>
    <i name="e_fr_energy">    -89.36678227 </i>
    <i name="e_wo_entrp">    -89.36678227 </i>
    <i name="e_0_energy">    -89.36678227 </i>
   </energy>
  </scstep>
  <scstep>
   <time name="dav">    5.01    5.01</time>
   <time name="total">    5.39    5.78</time>
   <energy>
    <i name="e_fr_energy">    -89.36321938 </i>
    <i name="e_wo_entrp">    -89.36321938 </i>
    <i name="e_0_energy">    -89.36321938 </i>
   </energy>
  </scstep>
  <scstep>
   <time name="dav">    5.03    5.04</time>
   <time name="total">    5.42    5.42</time>
   <energy>
    <i name="e_fr_energy">    -89.36008238 </i>
    <i name="e_wo_entrp">    -89.36008238 </i>
    <i name="e_0_energy">    -89.36008238 </i>
   </energy>
  </scstep>
  <scstep>
   <time name="dav">    5.00    5.01</time>
   <time name="total">    5.39    5.40</time>
   <energy>
    <i name="e_fr_energy">    -89.36009227 </i>
    <i name="e_wo_entrp">    -89.36009227 </i>
    <i name="e_0_energy">    -89.36009227 </i>
   </energy>
  </scstep>
  <scstep>
   <time name="dav">    3.67    3.68</time>
   <time name="total">    3.92    4.69</time>
   <energy>
    <i name="alphaZ">    116.14885477 </i>
    <i name="ewald"> 116599.88842553 </i>
    <i name="hartreedc">-158366.99437839 </i>
    <i name="XCdc">   -475.35769429 </i>
    <i name="pawpsdc">  45521.25349155 </i>
    <i name="pawaedc"> -43663.02299094 </i>
    <i name="eentropy">      0.00000000 </i>
    <i name="bandstr">  -3383.61819386 </i>
    <i name="atom">  43562.34246363 </i>
    <i name="e_fr_energy">    -89.36002200 </i>
    <i name="e_wo_entrp">    -89.36002200 </i>
    <i name="e_0_energy">    -89.36002200 </i>
   </energy>
  </scstep>
  <structure>
   <crystal>
    <varray name="basis" >
     <v>      23.46385016       0.00000000       0.00000000 </v>
     <v>       0.00000000      23.46385016       0.00000000 </v>
     <v>       0.00000000       0.00000000      23.46385016 </v>
    </varray>
    <i name="volume">  12918.07583180 </i>
    <varray name="rec_basis" >
     <v>       0.04261875       0.00000000       0.00000000 </v>
     <v>       0.00000000       0.04261875       0.00000000 </v>
     <v>       0.00000000       0.00000000       0.04261875 </v>
    </varray>
   </crystal>
   <varray name="positions" >
    <v>       0.47905642       0.57247844       0.31028125 </v>
    <v>       0.44142262       0.46763059       0.35960270 </v>
    <v>       0.41979342       0.58640870       0.41147642 </v>
    <v>       0.54042781       0.47162373       0.29533958 </v>
    <v>       0.53222007       0.64523181       0.39441972 </v>
    <v>       0.38791363       0.38021524       0.42011322 </v>
    <v>       0.37403311       0.49029574       0.46547697 </v>
    <v>       0.35384154       0.59814280       0.50957015 </v>
    <v>       0.59697928       0.57464310       0.31663634 </v>
    <v>       0.58813004       0.42972857       0.39416553 </v>
    <v>       0.55892561       0.72290097       0.48514436 </v>
    <v>       0.52613163       0.52943476       0.41217936 </v>
    <v>       0.29752655       0.50547276       0.55817839 </v>
    <v>       0.32163203       0.39512061       0.52083691 </v>
    <v>       0.64367998       0.54953014       0.41999187 </v>
    <v>       0.35509498       0.28836652       0.48022549 </v>
    <v>       0.46785627       0.53897419       0.53215387 </v>
    <v>       0.56687152       0.60463746       0.50214435 </v>
    <v>       0.48090866       0.43031793       0.47235800 </v>
    <v>       0.45853551       0.66044514       0.49690221 </v>
    <v>       0.47619642       0.31164708       0.46627650 </v>
    <v>       0.38147760       0.68147142       0.59096033 </v>
    <v>       0.37752640       0.56572106       0.62606030 </v>
    <v>       0.66317507       0.66795074       0.51102376 </v>
    <v>       0.47814892       0.62619753       0.61978620 </v>
    <v>       0.39898817       0.45503953       0.58527604 </v>
    <v>       0.68048088       0.44496469       0.46452311 </v>
    <v>       0.58175669       0.68349859       0.59822701 </v>
    <v>       0.41485655       0.33706135       0.56736510 </v>
    <v>       0.67768133       0.54751992       0.53531494 </v>
    <v>       0.57887046       0.48314855       0.51923570 </v>
    <v>       0.48147741       0.74228533       0.57745251 </v>
    <v>       0.58344001       0.36587775       0.49805655 </v>
    <v>       0.68071305       0.63108037       0.62278014 </v>
    <v>       0.58132642       0.55948720       0.61776066 </v>
    <v>       0.48130161       0.50824021       0.65790439 </v>
    <v>       0.51198035       0.40749003       0.59169938 </v>
    <v>       0.67299601       0.43170806       0.57900607 </v>
    <v>       0.52172174       0.28687389       0.57061049 </v>
    <v>       0.68691547       0.51765583       0.65508981 </v>
    <v>       0.58588491       0.45449485       0.66681961 </v>
    <v>       0.60858261       0.34668180       0.62105491 </v>
   </varray>
  </structure>
  <varray name="forces" >
   <v>      -0.11210174       0.15636430      -0.13902965 </v>
   <v>      -0.27154986      -0.06267708       0.13461431 </v>
   <v>      -0.01865009      -0.01195501      -0.00289176 </v>
   <v>       0.06290926       0.07910712       0.11061402 </v>
   <v>      -0.05188867       0.11296386      -0.10118644 </v>
   <v>      -0.04826307       0.13398957      -0.15219116 </v>
   <v>      -0.02996985       0.01880960      -0.12707960 </v>
   <v>       0.06999095       0.04783542       0.07790221 </v>
   <v>       0.04500476       0.05062958       0.00640439 </v>
   <v>      -0.15392502      -0.03705905       0.16955522 </v>
   <v>      -0.00910022       0.08978835      -0.03133064 </v>
   <v>       0.13868883      -0.06499040       0.03086167 </v>
   <v>      -0.32402822       0.04871177      -0.09515096 </v>
   <v>      -0.21977021      -0.12332813      -0.01368389 </v>
   <v>       0.04367372       0.05782626       0.17977723 </v>
   <v>      -0.11645664      -0.22047793       0.02802749 </v>
   <v>       0.20038381      -0.07499569       0.00510611 </v>
   <v>      -0.09576622      -0.33570630       0.03000021 </v>
   <v>       0.16725394       0.16560850      -0.01385541 </v>
   <v>      -0.15470277      -0.20257357      -0.11414478 </v>
   <v>       0.00589306      -0.07610493      -0.06496091 </v>
   <v>      -0.39225636       0.16205135      -0.02541297 </v>
   <v>       0.02531118      -0.01620869      -0.08604969 </v>
   <v>       0.29312627       0.02287050      -0.03083664 </v>
   <v>       0.39025497      -0.11757125       0.09343234 </v>
   <v>       0.35854798      -0.08457212       0.13544984 </v>
   <v>       0.06972367      -0.02650815      -0.08156470 </v>
   <v>      -0.10899077      -0.02859471      -0.06848244 </v>
   <v>       0.07946897       0.14817499       0.06663263 </v>
   <v>       0.13245923      -0.06134173       0.08813281 </v>
   <v>      -0.12898547       0.14300672      -0.22558112 </v>
   <v>      -0.03813991       0.02974796       0.07666827 </v>
   <v>       0.13992531      -0.04955980       0.12637612 </v>
   <v>       0.22853350      -0.05336253       0.12861680 </v>
   <v>      -0.10368278       0.35673643      -0.08001002 </v>
   <v>      -0.13635905       0.05323215      -0.21867923 </v>
   <v>      -0.47328477       0.05506573      -0.18144017 </v>
   <v>      -0.05679509      -0.01586624      -0.05664695 </v>
   <v>       0.07366561      -0.04227550       0.07520749 </v>
   <v>       0.19539719       0.13812924       0.09631967 </v>
   <v>       0.19426631      -0.09372390       0.16511412 </v>
   <v>       0.13018829      -0.27119666       0.08539616 </v>
  </varray>
  <varray name="stress" >
   <v>      -1.08146043       0.03637445       0.30590227 </v>
   <v>       0.03637445      -1.62557737      -0.12666751 </v>
   <v>       0.30590227      -0.12666751      -1.89676631 </v>
  </varray>
  <energy>
   <i name="e_fr_energy">    -89.36002200 </i>
   <i name="e_wo_entrp">    -89.36002200 </i>
   <i name="e_0_energy">      0.00000000 </i>
  </energy>
  <time name="totalsc">   39.83   41.62</time>
 </calculation>
 <calculation>
  <scstep>
   <time name="dav">    4.84    4.84</time>
   <time name="total">    5.23    5.24</time>
   <energy>
    <i name="alphaZ">    116.14885477 </i>
    <i name="ewald"> 116248.80441369 </i>
    <i name="hartreedc">-158017.59406057 </i>
    <i name="XCdc">   -475.69499246 </i>
    <i name="pawpsdc">  45519.95798282 </i>
    <i name="pawaedc"> -43661.72357777 </i>
    <i name="eentropy">      0.00000000 </i>
    <i name="bandstr">  -3381.65770071 </i>
    <i name="atom">  43562.34246363 </i>
    <i name="e_fr_energy">    -89.41661660 </i>
    <i name="e_wo_entrp">    -89.41661660 </i>
    <i name="e_0_energy">    -89.41661660 </i>
   </energy>
  </scstep>
  <scstep>
   <time name="dav">    5.04    5.05</time>
   <time name="total">    5.42    5.43</time>
   <energy>
    <i name="e_fr_energy">    -89.44039765 </i>
    <i name="e_wo_entrp">    -89.44039765 </i>
    <i name="e_0_energy">    -89.44039765 </i>
   </energy>
  </scstep>
  <scstep>
   <time name="dav">    5.07    5.08</time>
   <time name="total">    5.46    5.46</time>
   <energy>
    <i name="e_fr_energy">    -89.44004886 </i>
    <i name="e_wo_entrp">    -89.44004886 </i>
    <i name="e_0_energy">    -89.44004886 </i>
   </energy>
  </scstep>
  <scstep>
   <time name="dav">    5.07    5.08</time>
   <time name="total">    5.46    5.52</time>
   <energy>
    <i name="e_fr_energy">    -89.43930748 </i>
    <i name="e_wo_entrp">    -89.43930748 </i>
    <i name="e_0_energy">    -89.43930748 </i>
   </energy>
  </scstep>
  <scstep>
   <time name="dav">    4.94    4.95</time>
   <time name="total">    5.18    5.21</time>
   <energy>
    <i name="alphaZ">    116.14885477 </i>
    <i name="ewald"> 116248.80441369 </i>
    <i name="hartreedc">-158020.90291777 </i>
    <i name="XCdc">   -475.63083800 </i>
    <i name="pawpsdc">  45473.24521421 </i>
    <i name="pawaedc"> -43614.27418125 </i>
    <i name="eentropy">      0.00000000 </i>
    <i name="bandstr">  -3379.17232823 </i>
    <i name="atom">  43562.34246363 </i>
    <i name="e_fr_energy">    -89.43931896 </i>
    <i name="e_wo_entrp">    -89.43931896 </i>
    <i name="e_0_energy">    -89.43931896 </i>
   </energy>
  </scstep>
  <structure>
   <crystal>
    <varray name="basis" >
     <v>      23.46385016       0.00000000       0.00000000 </v>
     <v>       0.00000000      23.46385016       0.00000000 </v>
     <v>       0.00000000       0.00000000      23.46385016 </v>
    </varray>
    <i name="volume">  12918.07583180 </i>
    <varray name="rec_basis" >
     <v>       0.04261875       0.00000000       0.00000000 </v>
     <v>       0.00000000       0.04261875       0.00000000 </v>
     <v>       0.00000000       0.00000000       0.04261875 </v>
    </varray>
   </crystal>
   <varray name="positions" >
    <v>       0.47871115       0.57286501       0.30944490 </v>
    <v>       0.44100889       0.46789634       0.35971027 </v>
    <v>       0.41956941       0.58643228       0.41149029 </v>
    <v>       0.54050401       0.47199958       0.29569633 </v>
    <v>       0.53215216       0.64525183       0.39400921 </v>
    <v>       0.38744342       0.38024166       0.42004097 </v>
    <v>       0.37338867       0.49017637       0.46519120 </v>
    <v>       0.35380897       0.59809710       0.50981874 </v>
    <v>       0.59713109       0.57478337       0.31662162 </v>
    <v>       0.58771395       0.42939125       0.39459283 </v>
    <v>       0.55880334       0.72292880       0.48538626 </v>
    <v>       0.52624310       0.52963487       0.41190768 </v>
    <v>       0.29667407       0.50547183       0.55774463 </v>
    <v>       0.32124662       0.39487292       0.52078480 </v>
    <v>       0.64393195       0.54995043       0.42045204 </v>
    <v>       0.35480288       0.28796080       0.48044335 </v>
    <v>       0.46840392       0.53855939       0.53217215 </v>
    <v>       0.56707364       0.60449435       0.50188073 </v>
    <v>       0.48105633       0.43015713       0.47193800 </v>
    <v>       0.45814832       0.66043443       0.49678917 </v>
    <v>       0.47630716       0.31152702       0.46635761 </v>
    <v>       0.38061167       0.68212634       0.59108291 </v>
    <v>       0.37744504       0.56594573       0.62579700 </v>
    <v>       0.66376981       0.66790758       0.51124696 </v>
    <v>       0.47835855       0.62654421       0.62021723 </v>
    <v>       0.39886845       0.45497073       0.58538462 </v>
    <v>       0.68081041       0.44469089       0.46420063 </v>
    <v>       0.58198204       0.68376182       0.59760993 </v>
    <v>       0.41483670       0.33694005       0.56724112 </v>
    <v>       0.67829754       0.54717755       0.53588513 </v>
    <v>       0.57906122       0.48322178       0.51881768 </v>
    <v>       0.48102585       0.74198467       0.57747188 </v>
    <v>       0.58398022       0.36569650       0.49866213 </v>
    <v>       0.68145437       0.63145792       0.62296053 </v>
    <v>       0.58158971       0.55991344       0.61789709 </v>
    <v>       0.48140301       0.50819925       0.65765939 </v>
    <v>       0.51165357       0.40743587       0.59153242 </v>
    <v>       0.67263634       0.43177945       0.57898738 </v>
    <v>       0.52174515       0.28683493       0.57056508 </v>
    <v>       0.68750146       0.51772956       0.65539019 </v>
    <v>       0.58630592       0.45418641       0.66709149 </v>
    <v>       0.60901865       0.34606356       0.62130659 </v>
   </varray>
  </structure>
  <varray name="forces" >
   <v>      -0.08480579       0.12798567      -0.06753354 </v>
   <v>      -0.24994901      -0.04768186       0.12485088 </v>
   <v>       0.00537200      -0.02788672      -0.02210739 </v>
   <v>       0.04574643       0.07610092       0.12930243 </v>
   <v>      -0.06106778       0.12741897      -0.07406345 </v>
   <v>      -0.02718461       0.09820499      -0.12135267 </v>
   <v>       0.00635358       0.03612284      -0.08969687 </v>
   <v>       0.08056799       0.03651376       0.06718462 </v>
   <v>       0.03658924       0.05342893       0.02916649 </v>
   <v>      -0.14651825      -0.03230330       0.17343435 </v>
   <v>      -0.00555696       0.06332003      -0.06219443 </v>
   <v>       0.12187064      -0.07029771       0.00335630 </v>
   <v>      -0.24504013       0.03171619      -0.07472286 </v>
   <v>      -0.19830430      -0.10399422       0.00207613 </v>
   <v>       0.03591938       0.03958837       0.16283907 </v>
   <v>      -0.08679328      -0.18579082       0.01083576 </v>
   <v>       0.15444623      -0.05972752       0.00836824 </v>
   <v>      -0.09692982      -0.28673135       0.03598980 </v>
   <v>       0.15407380       0.17330182      -0.01127449 </v>
   <v>      -0.12281677      -0.22027557      -0.10193832 </v>
   <v>      -0.01729304      -0.05839519      -0.07985521 </v>
   <v>      -0.31827114       0.09140072      -0.02412402 </v>
   <v>       0.04262399      -0.02789010      -0.10051596 </v>
   <v>       0.25311239       0.00293314      -0.05125423 </v>
   <v>       0.31034573      -0.11953075       0.04997081 </v>
   <v>       0.29513018      -0.05245056       0.09927359 </v>
   <v>       0.04872510      -0.00545720      -0.06130115 </v>
   <v>      -0.08846505      -0.05813060      -0.03149505 </v>
   <v>       0.06462949       0.15667937       0.05847131 </v>
   <v>       0.09898341      -0.04096262       0.06479586 </v>
   <v>      -0.12067550       0.14137573      -0.21666250 </v>
   <v>      -0.02275370       0.03835316       0.08149720 </v>
   <v>       0.11679044      -0.03621588       0.11786091 </v>
   <v>       0.18381089      -0.06982674       0.12241055 </v>
   <v>      -0.08304920       0.29707608      -0.06613708 </v>
   <v>      -0.11208515       0.05884635      -0.22281174 </v>
   <v>      -0.38023266       0.06225169      -0.15003139 </v>
   <v>      -0.05651121      -0.02145767      -0.04952458 </v>
   <v>       0.08227668      -0.03937315       0.09334404 </v>
   <v>       0.15194773       0.13656968       0.07347486 </v>
   <v>       0.14983879      -0.05799171       0.09828168 </v>
   <v>       0.08514926      -0.22681714       0.07181207 </v>
  </varray>
  <varray name="stress" >
   <v>      -1.30511407       0.05262522       0.26354671 </v>
   <v>       0.05262521      -1.79616091      -0.12413734 </v>
   <v>       0.26354672      -0.12413734      -2.00343881 </v>
  </varray>
  <energy>
   <i name="e_fr_energy">    -89.43931896 </i>
   <i name="e_wo_entrp">    -89.43931896 </i>
   <i name="e_0_energy">      0.00000000 </i>
  </energy>
  <time name="totalsc">   35.85   36.02</time>
 </calculation>
 <calculation>
  <scstep>
   <time name="dav">    4.84    4.84</time>
   <time name="total">    5.22    5.24</time>
   <energy>
    <i name="alphaZ">    116.14885477 </i>
    <i name="ewald"> 115200.31918311 </i>
    <i name="hartreedc">-156977.10412414 </i>
    <i name="XCdc">   -476.58244592 </i>
    <i name="pawpsdc">  45472.89570349 </i>
    <i name="pawaedc"> -43613.91551470 </i>
    <i name="eentropy">      0.00000000 </i>
    <i name="bandstr">  -3373.45575082 </i>
[...]
       <r>     0.4129     0.0000   272.0000 </r>
       <r>     0.4538     0.0000   272.0000 </r>
       <r>     0.4946     0.0000   272.0000 </r>
       <r>     0.5354     0.0000   272.0000 </r>
       <r>     0.5762     0.0000   273.0000 </r>
       <r>     0.6170     0.0000   273.0000 </r>
       <r>     0.6578     0.0000   273.0000 </r>
       <r>     0.6987     0.0000   274.0000 </r>
       <r>     0.7395     0.0000   275.0000 </r>
       <r>     0.7803     0.0000   276.0000 </r>
       <r>     0.8211     0.0000   278.0000 </r>
       <r>     0.8619     0.0000   279.0000 </r>
       <r>     0.9028     0.0000   280.0000 </r>
       <r>     0.9436     0.0000   282.0000 </r>
       <r>     0.9844     0.0000   283.0000 </r>
       <r>     1.0252     0.0000   285.0000 </r>
       <r>     1.0660     0.0000   288.0000 </r>
       <r>     1.1068     0.0000   289.0000 </r>
       <r>     1.1477     0.0000   290.0000 </r>
       <r>     1.1885     0.0000   291.0000 </r>
       <r>     1.2293     0.0000   293.0000 </r>
       <r>     1.2701     0.0000   296.0000 </r>
       <r>     1.3109     0.0000   298.0000 </r>
       <r>     1.3518     0.0000   300.0000 </r>
       <r>     1.3926     0.0000   300.0000 </r>
       <r>     1.4334     0.0000   300.0000 </r>
       <r>     1.4742     0.0000   300.0000 </r>
       <r>     1.5150     0.0000   300.0000 </r>
       <r>     1.5558     0.0000   300.0000 </r>
       <r>     1.5967     0.0000   300.0000 </r>
       <r>     1.6375     0.0000   300.0000 </r>
       <r>     1.6783     0.0000   300.0000 </r>
       <r>     1.7191     0.0000   300.0000 </r>
       <r>     1.7599     0.0000   300.0000 </r>
       <r>     1.8008     0.0000   300.0000 </r>
       <r>     1.8416     0.0000   300.0000 </r>
       <r>     1.8824     0.0000   300.0000 </r>
      </set>
      <set comment="spin 2">
       <r>   -10.3631     0.0000     0.0000 </r>
       <r>   -10.3223     0.0000     0.0000 </r>
       <r>   -10.2815     0.0000     0.0000 </r>
       <r>   -10.2407     0.0000     0.0000 </r>
       <r>   -10.1998     0.0000     0.0000 </r>
       <r>   -10.1590     0.0000     0.0000 </r>
       <r>   -10.1182     0.0000     0.0000 </r>
       <r>   -10.0774     0.0000     0.0000 </r>
       <r>   -10.0366     0.0000     0.0000 </r>
       <r>    -9.9958     0.0000     0.0000 </r>
       <r>    -9.9549     0.0000     0.0000 </r>
       <r>    -9.9141     0.0000     0.0000 </r>
       <r>    -9.8733     0.0000     0.0000 </r>
       <r>    -9.8325     0.0000     0.0000 </r>
       <r>    -9.7917     0.0000     1.0000 </r>
       <r>    -9.7508     0.0000     1.0000 </r>
       <r>    -9.7100     0.0000     1.0000 </r>
       <r>    -9.6692     0.0000     1.0000 </r>
       <r>    -9.6284     0.0000     1.0000 </r>
       <r>    -9.5876     0.0000     1.0000 </r>
       <r>    -9.5468     0.0000     1.0000 </r>
       <r>    -9.5059     0.0000     1.0000 </r>
       <r>    -9.4651     0.0000     1.0000 </r>
       <r>    -9.4243     0.0000     1.0000 </r>
       <r>    -9.3835     0.0000     1.0000 </r>
       <r>    -9.3427     0.0000     1.0000 </r>
       <r>    -9.3018     0.0000     1.0000 </r>
       <r>    -9.2610     0.0000     1.0000 </r>
       <r>    -9.2202     0.0000     2.0000 </r>
       <r>    -9.1794     0.0000     2.0000 </r>
       <r>    -9.1386     0.0000     2.0000 </r>
       <r>    -9.0977     0.0000     4.0000 </r>
       <r>    -9.0569     0.0000     6.0000 </r>
       <r>    -9.0161     0.0000     8.0000 </r>
       <r>    -8.9753     0.0000    11.0000 </r>
       <r>    -8.9345     0.0000    12.0000 </r>
       <r>    -8.8937     0.0000    14.0000 </r>
       <r>    -8.8528     0.0000    16.0000 </r>
       <r>    -8.8120     0.0000    17.0000 </r>
       <r>    -8.7712     0.0000    19.0000 </r>
       <r>    -8.7304     0.0000    23.0000 </r>
       <r>    -8.6896     0.0000    27.0000 </r>
       <r>    -8.6487     0.0000    28.0000 </r>
       <r>    -8.6079     0.0000    32.0000 </r>
       <r>    -8.5671     0.0000    33.0000 </r>
       <r>    -8.5263     0.0000    35.0000 </r>
       <r>    -8.4855     0.0000    37.0000 </r>
       <r>    -8.4447     0.0000    39.0000 </r>
       <r>    -8.4038     0.0000    41.0000 </r>
       <r>    -8.3630     0.0000    44.0000 </r>
       <r>    -8.3222     0.0000    45.0000 </r>
       <r>    -8.2814     0.0000    49.0000 </r>
       <r>    -8.2406     0.0000    51.0000 </r>
       <r>    -8.1997     0.0000    54.0000 </r>
       <r>    -8.1589     0.0000    57.0000 </r>
       <r>    -8.1181     7.2967    59.2978 </r>
       <r>    -8.0773     0.0000    62.0000 </r>
       <r>    -8.0365     0.0000    65.0000 </r>
       <r>    -7.9957     0.0000    67.0000 </r>
       <r>    -7.9548     0.0000    70.0000 </r>
       <r>    -7.9140     0.0000    73.0000 </r>
       <r>    -7.8732     0.0000    76.0000 </r>
       <r>    -7.8324     0.0000    78.0000 </r>
       <r>    -7.7916     0.0000    81.0000 </r>
       <r>    -7.7507     0.0000    83.0000 </r>
       <r>    -7.7099     0.0000    87.0000 </r>
       <r>    -7.6691     0.0000    90.0000 </r>
       <r>    -7.6283     0.0000    93.0000 </r>
       <r>    -7.5875     0.0000    96.0000 </r>
       <r>    -7.5467    24.4988    98.0000 </r>
       <r>    -7.5058     0.0000   102.0000 </r>
       <r>    -7.4650     0.0000   104.0000 </r>
       <r>    -7.4242     0.0313   106.0013 </r>
       <r>    -7.3834     0.0000   110.0000 </r>
       <r>    -7.3426     0.0000   113.0000 </r>
       <r>    -7.3017     0.0000   115.0000 </r>
       <r>    -7.2609     0.0000   119.0000 </r>
       <r>    -7.2201     0.0000   121.0000 </r>
       <r>    -7.1793     0.0000   124.0000 </r>
       <r>    -7.1385    24.4891   125.9996 </r>
       <r>    -7.0976     0.0000   129.0000 </r>
       <r>    -7.0568     0.0000   133.0000 </r>
       <r>    -7.0160     0.0000   136.0000 </r>
       <r>    -6.9752     0.0000   140.0000 </r>
       <r>    -6.9344     0.0000   145.0000 </r>
       <r>    -6.8936     0.0000   150.0000 </r>
       <r>    -6.8527     0.0000   155.0000 </r>
       <r>    -6.8119     0.0000   158.0000 </r>
       <r>    -6.7711     0.0000   162.0000 </r>
       <r>    -6.7303     0.0000   165.0000 </r>
       <r>    -6.6895     0.0000   169.0000 </r>
       <r>    -6.6486     0.0000   173.0000 </r>
       <r>    -6.6078     0.0000   177.0000 </r>
       <r>    -6.5670     0.0000   181.0000 </r>
       <r>    -6.5262     0.0000   187.0000 </r>
       <r>    -6.4854     0.0000   190.0000 </r>
       <r>    -6.4446     0.0000   193.0000 </r>
       <r>    -6.4037     0.0000   197.0000 </r>
       <r>    -6.3629     0.0004   200.0000 </r>
       <r>    -6.3221     0.0000   203.0000 </r>
       <r>    -6.2813     1.7406   206.0710 </r>
       <r>    -6.2405     3.9165   208.1599 </r>
       <r>    -6.1996     0.0000   211.0000 </r>
       <r>    -6.1588     0.0000   215.0000 </r>
       <r>    -6.1180     0.0000   216.0000 </r>
       <r>    -6.0772     0.0000   216.0000 </r>
       <r>    -6.0364     0.0000   216.0000 </r>
       <r>    -5.9956     0.0000   216.0000 </r>
       <r>    -5.9547     0.0000   216.0000 </r>
       <r>    -5.9139     0.0000   216.0000 </r>
       <r>    -5.8731     0.0000   216.0000 </r>
       <r>    -5.8323     0.0000   216.0000 </r>
       <r>    -5.7915     0.0000   217.0000 </r>
       <r>    -5.7506     0.0000   217.0000 </r>
       <r>    -5.7098     0.0000   217.0000 </r>
       <r>    -5.6690     0.0000   218.0000 </r>
       <r>    -5.6282     0.0000   219.0000 </r>
       <r>    -5.5874     0.0000   219.0000 </r>
       <r>    -5.5466     0.0000   219.0000 </r>
       <r>    -5.5057     0.0000   220.0000 </r>
       <r>    -5.4649     0.0000   220.0000 </r>
       <r>    -5.4241     0.0000   220.0000 </r>
       <r>    -5.3833     0.0000   220.0000 </r>
       <r>    -5.3425     0.0000   220.0000 </r>
       <r>    -5.3016     0.0000   220.0000 </r>
       <r>    -5.2608     0.0000   220.0000 </r>
       <r>    -5.2200     0.0000   221.0000 </r>
       <r>    -5.1792     0.0000   221.0000 </r>
       <r>    -5.1384     0.0000   221.0000 </r>
       <r>    -5.0975     0.0000   222.0000 </r>
       <r>    -5.0567     0.0000   222.0000 </r>
       <r>    -5.0159     0.0000   222.0000 </r>
       <r>    -4.9751     0.0000   222.0000 </r>
       <r>    -4.9343     0.0000   222.0000 </r>
       <r>    -4.8935     0.0000   222.0000 </r>
       <r>    -4.8526     0.0000   222.0000 </r>
       <r>    -4.8118     0.0000   222.0000 </r>
       <r>    -4.7710     0.0000   222.0000 </r>
       <r>    -4.7302     0.0000   222.0000 </r>
       <r>    -4.6894     0.0000   222.0000 </r>
       <r>    -4.6485     0.0000   222.0000 </r>
       <r>    -4.6077     0.0000   222.0000 </r>
       <r>    -4.5669     0.0000   222.0000 </r>
       <r>    -4.5261     0.0000   223.0000 </r>
       <r>    -4.4853     0.0000   224.0000 </r>
       <r>    -4.4445     0.0000   224.0000 </r>
       <r>    -4.4036     0.0000   225.0000 </r>
       <r>    -4.3628     0.0000   225.0000 </r>
       <r>    -4.3220     0.0000   225.0000 </r>
       <r>    -4.2812     0.0000   225.0000 </r>
       <r>    -4.2404     0.0000   225.0000 </r>
       <r>    -4.1995     0.0000   225.0000 </r>
       <r>    -4.1587     0.0000   225.0000 </r>
       <r>    -4.1179     0.0000   225.0000 </r>
       <r>    -4.0771     0.0000   226.0000 </r>
       <r>    -4.0363     0.0000   226.0000 </r>
       <r>    -3.9955     0.0000   227.0000 </r>
       <r>    -3.9546     0.0000   227.0000 </r>
       <r>    -3.9138     0.0000   227.0000 </r>
       <r>    -3.8730     0.0000   227.0000 </r>
       <r>    -3.8322     0.0000   228.0000 </r>
       <r>    -3.7914     0.0000   228.0000 </r>
       <r>    -3.7505     0.0000   229.0000 </r>
       <r>    -3.7097     0.0000   229.0000 </r>
       <r>    -3.6689     0.0000   230.0000 </r>
       <r>    -3.6281     0.0000   231.0000 </r>
       <r>    -3.5873     0.0000   231.0000 </r>
       <r>    -3.5465     0.0000   231.0000 </r>
       <r>    -3.5056     0.0000   231.0000 </r>
       <r>    -3.4648     0.0000   231.0000 </r>
       <r>    -3.4240     0.0000   231.0000 </r>
       <r>    -3.3832     0.0000   231.0000 </r>
       <r>    -3.3424     0.0000   231.0000 </r>
       <r>    -3.3015     0.0000   231.0000 </r>
       <r>    -3.2607     0.0000   231.0000 </r>
       <r>    -3.2199     0.0000   232.0000 </r>
       <r>    -3.1791     0.0000   233.0000 </r>
       <r>    -3.1383     0.0000   233.0000 </r>
       <r>    -3.0974     0.0000   233.0000 </r>
       <r>    -3.0566     0.0000   233.0000 </r>
       <r>    -3.0158     0.0000   234.0000 </r>
       <r>    -2.9750     0.0000   235.0000 </r>
       <r>    -2.9342     0.0000   235.0000 </r>
       <r>    -2.8934     0.0000   235.0000 </r>
       <r>    -2.8525     0.0000   235.0000 </r>
       <r>    -2.8117     0.0000   235.0000 </r>
       <r>    -2.7709     0.0000   235.0000 </r>
       <r>    -2.7301     0.0000   235.0000 </r>
       <r>    -2.6893     0.0000   235.0000 </r>
       <r>    -2.6484     0.0000   235.0000 </r>
       <r>    -2.6076     0.0000   235.0000 </r>
       <r>    -2.5668     0.0000   236.0000 </r>
       <r>    -2.5260     0.0000   236.0000 </r>
       <r>    -2.4852     0.0000   237.0000 </r>
       <r>    -2.4444     0.0000   238.0000 </r>
       <r>    -2.4035     0.0000   238.0000 </r>
       <r>    -2.3627     0.0000   238.0000 </r>
       <r>    -2.3219     0.0000   239.0000 </r>
       <r>    -2.2811     0.0000   239.0000 </r>
       <r>    -2.2403     0.0000   240.0000 </r>
       <r>    -2.1994     0.0000   240.0000 </r>
       <r>    -2.1586     0.0000   240.0000 </r>
       <r>    -2.1178     0.0000   241.0000 </r>
       <r>    -2.0770     0.0000   241.0000 </r>
       <r>    -2.0362     0.0000   242.0000 </r>
       <r>    -1.9954     0.0000   243.0000 </r>
       <r>    -1.9545     0.0000   243.0000 </r>
       <r>    -1.9137     0.0000   244.0000 </r>
       <r>    -1.8729     0.0000   244.0000 </r>
       <r>    -1.8321     0.0000   245.0000 </r>
       <r>    -1.7913     0.0000   246.0000 </r>
       <r>    -1.7504     0.0000   246.0000 </r>
       <r>    -1.7096     0.0000   247.0000 </r>
       <r>    -1.6688     0.0000   247.0000 </r>
       <r>    -1.6280     0.0000   248.0000 </r>
       <r>    -1.5872     0.0000   248.0000 </r>
       <r>    -1.5464     0.0000   248.0000 </r>
       <r>    -1.5055     0.0000   249.0000 </r>
       <r>    -1.4647     0.0000   249.0000 </r>
       <r>    -1.4239     0.0000   249.0000 </r>
       <r>    -1.3831     0.0000   250.0000 </r>
       <r>    -1.3423     0.0000   250.0000 </r>
       <r>    -1.3014     0.0000   250.0000 </r>
       <r>    -1.2606     0.0000   250.0000 </r>
       <r>    -1.2198     0.0000   250.0000 </r>
       <r>    -1.1790     0.0000   251.0000 </r>
       <r>    -1.1382     0.0000   251.0000 </r>
       <r>    -1.0973     0.0000   251.0000 </r>
       <r>    -1.0565     0.0000   251.0000 </r>
       <r>    -1.0157     0.0000   251.0000 </r>
       <r>    -0.9749     0.0000   252.0000 </r>
       <r>    -0.9341     0.0000   253.0000 </r>
       <r>    -0.8933     0.0000   254.0000 </r>
       <r>    -0.8524     0.0000   254.0000 </r>
       <r>    -0.8116     0.0000   254.0000 </r>
       <r>    -0.7708     0.0000   255.0000 </r>
       <r>    -0.7300     0.0000   255.0000 </r>
       <r>    -0.6892     0.0000   256.0000 </r>
       <r>    -0.6483     0.0000   257.0000 </r>
       <r>    -0.6075     0.0000   257.0000 </r>
       <r>    -0.5667     0.0000   257.0000 </r>
       <r>    -0.5259     0.0000   258.0000 </r>
       <r>    -0.4851     0.0000   258.0000 </r>
       <r>    -0.4443     0.0000   259.0000 </r>
       <r>    -0.4034     0.0000   259.0000 </r>
       <r>    -0.3626     0.0000   259.0000 </r>
       <r>    -0.3218     0.0000   260.0000 </r>
       <r>    -0.2810     0.0000   260.0000 </r>
       <r>    -0.2402     0.0000   260.0000 </r>
       <r>    -0.1993     0.0000   261.0000 </r>
       <r>    -0.1585     0.0000   262.0000 </r>
       <r>    -0.1177     0.0000   263.0000 </r>
       <r>    -0.0769     0.0000   263.0000 </r>
       <r>    -0.0361     0.0000   264.0000 </r>
       <r>     0.0047     0.0000   264.0000 </r>
       <r>     0.0456     0.0000   266.0000 </r>
       <r>     0.0864     0.0000   267.0000 </r>
       <r>     0.1272     0.0000   268.0000 </r>
       <r>     0.1680     0.0000   268.0000 </r>
       <r>     0.2088     0.0000   269.0000 </r>
       <r>     0.2497     0.0000   269.0000 </r>
       <r>     0.2905     0.0000   270.0000 </r>
       <r>     0.3313     0.0000   270.0000 </r>
       <r>     0.3721     0.0000   270.0000 </r>
       <r>     0.4129     0.0000   272.0000 </r>
       <r>     0.4538     0.0000   272.0000 </r>
       <r>     0.4946     0.0000   272.0000 </r>
       <r>     0.5354     0.0000   272.0000 </r>
       <r>     0.5762     0.0000   273.0000 </r>
       <r>     0.6170     0.0000   273.0000 </r>
       <r>     0.6578     0.0000   273.0000 </r>
       <r>     0.6987     0.0000   274.0000 </r>
       <r>     0.7395     0.0000   275.0000 </r>
       <r>     0.7803     0.0000   276.0000 </r>
       <r>     0.8211     0.0000   278.0000 </r>
       <r>     0.8619     0.0000   279.0000 </r>
       <r>     0.9028     0.0000   280.0000 </r>
       <r>     0.9436     0.0000   282.0000 </r>
       <r>     0.9844     0.0000   283.0000 </r>
       <r>     1.0252     0.0000   285.0000 </r>
       <r>     1.0660     0.0000   288.0000 </r>
       <r>     1.1068     0.0000   289.0000 </r>
       <r>     1.1477     0.0000   290.0000 </r>
       <r>     1.1885     0.0000   291.0000 </r>
       <r>     1.2293     0.0000   293.0000 </r>
       <r>     1.2701     0.0000   296.0000 </r>
       <r>     1.3109     0.0000   298.0000 </r>
       <r>     1.3518     0.0000   300.0000 </r>
       <r>     1.3926     0.0000   300.0000 </r>
       <r>     1.4334     0.0000   300.0000 </r>
       <r>     1.4742     0.0000   300.0000 </r>
       <r>     1.5150     0.0000   300.0000 </r>
       <r>     1.5558     0.0000   300.0000 </r>
       <r>     1.5967     0.0000   300.0000 </r>
       <r>     1.6375     0.0000   300.0000 </r>
       <r>     1.6783     0.0000   300.0000 </r>
       <r>     1.7191     0.0000   300.0000 </r>
       <r>     1.7599     0.0000   300.0000 </r>
       <r>     1.8008     0.0000   300.0000 </r>
       <r>     1.8416     0.0000   300.0000 </r>
       <r>     1.8824     0.0000   300.0000 </r>
      </set>
     </set>
    </array>
   </total>
  </dos>
 </calculation>
 <structure name="finalpos" >
  <crystal>
   <varray name="basis" >
    <v>      23.46385016       0.00000000       0.00000000 </v>
    <v>       0.00000000      23.46385016       0.00000000 </v>
    <v>       0.00000000       0.00000000      23.46385016 </v>
   </varray>
   <i name="volume">  12918.07583180 </i>
   <varray name="rec_basis" >
    <v>       0.04261875       0.00000000       0.00000000 </v>
    <v>       0.00000000       0.04261875       0.00000000 </v>
    <v>       0.00000000       0.00000000       0.04261875 </v>
   </varray>
  </crystal>
  <varray name="positions" >
   <v>       0.50031913       0.55878542       0.31837508 </v>
   <v>       0.44295532       0.46740700       0.36860207 </v>
   <v>       0.42158288       0.58129056       0.40592622 </v>
   <v>       0.60495585       0.49102502       0.34259199 </v>
   <v>       0.53084224       0.64197596       0.39843091 </v>
   <v>       0.38975366       0.37550569       0.42095102 </v>
   <v>       0.36362973       0.48740158       0.45829832 </v>
   <v>       0.34725266       0.59956833       0.49943561 </v>
   <v>       0.60839968       0.60852240       0.31266043 </v>
   <v>       0.54493035       0.40095793       0.39895419 </v>
   <v>       0.55902608       0.72161124       0.48457242 </v>
   <v>       0.53056833       0.52015521       0.43100420 </v>
   <v>       0.29276026       0.50466262       0.55194494 </v>
   <v>       0.31701405       0.38988841       0.51501503 </v>
   <v>       0.64151180       0.57600544       0.42083750 </v>
   <v>       0.36393214       0.27533670       0.47498377 </v>
   <v>       0.45445919       0.54468910       0.52311787 </v>
   <v>       0.56023582       0.60450425       0.51312419 </v>
   <v>       0.47181355       0.42879213       0.48978285 </v>
   <v>       0.45033539       0.66483877       0.48664651 </v>
   <v>       0.48340424       0.30915542       0.46211478 </v>
   <v>       0.37803792       0.68362706       0.58047971 </v>
   <v>       0.37740131       0.56709232       0.61406230 </v>
   <v>       0.66445193       0.66262276       0.50357928 </v>
   <v>       0.48258824       0.62785322       0.61309941 </v>
   <v>       0.39567709       0.45256649       0.58419003 </v>
   <v>       0.64003318       0.45645667       0.45152465 </v>
   <v>       0.59090082       0.69077204       0.59647528 </v>
   <v>       0.41587762       0.33638735       0.55753226 </v>
   <v>       0.67236438       0.54363700       0.53152205 </v>
   <v>       0.56260666       0.48690534       0.54503996 </v>
   <v>       0.48421409       0.74035158       0.57494762 </v>
   <v>       0.58133769       0.36593916       0.50972591 </v>
   <v>       0.69306754       0.63069813       0.61450017 </v>
   <v>       0.59044421       0.57276610       0.63350059 </v>
   <v>       0.48563577       0.51124290       0.64027032 </v>
   <v>       0.50463267       0.39626378       0.60851540 </v>
   <v>       0.67005512       0.42743203       0.56405604 </v>
   <v>       0.52136400       0.28241243       0.57304031 </v>
   <v>       0.69880334       0.51351885       0.64364508 </v>
   <v>       0.59472895       0.45572023       0.65821486 </v>
   <v>       0.61257386       0.34135038       0.62418903 </v>
  </varray>
 </structure>
</modeling>
