  26  26   0   0
  0.4031526E+03  0.2188505E-08  0.2188505E-08  0.2188505E-08  0.1000000E-15
  1.000000000000000E-004
  CAR 
 unknown system                          
      1.44232116     -9.95170078  301     -3.59003853      1.00000000
     -9.952  0.0000E+00  0.0000E+00  0.0000E+00  0.0000E+00
     -9.914  0.0000E+00  0.0000E+00  0.0000E+00  0.0000E+00
     -9.876  0.0000E+00  0.0000E+00  0.0000E+00  0.0000E+00
     -9.838  0.0000E+00  0.0000E+00  0.0000E+00  0.0000E+00
     -9.800  0.0000E+00  0.0000E+00  0.0000E+00  0.0000E+00
     -9.762  0.0000E+00  0.0000E+00  0.0000E+00  0.0000E+00
     -9.724  0.0000E+00  0.0000E+00  0.0000E+00  0.0000E+00
     -9.686  0.0000E+00  0.0000E+00  0.0000E+00  0.0000E+00
     -9.648  0.0000E+00  0.0000E+00  0.0000E+00  0.0000E+00
     -9.610  0.0000E+00  0.0000E+00  0.0000E+00  0.0000E+00
     -9.572  0.0000E+00  0.0000E+00  0.0000E+00  0.0000E+00
     -9.534  0.0000E+00  0.0000E+00  0.0000E+00  0.0000E+00
     -9.496  0.0000E+00  0.0000E+00  0.0000E+00  0.0000E+00
     -9.458  0.0000E+00  0.0000E+00  0.0000E+00  0.0000E+00
     -9.420  0.0000E+00  0.0000E+00  0.1000E-02  0.1000E-02
     -9.382  0.0000E+00  0.0000E+00  0.1000E-02  0.1000E-02
     -9.344  0.0000E+00  0.0000E+00  0.1000E-02  0.1000E-02
     -9.306  0.0000E+00  0.0000E+00  0.1000E-02  0.1000E-02
     -9.268  0.0000E+00  0.0000E+00  0.1000E-02  0.1000E-02
     -9.230  0.0000E+00  0.0000E+00  0.1000E-02  0.1000E-02
     -9.192  0.0000E+00  0.0000E+00  0.1000E-02  0.1000E-02
     -9.154  0.0000E+00  0.0000E+00  0.2000E-02  0.2000E-02
     -9.116  0.0000E+00  0.0000E+00  0.2000E-02  0.2000E-02
     -9.078  0.0000E+00  0.0000E+00  0.3000E-02  0.3000E-02
     -9.040  0.0000E+00  0.0000E+00  0.4000E-02  0.4000E-02
     -9.002  0.1530E-05  0.1530E-05  0.4000E-02  0.4000E-02
     -8.964  0.1420E-03  0.1419E-03  0.5005E-02  0.5005E-02
     -8.926  0.0000E+00  0.0000E+00  0.6000E-02  0.6000E-02
     -8.888  0.0000E+00  0.0000E+00  0.7000E-02  0.7000E-02
     -8.850  0.0000E+00  0.0000E+00  0.7000E-02  0.7000E-02
     -8.812  0.0000E+00  0.0000E+00  0.9000E-02  0.9000E-02
     -8.774  0.0000E+00  0.0000E+00  0.1000E-01  0.1000E-01
     -8.736  0.0000E+00  0.0000E+00  0.1100E-01  0.1100E-01
     -8.698  0.0000E+00  0.0000E+00  0.1200E-01  0.1200E-01
     -8.660  0.0000E+00  0.0000E+00  0.1400E-01  0.1400E-01
     -8.622  0.0000E+00  0.0000E+00  0.1500E-01  0.1500E-01
     -8.584  0.0000E+00  0.0000E+00  0.1600E-01  0.1600E-01
     -8.546  0.0000E+00  0.0000E+00  0.1700E-01  0.1700E-01
     -8.508  0.0000E+00  0.0000E+00  0.1900E-01  0.1900E-01
     -8.470  0.2454E-06  0.2453E-06  0.1900E-01  0.1900E-01
     -8.432  0.0000E+00  0.0000E+00  0.2200E-01  0.2200E-01
     -8.395  0.0000E+00  0.0000E+00  0.2300E-01  0.2300E-01
     -8.357  0.0000E+00  0.0000E+00  0.2400E-01  0.2400E-01
     -8.319  0.0000E+00  0.0000E+00  0.2600E-01  0.2600E-01
     -8.281  0.0000E+00  0.0000E+00  0.2700E-01  0.2700E-01
     -8.243  0.0000E+00  0.0000E+00  0.2900E-01  0.2900E-01
     -8.205  0.0000E+00  0.0000E+00  0.3100E-01  0.3100E-01
     -8.167  0.0000E+00  0.0000E+00  0.3200E-01  0.3200E-01
     -8.129  0.0000E+00  0.0000E+00  0.3400E-01  0.3400E-01
     -8.091  0.0000E+00  0.0000E+00  0.3600E-01  0.3600E-01
     -8.053  0.0000E+00  0.0000E+00  0.3800E-01  0.3800E-01
     -8.015  0.0000E+00  0.0000E+00  0.3900E-01  0.3900E-01
     -7.977  0.0000E+00  0.0000E+00  0.4100E-01  0.4100E-01
     -7.939  0.0000E+00  0.0000E+00  0.4300E-01  0.4300E-01
     -7.901  0.0000E+00  0.0000E+00  0.4500E-01  0.4500E-01
     -7.863  0.0000E+00  0.0000E+00  0.4600E-01  0.4600E-01
     -7.825  0.0000E+00  0.0000E+00  0.4700E-01  0.4700E-01
     -7.787  0.0000E+00  0.0000E+00  0.4800E-01  0.4800E-01
     -7.749  0.0000E+00  0.0000E+00  0.5100E-01  0.5100E-01
     -7.711  0.0000E+00  0.0000E+00  0.5100E-01  0.5100E-01
     -7.673  0.0000E+00  0.0000E+00  0.5300E-01  0.5300E-01
     -7.635  0.0000E+00  0.0000E+00  0.5400E-01  0.5400E-01
     -7.597  0.0000E+00  0.0000E+00  0.5500E-01  0.5500E-01
     -7.559  0.0000E+00  0.0000E+00  0.5800E-01  0.5800E-01
     -7.521  0.0000E+00  0.0000E+00  0.5900E-01  0.5900E-01
     -7.483  0.0000E+00  0.0000E+00  0.6100E-01  0.6100E-01
     -7.445  0.0000E+00  0.0000E+00  0.6200E-01  0.6200E-01
     -7.407  0.0000E+00  0.0000E+00  0.6400E-01  0.6400E-01
     -7.369  0.0000E+00  0.0000E+00  0.6500E-01  0.6500E-01
     -7.331  0.0000E+00  0.0000E+00  0.6700E-01  0.6700E-01
     -7.293  0.0000E+00  0.0000E+00  0.6900E-01  0.6900E-01
     -7.255  0.0000E+00  0.0000E+00  0.7100E-01  0.7100E-01
     -7.217  0.0000E+00  0.0000E+00  0.7300E-01  0.7300E-01
     -7.179  0.6636E-04  0.6636E-04  0.7400E-01  0.7400E-01
     -7.141  0.0000E+00  0.0000E+00  0.7800E-01  0.7800E-01
     -7.103  0.0000E+00  0.0000E+00  0.8000E-01  0.8000E-01
     -7.065  0.0000E+00  0.0000E+00  0.8300E-01  0.8300E-01
     -7.027  0.0000E+00  0.0000E+00  0.8500E-01  0.8500E-01
     -6.989  0.0000E+00  0.0000E+00  0.8900E-01  0.8900E-01
     -6.951  0.0000E+00  0.0000E+00  0.9100E-01  0.9100E-01
     -6.913  0.0000E+00  0.0000E+00  0.9500E-01  0.9500E-01
     -6.875  0.0000E+00  0.0000E+00  0.9700E-01  0.9700E-01
     -6.837  0.0000E+00  0.0000E+00  0.9900E-01  0.9900E-01
     -6.799  0.0000E+00  0.0000E+00  0.1010E+00  0.1010E+00
     -6.761  0.0000E+00  0.0000E+00  0.1030E+00  0.1030E+00
     -6.723  0.0000E+00  0.0000E+00  0.1050E+00  0.1050E+00
     -6.685  0.8574E-07  0.8570E-07  0.1070E+00  0.1070E+00
     -6.647  0.0000E+00  0.0000E+00  0.1110E+00  0.1110E+00
     -6.609  0.0000E+00  0.0000E+00  0.1130E+00  0.1130E+00
     -6.571  0.0000E+00  0.0000E+00  0.1150E+00  0.1150E+00
     -6.533  0.0000E+00  0.0000E+00  0.1170E+00  0.1170E+00
     -6.496  0.0000E+00  0.0000E+00  0.1190E+00  0.1190E+00
     -6.458  0.0000E+00  0.0000E+00  0.1220E+00  0.1220E+00
     -6.420  0.0000E+00  0.0000E+00  0.1240E+00  0.1240E+00
     -6.382  0.0000E+00  0.0000E+00  0.1260E+00  0.1260E+00
     -6.344  0.0000E+00  0.0000E+00  0.1280E+00  0.1280E+00
     -6.306  0.0000E+00  0.0000E+00  0.1290E+00  0.1290E+00
     -6.268  0.0000E+00  0.0000E+00  0.1310E+00  0.1310E+00
     -6.230  0.0000E+00  0.0000E+00  0.1320E+00  0.1320E+00
     -6.192  0.0000E+00  0.0000E+00  0.1330E+00  0.1330E+00
     -6.154  0.0000E+00  0.0000E+00  0.1330E+00  0.1330E+00
     -6.116  0.0000E+00  0.0000E+00  0.1340E+00  0.1340E+00
     -6.078  0.0000E+00  0.0000E+00  0.1340E+00  0.1340E+00
     -6.040  0.0000E+00  0.0000E+00  0.1340E+00  0.1340E+00
     -6.002  0.0000E+00  0.0000E+00  0.1340E+00  0.1340E+00
     -5.964  0.0000E+00  0.0000E+00  0.1340E+00  0.1340E+00
     -5.926  0.0000E+00  0.0000E+00  0.1340E+00  0.1340E+00
     -5.888  0.0000E+00  0.0000E+00  0.1340E+00  0.1340E+00
     -5.850  0.0000E+00  0.0000E+00  0.1340E+00  0.1340E+00
     -5.812  0.0000E+00  0.0000E+00  0.1340E+00  0.1340E+00
     -5.774  0.0000E+00  0.0000E+00  0.1350E+00  0.1350E+00
     -5.736  0.0000E+00  0.0000E+00  0.1350E+00  0.1350E+00
     -5.698  0.0000E+00  0.0000E+00  0.1350E+00  0.1350E+00
     -5.660  0.0000E+00  0.0000E+00  0.1350E+00  0.1350E+00
     -5.622  0.0000E+00  0.0000E+00  0.1350E+00  0.1350E+00
     -5.584  0.0000E+00  0.0000E+00  0.1350E+00  0.1350E+00
     -5.546  0.0000E+00  0.0000E+00  0.1350E+00  0.1350E+00
     -5.508  0.0000E+00  0.0000E+00  0.1350E+00  0.1350E+00
     -5.470  0.0000E+00  0.0000E+00  0.1350E+00  0.1350E+00
     -5.432  0.0000E+00  0.0000E+00  0.1350E+00  0.1350E+00
     -5.394  0.0000E+00  0.0000E+00  0.1350E+00  0.1350E+00
     -5.356  0.0000E+00  0.0000E+00  0.1350E+00  0.1350E+00
     -5.318  0.0000E+00  0.0000E+00  0.1360E+00  0.1360E+00
     -5.280  0.0000E+00  0.0000E+00  0.1360E+00  0.1360E+00
     -5.242  0.0000E+00  0.0000E+00  0.1360E+00  0.1360E+00
     -5.204  0.0000E+00  0.0000E+00  0.1360E+00  0.1360E+00
     -5.166  0.0000E+00  0.0000E+00  0.1360E+00  0.1360E+00
     -5.128  0.0000E+00  0.0000E+00  0.1360E+00  0.1360E+00
     -5.090  0.0000E+00  0.0000E+00  0.1360E+00  0.1360E+00
     -5.052  0.0000E+00  0.0000E+00  0.1360E+00  0.1360E+00
     -5.014  0.0000E+00  0.0000E+00  0.1360E+00  0.1360E+00
     -4.976  0.0000E+00  0.0000E+00  0.1370E+00  0.1370E+00
     -4.938  0.0000E+00  0.0000E+00  0.1370E+00  0.1370E+00
     -4.900  0.0000E+00  0.0000E+00  0.1370E+00  0.1370E+00
     -4.862  0.0000E+00  0.0000E+00  0.1370E+00  0.1370E+00
     -4.824  0.0000E+00  0.0000E+00  0.1380E+00  0.1380E+00
     -4.786  0.0000E+00  0.0000E+00  0.1380E+00  0.1380E+00
     -4.748  0.0000E+00  0.0000E+00  0.1390E+00  0.1390E+00
     -4.710  0.0000E+00  0.0000E+00  0.1390E+00  0.1390E+00
     -4.672  0.0000E+00  0.0000E+00  0.1390E+00  0.1390E+00
     -4.634  0.0000E+00  0.0000E+00  0.1390E+00  0.1390E+00
     -4.597  0.0000E+00  0.0000E+00  0.1390E+00  0.1390E+00
     -4.559  0.0000E+00  0.0000E+00  0.1400E+00  0.1400E+00
     -4.521  0.0000E+00  0.0000E+00  0.1400E+00  0.1400E+00
     -4.483  0.0000E+00  0.0000E+00  0.1400E+00  0.1400E+00
     -4.445  0.0000E+00  0.0000E+00  0.1400E+00  0.1400E+00
     -4.407  0.0000E+00  0.0000E+00  0.1400E+00  0.1400E+00
     -4.369  0.0000E+00  0.0000E+00  0.1400E+00  0.1400E+00
     -4.331  0.0000E+00  0.0000E+00  0.1400E+00  0.1400E+00
     -4.293  0.0000E+00  0.0000E+00  0.1400E+00  0.1400E+00
     -4.255  0.0000E+00  0.0000E+00  0.1410E+00  0.1410E+00
     -4.217  0.0000E+00  0.0000E+00  0.1410E+00  0.1410E+00
     -4.179  0.0000E+00  0.0000E+00  0.1410E+00  0.1410E+00
     -4.141  0.0000E+00  0.0000E+00  0.1410E+00  0.1410E+00
     -4.103  0.0000E+00  0.0000E+00  0.1410E+00  0.1410E+00
     -4.065  0.0000E+00  0.0000E+00  0.1410E+00  0.1410E+00
     -4.027  0.0000E+00  0.0000E+00  0.1410E+00  0.1410E+00
     -3.989  0.0000E+00  0.0000E+00  0.1410E+00  0.1410E+00
     -3.951  0.0000E+00  0.0000E+00  0.1410E+00  0.1410E+00
     -3.913  0.0000E+00  0.0000E+00  0.1410E+00  0.1410E+00
     -3.875  0.0000E+00  0.0000E+00  0.1410E+00  0.1410E+00
     -3.837  0.0000E+00  0.0000E+00  0.1410E+00  0.1410E+00
     -3.799  0.0000E+00  0.0000E+00  0.1410E+00  0.1410E+00
     -3.761  0.0000E+00  0.0000E+00  0.1420E+00  0.1420E+00
     -3.723  0.0000E+00  0.0000E+00  0.1420E+00  0.1420E+00
     -3.685  0.0000E+00  0.0000E+00  0.1420E+00  0.1420E+00
     -3.647  0.0000E+00  0.0000E+00  0.1420E+00  0.1420E+00
     -3.609  0.0000E+00  0.0000E+00  0.1420E+00  0.1420E+00
     -3.571  0.0000E+00  0.0000E+00  0.1430E+00  0.1430E+00
     -3.533  0.0000E+00  0.0000E+00  0.1430E+00  0.1430E+00
     -3.495  0.0000E+00  0.0000E+00  0.1430E+00  0.1430E+00
     -3.457  0.0000E+00  0.0000E+00  0.1430E+00  0.1430E+00
     -3.419  0.0000E+00  0.0000E+00  0.1430E+00  0.1430E+00
     -3.381  0.0000E+00  0.0000E+00  0.1430E+00  0.1430E+00
     -3.343  0.0000E+00  0.0000E+00  0.1430E+00  0.1430E+00
     -3.305  0.0000E+00  0.0000E+00  0.1430E+00  0.1430E+00
     -3.267  0.0000E+00  0.0000E+00  0.1430E+00  0.1430E+00
     -3.229  0.0000E+00  0.0000E+00  0.1430E+00  0.1430E+00
     -3.191  0.0000E+00  0.0000E+00  0.1430E+00  0.1430E+00
     -3.153  0.0000E+00  0.0000E+00  0.1440E+00  0.1440E+00
     -3.115  0.0000E+00  0.0000E+00  0.1440E+00  0.1440E+00
     -3.077  0.0000E+00  0.0000E+00  0.1440E+00  0.1440E+00
     -3.039  0.0000E+00  0.0000E+00  0.1440E+00  0.1440E+00
     -3.001  0.0000E+00  0.0000E+00  0.1440E+00  0.1440E+00
     -2.963  0.0000E+00  0.0000E+00  0.1440E+00  0.1440E+00
     -2.925  0.0000E+00  0.0000E+00  0.1440E+00  0.1440E+00
     -2.887  0.0000E+00  0.0000E+00  0.1450E+00  0.1450E+00
     -2.849  0.0000E+00  0.0000E+00  0.1450E+00  0.1450E+00
     -2.811  0.0000E+00  0.0000E+00  0.1460E+00  0.1460E+00
     -2.773  0.0000E+00  0.0000E+00  0.1460E+00  0.1460E+00
     -2.735  0.0000E+00  0.0000E+00  0.1460E+00  0.1460E+00
     -2.698  0.0000E+00  0.0000E+00  0.1470E+00  0.1470E+00
     -2.660  0.0000E+00  0.0000E+00  0.1470E+00  0.1470E+00
     -2.622  0.0000E+00  0.0000E+00  0.1480E+00  0.1480E+00
     -2.584  0.0000E+00  0.0000E+00  0.1480E+00  0.1480E+00
     -2.546  0.0000E+00  0.0000E+00  0.1480E+00  0.1480E+00
     -2.508  0.0000E+00  0.0000E+00  0.1480E+00  0.1480E+00
     -2.470  0.0000E+00  0.0000E+00  0.1490E+00  0.1490E+00
     -2.432  0.0000E+00  0.0000E+00  0.1500E+00  0.1500E+00
     -2.394  0.0000E+00  0.0000E+00  0.1500E+00  0.1500E+00
     -2.356  0.0000E+00  0.0000E+00  0.1500E+00  0.1500E+00
     -2.318  0.0000E+00  0.0000E+00  0.1500E+00  0.1500E+00
     -2.280  0.0000E+00  0.0000E+00  0.1500E+00  0.1500E+00
     -2.242  0.0000E+00  0.0000E+00  0.1500E+00  0.1500E+00
     -2.204  0.0000E+00  0.0000E+00  0.1510E+00  0.1510E+00
     -2.166  0.0000E+00  0.0000E+00  0.1510E+00  0.1510E+00
     -2.128  0.0000E+00  0.0000E+00  0.1510E+00  0.1510E+00
     -2.090  0.0000E+00  0.0000E+00  0.1510E+00  0.1510E+00
     -2.052  0.0000E+00  0.0000E+00  0.1510E+00  0.1510E+00
     -2.014  0.0000E+00  0.0000E+00  0.1510E+00  0.1510E+00
     -1.976  0.0000E+00  0.0000E+00  0.1520E+00  0.1520E+00
     -1.938  0.0000E+00  0.0000E+00  0.1520E+00  0.1520E+00
     -1.900  0.0000E+00  0.0000E+00  0.1520E+00  0.1520E+00
     -1.862  0.0000E+00  0.0000E+00  0.1520E+00  0.1520E+00
     -1.824  0.0000E+00  0.0000E+00  0.1520E+00  0.1520E+00
     -1.786  0.0000E+00  0.0000E+00  0.1520E+00  0.1520E+00
     -1.748  0.0000E+00  0.0000E+00  0.1520E+00  0.1520E+00
     -1.710  0.0000E+00  0.0000E+00  0.1520E+00  0.1520E+00
     -1.672  0.0000E+00  0.0000E+00  0.1520E+00  0.1520E+00
     -1.634  0.0000E+00  0.0000E+00  0.1530E+00  0.1530E+00
     -1.596  0.0000E+00  0.0000E+00  0.1530E+00  0.1530E+00
     -1.558  0.0000E+00  0.0000E+00  0.1530E+00  0.1530E+00
     -1.520  0.0000E+00  0.0000E+00  0.1540E+00  0.1540E+00
     -1.482  0.0000E+00  0.0000E+00  0.1540E+00  0.1540E+00
     -1.444  0.0000E+00  0.0000E+00  0.1540E+00  0.1540E+00
     -1.406  0.0000E+00  0.0000E+00  0.1550E+00  0.1550E+00
     -1.368  0.0000E+00  0.0000E+00  0.1550E+00  0.1550E+00
     -1.330  0.0000E+00  0.0000E+00  0.1560E+00  0.1560E+00
     -1.292  0.0000E+00  0.0000E+00  0.1560E+00  0.1560E+00
     -1.254  0.0000E+00  0.0000E+00  0.1560E+00  0.1560E+00
     -1.216  0.0000E+00  0.0000E+00  0.1560E+00  0.1560E+00
     -1.178  0.0000E+00  0.0000E+00  0.1560E+00  0.1560E+00
     -1.140  0.0000E+00  0.0000E+00  0.1570E+00  0.1570E+00
     -1.102  0.0000E+00  0.0000E+00  0.1570E+00  0.1570E+00
     -1.064  0.0000E+00  0.0000E+00  0.1570E+00  0.1570E+00
     -1.026  0.0000E+00  0.0000E+00  0.1580E+00  0.1580E+00
     -0.988  0.0000E+00  0.0000E+00  0.1590E+00  0.1590E+00
     -0.950  0.0000E+00  0.0000E+00  0.1590E+00  0.1590E+00
     -0.912  0.0000E+00  0.0000E+00  0.1600E+00  0.1600E+00
     -0.874  0.0000E+00  0.0000E+00  0.1600E+00  0.1600E+00
     -0.836  0.0000E+00  0.0000E+00  0.1610E+00  0.1610E+00
     -0.799  0.0000E+00  0.0000E+00  0.1610E+00  0.1610E+00
     -0.761  0.0000E+00  0.0000E+00  0.1610E+00  0.1610E+00
     -0.723  0.0000E+00  0.0000E+00  0.1620E+00  0.1620E+00
     -0.685  0.0000E+00  0.0000E+00  0.1620E+00  0.1620E+00
     -0.647  0.0000E+00  0.0000E+00  0.1620E+00  0.1620E+00
     -0.609  0.0000E+00  0.0000E+00  0.1620E+00  0.1620E+00
     -0.571  0.0000E+00  0.0000E+00  0.1620E+00  0.1620E+00
     -0.533  0.0000E+00  0.0000E+00  0.1630E+00  0.1630E+00
     -0.495  0.0000E+00  0.0000E+00  0.1640E+00  0.1640E+00
     -0.457  0.0000E+00  0.0000E+00  0.1640E+00  0.1640E+00
     -0.419  0.0000E+00  0.0000E+00  0.1640E+00  0.1640E+00
     -0.381  0.0000E+00  0.0000E+00  0.1650E+00  0.1650E+00
     -0.343  0.0000E+00  0.0000E+00  0.1650E+00  0.1650E+00
     -0.305  0.0000E+00  0.0000E+00  0.1660E+00  0.1660E+00
     -0.267  0.0000E+00  0.0000E+00  0.1660E+00  0.1660E+00
     -0.229  0.0000E+00  0.0000E+00  0.1660E+00  0.1660E+00
     -0.191  0.0000E+00  0.0000E+00  0.1660E+00  0.1660E+00
     -0.153  0.0000E+00  0.0000E+00  0.1660E+00  0.1660E+00
     -0.115  0.0000E+00  0.0000E+00  0.1660E+00  0.1660E+00
     -0.077  0.0000E+00  0.0000E+00  0.1660E+00  0.1660E+00
     -0.039  0.0000E+00  0.0000E+00  0.1670E+00  0.1670E+00
     -0.001  0.0000E+00  0.0000E+00  0.1670E+00  0.1670E+00
      0.037  0.0000E+00  0.0000E+00  0.1670E+00  0.1670E+00
      0.075  0.0000E+00  0.0000E+00  0.1680E+00  0.1680E+00
      0.113  0.0000E+00  0.0000E+00  0.1680E+00  0.1680E+00
      0.151  0.0000E+00  0.0000E+00  0.1680E+00  0.1680E+00
      0.189  0.0000E+00  0.0000E+00  0.1690E+00  0.1690E+00
      0.227  0.0000E+00  0.0000E+00  0.1690E+00  0.1690E+00
      0.265  0.0000E+00  0.0000E+00  0.1700E+00  0.1700E+00
      0.303  0.0000E+00  0.0000E+00  0.1700E+00  0.1700E+00
      0.341  0.0000E+00  0.0000E+00  0.1700E+00  0.1700E+00
      0.379  0.0000E+00  0.0000E+00  0.1700E+00  0.1700E+00
      0.417  0.0000E+00  0.0000E+00  0.1720E+00  0.1720E+00
      0.455  0.0000E+00  0.0000E+00  0.1720E+00  0.1720E+00
      0.493  0.0000E+00  0.0000E+00  0.1720E+00  0.1720E+00
      0.531  0.0000E+00  0.0000E+00  0.1730E+00  0.1730E+00
      0.569  0.0000E+00  0.0000E+00  0.1740E+00  0.1740E+00
      0.607  0.0000E+00  0.0000E+00  0.1740E+00  0.1740E+00
      0.645  0.0000E+00  0.0000E+00  0.1750E+00  0.1750E+00
      0.683  0.0000E+00  0.0000E+00  0.1780E+00  0.1780E+00
      0.721  0.0000E+00  0.0000E+00  0.1790E+00  0.1790E+00
      0.759  0.0000E+00  0.0000E+00  0.1790E+00  0.1790E+00
      0.797  0.0000E+00  0.0000E+00  0.1790E+00  0.1790E+00
      0.835  0.0000E+00  0.0000E+00  0.1810E+00  0.1810E+00
      0.873  0.0000E+00  0.0000E+00  0.1820E+00  0.1820E+00
      0.911  0.0000E+00  0.0000E+00  0.1830E+00  0.1830E+00
      0.949  0.0000E+00  0.0000E+00  0.1840E+00  0.1840E+00
      0.987  0.0000E+00  0.0000E+00  0.1840E+00  0.1840E+00
      1.025  0.0000E+00  0.0000E+00  0.1840E+00  0.1840E+00
      1.063  0.0000E+00  0.0000E+00  0.1840E+00  0.1840E+00
      1.101  0.0000E+00  0.0000E+00  0.1840E+00  0.1840E+00
      1.138  0.0000E+00  0.0000E+00  0.1840E+00  0.1840E+00
      1.176  0.0000E+00  0.0000E+00  0.1840E+00  0.1840E+00
      1.214  0.0000E+00  0.0000E+00  0.1840E+00  0.1840E+00
      1.252  0.0000E+00  0.0000E+00  0.1840E+00  0.1840E+00
      1.290  0.0000E+00  0.0000E+00  0.1840E+00  0.1840E+00
      1.328  0.0000E+00  0.0000E+00  0.1840E+00  0.1840E+00
      1.366  0.0000E+00  0.0000E+00  0.1840E+00  0.1840E+00
      1.404  0.0000E+00  0.0000E+00  0.1840E+00  0.1840E+00
      1.442  0.0000E+00  0.0000E+00  0.1840E+00  0.1840E+00
