unknown system                          
           1
    23.398372    0.000000    0.000000
     0.000000   23.398372    0.000000
     0.000000    0.000000   23.398372
   Ag
  39
Direct configuration=     1
   0.63023356  0.66601788  0.54365835
   0.65945629  0.54415621  0.54107759
   0.61460011  0.59915452  0.44948438
   0.53483890  0.64430083  0.37878864
   0.74026552  0.50197543  0.61742769
   0.62886336  0.47360971  0.44508721
   0.70582779  0.61394053  0.62117027
   0.59905283  0.53703966  0.35179003
   0.67164349  0.42802700  0.54758390
   0.68022897  0.41340688  0.66262710
   0.53342895  0.59192351  0.27183680
   0.58287655  0.36794584  0.49319527
   0.59662102  0.63468993  0.65541137
   0.61196503  0.33905018  0.60542271
   0.54086008  0.41122079  0.39280543
   0.51742827  0.52898734  0.43714593
   0.51257735  0.47964744  0.30083008
   0.63744419  0.52638398  0.66832550
   0.44335780  0.57304791  0.34486777
   0.55513796  0.47248751  0.54038078
   0.43476410  0.46009119  0.38686730
   0.50039327  0.35865761  0.58444854
   0.54080283  0.58858873  0.54991985
   0.52187739  0.54357033  0.66411730
   0.56294094  0.43697612  0.65100952
   0.44681778  0.62816926  0.45156587
   0.54485529  0.72306651  0.59544870
   0.46318212  0.38960185  0.47762960
   0.44893991  0.51974262  0.52807334
   0.44743015  0.45908834  0.63275716
   0.48505390  0.65743006  0.67713680
   0.45294235  0.66410032  0.56140459
   0.35859124  0.54911635  0.41753070
   0.38866650  0.38113770  0.56863674
   0.41223958  0.57578125  0.63731735
   0.36144021  0.59933110  0.53007840
   0.36404085  0.45094611  0.47907228
   0.34225153  0.49300041  0.59009370
   0.27591056  0.52443959  0.49782397
Direct configuration=     2
   0.63037878  0.66606313  0.54361090
   0.65942291  0.54419830  0.54108020
   0.61467848  0.59918923  0.44947040
   0.53488784  0.64434122  0.37865622
   0.74047373  0.50197384  0.61739777
   0.62898254  0.47360667  0.44510696
   0.70596974  0.61404310  0.62125115
   0.59915416  0.53705878  0.35170149
   0.67165927  0.42796902  0.54753159
   0.68023189  0.41335027  0.66278098
   0.53346980  0.59197328  0.27169739
   0.58287888  0.36782980  0.49314554
   0.59665965  0.63477573  0.65543343
   0.61204888  0.33888882  0.60540343
   0.54100271  0.41124465  0.39270911
   0.51750936  0.52901702  0.43705936
   0.51247854  0.47962894  0.30072471
   0.63748033  0.52638828  0.66832386
   0.44347937  0.57307952  0.34476735
   0.55508596  0.47246881  0.54037535
   0.43459115  0.46003213  0.38677189
   0.50040168  0.35864782  0.58455284
   0.54094828  0.58869804  0.54985423
   0.52186167  0.54362745  0.66422841
   0.56294098  0.43676420  0.65118673
   0.44672480  0.62818078  0.45161633
   0.54487058  0.72320230  0.59548945
   0.46326642  0.38956459  0.47761715
   0.44875436  0.51975258  0.52817844
   0.44741718  0.45899938  0.63281376
   0.48502217  0.65749335  0.67716628
   0.45278874  0.66422019  0.56148601
   0.35853669  0.54920208  0.41758589
   0.38845919  0.38103742  0.56868788
   0.41217952  0.57576804  0.63731982
   0.36131079  0.59937476  0.53003714
   0.36389250  0.45080024  0.47906118
   0.34222258  0.49290451  0.59013664
   0.27572644  0.52449028  0.49783123
Direct configuration=     3
   0.63081446  0.66619887  0.54346852
   0.65932275  0.54432458  0.54108802
   0.61491358  0.59929336  0.44942847
   0.53503466  0.64446237  0.37825896
   0.74109836  0.50196908  0.61730801
   0.62934009  0.47359755  0.44516624
   0.70639559  0.61435080  0.62149381
   0.59945817  0.53711613  0.35143588
   0.67170659  0.42779508  0.54737466
   0.68024065  0.41318043  0.66324260
   0.53359233  0.59212256  0.27127914
   0.58288587  0.36748169  0.49299634
   0.59677557  0.63503311  0.65549961
   0.61230043  0.33840473  0.60534561
   0.54143059  0.41131623  0.39242014
   0.51775262  0.52910605  0.43679965
   0.51218210  0.47957343  0.30040862
   0.63758874  0.52640119  0.66831897
   0.44384408  0.57317435  0.34446610
   0.55492994  0.47241271  0.54035906
   0.43407231  0.45985498  0.38648566
   0.50042691  0.35861844  0.58486572
   0.54138460  0.58902596  0.54965737
   0.52181452  0.54379881  0.66456173
   0.56294111  0.43612843  0.65171837
   0.44644587  0.62821534  0.45176769
   0.54491645  0.72360964  0.59561171
   0.46351931  0.38945280  0.47757981
   0.44819771  0.51978247  0.52849374
   0.44737824  0.45873250  0.63298356
   0.48492700  0.65768324  0.67725473
   0.45232790  0.66457977  0.56173028
   0.35837302  0.54945928  0.41775146
   0.38783726  0.38073661  0.56884132
   0.41199936  0.57572842  0.63732726
   0.36092253  0.59950574  0.52991335
   0.36344744  0.45036265  0.47902787
   0.34213571  0.49261681  0.59026546
   0.27517410  0.52464233  0.49785299
Direct configuration=     4
   0.63168582  0.66647036  0.54318378
   0.65912243  0.54457712  0.54110365
   0.61538377  0.59950162  0.44934460
   0.53532831  0.64470467  0.37746445
   0.74234762  0.50195956  0.61712848
   0.63005518  0.47357931  0.44528479
   0.70724728  0.61496621  0.62197913
   0.60006618  0.53723085  0.35090466
   0.67180124  0.42744719  0.54706081
   0.68025817  0.41284075  0.66416585
   0.53383740  0.59242114  0.27044265
   0.58289986  0.36678546  0.49269794
   0.59700740  0.63554788  0.65563196
   0.61280352  0.33743657  0.60522997
   0.54228637  0.41145938  0.39184221
   0.51823915  0.52928411  0.43628023
   0.51158922  0.47946242  0.29977644
   0.63780558  0.52642700  0.66830918
   0.44457351  0.57336400  0.34386360
   0.55461790  0.47230052  0.54032649
   0.43303463  0.45950066  0.38591321
   0.50047736  0.35855969  0.58549149
   0.54225725  0.58968180  0.54926364
   0.52172023  0.54414153  0.66522839
   0.56294137  0.43485689  0.65278165
   0.44588801  0.62828447  0.45207041
   0.54500818  0.72442434  0.59585624
   0.46402510  0.38922923  0.47750514
   0.44708440  0.51984226  0.52912433
   0.44730038  0.45819873  0.63332316
   0.48473665  0.65806301  0.67743162
   0.45140623  0.66529895  0.56221881
   0.35804569  0.54997368  0.41808260
   0.38659342  0.38013499  0.56914819
   0.41163904  0.57564918  0.63734214
   0.36014601  0.59976770  0.52966578
   0.36255732  0.44948747  0.47896126
   0.34196197  0.49204141  0.59052309
   0.27406941  0.52494643  0.49789652
Direct configuration=     5
   0.63342854  0.66701333  0.54261430
   0.65872180  0.54508222  0.54113493
   0.61632416  0.59991815  0.44917686
   0.53591560  0.64518928  0.37587541
   0.74484614  0.50194052  0.61676943
   0.63148537  0.47354283  0.44552188
   0.70895067  0.61619702  0.62294976
   0.60128219  0.53746028  0.34984221
   0.67199055  0.42675141  0.54643310
   0.68029320  0.41216139  0.66601234
   0.53432754  0.59301828  0.26876966
   0.58292783  0.36539301  0.49210114
   0.59747106  0.63657742  0.65589666
   0.61380970  0.33550024  0.60499869
   0.54399791  0.41174570  0.39068634
   0.51921220  0.52964025  0.43524138
   0.51040346  0.47924040  0.29851208
   0.63823925  0.52647861  0.66828961
   0.44603235  0.57374331  0.34265860
   0.55399382  0.47207613  0.54026134
   0.43095928  0.45879204  0.38476829
   0.50057826  0.35844218  0.58674303
   0.54400254  0.59099349  0.54847619
   0.52153164  0.54482698  0.66656169
   0.56294188  0.43231381  0.65490820
   0.44477228  0.62842271  0.45267586
   0.54519165  0.72605373  0.59634528
   0.46503666  0.38878207  0.47735580
   0.44485780  0.51996182  0.53038551
   0.44714465  0.45713120  0.63400236
   0.48435596  0.65882255  0.67778540
   0.44956288  0.66673730  0.56319588
   0.35739102  0.55100247  0.41874489
   0.38410572  0.37893174  0.56976193
   0.41091838  0.57549070  0.63737189
   0.35859298  0.60029163  0.52917064
   0.36077708  0.44773710  0.47882805
   0.34161449  0.49089061  0.59103836
   0.27186003  0.52555463  0.49798357
Direct configuration=     6
   0.63394033  0.66756052  0.54287173
   0.65908729  0.54502768  0.54193077
   0.61665232  0.60010247  0.44851499
   0.53601209  0.64515667  0.37568104
   0.74484110  0.50189697  0.61658416
   0.63176788  0.47367925  0.44542550
   0.70932933  0.61619811  0.62313853
   0.60137107  0.53738860  0.34930498
   0.67206745  0.42654350  0.54692485
   0.68031118  0.41227894  0.66602189
   0.53470421  0.59300676  0.26808441
   0.58293476  0.36512974  0.49202037
   0.59768612  0.63684853  0.65573632
   0.61422153  0.33499360  0.60480025
   0.54415876  0.41224409  0.39041469
   0.51891725  0.52960605  0.43535072
   0.51022071  0.47947180  0.29832041
   0.63845373  0.52634364  0.66785650
   0.44604880  0.57367472  0.34293233
   0.55354303  0.47199468  0.54050969
   0.43083017  0.45865945  0.38468194
   0.50032814  0.35839425  0.58690681
   0.54366208  0.59130059  0.54821456
   0.52172485  0.54449905  0.66674391
   0.56296346  0.43226301  0.65547739
   0.44500918  0.62836739  0.45255828
   0.54532560  0.72615877  0.59641747
   0.46505476  0.38905906  0.47741806
   0.44514782  0.52016342  0.53025486
   0.44725838  0.45685002  0.63421598
   0.48428906  0.65901341  0.67770227
   0.44918579  0.66696803  0.56363693
   0.35761503  0.55115438  0.41889602
   0.38388184  0.37849174  0.56985755
   0.41083900  0.57547773  0.63738322
   0.35774767  0.60053090  0.52932248
   0.36011192  0.44724290  0.47864576
   0.34125398  0.49053991  0.59094020
   0.27135089  0.52556823  0.49815071
Direct configuration=     7
   0.63508145  0.66878057  0.54344572
   0.65990223  0.54490607  0.54370526
   0.61738403  0.60051345  0.44703921
   0.53622724  0.64508397  0.37524766
   0.74482985  0.50179985  0.61617104
   0.63239780  0.47398344  0.44521058
   0.71017362  0.61620054  0.62355945
   0.60156924  0.53722879  0.34810712
   0.67223892  0.42607992  0.54802130
   0.68035125  0.41254106  0.66604317
   0.53554406  0.59298107  0.26655650
   0.58295020  0.36454273  0.49184029
   0.59816564  0.63745303  0.65537880
   0.61513976  0.33386394  0.60435781
   0.54451740  0.41335535  0.38980899
   0.51825960  0.52952980  0.43559451
   0.50981323  0.47998775  0.29789306
   0.63893197  0.52604269  0.66689078
   0.44608547  0.57352179  0.34354267
   0.55253788  0.47181306  0.54106344
   0.43054228  0.45836382  0.38448941
   0.49977045  0.35828738  0.58727197
   0.54290295  0.59198532  0.54763120
   0.52215566  0.54376788  0.66715021
   0.56301155  0.43214973  0.65674650
   0.44553739  0.62824403  0.45229614
   0.54562425  0.72639298  0.59657845
   0.46509510  0.38967666  0.47755688
   0.44579446  0.52061292  0.52996354
   0.44751196  0.45622308  0.63469229
   0.48413988  0.65943896  0.67751691
   0.44834499  0.66748249  0.56462033
   0.35811452  0.55149308  0.41923299
   0.38338267  0.37751065  0.57007076
   0.41066200  0.57544879  0.63740847
   0.35586288  0.60106441  0.52966106
   0.35862883  0.44614097  0.47823931
   0.34045017  0.48975796  0.59072135
   0.27021567  0.52559855  0.49852339
Direct configuration=     8
   0.63535744  0.66890173  0.54351270
   0.65966041  0.54513236  0.54381425
   0.61811456  0.60042704  0.44717543
   0.53626633  0.64484746  0.37492735
   0.74485844  0.50158449  0.61592118
   0.63244779  0.47439115  0.44554045
   0.71052296  0.61618730  0.62380228
   0.60132271  0.53696431  0.34770100
   0.67198795  0.42595783  0.54846731
   0.68036039  0.41255812  0.66591137
   0.53572728  0.59282550  0.26615554
   0.58291529  0.36475926  0.49182421
   0.59826241  0.63734933  0.65507745
   0.61528232  0.33372362  0.60410146
   0.54449004  0.41407604  0.38992851
   0.51831150  0.52944273  0.43568898
   0.50966390  0.48043546  0.29771423
   0.63901097  0.52605869  0.66635144
   0.44627340  0.57344954  0.34368471
   0.55247548  0.47156757  0.54144414
   0.43059577  0.45822722  0.38462447
   0.49992947  0.35821068  0.58738495
   0.54274568  0.59249624  0.54716885
   0.52240872  0.54371210  0.66707916
   0.56314644  0.43198007  0.65700293
   0.44585200  0.62827679  0.45274742
   0.54570314  0.72627253  0.59656397
   0.46499113  0.39032525  0.47769325
   0.44543429  0.52100058  0.52984351
   0.44728506  0.45618878  0.63458714
   0.48432046  0.65936056  0.67739982
   0.44773687  0.66741820  0.56474517
   0.35834023  0.55131303  0.41982186
   0.38337317  0.37727524  0.57004480
   0.41073335  0.57515039  0.63726538
   0.35553387  0.60119721  0.52997224
   0.35804234  0.44588692  0.47810839
   0.34041916  0.48947356  0.59039888
   0.26994579  0.52544364  0.49865236
Direct configuration=     9
   0.63618543  0.66926521  0.54371365
   0.65893497  0.54581126  0.54414125
   0.62030614  0.60016784  0.44758408
   0.53638359  0.64413790  0.37396640
   0.74494421  0.50093839  0.61517157
   0.63259777  0.47561428  0.44653003
   0.71157097  0.61614759  0.62453079
   0.60058312  0.53617087  0.34648262
   0.67123504  0.42559158  0.54980532
   0.68038783  0.41260931  0.66551598
   0.53627693  0.59235879  0.26495268
   0.58281056  0.36540884  0.49177595
   0.59855273  0.63703825  0.65417339
   0.61570998  0.33330267  0.60333240
   0.54440795  0.41623810  0.39028707
   0.51846722  0.52918153  0.43597239
   0.50921592  0.48177861  0.29717776
   0.63924798  0.52610666  0.66473343
   0.44683719  0.57323277  0.34411081
   0.55228826  0.47083110  0.54258624
   0.43075625  0.45781745  0.38502965
   0.50040656  0.35798056  0.58772390
   0.54227389  0.59402902  0.54578180
   0.52316787  0.54354475  0.66686600
   0.56355111  0.43147110  0.65777221
   0.44679583  0.62837508  0.45410127
   0.54593978  0.72591117  0.59652054
   0.46467922  0.39227103  0.47810235
   0.44435379  0.52216356  0.52948342
   0.44660435  0.45608588  0.63427171
   0.48486218  0.65912537  0.67704855
   0.44591248  0.66722532  0.56511967
   0.35901736  0.55077288  0.42158845
   0.38334469  0.37656899  0.56996693
   0.41094738  0.57425520  0.63683613
   0.35454684  0.60159564  0.53090577
   0.35628285  0.44512475  0.47771562
   0.34032613  0.48862035  0.58943148
   0.26913617  0.52497891  0.49903925
Direct configuration=    10
   0.63658118  0.66923116  0.54364391
   0.65846576  0.54608363  0.54430615
   0.62074408  0.60004954  0.44705367
   0.53685267  0.64353447  0.37393914
   0.74512816  0.50076491  0.61456856
   0.63253858  0.47627408  0.44712433
   0.71193081  0.61599509  0.62472515
   0.60052981  0.53590660  0.34700270
   0.67059853  0.42591414  0.54986945
   0.68055277  0.41235688  0.66580604
   0.53628301  0.59238809  0.26441836
   0.58261928  0.36593661  0.49156359
   0.59872450  0.63663434  0.65375977
   0.61574222  0.33311605  0.60312300
   0.54451364  0.41729047  0.39056969
   0.51896631  0.52936489  0.43634558
   0.50868301  0.48173845  0.29682163
   0.63936286  0.52596923  0.66422444
   0.44677698  0.57322713  0.34446711
   0.55184696  0.47106385  0.54316671
   0.43063993  0.45793396  0.38511444
   0.50065807  0.35799446  0.58776407
   0.54211653  0.59480351  0.54491390
   0.52320397  0.54347253  0.66643958
   0.56345835  0.43118027  0.65790533
   0.44723482  0.62828260  0.45451795
   0.54570044  0.72548974  0.59622207
   0.46469984  0.39314955  0.47875351
   0.44406227  0.52242837  0.52916649
   0.44665326  0.45608287  0.63388417
   0.48518031  0.65864561  0.67683375
   0.44543039  0.66743053  0.56563033
   0.35961005  0.55046170  0.42244161
   0.38349430  0.37639464  0.56975958
   0.41121372  0.57380195  0.63686824
   0.35395851  0.60163774  0.53127221
   0.35585243  0.44463574  0.47760752
   0.34033816  0.48837238  0.58908969
   0.26890205  0.52481077  0.49916511
Direct configuration=    11
   0.63772286  0.66913295  0.54344270
   0.65711216  0.54686937  0.54478187
   0.62200749  0.59970827  0.44552353
   0.53820589  0.64179366  0.37386049
   0.74565883  0.50026443  0.61282896
   0.63236782  0.47817753  0.44883879
   0.71296889  0.61555515  0.62528585
   0.60037600  0.53514420  0.34850307
   0.66876231  0.42684467  0.55005448
   0.68102860  0.41162867  0.66664283
   0.53630054  0.59247261  0.26287691
   0.58206745  0.36745916  0.49095095
   0.59922004  0.63546912  0.65256654
   0.61583522  0.33257768  0.60251889
   0.54481855  0.42032643  0.39138502
   0.52040613  0.52989387  0.43742221
   0.50714565  0.48162260  0.29579425
   0.63969427  0.52557278  0.66275607
   0.44660328  0.57321085  0.34549496
   0.55057385  0.47173530  0.54484130
   0.43030439  0.45827009  0.38535905
   0.50138365  0.35803456  0.58787994
   0.54166259  0.59703778  0.54241014
   0.52330811  0.54326417  0.66520942
   0.56319073  0.43034127  0.65828937
   0.44850126  0.62801582  0.45572004
   0.54500997  0.72427397  0.59536101
   0.46475931  0.39568399  0.48063201
   0.44322128  0.52319230  0.52825217
   0.44679437  0.45607419  0.63276616
   0.48609807  0.65726157  0.67621409
   0.44403963  0.66802255  0.56710351
   0.36131990  0.54956401  0.42490284
   0.38392589  0.37589167  0.56916141
   0.41198208  0.57249437  0.63696086
   0.35226126  0.60175918  0.53232933
   0.35461073  0.44322502  0.47729564
   0.34037287  0.48765701  0.58810365
   0.26822664  0.52432570  0.49952821
Direct configuration=    12
   0.63818701  0.66905737  0.54317902
   0.65668896  0.54735248  0.54508140
   0.62256830  0.60015221  0.44528699
   0.53869778  0.64137128  0.37381843
   0.74571821  0.50009704  0.61215018
   0.63249613  0.47850800  0.44941445
   0.71328436  0.61521362  0.62529325
   0.60004054  0.53476244  0.34835149
   0.66810116  0.42732886  0.55041122
   0.68111130  0.41136560  0.66676476
   0.53618583  0.59224579  0.26297042
   0.58178984  0.36789688  0.49080653
   0.59944079  0.63510933  0.65211668
   0.61595750  0.33246481  0.60240232
   0.54487223  0.42128213  0.39141708
   0.52052526  0.53034531  0.43807808
   0.50668025  0.48157023  0.29551401
   0.63984161  0.52484183  0.66261902
   0.44662795  0.57329452  0.34574748
   0.54985529  0.47252146  0.54552977
   0.43024479  0.45836469  0.38545224
   0.50146285  0.35787305  0.58786858
   0.54146736  0.59802698  0.54149989
   0.52352777  0.54280865  0.66461018
   0.56331231  0.43016309  0.65848436
   0.44880635  0.62796383  0.45607720
   0.54486042  0.72369876  0.59473924
   0.46496964  0.39696268  0.48108447
   0.44299003  0.52332042  0.52779772
   0.44703232  0.45590613  0.63227832
   0.48643937  0.65670572  0.67631096
   0.44341256  0.66811763  0.56740928
   0.36203059  0.54921013  0.42564504
   0.38409920  0.37561847  0.56910548
   0.41190127  0.57207862  0.63700826
   0.35182951  0.60190851  0.53280314
   0.35434389  0.44268763  0.47714012
   0.34041284  0.48752220  0.58803960
   0.26803519  0.52413018  0.49954185
Direct configuration=    13
   0.63945808  0.66885039  0.54245693
   0.65553004  0.54867546  0.54590167
   0.62410407  0.60136794  0.44463922
   0.54004482  0.64021460  0.37370324
   0.74588082  0.49963863  0.61029137
   0.63284751  0.47941300  0.45099087
   0.71414827  0.61427835  0.62531353
   0.59912190  0.53371698  0.34793638
   0.66629063  0.42865479  0.55138812
   0.68133775  0.41064519  0.66709868
   0.53587170  0.59162464  0.26322649
   0.58102960  0.36909557  0.49041104
   0.60004532  0.63412408  0.65088476
   0.61629236  0.33215569  0.60208308
   0.54501924  0.42389930  0.39150486
   0.52085149  0.53158155  0.43987418
   0.50540575  0.48142681  0.29474658
   0.64024510  0.52284014  0.66224372
   0.44669552  0.57352366  0.34643902
   0.54788751  0.47467435  0.54741514
   0.43008156  0.45862374  0.38570745
   0.50167974  0.35743075  0.58783745
   0.54093272  0.60073589  0.53900718
   0.52412930  0.54156121  0.66296917
   0.56364523  0.42967513  0.65901834
   0.44964185  0.62782146  0.45705527
   0.54445087  0.72212357  0.59303654
   0.46554564  0.40046435  0.48232352
   0.44235676  0.52367127  0.52655323
   0.44768395  0.45544591  0.63094239
   0.48737400  0.65518351  0.67657622
   0.44169534  0.66837799  0.56824661
   0.36397682  0.54824102  0.42767756
   0.38457383  0.37487033  0.56895232
   0.41167997  0.57094007  0.63713809
   0.35064717  0.60231744  0.53410065
   0.35361314  0.44121599  0.47671424
   0.34052228  0.48715303  0.58786420
   0.26751092  0.52359475  0.49957919
Direct configuration=    14
   0.64022142  0.66928561  0.54228981
   0.65512850  0.54919353  0.54608525
   0.62482304  0.60182689  0.44460677
   0.54040014  0.64060471  0.37358318
   0.74579963  0.49945200  0.61002457
   0.63278751  0.47949785  0.45097775
   0.71433156  0.61382463  0.62520125
   0.59871762  0.53329282  0.34759515
   0.66577557  0.42907175  0.55245692
   0.68153320  0.41020582  0.66690878
   0.53561740  0.59130876  0.26411422
   0.58077686  0.36939549  0.49078547
   0.60034487  0.63358008  0.65034103
   0.61645337  0.33217117  0.60205812
   0.54515910  0.42399753  0.39111797
   0.52104017  0.53201473  0.44003047
   0.50463651  0.48127082  0.29442387
   0.64057591  0.52223497  0.66274202
   0.44690974  0.57376312  0.34639392
   0.54768914  0.47592935  0.54816341
   0.43025929  0.45844807  0.38543223
   0.50174711  0.35694998  0.58777637
   0.54089291  0.60199732  0.53869818
   0.52449371  0.54123806  0.66233102
   0.56395492  0.42903256  0.65904680
   0.44936186  0.62844434  0.45685251
   0.54455440  0.72138978  0.59171838
   0.46599921  0.40173379  0.48247152
   0.44133410  0.52384451  0.52652905
   0.44778842  0.45501686  0.63059293
   0.48753649  0.65467293  0.67675864
   0.44117446  0.66824002  0.56848588
   0.36418905  0.54815830  0.42820027
   0.38452817  0.37448186  0.56918610
   0.41134599  0.57077253  0.63722561
   0.35024162  0.60228885  0.53443705
   0.35336822  0.44081894  0.47678802
   0.34057158  0.48701071  0.58800093
   0.26778573  0.52338747  0.49941711
Direct configuration=    15
   0.64159510  0.67006882  0.54198906
   0.65440591  0.55012582  0.54641562
   0.62611688  0.60265279  0.44454837
   0.54103957  0.64130674  0.37336714
   0.74565353  0.49911615  0.60954445
   0.63267954  0.47965056  0.45095413
   0.71466140  0.61300814  0.62499919
   0.59799010  0.53252952  0.34698108
   0.66484869  0.42982210  0.55438030
   0.68188493  0.40941516  0.66656703
   0.53515978  0.59074032  0.26571174
   0.58032202  0.36993521  0.49145929
   0.60088394  0.63260113  0.64936255
   0.61674312  0.33219901  0.60201321
   0.54541080  0.42417429  0.39042175
   0.52137971  0.53279427  0.44031171
   0.50325222  0.48099011  0.29384312
   0.64117123  0.52114594  0.66363874
   0.44729523  0.57419404  0.34631276
   0.54733216  0.47818778  0.54950998
   0.43057913  0.45813193  0.38493696
   0.50186837  0.35608482  0.58766644
   0.54082129  0.60426734  0.53814213
   0.52514949  0.54065654  0.66118263
   0.56451223  0.42787620  0.65909802
   0.44885801  0.62956525  0.45648763
   0.54474072  0.72006928  0.58934626
   0.46681542  0.40401824  0.48273785
   0.43949376  0.52415628  0.52648552
   0.44797642  0.45424477  0.62996406
   0.48782890  0.65375412  0.67708692
   0.44023712  0.66799173  0.56891648
   0.36457097  0.54800944  0.42914092
   0.38444602  0.37378277  0.56960679
   0.41074496  0.57047103  0.63738311
   0.34951182  0.60223741  0.53504241
   0.35292745  0.44010443  0.47692080
   0.34066029  0.48675459  0.58824698
   0.26828027  0.52301445  0.49912542
Direct configuration=    16
   0.64290634  0.67095932  0.54188383
   0.65381815  0.55013940  0.54650593
   0.62653541  0.60274427  0.44405331
   0.54140687  0.64224883  0.37380091
   0.74581654  0.49897652  0.60969653
   0.63242285  0.47954219  0.45105639
   0.71507698  0.61274156  0.62502326
   0.59793528  0.53211913  0.34731164
   0.66397566  0.43069707  0.55451551
   0.68269678  0.40854344  0.66718594
   0.53496682  0.59084545  0.26616665
   0.58029170  0.37051010  0.49203867
   0.60099528  0.63210846  0.64845805
   0.61690225  0.33166303  0.60206248
   0.54573801  0.42362325  0.38999979
   0.52130576  0.53324292  0.44056422
   0.50208865  0.48039874  0.29313760
   0.64165499  0.52089815  0.66445753
   0.44714896  0.57444914  0.34675148
   0.54748504  0.47992459  0.55015068
   0.43040423  0.45804726  0.38464828
   0.50177851  0.35549560  0.58746915
   0.54083351  0.60569884  0.53785429
   0.52522634  0.54024014  0.66036553
   0.56454051  0.42691910  0.65884268
   0.44819668  0.63068156  0.45586025
   0.54478559  0.71924583  0.58791830
   0.46712237  0.40514844  0.48324905
   0.43920969  0.52442622  0.52640473
   0.44819642  0.45387571  0.62988792
   0.48807923  0.65335300  0.67681783
   0.43984312  0.66759518  0.56921658
   0.36470843  0.54798570  0.42910617
   0.38428467  0.37336282  0.56976891
   0.41067777  0.57038500  0.63777471
   0.34869562  0.60238014  0.53532895
   0.35313001  0.43967204  0.47705585
   0.34040800  0.48626990  0.58859620
   0.26855950  0.52269049  0.49886275
Direct configuration=    17
   0.64430280  0.67190770  0.54177177
   0.65319218  0.55015386  0.54660211
   0.62698114  0.60284171  0.44352608
   0.54179805  0.64325215  0.37426288
   0.74599015  0.49882781  0.60985850
   0.63214948  0.47942678  0.45116530
   0.71551956  0.61245766  0.62504890
   0.59787689  0.53168206  0.34766369
   0.66304589  0.43162891  0.55465951
   0.68356140  0.40761506  0.66784507
   0.53476131  0.59095742  0.26665113
   0.58025941  0.37112235  0.49265572
   0.60111386  0.63158377  0.64749476
   0.61707172  0.33109222  0.60211496
   0.54608650  0.42303640  0.38955041
   0.52122700  0.53372074  0.44083314
   0.50084945  0.47976893  0.29238622
   0.64217019  0.52063425  0.66532953
   0.44699318  0.57472082  0.34721873
   0.54764786  0.48177429  0.55083303
   0.43021795  0.45795708  0.38434084
   0.50168281  0.35486807  0.58725903
   0.54084652  0.60722339  0.53754773
   0.52530819  0.53979666  0.65949532
   0.56457063  0.42589978  0.65857073
   0.44749236  0.63187043  0.45519209
   0.54483337  0.71836886  0.58639751
   0.46744926  0.40635210  0.48379348
   0.43890716  0.52471371  0.52631870
   0.44843073  0.45348267  0.62980683
   0.48834583  0.65292580  0.67653124
   0.43942350  0.66717285  0.56953619
   0.36485482  0.54796042  0.42906916
   0.38411283  0.37291558  0.56994156
   0.41060622  0.57029337  0.63819175
   0.34782636  0.60253214  0.53563411
   0.35334574  0.43921155  0.47719968
   0.34013932  0.48575371  0.58896812
   0.26885688  0.52234547  0.49858300
Direct configuration=    18
   0.64376576  0.67154298  0.54181487
   0.65343291  0.55014830  0.54656512
   0.62680973  0.60280424  0.44372884
   0.54164762  0.64286630  0.37408522
   0.74592338  0.49888500  0.60979621
   0.63225461  0.47947116  0.45112342
   0.71534936  0.61256684  0.62503904
   0.59789935  0.53185015  0.34752830
   0.66340345  0.43127055  0.55460413
   0.68322890  0.40797209  0.66759159
   0.53484035  0.59091436  0.26646481
   0.58027183  0.37088690  0.49241842
   0.60106826  0.63178555  0.64786521
   0.61700655  0.33131173  0.60209478
   0.54595248  0.42326208  0.38972322
   0.52125729  0.53353699  0.44072972
   0.50132601  0.48001113  0.29267518
   0.64197206  0.52073574  0.66499419
   0.44705309  0.57461634  0.34703904
   0.54758525  0.48106296  0.55057062
   0.43028959  0.45799176  0.38445907
   0.50171961  0.35510940  0.58733984
   0.54084151  0.60663710  0.53766562
   0.52527671  0.53996721  0.65982998
   0.56455905  0.42629178  0.65867531
   0.44776322  0.63141322  0.45544904
   0.54481500  0.71870612  0.58698236
   0.46732355  0.40588921  0.48358411
   0.43902350  0.52460315  0.52635178
   0.44834062  0.45363382  0.62983802
   0.48824331  0.65309009  0.67664145
   0.43958487  0.66733527  0.56941328
   0.36479852  0.54797015  0.42908339
   0.38417891  0.37308757  0.56987516
   0.41063374  0.57032861  0.63803137
   0.34816065  0.60247368  0.53551675
   0.35326277  0.43938864  0.47714437
   0.34024265  0.48595222  0.58882509
   0.26874252  0.52247815  0.49869058
Direct configuration=    19
   0.64424440  0.67170163  0.54164872
   0.65338834  0.55021737  0.54678045
   0.62666296  0.60242709  0.44376167
   0.54133799  0.64297696  0.37454730
   0.74600531  0.49880495  0.61022246
   0.63190685  0.47939357  0.45109749
   0.71552145  0.61269623  0.62506563
   0.59767072  0.53188961  0.34786538
   0.66339950  0.43124496  0.55484483
   0.68355536  0.40778746  0.66762687
   0.53490596  0.59106424  0.26643949
   0.58035335  0.37116468  0.49244919
   0.60106803  0.63176944  0.64717831
   0.61721975  0.33099668  0.60217245
   0.54567275  0.42311582  0.38975339
   0.52092197  0.53353623  0.44076980
   0.50138171  0.48008776  0.29252790
   0.64191434  0.52071115  0.66500298
   0.44721294  0.57461385  0.34727997
   0.54777726  0.48125414  0.55052445
   0.43012298  0.45794222  0.38463396
   0.50154779  0.35490653  0.58721294
   0.54112227  0.60684465  0.53703232
   0.52524761  0.53977986  0.65964386
   0.56473027  0.42611846  0.65826944
   0.44740808  0.63169240  0.45540066
   0.54469693  0.71905971  0.58720623
   0.46725540  0.40621568  0.48409725
   0.43956407  0.52504598  0.52644188
   0.44826409  0.45370079  0.62992941
   0.48850735  0.65327627  0.67617896
   0.43936380  0.66696501  0.56920306
   0.36459640  0.54795279  0.42878536
   0.38410910  0.37297216  0.56986741
   0.41068400  0.57004668  0.63822135
   0.34793370  0.60246084  0.53548895
   0.35373283  0.43947658  0.47714527
   0.34016663  0.48571162  0.58894170
   0.26867427  0.52222644  0.49858979
Direct configuration=    20
   0.64534415  0.67206615  0.54126698
   0.65328592  0.55037606  0.54727520
   0.62632575  0.60156054  0.44383709
   0.54062657  0.64323122  0.37560901
   0.74619354  0.49862104  0.61120182
   0.63110784  0.47921529  0.45103791
   0.71591686  0.61299352  0.62512671
   0.59714542  0.53198029  0.34863987
   0.66339043  0.43118616  0.55539788
   0.68430546  0.40736324  0.66770793
   0.53505673  0.59140861  0.26638129
   0.58054068  0.37180294  0.49251987
   0.60106751  0.63173244  0.64560005
   0.61770962  0.33027281  0.60235091
   0.54503000  0.42277976  0.38982269
   0.52015152  0.53353450  0.44086188
   0.50150968  0.48026384  0.29218951
   0.64178174  0.52065467  0.66502319
   0.44758023  0.57460811  0.34783355
   0.54821843  0.48169341  0.55041837
   0.42974017  0.45782838  0.38503580
   0.50115300  0.35444041  0.58692136
   0.54176736  0.60732154  0.53557722
   0.52518073  0.53934940  0.65921623
   0.56512367  0.42572024  0.65733689
   0.44659208  0.63233385  0.45528949
   0.54442565  0.71987216  0.58772063
   0.46709881  0.40696580  0.48527628
   0.44080610  0.52606346  0.52664888