10
Energy = -42.07951134 eV
Pt 8.697251754709743 8.132497805001346 10.819262852641566
Pt 10.075296204174807 7.7425466870376 7.550275129675381
Pt 7.854340237664775 8.585896414965669 8.443556664242893
Pt 10.926795312498209 7.287356649806775 9.96157600459747
Pt 6.23589868275353 8.881136270124799 10.45726724665537
Pt 8.01834142898184 10.637848467104876 10.173325503410526
Pt 10.765331430479947 9.770088110318413 10.465113176528222
Pt 9.93359005003696 10.214125464277537 8.09429673129569
Pt 12.168443008198436 11.211592968674614 8.863962501800856
Pt 9.97946476539036 12.191664037577109 9.826117064040906
