17
Energy = -77.55039124 eV
Pt 13.068719060315798 9.502389469897164 9.482830950505438
Pt 12.000533641577377 10.593865800377296 11.674266048795785
Pt 12.520128015019004 10.505061132626212 7.096356976463292
Pt 11.114656784142392 11.249603097667425 9.243098322485208
Pt 9.94577232901638 9.550411191128333 12.955701481162766
Pt 9.535864779182331 11.376543878848873 11.263853636616194
Pt 10.941253204270533 8.510169634110797 10.635084152385964
Pt 11.075422006825391 8.569071544088077 7.965456786242878
Pt 10.036292130917793 10.942715392447576 6.886640665155138
Pt 9.004002156643567 7.243669800784521 11.84278436032196
Pt 8.442065193374976 8.782297455631081 7.584003521584722
Pt 6.98938202203463 11.126290108470412 11.159878305996143
Pt 7.916996324194964 8.950489867416353 10.124973612085094
Pt 7.413394419068694 9.156856204597183 12.739800851137636
Pt 8.35497135807596 11.302619860763622 8.941422487381796
Pt 9.396891537273438 7.0405954345512365 9.198654777692564
Pt 7.5476047541314335 10.90129984265809 6.5091427800522235
