16
Energy = -72.4644912 eV
Pt 10.84556558244539 7.163549227669267 10.261058681534516
Pt 13.062210712757505 8.104116938156398 11.161325715746798
Pt 8.323787272720738 7.389447776179749 9.879932792116037
Pt 10.794897372369398 9.403752892064693 11.445314112619615
Pt 8.346129822296302 11.492673027579503 12.872169681498056
Pt 11.223128204992207 8.52798471585251 8.176394077287277
Pt 12.543411146337501 10.078740782779859 9.66628919890752
Pt 8.319794656584122 9.367079532053593 11.438397635596836
Pt 10.580787598746161 11.939404981255535 11.840304937700532
Pt 8.917165348746183 9.445264429998737 8.489189186190593
Pt 10.447551135413025 10.493603980533454 6.710389262300956
Pt 9.36654992917049 11.73344048416819 9.632534006917497
Pt 7.111814811423421 11.66072811058143 10.64797444815446
Pt 12.75070834541543 12.44328783244741 10.642100902377907
Pt 6.547542243953618 9.539935282885041 9.338769864677387
Pt 11.52420511364414 12.01330746362911 8.424107674181858
