15
Energy = -65.73804812 eV
Pt 10.04353835146541 8.918803278988578 6.9904384047517105
Pt 8.3764487682432 8.479617174079724 5.020074049252598
Pt 10.741948854089099 7.077275318812397 5.340093626963163
Pt 8.03895414281819 10.471832069782808 6.827225717226396
Pt 8.56707499271442 6.039443252331842 6.387337061916168
Pt 10.612499014913006 6.566778870176356 7.984507087121079
Pt 7.150552883174038 7.998466925718732 7.243497777214403
Pt 5.947376885292811 9.972400861122079 8.43264235654057
Pt 5.954280839481989 7.550266046219801 9.485901534061163
Pt 8.192002905542996 6.2166770808159795 8.955044872201952
Pt 9.682257908870433 8.545831935781875 9.455718377506829
Pt 8.343257349466487 10.721871115770627 9.355046042527372
Pt 7.9815099514440195 7.414592715931426 11.21576730488921
Pt 6.579649569164868 9.624348918953622 10.97024269645414
Pt 9.1368914810391 9.750038333234349 11.68470698909386
