14
Energy = -62.65134975 eV
Pt 11.672651747109997 11.844399282715244 8.13132358038099
Pt 11.417074156078495 9.881573557662726 6.483171866229942
Pt 11.782291274400489 9.496972843185793 9.03491395513907
Pt 12.289071581225672 12.694753920122837 10.474529738675326
Pt 9.878776209317474 11.85629203966933 10.089614709665819
Pt 12.130216061159432 10.268052359064743 11.380367578471398
Pt 9.38075761821837 10.229329701973157 7.965862181676183
Pt 10.851500758204603 12.201291237886956 12.564238575451107
Pt 11.547642752405617 7.693609273710635 10.928561302259425
Pt 9.392697195119016 8.937130970539409 10.30616736837865
Pt 7.591823926935853 10.665425045466097 9.755589099786581
Pt 10.377271056918959 9.017820201384339 12.812584145080802
Pt 9.66892711928445 10.871413389813496 14.412745528906541
Pt 8.502589771333255 10.82522740451663 12.14362159760955
