12
Energy = -51.31258855 eV
Pt 9.411308755274076 10.884759079561396 9.343082
Pt 11.962957632479425 10.236451103911177 9.343082
Pt 10.48780852175081 9.747462772979537 11.459550894970208
Pt 8.083108707732036 8.458925455937804 10.670329733455729
Pt 8.083108707732036 8.458925455937804 8.015834266544275
Pt 10.491380987128466 8.020333396772719 9.343082
Pt 10.05214218844891 7.219984590653047 6.94444371327031
Pt 10.48780852175081 9.747462772979537 7.226613105029796
Pt 10.05214218844891 7.219984590653047 11.74172028672969
Pt 8.077997298659133 10.89324697857167 7.059302138088137
Pt 6.849223148974855 10.336200737548563 9.343082
Pt 8.077997298659133 10.89324697857167 11.62686186191186
