11
Energy = -46.34281295 eV
Pt 9.496759656861103 7.068373979288819 8.58200248687751
Pt 11.274831308745547 9.10799223155195 8.665336532246267
Pt 9.202959252620417 9.182560111929135 6.987960333535103
Pt 11.295674466216457 10.60954688737414 6.555552613787104
Pt 10.182795386083436 8.144364898524548 10.800563197841198
Pt 9.964900936229348 9.254740683117259 13.092737462473643
Pt 9.925203297946036 11.359004558606964 8.553087497314836
Pt 8.209699886707407 9.181613230042476 9.387762553498078
Pt 10.452351779956077 10.739152527278446 11.043226118041362
Pt 7.7364822613291295 9.598645125365307 11.890628960790444
Pt 8.111623577479902 11.619970869766213 10.310545550289834
