12
Energy = -48.80652481 eV
Pt 10.181661495630888 8.35092753 10.181661495630888
Pt 10.181661495630888 10.181661495630888 8.35092753
Pt 8.35092753 10.181661495630888 6.520193564369113
Pt 6.520193564369113 8.35092753 6.520193564369113
Pt 8.35092753 6.520193564369113 10.181661495630888
Pt 6.520193564369113 6.520193564369113 8.35092753
Pt 6.520193564369113 10.181661495630888 8.35092753
Pt 8.35092753 10.181661495630888 10.181661495630888
Pt 6.520193564369113 8.35092753 10.181661495630888
Pt 8.35092753 6.520193564369113 6.520193564369113
Pt 10.181661495630888 6.520193564369113 8.35092753
Pt 10.181661495630888 8.35092753 6.520193564369113
