14
Energy = -62.97925663 eV
Pt 12.035120493010432 7.547145860307874 8.157525859256804
Pt 9.689905684360197 8.093914680376605 7.365261350229362
Pt 7.847915535375934 9.628398106436034 6.6224311456694425
Pt 11.28949737646165 7.541788608338259 10.540797837671144
Pt 11.04054485762023 12.321995839398506 9.428554085951905
Pt 9.13222447396142 11.466946574393697 7.866797378252636
Pt 9.021647477593204 8.412250566896232 9.787516655011059
Pt 11.14557880649589 10.010903154104103 8.157606385306481
Pt 7.069742649043168 9.78386617237927 9.006980866181099
Pt 8.891493397971287 11.331833127221206 10.509674049049776
Pt 11.228474344774165 10.073005697566282 10.728274160220174
Pt 8.606555617326753 9.227150602703293 12.138304360988503
Pt 10.909339761767406 8.546554966506381 12.838306333698236
Pt 6.595998706281206 10.518285225414925 11.356008714555916
