21
Energy = -97.6534605 eV
Pt 11.213543789521665 10.587804809140037 13.796443434696776
Pt 8.817860033195258 9.520116714174954 14.223322179235504
Pt 11.25495569726582 9.10502561881986 11.776443270936692
Pt 9.31606398593361 7.617744611683897 12.502544047604292
Pt 11.544586667583319 12.637642352988104 12.238104601394372
Pt 12.414818610286128 8.673759436967268 9.463130612843216
Pt 9.265568550749894 11.343774059580605 12.385866710585285
Pt 10.531207924077329 7.048105711938578 10.346914628006333
Pt 12.326931894819234 11.04262693406542 10.45684388165149
Pt 11.973875876653807 13.402837829901033 9.581442566613235
Pt 7.780561796225939 9.45373325855789 11.70726632678816
Pt 11.534407336483604 6.705825009212982 7.9468705551991325
Pt 13.168525947580635 10.820892623577306 8.072332422516379
Pt 7.219989741786094 11.941098412758981 10.922989863764219
Pt 9.601252001511346 12.923460906174006 10.394829025489768
Pt 11.31567478053504 9.206377755714408 7.192577613738263
Pt 7.763155396857599 9.834181737305032 9.252359584192812
Pt 9.329363378196282 8.131559723564342 8.391407190334595
Pt 8.134478690262121 12.205313953333713 8.401324333497255
Pt 10.655122298057602 11.632727223247743 8.16731316335388
Pt 8.896163686459952 10.223499401335973 6.837782071600319
