24
Energy = -114.16647127 eV
Pt 11.169259013862577 13.45092548367368 7.773968203460544
Pt 12.64007998116215 11.422927356372313 7.432143024291827
Pt 10.022841484715412 11.163639004038698 7.633112214696533
Pt 7.55771679903771 10.725965584835844 7.214012789194834
Pt 14.12564670739309 9.482788550511803 8.377207853614088
Pt 11.652392858506465 8.959075159216074 7.888176523099452
Pt 9.10987924274416 8.752571291443529 7.882255214158829
Pt 11.383181204222051 13.168317885876117 10.276653791257878
Pt 12.98321067780055 11.257465325264606 9.895178968657925
Pt 9.240904206925649 11.890534954672066 9.978156668971426
Pt 6.973268888292488 10.839304747142654 9.641913067409122
Pt 10.555058265501952 14.190634680028296 12.425055551825341
Pt 12.678249998626024 8.718344173668127 10.41695746096153
Pt 10.497314750999585 7.409131529247349 9.5903527321719
Pt 8.60808948673576 12.597151487086606 12.365649335095593
Pt 11.096629382051168 11.621716520257587 12.525558230022009
Pt 8.210975481353907 8.714562758964748 10.209677599907168
Pt 13.449412758142742 10.555196966437597 12.30162295908947
Pt 6.606299065096272 11.021750169961406 12.115677439812487
Pt 11.840419467829975 6.585476570735361 11.687881942047005
Pt 9.008871385294045 10.008052715035772 12.488199554706918
Pt 11.405395630033638 9.042106642424411 12.596659906605082
Pt 9.427364920049312 7.353529208400924 12.113641920019605
Pt 7.040628677865837 8.351921568947512 12.453377383165492
