24
Energy = -113.06311115 eV
Pt 11.012532515273005 12.898238344349966 8.228980065425022
Pt 13.568163495398286 12.932282788692525 8.676667308897775
Pt 10.967855298060497 8.719943542288027 7.04839194828174
Pt 12.327379245621382 10.586810842466779 8.48045284520066
Pt 9.608902709954252 10.749226444777623 7.874805252864296
Pt 10.637988664621291 8.90619178923752 9.66028146656408
Pt 8.652580143538016 12.657620481806333 9.338262721349105
Pt 11.812872739249888 13.11661199522683 10.699063375582513
Pt 13.639471203786222 11.227339758688924 10.669791941868027
Pt 9.962684936198107 6.595869302463397 8.568248783115909
Pt 13.2169095210982 8.698987094343323 10.207278161148635
Pt 8.304803701371945 8.54120812469134 7.715621550115038
Pt 11.719553251803497 6.600532737046824 10.504310574098803
Pt 7.135347509527951 12.12685430284238 11.39797722016616
Pt 12.054105099517237 9.886794631599154 12.217075029559537
Pt 7.459899595733456 10.28894968032657 9.567077005138469
Pt 8.331778063976259 7.871531702246973 10.225216299854456
Pt 10.229707608118616 7.896147871178761 12.14646778972125
Pt 10.1509816676155 11.154975988094474 10.895531868889277
Pt 9.444307110281116 13.599587773741675 11.7308979080381
Pt 11.256693417636074 12.211463541281965 13.177904198535515
Pt 8.646238427359505 11.872969754485851 13.547369408539696
Pt 10.184383453281697 9.77949009189881 13.998618965214687
Pt 8.298660604345036 9.723159693157278 12.057933077571741
