25
Energy = -118.29248829 eV
Pt 12.30578894794113 9.852343430390864 6.762773726876278
Pt 9.970316258535975 11.059716180010527 6.78273673166597
Pt 10.612110718274103 9.591998316835445 8.905129847367538
Pt 8.151418936416162 10.274578191435332 8.490277960689808
Pt 12.185807783232658 12.073375292326496 8.056525298290152
Pt 10.468740800633494 13.729048657033593 7.07135567983423
Pt 13.206015690224591 9.981316360519774 9.223477839471219
Pt 9.394506088366171 12.493203649868347 9.061664460756965
Pt 9.597566609719301 8.97844684609856 11.261468741918002
Pt 13.153056883784043 12.308184820165453 10.519957950754536
Pt 8.33667240781188 11.115629291675988 10.9168706302689
Pt 11.38933812919642 14.105249695746453 9.444188596944675
Pt 9.861548262856882 13.07652190428249 11.61612867755695
Pt 12.01557194052256 8.088222277511873 10.490475379917035
Pt 12.197468081971115 14.36974376471887 11.846760870381452
Pt 10.47831881282356 6.648375865715861 12.03078864775667
Pt 10.206132991657613 14.900284467460478 13.416497290681239
Pt 13.3591845227625 10.042430768588671 11.77207356067211
Pt 9.602376346779783 10.878074837541146 13.120275606461279
Pt 12.323907874192832 8.072281006908533 13.153473536163096
Pt 12.170508050850112 12.039193842282977 12.928658210958298
Pt 9.943795083310166 8.399939793388787 13.920462643341045
Pt 10.46635278718587 12.751072090826218 14.680963473824656
Pt 13.111375995482453 10.139756672973702 14.397169337474448
Pt 10.807189075951984 10.346081056176372 15.444914380455915
