25
Energy = -118.72926345 eV
Pt 11.231489520573149 13.252094854028028 9.677872222237598
Pt 10.654026433482812 11.183228720455755 8.178350409472618
Pt 11.801888015142293 8.973967899210376 8.816719823250144
Pt 13.761006077092924 13.111934411734131 11.145229481727869
Pt 12.955310690734413 11.223654641149096 9.523179013440854
Pt 12.941266070867826 6.792939551695145 9.50357065072276
Pt 10.5082727329315 15.819206481331051 9.732290640564624
Pt 14.441165951847815 8.97788412577231 9.512836079862778
Pt 8.676597249614957 12.113069062470743 9.560813438270042
Pt 9.46684595668371 9.59036899425763 9.90862576298182
Pt 10.84234619950211 7.578643518877631 10.991661832895597
Pt 12.225238591410701 15.090229305100811 11.40194803816007
Pt 6.718006004477904 12.968768008020303 10.961071341665239
Pt 9.101255156793403 8.70623783760171 12.451442139268744
Pt 8.750516083262145 14.415928830054073 10.804358014122888
Pt 8.005085075935035 10.975616141316232 11.809391747743243
Pt 13.28048762234478 8.199819038170935 11.617833459900057
Pt 11.025801268417514 11.118877887352664 11.294057145296991
Pt 11.509991356846749 9.401345136764704 13.145108444542254
Pt 15.12683814747664 10.990127716220945 11.029327852009132
Pt 10.499913334017245 13.675779171616806 12.533016675378262
Pt 14.105504894598873 10.016906879105335 13.144795617493306
Pt 12.4629894701055 12.057516480751728 13.150699754063393
Pt 7.8379682045891546 10.094965311735558 14.191707637055252
Pt 9.904101547557934 11.504801651512771 13.748004434181242
