27
Energy = -129.52360468 eV
Pt 16.8633673905913 11.321913622632172 15.514143625228478
Pt 15.926444845077372 12.206050314802694 13.385881232452553
Pt 14.622456029829562 13.882343011086135 11.866992824483646
Pt 13.932180702540768 13.783487418789303 14.40318137705253
Pt 15.04954632236216 11.30402001513511 11.176574749631323
Pt 14.004502424742427 10.281880016669437 13.44809638132283
Pt 12.905861552538514 15.657211093989517 12.839962757003805
Pt 12.50827685497232 12.607128286090944 10.980917391952755
Pt 14.43534097163239 11.578091575329498 15.817237231011866
Pt 11.25733775574109 14.327043131123308 14.367057592059856
Pt 12.373994739537844 13.007653193816145 16.53540131582249
Pt 12.220648634553404 12.131283374024202 13.48595694725023
Pt 13.748653712764865 10.926478903644785 8.9059799601301
Pt 10.690196527713596 14.531950622201848 11.790563409618999
Pt 12.723681562351054 9.977289019209122 11.126603343357283
Pt 10.002953917197953 12.343627247368333 15.56347973914494
Pt 15.004312784937774 13.240513446345126 9.316372769261443
Pt 8.868660512009148 13.462437812997402 13.407880102605873
Pt 12.031510172988874 10.579150244907824 15.558045239029802
Pt 11.604370545410571 9.151488566577425 13.344611004150426
Pt 12.79439270067592 15.082543926349741 10.281285123852825
Pt 9.461487620576513 12.317190731440627 11.091294115965496
Pt 10.11716565477215 9.673422635460819 11.163289110286179
Pt 9.86998847512254 11.042689490263806 13.344198335787425
Pt 11.023076274915685 11.266673894293723 9.286936002847893
Pt 10.205581319657496 13.973013422852157 9.214019746010731
Pt 12.557848432968457 13.263020437285164 8.392296524643465
