26
Energy = -123.84582385 eV
Pt 12.02546027740168 8.581600058230515 12.978366555626046
Pt 11.194652664775365 7.153490858876643 10.984886682864481
Pt 12.853021628434607 9.144213733149265 10.584781699605418
Pt 13.059344213678404 10.209238014108047 8.21320411107236
Pt 9.359368288564493 8.929319449007536 10.80141148533915
Pt 10.14471690332092 10.234083316529098 12.833671366641639
Pt 13.85414494810953 10.34406038942149 12.6677756493231
Pt 12.239181720822964 10.501605044902838 14.664990773012006
Pt 11.057058829694103 8.501876338090302 8.814234635246557
Pt 10.943375027787543 9.82308572881908 6.647228387114717
Pt 14.382607705550257 11.16148758914948 10.21154416879722
Pt 7.4009870909353515 10.426210106127053 10.458998250494236
Pt 8.912313954981379 10.192416762896594 8.391274230253739
Pt 5.962881095945018 11.240065910254833 12.318092470558552
Pt 12.011299644785634 12.580420761712377 16.0962525653886
Pt 13.292432183582154 12.864530051808968 8.3652638676608
Pt 10.94263601557253 11.79037700525373 8.279572797811424
Pt 15.160036205665048 12.487940938674505 12.485680138639081
Pt 8.292709554314705 11.973360907983242 12.690659834106432
Pt 9.170702532849571 12.243078319085543 10.14181983296824
Pt 12.735721378168222 12.885150222867304 13.573040194529336
Pt 13.176489895670976 13.22163463306669 11.049572244725796
Pt 11.157021736103438 13.854766944334377 9.722667239029185
Pt 10.239179140242593 12.496729928715077 14.294827278746707
Pt 12.102488614506257 15.107182210614553 12.364856916970215
Pt 10.026380895432755 13.748286923216233 12.061538770370472
