39
Energy = -194.65755737 eV
Pt 11.6476936266785 7.249899445063324 9.22714422929924
Pt 14.763553565765633 9.40553730705863 11.301601282806315
Pt 14.81049027705442 9.802188603028185 8.727573608984523
Pt 12.811033209436564 8.841144671495266 7.3803241964294815
Pt 14.276202670195884 11.403420083191994 12.96974847994305
Pt 13.810776613425084 8.879660729200541 13.709324062584864
Pt 12.706854520193016 7.752231175483235 11.570005599812607
Pt 13.006639196244366 11.54152758507606 7.810558631824787
Pt 13.89969467713911 11.748338148863219 10.32081694382284
Pt 10.885808440324853 10.535358132991922 6.51891130678114
Pt 9.033725763169242 7.647908298334856 9.058189935128514
Pt 12.238605923027983 9.702780775377375 9.792359251410499
Pt 11.940496803377437 10.472825593065778 12.2406808527587
Pt 13.0233274965301 12.936605113681098 14.62850360515694
Pt 10.0914912894061 11.145485623184651 8.954886419738422
Pt 12.530127879755424 13.26203507124083 12.062197376279284
Pt 7.310050424214039 9.7298080906155 9.702125226583787
Pt 11.136603807849736 13.144481916823821 6.939189508513417
Pt 11.861554757171886 13.228494850214553 9.530493877829956
Pt 10.465740759842232 7.886587910780103 6.894887272194856
Pt 8.518519405362802 9.481949618255397 7.275379950391064
Pt 9.430845838198763 13.98326828238349 8.791610199269584
Pt 12.026386527811628 10.522102597063487 14.838535908696691
Pt 10.182148423703863 7.037915068593872 11.43035742389875
Pt 10.036351831552965 12.148951828751326 11.416354074532267
Pt 9.804932988786833 9.59931366150604 11.03885757026149
Pt 7.343350360627434 12.313743428853638 9.008847396687655
Pt 10.437355607123616 14.731293169269117 11.188205825150023
Pt 11.2823483578791 8.152005717536406 13.799076461313419
Pt 7.523400093627983 7.420979203172487 11.115839728918575
Pt 10.466465894287646 12.62882168622676 14.0298353604255
Pt 6.447814257628982 10.874889310359846 7.14164929757069
Pt 8.727085490019316 12.212995403538994 6.769927802613839
Pt 7.981591532254747 13.73341471178986 11.044334483210829
Pt 9.545756979658476 10.146638929070381 14.0004234868713
Pt 8.719013975366929 7.696655714865684 13.489554570014533
Pt 7.453121535105345 9.697662334021087 12.406068195663572
Pt 8.056065494179142 12.153825409735898 13.183339221589229
Pt 6.277268092911196 11.683410320737377 11.261294848274794
