30
Energy = -144.89167906 eV
Pt 12.65879139951765 12.990624860802702 6.489213297927777
Pt 11.835110104463633 10.6417688964975 6.763649846663942
Pt 11.11719050106178 8.292798951259915 7.187027314872324
Pt 10.51062325671105 13.922319454018714 7.576593427266183
Pt 12.870422418236174 10.672407944759902 9.035475485487872
Pt 12.473540823912144 13.180872035881931 9.072846182329526
Pt 9.977609784165928 11.533034238549927 8.236637638521334
Pt 14.307443723816279 12.197979688748223 10.58769738533389
Pt 12.715738221835002 8.13355073730918 9.215167467652048
Pt 9.159082327138837 9.10951624346358 8.624864322245369
Pt 10.818214267487493 10.70051529861231 10.859018108379779
Pt 8.161920223995526 11.14923037315836 10.187372900052882
Pt 8.80309725361217 13.566986718208419 9.450292376744095
Pt 10.549940144738594 8.118277607351533 10.472372229729153
Pt 8.140562227801968 8.686700619864267 11.105588771695384
Pt 8.693586777775229 10.567012070461262 12.745920869591464
Pt 12.602284044959452 7.513833967271704 11.911293970986794
Pt 8.388634356879201 13.108064694716946 11.985708195919855
Pt 14.005189822211378 9.517316104864607 11.086008315097262
Pt 12.84656355589573 12.420486385477307 12.584719661391071
Pt 10.866855740492046 13.281131182347401 11.064939449369492
Pt 10.501595368869882 8.73800214653343 13.003317655073516
Pt 15.066623142054787 11.084955283913411 12.90438572142726
Pt 9.22082591052459 12.385794511783901 14.467964371245937
Pt 12.821779762890486 9.783729985183568 13.363879101903054
Pt 8.832271379058042 14.840769547565804 13.81414792135891
Pt 11.707356001085419 12.341801277604509 14.83704893073792
Pt 11.270328618469895 14.380150860143882 13.340760649699792
Pt 9.767014694913954 9.964257160574771 15.1050951940921
Pt 12.202933246763568 10.069240254409001 15.814122338542424
