36
Energy = -172.36619446 eV
Pt 13.15501307700751 13.763985011129453 9.620731270621398
Pt 9.389305297343041 11.739860342681874 10.004655249560681
Pt 5.162254525260922 10.400547155647669 10.920954798374998
Pt 14.094729329508791 15.754360576207125 11.123335809411273
Pt 11.060174320239017 9.917979856998484 13.528291016689943
Pt 11.50728067111567 13.130219078019785 12.908686486856759
Pt 13.053933152908792 14.895454822610764 14.55743046703039
Pt 11.860619941199015 11.67624247216745 8.7590627964564
Pt 9.274041310040106 11.530941097166252 12.668585661318827
Pt 15.010295411118074 15.823705948761482 16.160032683558015
Pt 16.08003664448392 11.997525297770235 10.58244480183516
Pt 7.331463744875162 11.183400532584121 11.20711269695165
Pt 16.598969716201623 11.780544898589383 13.359943956825411
Pt 13.616237414591579 13.141819591617406 16.41284097454039
Pt 12.564390491261186 16.81717491886788 12.927629150623186
Pt 9.293221424106147 13.165149036320278 14.593272730853954
Pt 10.583500312745562 13.858047024986513 9.350345080846235
Pt 12.068611046083674 9.193246911633826 9.24498741778671
Pt 10.480148632809637 15.388098895654231 13.77688770258517
Pt 15.14305360793262 16.131528187444538 13.572412769529908
Pt 13.779248311467864 12.56368845130925 11.886672887845357
Pt 11.580066765134504 10.942928291681893 11.196765264117046
Pt 17.8414556860883 9.635169938048472 13.36316608087188
Pt 15.620189788444401 13.74218284004171 14.705383249932991
Pt 15.919515088924626 14.078501778996124 12.160193854591606
Pt 13.047569485003129 9.275186013313407 15.019982825371056
Pt 13.5376592433543 9.701247201794333 12.527955612599353
Pt 14.111935620541992 10.434738338256963 10.04908549829993
Pt 11.701646782147613 11.775973379703586 15.136182674980326
Pt 12.842827946556355 15.366917937868129 17.573614335442066
Pt 15.97239346965749 9.687001377422934 11.736190713194562
Pt 11.137623060263035 14.1755165095505 16.114134781480512
Pt 14.726627465594646 16.768981128258574 18.415713648176716
Pt 15.635487663739065 14.3141597669562 9.556087192444897
Pt 11.437972697322955 15.164268153801862 11.305226683071588
Pt 14.224665849307918 11.5278722305183 14.418166169704016
