33
Energy = -157.48308406 eV
Pt 11.115139387107678 8.994376939271238 9.490846341471554
Pt 8.482424735782981 8.864616970414973 14.91646584498159
Pt 11.34452924658101 10.988731218015726 11.226278789963894
Pt 14.153958368849324 11.562197191190501 14.616391641173523
Pt 15.491391746982288 13.705444063566881 14.288614579719772
Pt 13.097290184091909 14.733840359642496 10.529007418612789
Pt 10.901229808091784 15.250166996795377 11.736533558929874
Pt 9.865253877382088 13.032137100042455 12.375315102204668
Pt 9.637408498885502 9.93132070861939 7.590115185933585
Pt 9.146347874376822 12.195620476008228 8.75325661852168
Pt 9.809452745533891 10.676456639411436 13.525768033544184
Pt 7.225596647054356 10.540526322767949 8.204263463128743
Pt 13.440325602498016 12.476570720873209 12.197197361021768
Pt 10.20507289327021 8.179304267110416 11.800513199797122
Pt 12.674466435968725 9.95333341529936 13.380038080671751
Pt 15.683044363709222 13.603492757211013 11.750657995982616
Pt 6.374899644444222 10.154941036600821 10.673186053631841
Pt 13.384905568098736 9.274727280931575 10.719456172063804
Pt 13.897087664736212 15.085637798793368 12.941503812341894
Pt 15.097557091462804 13.774045607312718 9.276626559555273
Pt 11.693976448163719 12.34585836988693 14.122066526295603
Pt 16.017263692586813 12.15734278425757 16.135343435754645
Pt 12.590297952908221 7.513649456274221 12.465728532822252
Pt 11.62549642223074 9.679838713731096 6.167219264724101
Pt 7.831345155712826 9.076793813127674 12.517389906021608
Pt 9.009625428845759 14.321864465117956 10.213897595079453
Pt 10.861894392753127 8.31032211903168 14.276622465855011
Pt 8.721438527870152 11.147174310696625 11.035444254814628
Pt 11.281436690646904 13.156644043143881 9.686367364152709
Pt 12.023508601145592 16.54669347447228 13.507893700035169
Pt 13.039461536477393 9.902358270509323 8.163158276505023
Pt 13.530058823678349 11.823690497546316 9.675979630508131
Pt 8.567119713037513 8.860587583290405 9.861159005143984
