38
Energy = -188.37198557 eV
Pt 10.10535714437184 13.785627804118384 14.334602186291617
Pt 12.612210311025638 12.891434652164543 13.8272577020077
Pt 10.863820146664994 11.246707895926638 14.826720933354169
Pt 13.509442240102517 10.693429025359178 14.811647502868508
Pt 11.783120109948017 14.968014095390576 12.578794948782553
Pt 8.321471992443724 11.679058764987472 14.062932494632651
Pt 8.102554567701961 13.81298637945559 12.491343336535623
Pt 14.087226692685398 11.224366565566614 12.256132615511408
Pt 11.356387189990807 10.054585687190572 11.62599960966061
Pt 9.029607318330653 9.34132403678242 15.0643780159923
Pt 10.209348721525002 12.194270403298777 12.310415062870609
Pt 14.064428081818033 13.827641864325596 11.818375530425465
Pt 11.664147126954598 8.856262407995684 15.290185806203114
Pt 13.133601450170207 8.80261466238374 13.05945726967931
Pt 10.045754018101617 14.31068210060742 10.78684541755476
Pt 6.77524506232529 9.213032477337855 10.442933088031642
Pt 7.906547165760445 9.273092262392444 12.757885347251523
Pt 7.090637758592062 11.542924484811554 11.640697970168564
Pt 10.322527576900635 8.16471799849831 13.12738947329836
Pt 7.105294957934541 11.578966472820703 9.014116190311348
Pt 12.227003402860573 12.441394077036957 10.583040341440872
Pt 11.818189809313212 7.533222271927219 11.028924197451378
Pt 9.290606402634447 10.895369545668855 10.29072092149932
Pt 13.898861056072345 9.221860075413229 10.582158557075749
Pt 9.165965247980303 13.105364174552093 8.712751217731084
Pt 9.23412535008225 8.150994956108105 10.698980224634232
Pt 8.450878481428344 9.267054396105795 8.384119070597952
Pt 11.496379609780027 10.426194790179263 9.066704979347772
Pt 14.472279559228392 11.704942881492368 9.68973759645669
Pt 13.29932916985571 7.435828158264673 8.792315468792902
Pt 10.728933640363904 7.912682583931857 8.550470424162784
Pt 11.636319160000413 14.026235919455651 8.668475744674263
Pt 8.461438699551662 11.46062802787991 6.720065940667847
Pt 10.252654062215068 9.625671055214623 6.491935564521175
Pt 13.77582111571746 9.899988645358528 7.923507508912168
Pt 11.031750954898417 12.008397547611633 7.107457265679329
Pt 12.410693610215947 8.247580587356262 6.478520364869794
Pt 13.524031534671359 12.442122051788225 7.3707752878890584
