43
Energy = -216.3487652 eV
Pt 8.53271511547162 8.585636237013984 14.887937988220843
Pt 10.717171182520273 10.007385953482768 14.644234226888136
Pt 10.963212521043475 7.4162637875978925 14.825418646217217
Pt 8.21178712336822 11.094952446450893 13.979093562421372
Pt 9.576854245493587 7.877127606547471 12.557603663988811
Pt 7.165172104091724 8.978979226051141 12.689933573358186
Pt 12.856853326375994 11.443361512461676 14.25964550710952
Pt 10.474382698280868 12.500900870797494 13.858833425434435
Pt 12.103940678064019 7.084391835865903 12.46428057595856
Pt 13.20189214547881 8.736769950653022 14.348398460280736
Pt 15.080004285086561 12.917993290222155 13.919072798174765
Pt 9.745681085841994 10.581299472084389 11.926369832205191
Pt 12.660516826696556 13.949890413993831 13.612923063370852
Pt 8.220192400668752 13.384113081059517 12.651299741714357
Pt 15.225319959038039 10.28921054034731 13.972320009178546
Pt 13.465539011842061 7.337654533957099 10.281072427807658
Pt 7.2316503673797845 11.198150617572763 11.323094771594597
Pt 12.165638841896085 9.716215534531962 12.09672296711887
Pt 8.419931619936499 8.85755788729711 10.344341999399637
Pt 10.875722603807505 7.840179687598544 10.271682020231234
Pt 14.611846220083004 9.00638850486091 11.803296079052458
Pt 8.495241475174321 11.112643897792776 8.934999027494415
Pt 12.484697784969667 12.255705931853207 11.520014833645561
Pt 15.11315777641911 11.673554735925537 11.62110194194915
Pt 10.426803249772583 14.901943753141028 12.661191324136286
Pt 9.844629439148829 8.934548813972812 8.144070719286203
Pt 14.839763622449441 10.25833906700761 9.475145579484005
Pt 10.094232117632226 12.929681398352203 10.760706275556357
Pt 12.792125634531594 16.205361163911558 12.341693987434873
Pt 8.318970392951897 15.62839462731435 11.19286038510368
Pt 11.261286752425193 10.613618619563674 9.798763129827712
Pt 14.52989153441985 14.275751139465173 11.67602166696592
Pt 12.373619899598358 8.408017082344681 8.052671454587333
Pt 7.634531188939058 13.417502628824263 9.967739986278518
Pt 14.888088999758653 8.04688845304318 8.283597057293592
Pt 10.689742616585933 16.80968558846177 10.869101766839234
Pt 13.9700636932266 12.765555588673802 9.4293177934644
Pt 12.43464635108998 14.842141936727858 10.151092328986683
Pt 8.96382086964476 13.272162964798403 7.625070212560147
Pt 12.929675265353698 10.916937339244088 7.847539938083089
Pt 10.426588962827347 11.166946227792117 6.9507891903562005
Pt 9.9285912646578 15.0841516966715 9.127532779909238
Pt 11.546194542531355 13.13891064781591 8.353811386558307
