42
Energy = -211.3371744 eV
Pt 13.636921559467535 6.555260314211808 10.539616640665471
Pt 12.810682915325039 8.195470922903501 8.729775847553821
Pt 12.02772889994533 9.811556388388361 6.914789119029131
Pt 11.397407678293892 7.833345062764687 11.002256124792737
Pt 12.898618389085597 12.265357007588243 6.806607970287829
Pt 14.343685255143336 9.103668187512179 10.752115993139057
Pt 10.478783396082537 9.531001592559466 9.074588358421718
Pt 13.974206967300882 10.629595800543706 8.614469559665187
Pt 13.405594577927006 7.662557807254098 12.85900835206239
Pt 8.675130792694482 11.370921589551338 9.674702157207474
Pt 10.469956684997506 11.924037677721895 7.815334116974016
Pt 9.49734711174646 9.514192675095277 11.5388679684768
Pt 12.122584094015362 10.166303127118496 12.080720940708659
Pt 11.689174367893951 14.359870530808815 7.628718359146799
Pt 11.929650779345598 11.523869418891836 9.934383848957603
Pt 10.873582867067299 8.594392218504177 13.662625652653697
Pt 14.477902392928108 10.183912626993196 13.197914822436948
Pt 14.602292771827031 11.700583085018376 10.982198503747082
Pt 13.785080714505066 13.337400985084063 9.050575269027519
Pt 7.463092626125433 11.197343532942075 12.057058554993919
Pt 13.16682015825714 8.773513871314604 15.116275111904404
Pt 11.06303725393874 10.2995664183318 15.71799654027136
Pt 11.850189971695734 12.08311744126321 13.694897175148514
Pt 10.171671681309084 12.295732113634104 11.668873433713173
Pt 12.99622893184158 9.860435244142915 17.45494096203462
Pt 14.8351452116825 14.371439224391548 11.224301863647513
Pt 11.997226774685522 15.517062640602411 9.883205171473213
Pt 12.362732967820723 13.63142805457138 11.601326113692535
Pt 13.785389840790135 11.384501217954847 15.472343339245535
Pt 14.430013286384508 12.86323098899098 13.431096978531635
Pt 9.88762333858664 13.94730478966864 9.47219539635256
Pt 9.299337126349425 10.777388775206763 13.92413206369312
Pt 7.618580257734383 13.523035438848613 10.821328762936346
Pt 10.008363045427815 12.8505303610815 15.514136541893436
Pt 11.930064456473417 12.284336675333897 17.238790952964195
Pt 10.759270584106536 14.74067076770442 13.816133135189787
Pt 13.885625141746258 16.79103279139559 11.153976827565057
Pt 12.800483059585192 13.9342799277261 15.395757454374897
Pt 13.416632736485173 15.38159071001294 13.355690904327416
Pt 11.4233259466434 16.680854050955706 12.111107867580232
Pt 8.507487481383075 13.333467409019246 13.381661051655309
Pt 9.317864840672762 15.286570291836938 11.708960274142157
