44
Energy = -222.08848275 eV
Pt 12.374355682071682 12.071664499570236 7.380790714842951
Pt 13.682795113610066 9.895026064160435 8.122550022799519
Pt 14.22081925559037 12.240557936771205 9.208217737479506
Pt 12.086651231439964 15.526968188388395 11.467010553795138
Pt 9.86123730515947 11.643143892643643 6.647114695431324
Pt 9.65818869970138 13.660709341492419 8.253927611090289
Pt 14.834561964388598 9.530919676574067 10.489518601512875
Pt 14.39542009585601 14.218027122888552 10.834260140729178
Pt 12.249353428403374 14.09577660799404 9.144744070687361
Pt 15.691177516727073 11.865208651331724 11.353283935511456
Pt 11.704786635718056 9.672364895701627 6.441418451703746
Pt 10.869554589822318 11.750181708172734 9.494529408358261
Pt 10.00943559774669 15.499010970605726 10.000668622189552
Pt 14.109968863754787 15.493506471402087 13.086687165510755
Pt 13.611731674852745 7.503085166480246 9.336527045413252
Pt 12.766728817018567 11.111090970081756 11.164765934385878
Pt 8.059209698428152 11.474045082194422 8.785550611150466
Pt 8.420539705651173 13.430042059973042 10.570297670255208
Pt 11.180600775721159 13.018348128160941 11.745864166775771
Pt 7.013062361180704 9.20450329301416 7.909110998318397
Pt 11.315597807314719 7.362701053889943 7.854838707157685
Pt 13.972998302666273 12.840273425445703 13.032677386686574
Pt 9.669287308284549 14.864225988768993 12.611448067412054
Pt 8.857070036034395 7.218724926341388 9.055789314569632
Pt 12.005000967525493 14.212814612169996 13.994311613258068
Pt 11.641738885815204 9.287676503595137 9.658503563803983
Pt 11.173666740973788 6.812284682290251 10.432370274923798
Pt 14.257807085049187 10.236638630620293 13.128163175237688
Pt 7.202259297484727 11.208565755860748 11.448142588748603
Pt 7.644390304334054 13.268822447897222 13.034168239986814
Pt 10.735289593458253 10.719098868858245 12.702221661591462
Pt 9.52330461217708 9.325408842256383 7.720998373097015
Pt 13.091643159150518 8.11059340858384 11.915343756013645
Pt 12.329218706425321 11.59136638140506 14.642031170200257
Pt 9.38723254079543 9.973198810635067 10.694220995746656
Pt 7.035108524487991 8.79345642441296 10.36825403927783
Pt 9.824641047695605 12.917528614261599 14.494177503992512
Pt 12.083446986096014 8.985309152410984 14.188325449045504
Pt 11.172280262957766 6.77327650056535 13.058982105372516
Pt 7.011167510505808 8.836594918795237 12.91270901802877
Pt 8.312754808998108 10.882217605553002 13.86720020093654
Pt 9.004136323306051 7.515018803391571 11.709434008420926
Pt 10.200274822311048 10.49042285420054 15.692037309797476
Pt 9.474080408997056 8.559804815902421 14.014915533794225
