4
Energy = -9.83803427 eV
Pt 10.929791280930287 11.822801275941174 16.79199518084021
Pt 12.37940914650794 10.648249501039151 8.676987726843366
Pt 12.23817298126144 11.647843964581908 6.592179241319913
Pt 11.105745635174124 12.534224302311555 14.591956894870798
