49
Energy = -248.00499354 eV
Pt 17.264625538630607 14.07003546747768 13.031593268108036
Pt 15.691232401976443 12.658391102464197 14.62367574848364
Pt 16.33187235401181 11.79794696056055 12.074616307919822
Pt 15.75317068048463 14.175689291432471 10.885586160039377
Pt 14.91350287295511 15.17161645975967 13.322308333227262
Pt 15.279142216198364 10.13980120938109 13.923143947746636
Pt 15.162914428351002 9.605313775429224 11.262417833183598
Pt 13.6060141099872 11.459213251478317 15.561150924547798
Pt 13.659798833522682 14.093091253831078 15.463778410067036
Pt 14.594891633542323 7.741626887971962 13.15414406768046
Pt 14.885819613533917 11.790736752871675 9.825450211618541
Pt 13.934232439219517 12.771335451792186 12.702880663884766
Pt 13.058196137106547 8.861977919013393 14.904253240770904
Pt 13.27211835566992 15.228139886576054 11.219764182398235
Pt 14.144369352588804 14.184512328015217 8.87157100704903
Pt 11.413013846675119 12.780593947486079 16.385681255259936
Pt 12.380920177061912 15.596455287994102 13.685941563976586
Pt 13.424774786737116 9.610873499406615 9.30922264032508
Pt 12.983596999177387 10.42535822781723 12.426060642265027
Pt 11.796193916381668 10.081950024720227 16.849248261468908
Pt 11.456054989914277 15.319608951902332 16.168096761734244
Pt 12.950846282450572 7.682002359169874 11.231535458239616
Pt 11.288313329772931 10.958504754524622 14.307917064273424
Pt 12.966609946299585 11.809162975700866 8.033657607924637
Pt 11.365952765031459 13.229714307840824 12.964353746207104
Pt 12.312622326837419 14.050141276309477 6.922996055292135
Pt 11.180300966341147 8.472795049935753 13.086815956838617
Pt 11.665659843861155 7.718651830213515 8.902909996328704
Pt 11.398912422967076 11.703268271399537 5.936570567754667
Pt 11.09126627241818 9.84687517306593 10.609573569122809
Pt 9.785085944506724 15.491091170923152 14.167983061154288
Pt 9.885477524581479 12.004952032517336 11.313409588144106
Pt 11.568698772388895 14.687777330726908 9.320057908134515
Pt 9.386264906436965 10.963780246011437 16.283278195456372
Pt 10.63917872477039 15.379057001607352 11.62145139223556
Pt 10.891972916807381 10.130159177585565 7.97957070759669
Pt 9.297806343738689 13.027069103694313 14.727552392163524
Pt 12.349490132101126 12.397836515077405 10.603014443191666
Pt 10.268029093176281 7.1645799535681025 11.05428597909073
Pt 10.137176075615516 12.837407902236233 7.886297959838498
Pt 8.370088778177216 14.072948923184383 12.452036921498173
Pt 9.100882881418917 8.453624970038549 9.068358828629528
Pt 9.063431332540974 9.557097890491367 14.171105782955548
Pt 8.70104548055154 9.304120149467805 11.598225882316392
Pt 9.05847668714152 14.30538485548714 9.855945682698568
Pt 7.905076417006132 11.524522868783254 12.9687182086941
Pt 8.573384206171234 10.968378310321489 9.235729304092713
Pt 7.098558473444138 12.5244821350464 10.703335022486526
Pt 7.505321039941978 13.061453554914358 8.18213087840581
