49
Energy = -247.37073033 eV
Pt 9.551402278737884 7.850726753250815 14.25630025262
Pt 12.169329268485619 7.206480813973124 13.47064445622793
Pt 8.486656879915389 8.207975957057187 10.936717534221224
Pt 10.215416055162748 6.537472622622759 11.912521281845603
Pt 7.6855574824800295 9.473674944488527 13.166501506059639
Pt 11.520222595000051 9.567763575419793 15.100038629894584
Pt 9.032707630536187 10.138805716346585 15.431247014268054
Pt 13.851828820325549 8.642843546212253 14.842593854839354
Pt 10.707915511863487 9.111038029425007 12.34159835048014
Pt 14.660139991386313 7.690559743744057 12.467592277240838
Pt 10.395138648248711 7.253171516083968 9.337700319852594
Pt 12.751461273352025 6.802189924680076 10.863545798524296
Pt 13.219175392863715 9.870116599864975 12.317606683551908
Pt 9.108298931670213 11.007621845246602 11.643720359325522
Pt 8.735740510712848 12.274344084873647 14.115467170463281
Pt 6.967085685153693 10.321795914794887 10.43627348534953
Pt 13.591762993699891 11.366684026521456 14.528110560058805
Pt 11.39372877772462 11.65807655065247 12.786512553535323
Pt 11.200776284612845 9.10117928087486 7.499824574967354
Pt 15.829640885167505 9.885152504459539 13.722277406699236
Pt 6.638666794307947 11.896251489618907 12.619148295234618
Pt 8.654648768332487 9.263594525607024 8.535931845954522
Pt 11.940036756785721 9.13297069758949 10.12694307966318
Pt 13.353766524805598 7.884797596613164 8.38811539119528
Pt 15.76900394914146 9.629035330593993 11.122942519878698
Pt 11.024016944295456 12.130218894459803 15.386617744091174
Pt 7.792394118410046 11.743372836965719 8.308131839894239
Pt 10.392826898584165 11.056858477047857 9.356038493122417
Pt 6.659177324952067 13.092189835078505 10.266805933755823
Pt 9.53448869543354 10.879715387509277 6.531250934369618
Pt 15.088713852864958 12.013345513359138 12.366397356795215
Pt 8.051028063046562 14.161654303974123 12.518404537351303
Pt 11.80354511539645 12.846209454089484 10.565033097274767
Pt 13.134860975582406 13.652935885321455 13.055775288712699
Pt 10.580051554758352 14.119774657103472 13.595209129385884
Pt 15.154567671694387 9.704307792188681 8.617507992681565
Pt 13.539341344887728 11.083454057992705 10.011622168020835
Pt 11.941143106635646 11.72354283309636 7.245011034020515
Pt 9.28146128171399 13.213592726061844 10.447728190621381
Pt 16.164419707994576 11.937425778601895 9.880143815221027
Pt 7.63959715998419 14.39644267095547 8.181725389560128
Pt 9.93348695802873 13.326444969246454 7.621377006189851
Pt 7.665192507861911 15.70017117916718 10.438377744585637
Pt 14.267309656235563 13.787894688700211 10.57042572892092
Pt 9.815508664660696 16.03067485762617 11.97172895660686
Pt 12.349258583684417 14.194439980533758 8.44651226601123
Pt 12.123739717674571 15.30405241954522 11.071928395428937
Pt 14.306632996910857 12.436124519506523 8.010991898183326
Pt 10.050735577395661 15.401609751816157 9.270624197750069
