46
Energy = -233.27124262 eV
Pt 15.273151898785777 14.449913579706712 10.535779443659202
Pt 15.482191182484385 14.661669805178555 13.128496202116485
Pt 15.457927353969735 12.233452492868665 11.986749421785982
Pt 14.419330542048263 12.171971499364236 9.54899171540289
Pt 14.502558249948672 16.722352284944623 9.399777717106655
Pt 13.7953166844167 14.479868953720478 8.311217083208671
Pt 12.986837261871091 12.261621515319458 7.305680833936929
Pt 13.330978516844878 9.956107498998216 8.683163378858644
Pt 14.455023135007991 9.999424543729187 11.03736222533764
Pt 12.106297470647437 9.961613448049409 6.360066313585745
Pt 14.993321111329998 10.16859807812466 13.6986827042833
Pt 12.680711655201879 13.86353131404427 11.236401355868203
Pt 14.502642879533196 12.728731342688045 14.559013591748302
Pt 13.74595356033538 16.254551570049642 11.887582304030213
Pt 12.002238810301105 15.984342653168655 9.824371662276372
Pt 11.690078222746918 11.527794104877907 10.254999352862377
Pt 12.06332960316468 6.131623744127822 11.915753967704001
Pt 11.204527289868702 13.747787647936072 8.569195746150108
Pt 13.708678734172654 8.015306646815459 12.773699335319915
Pt 12.966814420119665 11.767890041633287 12.69214948810525
Pt 14.1412549145619 8.27888873677754 15.301396221747678
Pt 10.446342317723817 11.318435664110256 7.812573698154985
Pt 12.93469997344831 7.957551973553177 10.268379599018791
Pt 11.017178812542328 8.693544219155996 8.410375602591195
Pt 11.656476031328042 9.583169084447848 12.016934099501022
Pt 13.228781654942637 10.747248324894825 15.69357572251798
Pt 9.634341027472429 15.063114205708825 10.249630818286809
Pt 13.107041864971308 14.983245700332334 14.093231557533153
Pt 10.252980343915747 13.022740514799054 11.767533770037263
Pt 10.24278333421533 7.77988095558341 10.73149703605152
Pt 11.68242810611418 8.82868588534404 14.865267577567387
Pt 9.328748908413873 10.11109451352049 9.904663112833598
Pt 11.144389664871296 15.838267053378049 12.370238436389004
Pt 8.814880997327121 12.699005549288541 9.263921283024944
Pt 11.974842958853856 12.97957958396908 15.38528398900737
Pt 10.569039238812707 11.317564930539582 13.64396074703196
Pt 7.343624321821002 14.12369971352379 11.123621237024919
Pt 10.283453678381084 7.253212707746516 13.360600136925399
Pt 8.91570374084271 9.382138564241309 12.385514597094888
Pt 10.582123489486609 10.857074162938313 16.24977810792848
Pt 8.85157303987701 14.693605839222236 13.135567657597901
Pt 10.67134360652171 15.240578615457073 14.914066888226213
Pt 8.016454046072422 11.685986094138604 11.586695227714904
Pt 9.126890034785626 8.912516079020849 15.018609609574776
Pt 9.316068941113855 13.033379517482423 15.182711918009845
Pt 7.946323072257166 11.125315748954154 14.152914208735135
