41
Energy = -204.72850089 eV
Pt 14.8352672078063 11.79487160306739 8.471703720359033
Pt 15.864376512296232 10.784871127503996 10.834425424539543
Pt 14.771046335304053 8.95010970642227 12.354191500065166
Pt 14.563654144626401 8.951483665704805 9.646324338067648
Pt 13.93104224497642 9.484292905824452 7.172674566373879
Pt 14.011420516446556 12.553330211805035 10.970490736009971
Pt 12.91262238115022 13.702628525214038 8.751892184764388
Pt 13.072075047442613 9.916444665293573 14.381986917916388
Pt 12.4587977199899 11.61652944992503 6.964573349286062
Pt 12.511384152432253 12.220049351178844 13.111499877730122
Pt 12.854309509161185 7.439844117958144 11.073951191305216
Pt 12.691146159170895 10.818515170059191 9.48960618446075
Pt 12.961980542076178 7.3989509189869205 13.681579838394633
Pt 11.8147925836886 13.98501806874902 11.310965550069215
Pt 12.890339585505291 7.3579031222152915 8.46624314563748
Pt 12.472731793000733 9.946438352953251 11.88533129715171
Pt 10.938719505162497 13.74801561178638 6.958248450381771
Pt 9.811933352284482 11.374474414759577 7.39274424638705
Pt 10.789542999279996 15.244434472689875 9.163461259207235
Pt 10.657456208303737 12.439117590712186 9.614798699282753
Pt 10.760336324083323 8.452186654756797 14.854348176488964
Pt 10.058545869935985 9.849599322857966 12.735251321864624
Pt 11.269710008064992 9.206541769235342 7.652571639858278
Pt 10.743340319820563 11.187279087307779 14.812265607311973
Pt 8.69325549708044 13.797469340828355 8.451294429107584
Pt 10.427678514995865 9.852206094619532 10.156714531996112
Pt 10.041183251604915 13.090277765556747 13.094141514487955
Pt 10.579220766314426 7.272540733169981 12.444217493022126
Pt 10.529773164630246 7.342066408243198 9.748243836462505
Pt 9.119495760077042 14.604666390880995 11.055127002365095
Pt 7.353650263099048 11.547433047190506 8.1816439222547
Pt 8.745256691568645 11.638819763729783 11.31764967209397
Pt 8.430750563501281 8.133935875426014 11.163930055495129
Pt 8.218204041021727 8.64100654395794 14.016575800485247
Pt 8.650735221339113 9.161269092802895 8.473030218183133
Pt 7.455236825229716 13.726396435538264 12.888732191941877
Pt 8.16057440334301 11.34464167709925 14.052558652663096
Pt 6.92874702557101 13.118389630676267 10.283360163136017
Pt 6.892134258141552 10.0997816460682 10.217934100896107
Pt 6.197655401742003 8.919509964920254 12.41881414518035
Pt 6.185286204384361 11.484203271485205 12.366775325212435
