47
Energy = -238.37202625 eV
Pt 6.701049798545471 9.412816288129212 7.601370383661456
Pt 6.887424670079494 11.869220623657823 8.555343560918775
Pt 6.611095772547248 9.830110093980856 10.238082895777445
Pt 8.730973993237319 10.968052163010345 6.671132140155234
Pt 7.291891724852361 14.322968571006198 9.451213229615961
Pt 8.376952323258656 13.521263531831028 7.13894900125049
Pt 6.956669626097966 12.295556710167707 11.138925177462042
Pt 8.97669533953548 8.364572640167014 6.786237980567127
Pt 8.054528858216944 7.658481209767863 9.249688756350219
Pt 7.489716350357765 10.279226885071509 12.745841619876614
Pt 8.997674768860781 10.114253411862492 9.164468280041728
Pt 9.613760081064447 12.341302083452135 10.32783496101215
Pt 7.454349753709929 7.878156820040403 11.847906491402625
Pt 9.945369476118094 10.095594670246555 11.636536497792166
Pt 9.899575047549833 14.550800815371554 9.020791421404292
Pt 10.79202055372063 12.555784018960862 7.473858971910444
Pt 8.563472639225097 14.350388462111573 11.794646735368865
Pt 11.21889483939699 9.971189101166477 6.981114849838395
Pt 7.414071335538849 12.717016495436615 13.638919098995217
Pt 10.678014274980407 7.880851603122176 8.696477945488406
Pt 12.432953720487621 13.82718977272088 9.187507925329133
Pt 9.920887921194003 7.38044658573902 11.203205304274062
Pt 9.392355105022073 8.532447763689294 13.658573248436788
Pt 9.465008045292697 11.1391712955087 14.412707731868991
Pt 11.527751827517914 10.708946010995122 9.5853202057533
Pt 9.658997427916134 13.882042066643663 14.167854710136192
Pt 13.139086337860178 8.910583577815986 8.450709356658756
Pt 10.99693525394581 12.407519198748746 12.522743161409682
Pt 12.430177444199334 7.288127379018367 10.461031344871802
Pt 13.255568811214628 11.552676574702714 7.829578486283467
Pt 11.703059474755802 7.2703368698694835 13.206457287712299
Pt 11.153818900723861 14.802801135426336 11.269729100959776
Pt 12.450661713819969 9.451989704561655 11.989526392581906
Pt 11.61501642335231 9.632567447955308 14.612969378672037
Pt 12.10042019195125 14.68645906966442 13.693936881740042
Pt 13.077228905770856 11.784165964172898 11.227618855072283
Pt 11.920015149879466 12.26733888877188 14.88401287360587
Pt 15.001689188866168 7.832395890711061 9.951282082347069
Pt 14.211552640809103 6.839572363202516 12.307169497997311
Pt 14.9583857104829 10.423571828432841 9.786015917854211
Pt 14.884114172772433 12.971049926283731 9.476691635436032
Pt 13.896067530104974 8.253749494688305 14.477771872299428
Pt 13.763910245741105 14.275885110148787 11.553052209941056
Pt 14.024841914788956 10.799881850733156 14.085597661956506
Pt 14.281979536611876 13.313058828837034 14.034899604026476
Pt 15.08924756343279 9.307569168528632 12.208747416127379
Pt 15.467207674819354 11.987556269930655 12.049635683570369
