5
Energy = -17.31846277 eV
Pt 8.721175831680311 10.571026028132867 8.67352398215776
Pt 10.467540248646326 8.828036814182417 7.9983019894232585
Pt 8.297239096655026 9.037076291544155 6.682999404628891
Pt 8.247448208610473 8.056633061322731 9.090120746829049
Pt 7.324870014033925 6.560290922435806 10.608303505769362
