54
Energy = -276.24116086 eV
Pt 9.35912628828962 10.546880473829976 14.451969303360196
Pt 10.283027182442241 8.137793439130315 9.833053901395912
Pt 9.342095295371488 12.197599635520659 16.55483149249657
Pt 9.695754441036271 9.325790648620524 12.13910108706259
Pt 11.330003994968218 8.7986468553043 14.204819962278671
Pt 11.538526713180614 7.3761401502267105 12.00378986051927
Pt 8.349485833734104 11.63401072567801 12.113569503995837
Pt 11.463878340191478 10.648936239963398 16.091493784924715
Pt 8.793388895620406 10.301643772441222 9.883380663937588
Pt 11.57817323896496 12.874330677645938 17.61035344898707
Pt 8.473136219889353 13.200279325866331 14.26647075126301
Pt 11.568215971895258 7.669166169424972 7.480369042747557
Pt 13.527661813443405 7.384569241637046 13.77620768448028
Pt 13.710674562923787 9.442616657590333 15.364322756955863
Pt 10.774860135538745 12.193915776347964 13.082518243288781
Pt 8.427624797031712 12.887871792629522 9.754236815793218
Pt 9.538069151245955 9.37659667677097 7.563588938596873
Pt 13.873177868662136 11.441518456555833 16.964378555698488
Pt 12.02551415629043 10.21361675071971 7.782162659460785
Pt 8.299980997790183 15.475043609926626 9.48277254052608
Pt 10.633558122379293 14.24757588512135 15.527619074958169
Pt 13.921409299260324 13.540021526620237 18.51280502051167
Pt 9.934406904207258 11.957001624677059 7.797579002477883
Pt 12.232861226900697 9.73722316639435 10.552786239527391
Pt 7.863750453328663 14.30555542263352 11.942251968941521
Pt 12.44031120446884 6.532017494505068 9.624556904065432
Pt 10.919383892745055 11.936518987374862 10.43628225615291
Pt 14.083576055727526 7.793805269821924 11.233306118885672
Pt 10.413449154851136 14.493181112305283 11.005818608618679
Pt 12.804465730450813 10.63052996700473 12.90524355739679
Pt 10.53253869474022 14.44408978756651 8.414974509431405
Pt 9.796502528113612 15.387884317437347 13.409965114822775
Pt 12.83782104225051 12.585220564161437 14.728919904553123
Pt 13.905898796018047 8.55226473267882 8.705298852283734
Pt 8.978781361119792 16.954941352848245 11.527753271774246
Pt 15.119057281124869 9.395877274023736 13.027173060636622
Pt 13.079450706398026 14.760723728405987 16.37487322805834
Pt 12.40051519375321 12.74541996180857 8.154863609756646
Pt 15.335951707509242 11.482106387467944 14.691672475876784
Pt 12.619150188048769 13.875566673969793 12.385447696050852
Pt 13.549686125938752 11.987887634483249 10.799047952935128
Pt 15.38295738315529 13.614502389861386 16.238167199702445
Pt 10.611336116225806 16.860958574941428 9.389058803258434
Pt 12.283276465299583 15.775220827909761 14.170648341190969
Pt 12.833857359461346 15.218274838551752 9.844856649867047
Pt 15.467360463182041 9.86628473544372 10.4220432509755
Pt 11.638007856670221 16.793641890623988 11.827299109695245
Pt 15.915353206714794 11.772494182011547 12.215339806828544
Pt 15.017669499115948 13.96336902615751 13.64614882825933
Pt 14.458041561575508 11.101890930498437 8.298212164781804
Pt 14.691889219127912 13.786904848200596 8.540927793366182
Pt 15.285165944738663 14.096331053275753 11.022971936981351
Pt 14.117213648222043 16.082215915378285 12.185117412879059
Pt 16.488390296311135 12.184385763583736 9.66871812135249
