5
Energy = -16.69191198 eV
Pt 10.426346796664545 8.70844369737393 8.892729121730788
Pt 12.064674703613221 10.431274454413881 8.251397744233435
Pt 8.078876478644979 8.632964789761578 8.780075704154088
Pt 12.568943114303723 8.077672461506797 7.832688667688743
Pt 6.486622456630677 8.475543455871886 10.483619064016727
