6
Energy = -21.6678777 eV
Pt 11.617410285321519 13.440832821733029 10.89151853950299
Pt 10.725445115632434 11.303517963188828 10.611148129323785
Pt 10.986337909430357 8.786754801267728 9.685074380829484
Pt 8.655714280169445 9.549954915585566 10.421146926878144
Pt 10.501771147546773 9.227312483420246 12.164209632118835
Pt 9.732807884988722 10.574251552936602 8.334651405603433
