7
Energy = -26.18167693 eV
Pt 10.978585099548539 11.561296550177348 12.911104339157756
Pt 12.205622462367671 12.916187657879943 11.26881150803463
Pt 10.863819895520363 9.56959386885737 8.528362764260851
Pt 10.513542638291312 10.022581388615324 11.054448291596385
Pt 10.593487232754516 12.006647948347439 9.431586729801541
Pt 12.718575974765374 10.724978175347667 9.958155379238145
Pt 10.227220750536578 11.328757259245576 15.094497139864155
