7
Energy = -27.3540186 eV
Pt 10.59873374073381 8.48738517410027 8.705017960256502
Pt 11.453790087101785 10.780364733654942 8.770278091357692
Pt 9.813770282869253 6.218913090456124 8.42355256120096
Pt 7.011891040531881 10.935442774260098 10.406130785810987
Pt 9.176167257424886 11.487021356527386 9.325245126847646
Pt 8.334238539748808 9.15333887687064 9.27692092083379
Pt 7.543331272721349 6.869456215262312 9.024776774824323
