8
Energy = -32.27966424 eV
Pt 7.449180518759733 10.722232280881434 10.711643509414372
Pt 8.908925168642387 9.145939791730866 9.29723376973589
Pt 9.61750153476344 10.334583013777458 7.1992650699872405
Pt 10.956191793759919 8.448304740897898 6.419420828139258
Pt 10.227075937676748 7.225403805354137 8.40027236646149
Pt 8.28217528157533 6.730185309679584 9.861644079854608
Pt 9.253349007418382 11.681066455204075 9.2580853420257
Pt 8.084018339669187 8.490702184739803 11.630852616646692
