8
Energy = -31.88118164 eV
Pt 6.8268159193762505 6.880609841822178 9.515598041224921
Pt 11.099547910623397 8.205530200675625 7.1476902927551045
Pt 8.988854513239254 7.41361101236649 8.275160160960285
Pt 8.472612346172568 8.443198346315299 10.70485993391332
Pt 10.514351173556834 9.399134085476888 9.399422685233084
Pt 6.902684732980747 9.116236074788496 8.267108338386468
Pt 9.170158288997017 9.966696266413644 7.303849800816829
Pt 8.241679161635448 10.809242103629542 9.687030453868347
