unknown system                          
           1
    22.438170    0.000000    0.000000
     0.000000   22.438170    0.000000
     0.000000    0.000000   22.438170
   Ag
  26
Direct configuration=     1
   0.55258861  0.39843869  0.59778135
   0.51980779  0.32855663  0.50521201
   0.59673611  0.42194373  0.48811570
   0.60458076  0.47309640  0.37877987
   0.43071866  0.40886452  0.49933267
   0.46744583  0.47832662  0.58824064
   0.63964813  0.47881494  0.58710944
   0.56068215  0.48432152  0.67824153
   0.51148466  0.39367970  0.40657109
   0.50521146  0.45513141  0.30601427
   0.66919830  0.51463566  0.47189386
   0.33947077  0.47905955  0.48308565
   0.41088817  0.47049344  0.38750537
   0.27381510  0.52171353  0.56829966
   0.55606142  0.58151545  0.74552629
   0.61390954  0.59614260  0.38871565
   0.50426251  0.54581062  0.38346991
   0.70836241  0.57368184  0.57713382
   0.37953685  0.55847455  0.59225356
   0.42587893  0.55976191  0.47623483
   0.59578584  0.59643126  0.62943896
   0.61487863  0.61040273  0.51289694
   0.51722330  0.63749630  0.45598954
   0.47918746  0.58327027  0.65678601
   0.55956914  0.69873690  0.56923618
   0.45639462  0.64452639  0.55946234
Direct configuration=     2
   0.55259578  0.39806724  0.59783480
   0.51982621  0.32821742  0.50528708
   0.59676771  0.42178186  0.48808429
   0.60460936  0.47297996  0.37869556
   0.43081845  0.40878014  0.49921919
   0.46748391  0.47857876  0.58825942
   0.63973773  0.47886787  0.58709099
   0.56056018  0.48438414  0.67829560
   0.51146571  0.39374722  0.40650220
   0.50512252  0.45512940  0.30573679
   0.66949559  0.51462601  0.47180788
   0.33920404  0.47906074  0.48309646
   0.41078675  0.47030611  0.38738666
   0.27343307  0.52171567  0.56834978
   0.55617883  0.58164170  0.74575106
   0.61408200  0.59624275  0.38876153
   0.50420889  0.54580034  0.38343400
   0.70854791  0.57379060  0.57717505
   0.37945297  0.55852389  0.59229061
   0.42592766  0.55966878  0.47628318
   0.59597435  0.59640520  0.62959271
   0.61506401  0.61047361  0.51282443
   0.51712489  0.63775263  0.45594916
   0.47900738  0.58322029  0.65692946
   0.55960250  0.69894366  0.56926402
   0.45624877  0.64462113  0.55942523
Direct configuration=     3
   0.55261729  0.39695290  0.59799518
   0.51988146  0.32719981  0.50551229
   0.59686252  0.42129626  0.48799004
   0.60469515  0.47263065  0.37844263
   0.43111780  0.40852700  0.49887874
   0.46759816  0.47933517  0.58831575
   0.64000655  0.47902666  0.58703566
   0.56019428  0.48457202  0.67845782
   0.51140883  0.39394978  0.40629552
   0.50485569  0.45512339  0.30490437
   0.67038745  0.51459707  0.47154993
   0.33840385  0.47906430  0.48312889
   0.41048250  0.46974415  0.38703052
   0.27228699  0.52172210  0.56850013
   0.55653107  0.58202046  0.74642539
   0.61459936  0.59654320  0.38889916
   0.50404801  0.54576953  0.38332629
   0.70910440  0.57411687  0.57729874
   0.37920133  0.55867189  0.59240179
   0.42607385  0.55938941  0.47642822
   0.59653986  0.59632703  0.63005396
   0.61562015  0.61068626  0.51260688
   0.51682964  0.63852161  0.45582801
   0.47846713  0.58307036  0.65735982
   0.55970259  0.69956392  0.56934754
   0.45581122  0.64490536  0.55931388
Direct configuration=     4
   0.55266031  0.39472423  0.59831593
   0.51999197  0.32516458  0.50596270
   0.59705215  0.42032505  0.48780154
   0.60486675  0.47193201  0.37793677
   0.43171652  0.40802071  0.49819784
   0.46782665  0.48084800  0.58842843
   0.64054419  0.47934425  0.58692499
   0.55946248  0.48494778  0.67878225
   0.51129509  0.39435490  0.40588217
   0.50432202  0.45511137  0.30323951
   0.67217117  0.51453919  0.47103404
   0.33680346  0.47907143  0.48319374
   0.40987399  0.46862022  0.38631825
   0.26999484  0.52173494  0.56880085
   0.55723556  0.58277797  0.74777405
   0.61563410  0.59714411  0.38917442
   0.50372627  0.54570790  0.38311086
   0.71021737  0.57476940  0.57754612
   0.37869805  0.55896789  0.59262413
   0.42636624  0.55883066  0.47671831
   0.59767090  0.59617068  0.63097648
   0.61673242  0.61111156  0.51217178
   0.51623913  0.64005956  0.45558572
   0.47738665  0.58277049  0.65822053
   0.55990277  0.70080446  0.56951457
   0.45493612  0.64547382  0.55909119
Direct configuration=     5
   0.55274636  0.39026687  0.59895743
   0.52021298  0.32109412  0.50686353
   0.59743139  0.41838263  0.48742455
   0.60520994  0.47053475  0.37692506
   0.43291395  0.40700815  0.49683603
   0.46828363  0.48387365  0.58865377
   0.64161947  0.47997941  0.58670365
   0.55799888  0.48569929  0.67943110
   0.51106759  0.39516513  0.40505546
   0.50325470  0.45508733  0.29990981
   0.67573862  0.51442343  0.47000225
   0.33360268  0.47908568  0.48332344
   0.40865697  0.46637237  0.38489371
   0.26541052  0.52176063  0.56940227
   0.55864454  0.58429299  0.75047137
   0.61770356  0.59834593  0.38972494
   0.50308278  0.54558464  0.38268000
   0.71244331  0.57607448  0.57804088
   0.37769150  0.55955989  0.59306882
   0.42695101  0.55771316  0.47729848
   0.59993296  0.59585798  0.63282150
   0.61895696  0.61196214  0.51130159
   0.51505812  0.64313547  0.45510112
   0.47522568  0.58217076  0.65994195
   0.56030313  0.70328553  0.56984863
   0.45318593  0.64661074  0.55864580
Direct configuration=     6
   0.55281836  0.39035293  0.59945150
   0.52018810  0.31994411  0.50647687
   0.59784268  0.41792576  0.48764653
   0.60528523  0.47046255  0.37682741
   0.43306942  0.40747397  0.49684735
   0.46940118  0.48370918  0.58786733
   0.64118128  0.47987986  0.58648116
   0.55745648  0.48575170  0.67896294
   0.51117675  0.39536864  0.40471241
   0.50270702  0.45527358  0.29926405
   0.67660227  0.51396708  0.46965624
   0.33336761  0.47894423  0.48348116
   0.40806880  0.46571647  0.38468341
   0.26437921  0.52198958  0.56958923
   0.55885409  0.58479932  0.75075628
   0.61798816  0.59828231  0.39010510
   0.50331443  0.54551823  0.38257834
   0.71307150  0.57646651  0.57813049
   0.37556019  0.55945508  0.59279094
   0.42717483  0.55665335  0.47755829
   0.60048089  0.59605163  0.63322835
   0.61927678  0.61272598  0.51153108
   0.51521183  0.64368092  0.45495383
   0.47540741  0.58266676  0.66115854
   0.56023918  0.70312238  0.56963794
   0.45320345  0.64714503  0.55895038
Direct configuration=     7
   0.55293477  0.39049208  0.60025034
   0.52014789  0.31808472  0.50585171
   0.59850767  0.41718707  0.48800544
   0.60540696  0.47034580  0.37666952
   0.43332078  0.40822714  0.49686564
   0.47120810  0.48344326  0.58659576
   0.64047280  0.47971892  0.58612142
   0.55657950  0.48583644  0.67820598
   0.51135325  0.39569770  0.40415775
   0.50182151  0.45557471  0.29821996
   0.67799868  0.51322924  0.46909681
   0.33298753  0.47871553  0.48373618
   0.40711783  0.46465599  0.38434338
   0.26271174  0.52235977  0.56989152
   0.55919290  0.58561797  0.75121693
   0.61844833  0.59817944  0.39071976
   0.50368896  0.54541086  0.38241398
   0.71408719  0.57710036  0.57827538
   0.37211418  0.55928562  0.59234166
   0.42753673  0.55493980  0.47797835
   0.60136681  0.59636473  0.63388615
   0.61979389  0.61396099  0.51190212
   0.51546036  0.64456282  0.45471569
   0.47570124  0.58346872  0.66312559
   0.56013578  0.70285859  0.56929729
   0.45323178  0.64800889  0.55944285
Direct configuration=     8
   0.55290657  0.39083123  0.60014359
   0.52009024  0.31807886  0.50523480
   0.59880678  0.41669915  0.48809140
   0.60545033  0.47055538  0.37684862
   0.43360081  0.40883605  0.49697066
   0.47177164  0.48424905  0.58564631
   0.64004024  0.48008482  0.58571560
   0.55618208  0.48622131  0.67784450
   0.51158368  0.39586364  0.40404550
   0.50116488  0.45583131  0.29826490
   0.67816032  0.51299843  0.46920016
   0.33296828  0.47854333  0.48425800
   0.40672564  0.46429165  0.38428548
   0.26149768  0.52236019  0.56966358
   0.55942442  0.58586372  0.75106503
   0.61844611  0.59773608  0.39128264
   0.50396413  0.54524982  0.38253318
   0.71404304  0.57701012  0.57812715
   0.37198653  0.55914446  0.59203295
   0.42831691  0.55393589  0.47861351
   0.60179435  0.59671655  0.63405559
   0.62036215  0.61427268  0.51228509
   0.51570573  0.64427493  0.45473453
   0.47531611  0.58395831  0.66323379
   0.56002271  0.70233208  0.56902955
   0.45299581  0.64738810  0.56012105
Direct configuration=     9
   0.55282196  0.39184868  0.59982333
   0.51991730  0.31806127  0.50338408
   0.59970413  0.41523537  0.48834929
   0.60558043  0.47118414  0.37738591
   0.43444090  0.41066277  0.49728572
   0.47346227  0.48666642  0.58279797
   0.63874254  0.48118253  0.58449814
   0.55498982  0.48737593  0.67676005
   0.51227497  0.39636147  0.40370874
   0.49919500  0.45660112  0.29839972
   0.67864526  0.51230602  0.46951023
   0.33291051  0.47802672  0.48582346
   0.40554907  0.46319865  0.38411180
   0.25785548  0.52236146  0.56897977
   0.56011898  0.58660098  0.75060934
   0.61843946  0.59640600  0.39297127
   0.50478964  0.54476670  0.38289077
   0.71391058  0.57673941  0.57768243
   0.37160357  0.55872100  0.59110683
   0.43065746  0.55092415  0.48051898
   0.60307696  0.59777201  0.63456390
   0.62206692  0.61520776  0.51343401
   0.51644185  0.64341124  0.45479105
   0.47416073  0.58542708  0.66355838
   0.55968349  0.70075255  0.56822634
   0.45228789  0.64552573  0.56215565
Direct configuration=    10
   0.55278440  0.39230038  0.59968115
   0.51984052  0.31805346  0.50256243
   0.60010252  0.41458551  0.48846378
   0.60563819  0.47146329  0.37762445
   0.43481387  0.41147377  0.49742559
   0.47421284  0.48773964  0.58153342
   0.63816641  0.48166986  0.58395764
   0.55446051  0.48788854  0.67627860
   0.51258187  0.39658249  0.40355923
   0.49832045  0.45694288  0.29845957
   0.67886055  0.51199861  0.46964789
   0.33288487  0.47779737  0.48651847
   0.40502672  0.46271339  0.38403469
   0.25623848  0.52236202  0.56867618
   0.56042733  0.58692830  0.75040703
   0.61843651  0.59581549  0.39372096
   0.50515613  0.54455222  0.38304953
   0.71385177  0.57661923  0.57748499
   0.37143355  0.55853300  0.59069567
   0.43169657  0.54958705  0.48136494
   0.60364639  0.59824059  0.63478957
   0.62282378  0.61562289  0.51394408
   0.51676866  0.64302779  0.45481614
   0.47364778  0.58607916  0.66370248
   0.55953289  0.70005130  0.56786975
   0.45197360  0.64469891  0.56305894
Direct configuration=    11
   0.55241188  0.39255311  0.59917806
   0.51974047  0.31850585  0.50188244
   0.60055526  0.41401429  0.48817227
   0.60579039  0.47150029  0.37781300
   0.43533837  0.41184105  0.49726459
   0.47514308  0.48925603  0.58097555
   0.63756400  0.48228665  0.58359404
   0.55407606  0.48861524  0.67604001
   0.51268254  0.39682379  0.40350822
   0.49759633  0.45714992  0.29868963
   0.67883704  0.51184155  0.46989410
   0.33266346  0.47780253  0.48742044
   0.40468913  0.46249598  0.38421286
   0.25553095  0.52243671  0.56823637
   0.56063019  0.58710556  0.74999614
   0.61858779  0.59542858  0.39434498
   0.50503312  0.54423652  0.38331514
   0.71428355  0.57624199  0.57757710
   0.37066591  0.55779344  0.59043086
   0.43291356  0.54850324  0.48158160
   0.60394143  0.59869408  0.63510083
   0.62341508  0.61571152  0.51378108
   0.51690828  0.64239099  0.45544735
   0.47335582  0.58623886  0.66420071
   0.55903403  0.69970307  0.56775024
   0.45193945  0.64415632  0.56291953
Direct configuration=    12
   0.55139400  0.39324363  0.59780345
   0.51946710  0.31974193  0.50002446
   0.60179233  0.41245349  0.48737576
   0.60620625  0.47160140  0.37832819
   0.43677151  0.41284459  0.49682467
   0.47768483  0.49339935  0.57945127
   0.63591800  0.48397195  0.58260057
   0.55302560  0.49060085  0.67538810
   0.51295758  0.39748312  0.40336883
   0.49561779  0.45771562  0.29931825
   0.67877280  0.51141240  0.47056685
   0.33205849  0.47781664  0.48988495
   0.40376670  0.46190192  0.38469969
   0.25359773  0.52264080  0.56703466
   0.56118446  0.58758992  0.74887345
   0.61900114  0.59437138  0.39605003
   0.50469698  0.54337393  0.38404087
   0.71546333  0.57521125  0.57782877
   0.36856846  0.55577269  0.58970730
   0.43623881  0.54554187  0.48217362
   0.60474759  0.59993318  0.63595130
   0.62503073  0.61595368  0.51333571
   0.51728977  0.64065102  0.45717205
   0.47255807  0.58667522  0.66556206
   0.55767096  0.69875158  0.56742368
   0.45184612  0.64267377  0.56253860
Direct configuration=    13
   0.55051084  0.39379748  0.59700713
   0.51938170  0.32009246  0.49974691
   0.60267688  0.41218364  0.48685280
   0.60648112  0.47130329  0.37820041
   0.43717720  0.41310109  0.49703850
   0.47914071  0.49458900  0.58033962
   0.63486264  0.48457348  0.58245932
   0.55309370  0.49073274  0.67539398
   0.51289338  0.39784712  0.40295692
   0.49505478  0.45767151  0.29940604
   0.67888693  0.51121688  0.47078728
   0.33244524  0.47783301  0.49042358
   0.40334430  0.46199152  0.38535647
   0.25324126  0.52293058  0.56677274
   0.56140880  0.58790800  0.74896174
   0.61916084  0.59427748  0.39589944
   0.50453527  0.54308149  0.38398802
   0.71632461  0.57466767  0.57825167
   0.36799582  0.55482705  0.58957032
   0.43618372  0.54517709  0.48119714
   0.60509294  0.60050112  0.63562917
   0.62557701  0.61603549  0.51361968
   0.51741456  0.63983694  0.45811515
   0.47187292  0.58663333  0.66612927
   0.55718399  0.69877461  0.56753765
   0.45138599  0.64174307  0.56168622
Direct configuration=    14
   0.54894386  0.39478016  0.59559421
   0.51923017  0.32071441  0.49925446
   0.60424633  0.41170482  0.48592491
   0.60696883  0.47077436  0.37797370
   0.43789702  0.41355621  0.49741790
   0.48172388  0.49669980  0.58191581
   0.63299011  0.48564079  0.58220869
   0.55321451  0.49096676  0.67540440
   0.51277946  0.39849296  0.40222606
   0.49405582  0.45759326  0.29956182
   0.67908943  0.51086996  0.47117838
   0.33313143  0.47786205  0.49137926
   0.40259484  0.46215051  0.38652179
   0.25260876  0.52344476  0.56630802
   0.56180684  0.58847238  0.74911839
   0.61944421  0.59411088  0.39563225
   0.50424834  0.54256261  0.38389423
   0.71785278  0.57370320  0.57900202
   0.36697979  0.55314922  0.58932728
   0.43608598  0.54452985  0.47946456
   0.60570569  0.60150883  0.63505761
   0.62654628  0.61618063  0.51412353
   0.51763598  0.63839252  0.45978849
   0.47065727  0.58655900  0.66713568
   0.55631995  0.69881547  0.56773987
   0.45056958  0.64009173  0.56017386
Direct configuration=    15
   0.54793130  0.39526541  0.59462812
   0.51927013  0.32087483  0.49918162
   0.60513485  0.41143174  0.48549674
   0.60731457  0.47056382  0.37758531
   0.43839810  0.41400128  0.49824758
   0.48210928  0.49810246  0.58176609
   0.63202290  0.48632851  0.58193765
   0.55391787  0.49095345  0.67646098
   0.51269068  0.39877106  0.40203268
   0.49343388  0.45744924  0.29927972
   0.67935082  0.51081910  0.47131825
   0.33349322  0.47772267  0.49164873
   0.40220034  0.46227460  0.38704526
   0.25228570  0.52375450  0.56612828
   0.56200831  0.58877893  0.74914874
   0.61944405  0.59410267  0.39534770
   0.50465169  0.54242514  0.38331621
   0.71850345  0.57301723  0.57938919
   0.36720937  0.55230581  0.58933168
   0.43518477  0.54433636  0.47917418
   0.60592753  0.60192186  0.63482881
   0.62724789  0.61625167  0.51452665
   0.51816747  0.63748768  0.46026359
   0.46979212  0.58674163  0.66762931
   0.55578722  0.69881960  0.56787147
   0.44984965  0.63882592  0.55974262
Direct configuration=    16
   0.54543058  0.39646382  0.59224219
   0.51936881  0.32127101  0.49900175
   0.60732922  0.41075730  0.48443930
   0.60816843  0.47004386  0.37662610
   0.43963561  0.41510046  0.50029666
   0.48306109  0.50156660  0.58139633
   0.62963418  0.48802695  0.58126826
   0.55565494  0.49092059  0.67907039
   0.51247143  0.39945785  0.40155507
   0.49189787  0.45709355  0.29858300
   0.67999635  0.51069347  0.47166371
   0.33438674  0.47737845  0.49231425
   0.40122605  0.46258108  0.38833807
   0.25148785  0.52451945  0.56568438
   0.56250587  0.58953602  0.74922369
   0.61944366  0.59408241  0.39464495
   0.50564786  0.54208563  0.38188866
   0.72011042  0.57132310  0.58034539
   0.36777639  0.55022286  0.58934257
   0.43295904  0.54385849  0.47845702
   0.60647540  0.60294191  0.63426374
   0.62898064  0.61642711  0.51552224
   0.51948009  0.63525300  0.46143694
   0.46765544  0.58719265  0.66884843
   0.55447154  0.69882979  0.56819649
   0.44807162  0.63569975  0.55867761
Direct configuration=    17
   0.54428828  0.39774255  0.59119440
   0.51963454  0.32110715  0.49879122
   0.60808526  0.41033067  0.48415532
   0.60867254  0.47003903  0.37603816
   0.44060860  0.41565595  0.50169845
   0.48351376  0.50330370  0.58101835
   0.62854018  0.48876831  0.58067319
   0.55612562  0.49087543  0.67987089
   0.51236948  0.39981975  0.40208891
   0.49086341  0.45677015  0.29793773
   0.68036946  0.51094536  0.47149342
   0.33328113  0.47663008  0.49267559
   0.40130928  0.46251945  0.38816105
   0.25163334  0.52482182  0.56543393
   0.56257674  0.59006164  0.74894952
   0.61945460  0.59407098  0.39473314
   0.50608336  0.54208963  0.38150503
   0.72022068  0.57022753  0.58066409
   0.36780749  0.54907827  0.59005294
   0.43242015  0.54437208  0.47755085
   0.60641205  0.60301414  0.63481055
   0.63003318  0.61668112  0.51555166
   0.52043425  0.63395513  0.46150123
   0.46704183  0.58751530  0.66969407
   0.55357985  0.69816444  0.56808559
   0.44796808  0.63476751  0.55899787
Direct configuration=    18
   0.54237122  0.39988858  0.58943593
   0.52008050  0.32083216  0.49843788
   0.60935409  0.40961467  0.48367873
   0.60951857  0.47003091  0.37505145
   0.44224153  0.41658820  0.50405101
   0.48427344  0.50621900  0.58038402
   0.62670417  0.49001250  0.57967453
   0.55691555  0.49079965  0.68121434
   0.51219836  0.40042710  0.40298482
   0.48912732  0.45622740  0.29685480
   0.68099563  0.51136810  0.47120764
   0.33142563  0.47537413  0.49328200
   0.40144896  0.46241600  0.38786398
   0.25187752  0.52532927  0.56501362
   0.56269567  0.59094377  0.74848940
   0.61947297  0.59405179  0.39488114
   0.50681425  0.54209633  0.38086119
   0.72040572  0.56838888  0.58119896
   0.36785970  0.54715736  0.59124514
   0.43151575  0.54523402  0.47603008
   0.60630573  0.60313537  0.63572824
   0.63179960  0.61710741  0.51560104
   0.52203558  0.63177699  0.46160913
   0.46601203  0.58805679  0.67111329
   0.55208337  0.69704781  0.56789946
   0.44779431  0.63320297  0.55953534
Direct configuration=    19
   0.54159361  0.40157445  0.58862147
   0.52071553  0.32032731  0.49820644
   0.60989615  0.40941201  0.48334961
   0.60984235  0.46996044  0.37469803
   0.44257654  0.41792226  0.50519197
   0.48549868  0.50875277  0.58036440
   0.62538412  0.49061534  0.57865997
   0.55638893  0.49079621  0.68050801
   0.51230755  0.40162154  0.40354950
   0.48800031  0.45577577  0.29693134
   0.68124578  0.51146569  0.47059104
   0.33133785  0.47402400  0.49279482
   0.40188108  0.46205597  0.38778581
   0.25177176  0.52587274  0.56526500
   0.56244665  0.59175157  0.74862436
   0.62010960  0.59391418  0.39509811
   0.50689360  0.54120279  0.38007504
   0.71990325  0.56706729  0.58159198
   0.36765596  0.54565136  0.59227634
   0.43037669  0.54534531  0.47486495
   0.60629581  0.60292635  0.63595689
   0.63286707  0.61790568  0.51595546
   0.52252814  0.63087213  0.46226490
   0.46585268  0.58816393  0.67242625
   0.55153492  0.69547985  0.56744788
   0.44842256  0.63287024  0.56022757
Direct configuration=    20
   0.54097559  0.40291433  0.58797416
   0.52122022  0.31992607  0.49802250
   0.61032697  0.40925094  0.48308804
   0.61009969  0.46990442  0.37441714
   0.44284279  0.41898254  0.50609876
   0.48647246  0.51076654  0.58034882
   0.62433498  0.49109446  0.57785363
   0.55597039  0.49079348  0.67994665
   0.51239433  0.40257084  0.40399830
   0.48710459  0.45541682  0.29699217
   0.68144459  0.51154325  0.47010099
   0.33126808  0.47295094  0.49240762
   0.40222451  0.46176982  0.38772368
   0.25168771  0.52630468  0.56546479
   0.56224873  0.59239358  0.74873163
   0.62061558  0.59380481  0.39527055
   0.50695668  0.54049263  0.37945023
   0.71950390  0.56601692  0.58190434
   0.36749403  0.54445443  0.59309591
   0.42947140  0.54543376  0.47393893
   0.60628794  0.60276023  0.63613862
   0.63371546  0.61854012  0.51623715
   0.52291961  0.63015297  0.46278609
   0.46572603  0.58824908  0.67346975
   0.55109904  0.69423368  0.56708897
   0.44892187  0.63260580  0.56077773
Direct configuration=    21
   0.54114964  0.40253698  0.58815646
   0.52107808  0.32003908  0.49807430
   0.61020564  0.40929630  0.48316171
   0.61002721  0.46992020  0.37449625
   0.44276781  0.41868393  0.50584338
   0.48619821  0.51019940  0.58035321
   0.62463046  0.49095952  0.57808073
   0.55608826  0.49079425  0.68010474
   0.51236989  0.40230349  0.40387190
   0.48735685  0.45551791  0.29697504
   0.68138860  0.51152140  0.47023901
   0.33128773  0.47325315  0.49251667
   0.40212779  0.46185041  0.38774118
   0.25171138  0.52618303  0.56540853
   0.56230447  0.59221276  0.74870142
   0.62047308  0.59383561  0.39522198
   0.50693891  0.54069263  0.37962619
   0.71961637  0.56631274  0.58181637
   0.36753964  0.54479153  0.59286510
   0.42972636  0.54540885  0.47419973
   0.60629016  0.60280701  0.63608744
   0.63347652  0.61836144  0.51615782
   0.52280936  0.63035551  0.46263930
   0.46576170  0.58822510  0.67317587
   0.55122180  0.69458465  0.56719005
   0.44878125  0.63268027  0.56062279
Direct configuration=    22
   0.54109464  0.40235029  0.58776616
   0.52145829  0.32056636  0.49817479
   0.61023443  0.40933436  0.48292381
   0.61022821  0.46987073  0.37451567
   0.44262078  0.41960948  0.50589413
   0.48687046  0.51217785  0.57962784
   0.62427553  0.49125947  0.57700481
   0.55512866  0.49133815  0.67930377
   0.51261759  0.40317792  0.40450615
   0.48694129  0.45487620  0.29699217
   0.68135688  0.51138870  0.46988082
   0.33160935  0.47278189  0.49215428
   0.40196132  0.46117802  0.38783763
   0.25193820  0.52621276  0.56546249
   0.56207494  0.59234419  0.74912042
   0.62086134  0.59366608  0.39549930
   0.50694630  0.54038146  0.37983718
   0.71921023  0.56575498  0.58212860
   0.36803310  0.54421108  0.59296213
   0.42910431  0.54566350  0.47447222
   0.60642498  0.60244938  0.63584983
   0.63403837  0.61890379  0.51620367
   0.52234741  0.62962805  0.46275137
   0.46569899  0.58810093  0.67413908
   0.55208411  0.69412743  0.56719570
   0.44816745  0.63197410  0.56112317
Direct configuration=    23
   0.54106224  0.40224032  0.58753625
   0.52168224  0.32087695  0.49823398
   0.61025139  0.40935677  0.48278368
   0.61034661  0.46984160  0.37452710
   0.44253418  0.42015467  0.50592402
   0.48726644  0.51334324  0.57920056
   0.62406646  0.49143614  0.57637105
   0.55456342  0.49165852  0.67883196
   0.51276350  0.40369300  0.40487974
   0.48669650  0.45449821  0.29700226
   0.68133820  0.51131053  0.46966983
   0.33179879  0.47250430  0.49194082
   0.40186326  0.46078196  0.38789444
   0.25207180  0.52623028  0.56549427
   0.56193974  0.59242161  0.74936722
   0.62109004  0.59356621  0.39566265
   0.50695065  0.54019816  0.37996147
   0.71897100  0.56542644  0.58231252
   0.36832377  0.54386917  0.59301928
   0.42873789  0.54581349  0.47463273
   0.60650439  0.60223871  0.63570986
   0.63436931  0.61922326  0.51623068
   0.52207531  0.62919955  0.46281738
   0.46566206  0.58802780  0.67470646
   0.55259205  0.69385811  0.56719903
   0.44780590  0.63155814  0.56141791
Direct configuration=    24
   0.54100519  0.40247136  0.58752515
   0.52167880  0.32167261  0.49830336
   0.61041723  0.40938586  0.48265660
   0.61066140  0.46993524  0.37435522
   0.44267254  0.42077944  0.50595134
   0.48878196  0.51391517  0.57783635
   0.62344564  0.49132651  0.57561364
   0.55368989  0.49235068  0.67802199
   0.51284772  0.40444600  0.40540528
   0.48651149  0.45385602  0.29716204
   0.68153340  0.51123741  0.46946375
   0.33136483  0.47252772  0.49193321
   0.40146184  0.45994788  0.38799751
   0.25291178  0.52588841  0.56526054
   0.56197760  0.59214747  0.74973184
   0.62104826  0.59350964  0.39600326
   0.50678321  0.53974789  0.38052496
   0.71904384  0.56524699  0.58267533
   0.36843205  0.54317517  0.59291669
   0.42805183  0.54607383  0.47447254
   0.60655205  0.60178147  0.63579680
   0.63485828  0.61943724  0.51562137
   0.52165314  0.62863827  0.46324538
   0.46533221  0.58790703  0.67550230
   0.55313050  0.69360959  0.56729650
   0.44748047  0.63231226  0.56205420
Direct configuration=    25
   0.54097408  0.40259733  0.58751910
   0.52167692  0.32210643  0.49834119
   0.61050765  0.40940172  0.48258732
   0.61083304  0.46998629  0.37426151
   0.44274797  0.42112007  0.50596624
   0.48960825  0.51422700  0.57709256
   0.62310716  0.49126674  0.57520069
   0.55321363  0.49272805  0.67758037
   0.51289364  0.40485654  0.40569181
   0.48641062  0.45350589  0.29724915
   0.68163983  0.51119755  0.46935139
   0.33112823  0.47254048  0.49192905
   0.40124297  0.45949313  0.38805371
   0.25336975  0.52570203  0.56513311
   0.56199824  0.59199801  0.74993064
   0.62102548  0.59347880  0.39618896
   0.50669192  0.53950239  0.38083219
   0.71908355  0.56514914  0.58287314
   0.36849108  0.54279679  0.59286075
   0.42767778  0.54621576  0.47438520
   0.60657803  0.60153217  0.63584420
   0.63512487  0.61955390  0.51528917
   0.52142296  0.62833225  0.46347874
   0.46515238  0.58784119  0.67593621
   0.55342408  0.69347409  0.56734964
   0.44730303  0.63272342  0.56240112
Direct configuration=    26
   0.54079987  0.40278516  0.58793957
   0.52130488  0.32264881  0.49835989
   0.61102553  0.40930775  0.48239821
   0.61119159  0.47014905  0.37389110
   0.44261587  0.42158731  0.50617914
   0.49076852  0.51521135  0.57515448
   0.62307362  0.49158154  0.57484430
   0.55266208  0.49318829  0.67749141
   0.51295409  0.40556417  0.40584947
   0.48635227  0.45308019  0.29763856
   0.68225924  0.51122365  0.46941160
   0.33071950  0.47235319  0.49148928
   0.40058808  0.45861204  0.38823588
   0.25356132  0.52534819  0.56509280
   0.56228494  0.59141553  0.75021312
   0.62040934  0.59353276  0.39621485
   0.50643546  0.53861640  0.38134826
   0.71897262  0.56510454  0.58304207
   0.36987031  0.54229486  0.59273920
   0.42665718  0.54670216  0.47408654
   0.60672178  0.60123501  0.63582524
   0.63568125  0.61936538  0.51499725
   0.52130682  0.62796837  0.46445289
   0.46447164  0.58739249  0.67563474
   0.55357318  0.69321036  0.56744780
   0.44706619  0.63384858  0.56334950
Direct configuration=    27
   0.54064011  0.40295741  0.58832516
   0.52096371  0.32314619  0.49837703
   0.61150042  0.40922157  0.48222480
   0.61152039  0.47029831  0.37355143
   0.44249472  0.42201578  0.50637437
   0.49183251  0.51611402  0.57337723
   0.62304287  0.49187021  0.57451749
   0.55215630  0.49361034  0.67740982
   0.51300951  0.40621307  0.40599405
   0.48629876  0.45268982  0.29799566
   0.68282725  0.51124758  0.46946682
   0.33034469  0.47218145  0.49108599
   0.39998753  0.45780406  0.38840293
   0.25373699  0.52502372  0.56505583
   0.56254784  0.59088139  0.75047217
   0.61984433  0.59358224  0.39623859
   0.50620027  0.53780393  0.38182150
   0.71887089  0.56506365  0.58319697
   0.37113509  0.54183459  0.59262773
   0.42572128  0.54714820  0.47381266
   0.60685360  0.60096251  0.63580786
   0.63619146  0.61919251  0.51472955
   0.52120032  0.62763469  0.46534621
   0.46384739  0.58698103  0.67535829
   0.55370990  0.69296852  0.56753781
   0.44684900  0.63488037  0.56421919
Direct configuration=    28
   0.54056600  0.40357187  0.58856074
   0.52044519  0.32357030  0.49845768
   0.61199631  0.40915851  0.48216781
   0.61206748  0.47036264  0.37343132
   0.44194925  0.42235550  0.50677153
   0.49368148  0.51784275  0.57177414
   0.62310793  0.49188122  0.57471695
   0.55165656  0.49343095  0.67703818
   0.51329339  0.40651045  0.40658670
   0.48608882  0.45253162  0.29786919
   0.68372804  0.51128670  0.46916946
   0.32984670  0.47165074  0.49049421
   0.39936518  0.45712090  0.38851749
   0.25433588  0.52492289  0.56559579
   0.56255785  0.59030608  0.75025063
   0.61872261  0.59357548  0.39599692
   0.50587845  0.53719038  0.38292868
   0.71929859  0.56516828  0.58340184
   0.37203542  0.54102528  0.59211715
   0.42433927  0.54838905  0.47321696
   0.60695215  0.60122963  0.63579572
   0.63628398  0.61906228  0.51505420
   0.52111811  0.62663023  0.46632963
   0.46373833  0.58591890  0.67483182
   0.55407370  0.69274068  0.56774465
   0.44620047  0.63589382  0.56450771
Direct configuration=    29
   0.54044995  0.40453397  0.58892960
   0.51963330  0.32423435  0.49858396
   0.61277273  0.40905977  0.48207859
   0.61292408  0.47046337  0.37324325
   0.44109519  0.42288741  0.50739339
   0.49657651  0.52054950  0.56926410
   0.62320982  0.49189845  0.57502926
   0.55087409  0.49315006  0.67645628
   0.51373787  0.40697608  0.40751465
   0.48576011  0.45228391  0.29767117
   0.68513846  0.51134795  0.46870388
   0.32906697  0.47081979  0.48956763
   0.39839072  0.45605125  0.38869686
   0.25527360  0.52476502  0.56644125
   0.56257351  0.58940529  0.74990376
   0.61696628  0.59356491  0.39561854
   0.50537456  0.53622971  0.38466226
   0.71996825  0.56533212  0.58372262
   0.37344513  0.53975812  0.59131771
   0.42217539  0.55033191  0.47228424
   0.60710645  0.60164788  0.63577672
   0.63642885  0.61885838  0.51556251
   0.52098940  0.62505750  0.46786943
   0.46356758  0.58425585  0.67400750
   0.55464333  0.69238395  0.56806851
   0.44518502  0.63748065  0.56495947
Direct configuration=    30
   0.54033726  0.40474528  0.58878759
   0.51943818  0.32443960  0.49875638
   0.61298343  0.40908958  0.48215048
   0.61309814  0.47045351  0.37330973
   0.44089449  0.42319299  0.50762390
   0.49731908  0.52142506  0.56835619
   0.62356878  0.49196320  0.57502430
   0.55068728  0.49299183  0.67628535