12
Energy = -38.55386007 eV
Se 13.703232159397581 12.085808657926847 9.618550252687221
Se 11.541911762490285 6.632865330502173 9.050094696161826
Se 10.383937592703122 11.589506683429502 14.220717130668442
Se 9.728705744202607 9.47880994278132 13.940027234768754
Se 8.534704867379402 8.92188436175378 9.180353109977647
Se 10.380438616787426 11.774638618129023 7.565864435561167
Se 11.242494859470606 12.229279609326365 9.662104839498515
Se 9.140666803308175 12.937957791730348 12.482586065421584
Se 9.03274564033961 14.969849890264804 13.394480764411067
Se 14.335305400802664 10.464046679206623 11.017312357245462
Se 10.150709664487227 7.533099318421312 10.524222618172832
Se 9.852582975441067 9.409689203338282 7.371122582235251
