18
Energy = -61.31374607 eV
Se 10.733678013078231 10.562590647859631 9.233795781511876
Se 7.081058183562568 10.976518752591334 13.3104870833291
Se 9.417879610059048 8.294750871938477 12.017029410718237
Se 9.72705348830342 8.56693326541259 9.646301008049091
Se 8.617170308536897 11.95772035438325 8.522359582565901
Se 11.69814981392295 12.917312687053519 12.079061518011715
Se 8.266131331817284 13.47395488380185 10.67527459671454
Se 6.4288599503316215 12.427792239976018 11.49952802073192
Se 13.576353157562325 9.777624072257582 12.86957508366895
Se 13.886857698368637 11.206364661047589 14.659203307551607
Se 15.644156521290927 9.207371420176628 11.906053043081224
Se 13.670219306366787 13.570322234288486 10.017828812848562
Se 13.17030335059616 13.405780270529844 13.671866624959032
Se 7.171414446851605 8.7809323484222 12.493414188463044
Se 6.961208587059496 10.514541131204176 8.66994973592271
Se 14.58728409659166 11.349155514521472 8.969747381433232
Se 16.304289362561935 10.98291387740047 10.408913185350748
Se 15.195260673138295 14.164748634278023 11.486939535088688
