17
Energy = -58.36715699 eV
Se 13.198581736078367 14.268400980580815 7.308150651213658
Se 12.001374168228903 10.800362032624045 6.421811676529495
Se 9.970728204937116 11.734865857189135 7.6516829288504535
Se 14.846358771205699 12.833260260722044 7.990750299844117
Se 11.772440194408738 14.738701776111782 9.144815492854011
Se 13.62508507728704 10.62105669480083 7.952767017553361
Se 10.88414291588527 12.529758214438916 9.58017423294856
Se 12.864124931586606 9.22820423697354 11.680781577042676
Se 13.626144712303699 11.007470141621646 13.021909814598262
Se 9.056587968584077 13.55241001915849 14.029617621018032
Se 12.64648537203918 13.125968039054088 12.544121309228883
Se 8.428624152819612 11.30981965291472 13.720369682645462
Se 11.057543749750515 7.578101956075251 14.689305532268165
Se 11.382586020738934 13.599892567757859 14.486716482659169
Se 10.804208578724667 8.379297023686641 12.49437510554558
Se 10.74137509386894 9.5294944290401 15.998381455974686
Se 8.482701604892851 10.15967623415608 15.790627391206359
