10
Energy = -33.07002392 eV
Se 8.719083436520464 11.577830606264785 12.180519983462307
Se 14.448392921581753 10.488259398741143 10.506901797222373
Se 6.519884454523679 10.591923216694651 9.407330839002418
Se 9.997529647593414 9.331280871150458 9.546130650551786
Se 12.934469121503183 9.375029049683457 12.045950129095061
Se 14.625301946568147 12.580558313386232 11.257853636617694
Se 7.111982174521602 12.487093229136311 10.686226852653386
Se 10.56139937352165 11.313571210995788 10.733318332381302
Se 12.193208481352258 7.4805649703891985 11.127949312384997
Se 8.401893994552648 10.287034685796622 8.020964018867927
