22
Energy = -73.75748378 eV
Se 14.088016385798506 11.881146340226364 16.01717660847041
Se 17.137047674392207 10.44011837010865 14.1361062012079
Se 16.685064175708266 11.92907646514279 12.39335568373944
Se 15.050538487585587 9.93000403283996 15.15428319314475
Se 13.710741462057763 14.910958469787712 10.753905301462975
Se 12.921790593677779 12.734572960323142 14.103984819104456
Se 11.673438172521935 15.632712343379422 10.174052372406353
Se 15.628350907091148 10.72472434454687 10.576584680874191
Se 13.767269893630338 8.347259984039342 12.115626499186911
Se 13.59069247613125 11.69369971825677 10.314139883139996
Se 11.295019999163994 11.193159366587013 13.568194737719432
Se 12.16413113779786 9.781645430546046 11.59054305734384
Se 7.952353336768805 7.993882446479865 15.959655777329633
Se 11.415207663480818 15.609344098188947 7.6672501042423065
Se 6.813439998646884 11.365518670705061 10.405332721098583
Se 7.731827548449727 9.153291027546247 10.41901696738432
Se 8.516067248145823 12.920991731939326 10.140372662981276
Se 6.974300596347887 8.102325872814607 13.963560188788808
Se 11.136179202350105 12.702947822261615 7.506003382979276
Se 8.796610661929854 8.758454582441802 12.446750448566178
Se 9.230449729174337 15.988821359251926 7.586503679418295
Se 8.930111202879107 12.955766770877744 7.719852973745049
