21
Energy = -70.28987593 eV
Se 8.771713381961888 15.003938059450759 7.980122798619462
Se 11.257508184927177 15.230796135677414 7.909670165777207
Se 11.587109469198289 16.690240044368334 9.659534159189715
Se 10.392474865429529 11.179388366017854 8.506415582509096
Se 10.101103931850847 15.716353732465059 11.271994329643155
Se 7.430082648229226 11.555033647127024 11.010001010354918
Se 9.883824423409253 11.758946778009506 10.718470225428721
Se 7.451630753416257 12.754376299488177 12.925742043206517
Se 8.318209772759682 16.331246729952895 9.821635873967416
Se 7.719980429242852 9.020295502430029 13.32353656804855
Se 13.114876006714992 11.845355648033108 10.982122881755398
Se 7.848241248085697 10.803429481281873 14.619124646828569
Se 11.604233213018007 9.2043904304728 8.774468372898264
Se 10.497371470363628 7.80256997692359 12.308638316310962
Se 13.710197742698208 10.168573823729664 9.583005153057861
Se 12.91576838700732 10.832569412081464 13.313774320516956
Se 13.310886353399363 6.278167635133737 10.165293936490716
Se 13.033986311841955 8.600519471147376 12.853799901776034
Se 11.308795472407041 5.833951921534429 11.408578143130576
Se 15.629984599129143 8.24872853218476 12.49377188907178
Se 15.291325880776597 6.189940063554034 11.512999641267674
