26
Energy = -88.06962176 eV
Se 8.499976598333863 7.67384644472271 9.70724517341915
Se 15.621699901228485 12.821632181371527 8.03612348847445
Se 15.045563146513517 10.53383810830635 8.068824632896337
Se 9.04960485081764 7.781203648458896 12.972630851577218
Se 14.65127206319979 10.062640743609906 15.224454577459541
Se 15.285053904939362 9.261888038645072 11.562774033763377
Se 7.369765111709036 9.398445102016124 12.788901099252385
Se 14.273773271760932 13.909188179465852 6.418011895455936
Se 10.725973929513012 8.42212855173191 9.737458354133759
Se 13.714723435090729 10.065272115179772 9.972264853683624
Se 12.317770588858455 10.032968018354833 15.76634565603885
Se 10.96812605455514 8.842620170435458 12.2066782844596
Se 7.135730484650643 9.4576186353111 10.262742518202751
Se 12.640788463481368 14.384950905169292 11.283515427856498
Se 10.566282048180682 13.551766440591717 7.281771313993791
Se 12.525440464494398 15.001953561416169 7.528451877117456
Se 15.406013691435154 10.981026689273929 13.18847815813623
Se 10.808755441422155 11.838649850967895 8.705959351594686
Se 13.128380836224759 13.594023887278587 13.401785023471364
Se 11.892642766929733 11.849574248554058 17.13224924184025
Se 10.280418309051267 13.674140700382093 10.907354775753342
Se 9.149640756100336 11.304248438100775 14.39297037560947
Se 9.664506734020671 12.656489512662688 16.132403143890947
Se 9.533485320442857 15.312519927694971 9.601854894442745
Se 12.387574592208043 15.19362030390509 15.050079227614567
Se 10.104051421985556 14.952725334958279 15.101784509108041
