26
Energy = -85.67261985 eV
Se 16.914911527251476 14.706944362335898 13.911761314815763
Se 16.386299691244336 15.028110551772286 11.766834721645532
Se 16.570853238282545 11.137926286867941 16.336311270376658
Se 16.70163446421161 9.977542085130995 18.236334006182698
Se 14.207323083823573 11.77448046016821 16.03827975006745
Se 13.525372149677413 10.492176548675113 14.266018183094499
Se 14.158351497724174 10.21414309173582 8.273174943405088
Se 14.778791013624476 13.27022560283047 11.198624874543619
Se 12.137995494382016 9.915467713213129 6.620456320426284
Se 11.893280522593843 15.66640910589477 10.493702509125011
Se 10.270285838177216 11.419356166707912 7.676375365078231
Se 13.497861229034353 14.237441948966593 9.504384784977717
Se 13.890835682440859 8.252574806078773 9.416833260270328
Se 11.916604362541106 10.530596411461536 11.582066075340931
Se 10.859655520185477 14.078277719982545 13.700011979203655
Se 10.74349922690211 9.993383790711897 13.547628330973815
Se 11.694756654926865 8.534029346858642 10.296426188098629
Se 8.38108911440463 12.656698491470218 16.015724989943955
Se 11.52030842380612 7.810401691340323 6.852807842042995
Se 8.752606557823002 9.062239115156329 12.355636729913808
Se 9.282678944853865 16.08292566192708 14.410100155422704
Se 10.3407814471142 14.140622410822786 11.491445649202987
Se 8.652572913414623 10.026900474295456 8.53425797251493
Se 7.384665843890935 14.529496655064325 15.371286823959093
Se 8.111537614780008 10.674271937417375 10.799470170359806
Se 8.510018008212679 16.824760267761373 12.471077693486446
