25
Energy = -84.59157843 eV
Se 8.979309656018666 10.200789192608484 7.067332711871363
Se 12.816773772139616 9.340644110315008 7.168118476731043
Se 11.437266543713914 8.345069829974248 8.871865395621489
Se 9.151279633828233 11.305778782218798 8.976338117023957
Se 14.381935294482242 12.560790054713594 8.295812248151924
Se 14.669463910530103 10.20728562848611 8.301450811202018
Se 10.977085576468157 10.087021109536975 10.287562155822602
Se 13.073952811983823 10.003110757547773 13.191561379188915
Se 13.94339849120315 13.403557752503286 10.465376013691333
Se 11.807903877608325 14.349536570937238 10.656146919174446
Se 10.387016359841999 12.91925119758989 11.96387877558935
Se 14.998268640355057 10.430225244134668 14.26630489163344
Se 13.15628406628107 16.807394295608027 13.307920797684629
Se 11.537927653375473 12.768579254956748 14.002796253639959
Se 15.18703518882613 12.858577273797712 14.67367011664932
Se 10.938875689082058 16.530803728463454 14.080262731489075
Se 10.722931224289031 14.579568642634314 15.385365199606992
Se 15.95975096741401 16.89814922058496 15.799072160026835
Se 16.74207509219228 12.754311892906191 16.371374234454525
Se 14.399733376202587 18.311670345911065 14.60137354863143
Se 15.33282307467123 12.627124068622546 18.392422596008874
Se 13.289717388032097 15.157062339697852 17.475168084871253
Se 16.09535646915888 17.7020011459129 17.90804786246287
Se 16.09905459595066 14.17022142747712 19.82629817184115
Se 14.379767599429412 16.146463085939317 19.129467300008443
