31
Energy = -104.7702337 eV
Se 16.460403331679892 16.431797845095378 13.807429534355093
Se 13.52938095759152 10.946189731641173 13.002917137843752
Se 13.819930084733087 15.064292494145512 9.350750061614825
Se 15.0722357850864 8.130696892044934 9.33808352434673
Se 14.24781293546957 16.91375087756086 13.08066454699158
Se 7.817966258434258 12.901994026560567 8.921908658598827
Se 16.79157790618576 14.240398252788713 13.003796169420452
Se 12.282650620268685 14.774367912544593 11.068846040215847
Se 14.279659951583172 12.009168534120885 14.952033756269193
Se 16.55963911806661 12.631848448996479 14.714279280501296
Se 9.76540993350797 9.372080982950447 13.220423510781062
Se 10.088809541317309 14.30269221209531 9.859717963035465
Se 10.230001360517074 8.71898383830966 15.571417998755555
Se 7.879599747573324 14.425018311556983 12.82805522975838
Se 8.769626606818232 11.594177017213108 7.346679751574121
Se 9.600087237430996 9.645972943897046 8.510294597887283
Se 9.576080326805892 7.455589876180801 12.038805133577402
Se 12.384470728040121 8.147975511889591 15.78142359465857
Se 11.427754467943402 8.969783784837515 7.340756642139924
Se 12.298330197200507 15.441442680234346 16.12806718817679
Se 10.980759500670159 14.017913825321198 14.842261780789975
Se 6.4873793224499146 8.420654451483662 13.986509392780805
Se 14.294855011406684 8.69701795402499 13.00970715569047
Se 16.006360035086285 8.837625804963386 11.360316239802819
Se 14.968733432201466 11.772945610923761 7.658223358529112
Se 12.89182128203752 17.40794199994766 14.927320736308548
Se 15.320889397871207 13.239278290267743 9.472117587339477
Se 7.110354080938925 6.884844496581704 12.525953602008704
Se 8.816050781311379 15.103755899508487 14.843476081542832
Se 8.696879879109137 15.777137882255152 11.028153143562905
Se 13.639840120607 9.96198395794838 8.562008886200335
