31
Energy = -103.99507884 eV
Se 12.49673786098816 13.33601669456706 8.876042155565154
Se 6.748515217568839 7.814976018731649 13.159838797304996
Se 13.826871279222164 11.138918302667385 15.258851509428728
Se 14.208522047735402 16.04110918315386 11.189062322609143
Se 17.313524052088766 14.987585034976155 13.448814225089391
Se 7.224765968624976 11.008966481200273 15.102333998755839
Se 16.147660089306942 9.414084568158652 9.722807899751613
Se 15.765806051223201 9.026652171623908 11.995309183442457
Se 8.166368068638837 8.87610258095632 14.787542143823028
Se 16.046338910612274 13.240350096005532 12.897863523741686
Se 7.7815566644785585 12.515220171775063 13.41290757246234
Se 13.80440706349648 15.431520293593204 8.62843686364626
Se 8.960496634073206 8.464781925192197 10.073351393953256
Se 12.693552725190376 10.805734312944463 13.213543057360601
Se 8.202469549913925 6.779593206525891 11.69432349969894
Se 13.459224568699163 8.687093936469045 12.4522261170886
Se 9.583284674807027 14.20483370791005 6.7710947962800665
Se 13.67190080625269 14.15229082981691 12.275883444829816
Se 11.989895100878494 12.662212098745783 18.14034970070981
Se 10.268714149598479 14.08700226352759 8.996919814152477
Se 10.41520836777199 10.620672345247897 7.8628615345174255
Se 15.738258712406578 11.750403662021307 9.239455687974711
Se 9.953022230636371 15.094104855709428 12.148879885072933
Se 9.475880889151412 11.789987733371182 6.199902399483457
Se 15.697994394552744 14.72450618806125 7.664432049064704
Se 17.09165711013515 13.00487326830423 10.657468625699444
Se 11.164335436149685 8.024625772017039 9.91974414501924
Se 12.430629945760966 10.599214801881702 17.104529808588318
Se 9.911824898949392 14.912687907387559 15.856204767388881
Se 10.042720982138912 13.541284055605338 13.767069226540533
Se 9.785838726297722 13.33057870920112 17.54993302830444
