34
Energy = -113.27679064 eV
Se 7.1087960791542795 13.766434266232496 9.502921894764649
Se 12.601407606371616 6.402406197002797 11.899619484178395
Se 11.41113880664379 7.689744063149084 15.316291222693783
Se 15.922528472584014 9.883070918176246 16.774159698740636
Se 16.560044455787146 16.054398304532516 14.628027063777036
Se 6.233036186448888 11.838724404250298 8.81340866898648
Se 12.930692269843497 6.2404390006027946 14.229786738305101
Se 12.851614698131952 11.342232356224846 15.149573647732323
Se 16.339831323080187 12.045927359745402 9.857808282737357
Se 16.595949311271394 12.021417310601827 16.9793309396095
Se 10.060758638097754 15.814518071566722 8.466440141823856
Se 18.265270643506963 17.463166292149662 13.52766834425925
Se 9.476750781316943 13.650043251364112 8.76124624899889
Se 17.089662793095076 19.061491494983578 12.443990735521622
Se 12.479074038797611 16.941281200642642 17.01070353314872
Se 17.608821983435245 12.715257752567668 14.860895100351586
Se 13.0895873974185 14.85700006231324 17.92538762794232
Se 13.5706997373632 9.615959584361072 10.162413528306198
Se 14.727589011712888 13.633822547978196 8.586472892291239
Se 10.670280495232026 16.3527222648532 10.941818650670818
Se 14.820466707052969 15.704713796974085 10.558891225900185
Se 6.722685613852443 9.93606250732939 12.812509756793528
Se 14.960126420850312 17.76605102084562 14.118814532739524
Se 12.903850634813251 16.682629210691122 14.696647254396716
Se 9.523508130240092 14.819985810942574 12.082454633798015
Se 14.85446200483447 11.25392671716945 11.39415758160122
Se 12.689611607322488 9.346653138897869 16.426395240079565
Se 14.38139294017273 7.49363888095268 10.797683697683874
Se 8.74065983781121 10.790178774379505 12.591299753731867
Se 15.992284861431594 13.71846388140305 13.54852155388464
Se 10.961040156415553 12.661218898271215 15.624048968604608
Se 11.19855459819727 13.454621422637198 17.84230836745097
Se 12.734425117277087 12.89309371549245 9.18710591008236
Se 12.884948691944862 15.050257572225211 11.442749129921898
