38
Energy = -124.66579645 eV
Se 17.465209608379638 10.896790523067624 21.718410030830984
Se 19.083588725412312 9.25485029787647 14.265851746456445
Se 18.78607992265804 18.777945793251597 16.565249559700344
Se 15.723244393801679 9.671517437882043 15.780528214072552
Se 15.830588266846325 19.564516618847144 18.732563690371006
Se 18.406727284712296 14.515598575278325 14.635491234593905
Se 13.786464667410705 16.581210485072436 19.203352769991728
Se 9.370054608086464 14.026533083165175 11.251614501608962
Se 16.79283991537754 18.705577351913842 13.894888044423592
Se 16.076122476488475 16.366149859589864 18.267342378808276
Se 13.547687799652369 22.20390770624515 16.190657467476907
Se 19.03368999322603 10.89717398062389 20.073693013314795
Se 19.56743509128423 12.548687122722205 15.1144753688344
Se 12.917664802143893 14.95168907310305 17.63897254848226
Se 13.66466435060385 12.123757071959774 15.251403806654125
Se 12.852251518119758 17.397489946277148 13.959042002368204
Se 14.67280996459285 21.93211986361877 14.168587340643343
Se 12.067356013954598 15.86442032532312 9.818112190712366
Se 15.508694923655405 15.022585679268849 16.44246255949792
Se 19.39099360896165 20.437597784021772 17.965119112459917
Se 13.596383240463862 18.75712932428543 12.081435567009823
Se 16.90365662957882 21.058323766072984 14.340305956791768
Se 17.551377840814617 20.77654645777087 19.490670130360737
Se 15.498224179998893 12.534353911961325 16.883459582209376
Se 11.455792697949592 15.863150890202977 16.2679000667692
Se 18.307800782597788 15.944946199048609 16.471760688823718
Se 18.371209985767837 10.684732722786503 16.092355543186745
Se 10.187946922467885 15.150414457492666 8.901530013786902
Se 11.355717185913178 9.470383649737167 16.531570328419473
Se 18.625276774926665 7.208580462471006 15.234843332495306
Se 21.150810580203878 11.053572761833369 20.70207349195957
Se 15.797436428393977 18.070252399058113 11.724224920932178
Se 12.938467708353429 19.939603601824757 17.0028738336078
Se 11.205911506242337 14.626324001284855 12.299403396178198
Se 13.087569160956015 8.557096704004417 15.343915349534294
Se 11.422674898203413 11.840714951218345 15.828788290026024
Se 16.34781599324852 7.450441562137737 16.06257129403513
Se 14.189548480158159 18.618232430075263 15.590663412384702
