30
Energy = -103.37482347 eV
Se 13.492017709208003 9.819827040009157 5.830653622225975
Se 11.7677142525134 8.481795094289986 6.74067937934325
Se 8.899297830830447 12.992522855675912 6.3201109572187
Se 7.67055223882037 8.297456484904401 8.091972276559497
Se 12.80665218218529 6.562540592415725 7.707394876793533
Se 9.930668263080367 11.184204878193222 7.434711145538889
Se 8.29438826712818 10.466187831776287 8.997499698975524
Se 13.879045444920624 13.186779385953404 7.79069449303895
Se 14.64504481898694 10.972136678785036 7.539431604593144
Se 9.580293976877556 14.865888539513689 7.578133657513222
Se 12.345001338729654 13.317481541352686 9.591026860016248
Se 12.606577307849049 6.879893374395047 10.010891396141284
Se 7.409376319740619 6.748431477392794 9.79590631163596
Se 7.849304437127482 15.319469443696876 9.15366077569004
Se 9.462823525057921 9.786479884843297 11.99769191749307
Se 9.362361430592237 5.388835818443477 10.213120221728614
Se 13.60068972118026 13.070285400164884 11.580498018696955
Se 14.644521249267875 8.19289595299017 10.317389791905466
Se 12.851101332387493 10.994873773116735 12.457737130194486
Se 7.175438163168962 9.571221751110468 12.51606149027872
Se 6.569376898444696 11.574507748669685 13.634119699349506
Se 8.066173977428816 13.95523880182396 11.030780828192873
Se 10.383830858733255 8.783605405745014 13.980297428969786
Se 14.506273912029602 9.270642023413327 12.37262089616924
Se 9.610077858312664 5.353363298718235 12.557568504125365
Se 9.575622382386882 15.266192400342161 12.425513692863532
Se 10.577585406158619 13.728702821383074 13.84137288773007
Se 11.379475191509341 6.797945070509527 13.179770282171733
Se 7.960713147903028 11.486390437502001 15.574140997943584
Se 9.001883399567113 13.588087034995791 15.64243199902955
