31
Energy = -102.71169548 eV
Se 16.713182986435363 13.865480531385584 10.838404825381604
Se 10.870873451722234 16.03062819960294 7.74935894457588
Se 8.834334876112896 9.494210779509322 15.50365037495277
Se 13.933482062487421 12.997392269703557 16.650004464642386
Se 9.112854381512388 13.55364679553985 13.92159538214966
Se 14.236259932969856 17.748247165079118 7.532707544034161
Se 17.214232024676043 11.501501263983533 16.41401921655733
Se 15.45356660677808 14.641966585159604 9.175207758000052
Se 11.478171687099362 15.135593069400068 9.883170148124039
Se 7.064023755746722 10.59509023238732 14.746167756637863
Se 12.041267659325127 11.314435545735805 11.280848874073202
Se 10.724449275194328 8.564369480004336 9.753331752578312
Se 18.80151034778084 10.217370723090859 15.543128277096917
Se 13.062409740160282 13.545549680131375 9.398627868997394
Se 9.495321650361607 11.361260069741423 7.408526046531475
Se 14.2466467493929 9.11819149462574 13.956763243305192
Se 12.576246651493445 12.321647473890733 13.324106314537
Se 8.88692650315984 9.385031177350562 8.437066098394324
Se 15.033914070895406 17.059955706861153 9.615226806029638
Se 8.157666916491754 12.318075964614469 10.851369086135557
Se 10.578941445691994 9.426269879230118 11.899057250062928
Se 13.792595912636664 15.189025983570515 16.807016365028705
Se 8.25813699339217 13.063239682037826 8.754474990132548
Se 11.91831671276465 18.133493363710627 7.850151436930806
Se 17.937904168934065 9.488683106636598 13.271608517315508
Se 11.282928044762327 14.33525329058667 13.460790764641619
Se 15.93187351634977 10.604533739408776 13.204490722287737
Se 14.190298098263556 9.42700954090172 16.37603379274792
Se 9.057484961383002 13.133291242369806 16.27805347459481
Se 10.353753941384433 11.22941848795028 16.54739121053657
Se 12.186571055622043 8.62628365677957 16.993796873965593
