33
Energy = -110.44783964 eV
Se 8.052828889063296 10.98402376060226 15.903095801171737
Se 7.886504598583949 13.842657566269141 18.19608906311768
Se 11.434281990336613 8.47977650075083 11.51421753043578
Se 16.2142792232379 16.148213357578136 11.305380951891303
Se 13.812085241056273 9.011784883296253 8.691486799346567
Se 16.387825609588965 18.286951305955135 12.730765760014593
Se 11.20328430923241 11.69823923433935 14.91782555516937
Se 15.234267805056518 14.673274388447181 12.772603705997362
Se 16.125303475820285 10.117475936472008 13.206908881478084
Se 13.366409489559198 16.690664313861962 18.72435893839137
Se 14.508906096508603 12.686540623809854 7.913670289678884
Se 10.291022720027211 14.72476215544533 10.069817666683765
Se 10.856361570537953 14.774183246853688 16.708224534585693
Se 15.360386899275044 10.336827808847556 7.783464344754307
Se 9.698130589617932 7.558511160737647 12.747832525405595
Se 14.160423230402353 11.208723539996816 13.807437226882783
Se 17.034891393177404 13.673066390716341 14.029378550729165
Se 11.13364614338617 12.676239568595406 9.216569345940496
Se 11.514014159551166 12.483780006942718 17.012161220232013
Se 15.711855039675665 13.668252724946624 6.258348892994532
Se 11.139110834911454 15.890457194707055 18.752393027356888
Se 8.734731301227608 11.783858713521266 18.099006374083693
Se 16.032084775746345 17.566994423205347 14.85041833085758
Se 13.110187730937707 11.85411113492187 11.684770342941714
Se 10.209578220043984 7.794069230243203 15.086304160450409
Se 17.802486938787037 14.408337803480737 7.527077810465616
Se 11.302650429058122 14.719385747939166 7.914428823696818
Se 17.707557428810826 11.918874602809058 12.682297800830721
Se 8.205785587728457 8.63433611342926 15.984351662959886
Se 13.352306169965738 18.55770450560046 17.254396841753877
Se 17.416020786558466 13.84357291647185 9.645474621685318
Se 10.991021767880213 10.864187049170804 11.704201234999019
Se 13.596377047853201 17.654484924826892 15.128507336884738
