30
Energy = -103.34236907 eV
Se 11.809023586301116 9.493984327825528 6.2722470397322345
Se 10.342379511372421 11.177875149858442 5.619615303240914
Se 13.986844602146725 10.487875229700135 6.6167322309909995
Se 9.100155716311743 6.3408766963386105 7.044967787849062
Se 8.408193580536963 8.087222461703929 8.309249322824769
Se 9.415809671063966 12.18374721628516 7.587956849036896
Se 14.626009364381849 9.90276151381242 8.755915888306417
Se 5.989085220420631 7.8015536457685535 8.702313011079736
Se 9.621504916931558 4.58075424824611 8.850372664202629
Se 9.90976231238591 14.462887057880769 7.311027096742701
Se 11.902616290434807 15.99772596469223 10.23332504769608
Se 5.1475046675190645 9.821075075492573 7.961851112772593
Se 12.077023745201815 14.946561557705541 8.137304403285745
Se 13.57002830480901 11.626626373449954 10.140925834164738
Se 9.316068932801995 5.713517026013539 10.775516115814378
Se 5.258661611101362 11.189690951677866 9.967012819472526
Se 10.337700044429207 13.808221814155964 12.979087480233424
Se 12.380164001955412 14.356847963395557 11.87180680275462
Se 7.451667125963783 10.808404025238808 10.612053897368481
Se 7.27340162356988 8.79956210912881 11.942466648252267
Se 11.505222241616067 6.698042648032584 11.370142346825272
Se 10.694395919592026 14.653745410285653 15.143904458169805
Se 13.433700621826093 10.516286649565444 12.180054640813452
Se 15.09311405489338 13.2756272094267 14.060503154110203
Se 11.170125228826018 7.071326108408726 13.633242550477723
Se 10.462368151046666 9.331428168850419 13.850507086848605
Se 8.094300527914386 9.33456109150091 14.06489909213914
Se 15.418469448065004 11.03895489871126 13.407630134204023
Se 11.870294086551043 12.906322425491378 16.20823045922353
Se 14.178821264455943 13.430351355781402 16.233555095792937
