36
Energy = -116.55038705 eV
Se 9.537453612576426 10.329847806247859 15.478381705448758
Se 13.302628970571538 10.55995533394754 9.335924874419494
Se 14.565010109516153 9.723444457742245 13.992715606545318
Se 14.55294343124577 11.857511244321602 15.809419050047216
Se 7.66741864491151 13.639955450708028 11.152710160566997
Se 16.93726304555609 18.34219877821803 16.449131669343096
Se 18.31428709895344 10.92984222888996 11.691135127096391
Se 9.845701836962082 12.911027412404648 10.677115097121012
Se 16.815728009348078 17.34802601201833 14.491069633129715
Se 8.512271579030035 17.015864234910467 9.804015294307064
Se 8.960209461960858 14.207882551823525 14.949094898830456
Se 11.194276900272396 10.554638916547038 17.49837965627285
Se 10.713164005115337 13.670719431970452 7.630513189496074
Se 11.08022464261849 15.461105069448928 15.201871924326266
Se 18.241828817078975 8.990385640474978 13.336125217091517
Se 7.944043633950737 15.853856520802543 11.814264213498598
Se 12.57456247719967 13.544018055654691 15.657651806254277
Se 11.183322743976891 8.502907145309122 18.51738692864181
Se 12.904868429056135 7.224265187653042 17.531509707476015
Se 16.715359544962848 9.218074567309142 15.009695654731676
Se 11.082925298077766 9.559451612171104 8.190901216225694
Se 17.316599925405637 12.913472990343351 12.237407904358715
Se 12.091534774227794 12.131597943883156 6.822246568666065
Se 13.72034680161859 16.63833522681439 12.820069408411754
Se 9.702984790934757 12.356231084342106 13.900118391295946
Se 14.42912623290739 14.76016800430718 10.995103849720516
Se 12.329964304411881 10.972352401026273 11.282489446661083
Se 14.969649773910458 12.47872945329563 11.630887904510997
Se 9.764426416310041 9.902226691249963 9.86541679866221
Se 10.803074879124352 17.255310727723067 9.763705016963762
Se 10.499734240872705 8.66428768676063 14.064051572228697
Se 11.563925660326353 15.911320383409045 12.764486270015812
Se 12.632113339940249 8.27403749613842 15.1747974871621
Se 14.383929274193344 14.957901063532974 8.410115352156488
Se 15.321638332099944 13.632998564049894 14.699661636453651
Se 12.27799897997877 15.644446464507677 7.909823113370586
