41
Energy = -138.2701095 eV
Se 9.313858910982834 13.593980889597097 14.805542562419188
Se 12.187534600749244 14.168446470568771 15.846181789218978
Se 14.40091696372124 13.689771628524536 16.90775528064378
Se 13.077566596426106 16.446607462359776 15.380106133488637
Se 10.459627005710182 16.61359265607279 11.29037657925067
Se 7.04658714201362 14.743088150699121 12.061378521799712
Se 10.422227103209973 11.79571719013363 15.552513473842597
Se 14.419866485826054 11.459973710292402 17.48415574528646
Se 14.39600338537017 16.33729136013572 13.544788373799307
Se 12.53136113189682 11.84273480276846 13.698890952192786
Se 15.776216813774486 13.569103318712896 13.70186258597767
Se 8.493574212167616 11.675806315608659 11.506484327022198
Se 12.21170513450682 6.308462965021966 14.790042312768566
Se 10.496633613348571 16.96316972464874 8.90659987312262
Se 11.534216222813491 13.648664459406765 12.508435316352788
Se 9.970151239365386 7.423399622295373 14.70495857367692
Se 16.57774893242111 13.871081728468633 11.493891496674525
Se 15.008549933705213 10.311437083950535 15.395594871919199
Se 8.189988696038561 16.773800869037544 11.946739079113206
Se 16.8254382635733 11.537241356286852 14.62939358195727
Se 7.2641705812675434 9.617553243329688 8.633877431394605
Se 11.207894848022747 8.567446542670208 6.863723044277432
Se 12.057747819414361 6.7987480621218515 7.949823729593902
Se 12.586335826426456 11.963774280301855 7.358845684051092
Se 11.314470689397279 13.796184608867344 6.575248040801608
Se 7.311666558202254 11.814737239194987 8.09459140902346
Se 8.493357268538539 9.485268812920808 10.869156385666892
Se 10.851189861442256 6.131314732433989 11.455423199693428
Se 16.299423339447273 11.432676340886461 8.697949001202085
Se 11.210685618534326 10.40319475471175 8.48829394811803
Se 15.455582772212495 9.264424157805287 9.163076112534362
Se 5.326076090421369 12.76182379715486 9.225552237538825
Se 11.950949645559588 4.772209311080174 13.088902564786519
Se 12.121719317564569 15.632770683791044 7.890170386220036
Se 10.489177636018344 12.715441452068067 10.587535049223954
Se 9.009049804971033 6.216086308980802 12.998461156677418
Se 15.05351442939671 13.090123733644985 9.824910860916816
Se 13.955338108953608 8.471723263643659 12.469891875626496
Se 5.91536483875615 14.874419018047847 9.872076736693103
Se 16.052334118705637 8.96653361694132 11.420739716792605
Se 12.370682292327455 10.086678128013572 11.952563851841568
