45
Energy = -150.50940413 eV
Se 9.88536060171754 12.461081039843435 10.644000480196485
Se 14.019805354647248 1.6186887294900432 14.397818454370956
Se 16.28538776669147 17.775569200420442 10.658984630788677
Se 20.87460864633856 12.0770927375237 17.80234705148562
Se 13.667444291499699 0.5403652410931165 16.31521140707812
Se 10.873509450089825 12.912809089880342 18.98004524274877
Se 22.85082649920632 11.838528633872174 13.461258010340117
Se 17.339516790821122 12.405561577902128 12.743684820800052
Se 13.206454701376925 13.70224134456034 19.042101951418303
Se 15.372624620445652 19.73451867674012 17.57888645460314
Se 22.05895094496524 11.831907193498473 11.246146801322416
Se 22.037923013007113 10.487625125275523 19.13572224572419
Se 16.215293317328907 13.835360410654765 18.900093815520894
Se 16.25765392297076 12.020307676660961 17.20940426609431
Se 18.093409311036986 14.02659142600963 14.237031588607678
Se 20.107937524616762 11.283002134129624 22.187090741203683
Se 16.57286680424148 19.815825491839846 12.699930612224769
Se 15.27332761892446 15.976854985661793 15.948065560936321
Se 12.785055681556937 15.940861848537 18.269064401085593
Se 21.074496755964645 13.088429654134918 21.346817702794574
Se 12.682240496848548 21.69455494030062 21.453296347859553
Se 11.13396767864901 20.116432785070927 20.61374029804976
Se 19.99110294650332 10.935107500303097 15.92748621946928
Se 11.47420500103138 10.801195190861584 19.87473331572401
Se 17.27015035064216 23.564480927471728 16.21194175991381
Se 16.871104155904145 21.713978545132736 14.496589552538987
Se 9.106673405645505 11.223939344552678 12.27963783210093
Se 13.612756801290551 17.23777294765465 20.06856261594349
Se 20.552901176341635 13.670869861748939 11.079415953751424
Se 21.819975498060792 10.100563746631908 14.68694521853842
Se 18.2446981617035 20.706784913960682 11.392645606697098
Se 18.388513925042744 12.957257558367525 10.641142506414388
Se 11.858959434433068 18.021887345282593 21.42814311397883
Se 18.92068100489462 22.809541375615954 13.122614955197031
Se 14.790683717000848 20.987091610987566 15.690911141805932
Se 16.877186401920728 16.072977114490012 14.197701138147222
Se 15.729682736091723 10.260685387719835 18.594673190598485
Se 15.87514153345632 21.34580061472462 19.246978918844018
Se 18.980724099912624 24.371700088427133 14.902593527067003
Se 16.818819175762858 15.780067631571276 17.781128605505803
Se 13.8720845631348 22.55326409382095 19.610642898234822
Se 11.872987656228577 1.1674898029310161 17.4850504613644
Se 17.891154118562152 18.829045494751917 9.558035086561517
Se 13.805745828173027 10.937817177822291 20.077953531827628
Se 20.53175939688254 9.438750892403396 20.50243599657526
