45
Energy = -151.12639384 eV
Se 12.276625289137211 14.625217260444618 6.255030479651671
Se 13.735318312621887 12.909353733990669 5.543447369310184
Se 13.080398728110534 10.899608040037576 6.551214124431776
Se 9.025428021357333 12.243870001615408 7.992640481320912
Se 16.411793575674658 12.19963832829658 7.695637370397367
Se 8.749983853342721 9.940797098047538 7.9403739697772595
Se 17.831622201859325 10.537195962714154 8.440196322006136
Se 10.82616351962203 9.013242186313535 8.825924108356105
Se 13.195220337135071 15.454496973883291 8.315341389288328
Se 16.50086978816494 8.735026057867517 7.632171469031641
Se 14.244447924145096 11.39430164589302 8.778572045079342
Se 15.18233137276558 16.980665545872387 10.484672839961119
Se 7.79556620964608 10.16069437065489 11.622523495364165
Se 7.187071051983767 13.647511487408993 9.153173802799273
Se 10.424908313653953 7.1476270974640945 10.126027354688578
Se 7.378555250433768 14.002654640002914 11.335881892111741
Se 8.734106698996671 15.494447784310315 8.082882901921005
Se 9.939572993560704 10.921070876803078 12.113182806674121
Se 14.913062479384298 9.14222763683274 9.348743999141412
Se 16.91348560548891 11.267363356051519 12.132681554258633
Se 11.794558661843748 14.575512969981622 9.9954350538618
Se 14.911200130401697 12.278024619997147 11.482939172646988
Se 6.862813645854956 9.138862442064683 13.561019476830884
Se 9.915597842596485 16.076206233170836 9.94472176543738
Se 15.82759388852284 15.22682376227955 11.659376340292482
Se 10.84529782370859 7.569857945009987 12.57404454391672
Se 16.995004434414874 11.525021451154693 14.480747762834657
Se 14.573527060208573 7.740671387743075 12.740987316817861
Se 11.956172360222018 13.141344138217123 14.228219061822996
Se 13.195070665397912 9.396339528411856 12.143948009450787
Se 6.2436391561228515 12.633437945720559 14.73399861691067
Se 12.123006804992992 5.836856136008647 13.139320716458556
Se 5.1500760209247245 10.682924089811298 14.180586313163412
Se 10.018744631840597 13.233948300412617 12.951985992491013
Se 13.481142781118201 17.754537470830883 12.730676006650512
Se 15.016816647728746 10.457866203302823 15.302958083966885
Se 14.205292640574067 15.965485655712985 13.781264647823456
Se 9.391849156999612 10.014406855792448 15.952982641808228
Se 15.230937428624093 8.168876664421763 15.115532141425343
Se 8.43372092734516 14.197304173997875 17.12010499161367
Se 11.414941702777366 10.399084718694596 17.052587615919563
Se 6.817211303365565 12.662569823054504 17.187801603108262
Se 7.661096881036164 10.272913603385305 17.480810107900336
Se 11.663730158971296 12.886736340944525 16.750002825620733
Se 13.81144580483298 13.334397542886025 17.22464950316808
