40
Energy = -136.1670434 eV
Se 13.630133156489816 12.24627338749898 5.978644035588252
Se 13.446113202042048 10.078245905892803 6.59059532771167
Se 8.0861544061972 12.522036729543677 7.973480695743856
Se 15.35686580453713 9.019045557734682 7.066700082156525
Se 9.130148411653286 10.831162081558551 6.727499787672509
Se 8.361370497096637 8.774827456912666 7.63354466611502
Se 14.289979604276517 14.090893028353857 8.092186095536604
Se 15.089966679090677 12.640923026256518 9.81292173956692
Se 13.136251858713258 11.584841302863326 10.620285088104929
Se 9.228771350596139 12.614939737736908 10.051783496315558
Se 12.98731260674813 15.759600685416535 9.294654143767037
Se 11.179923809714444 8.36721287820521 10.339905827921367
Se 10.315933889993147 7.631689637899593 8.27239982988224
Se 15.631134925515102 17.662626626699552 11.273444323356612
Se 7.5353749700809525 12.200315438345473 11.656861109601698
Se 18.75159807586085 12.374413280788247 15.093387755126509
Se 7.07622058225384 9.903132702919418 11.875739528968259
Se 14.074591113684662 17.804849165092183 9.448928759833093
Se 18.283096226572802 11.591890488810149 12.876302283473812
Se 12.119676012073937 13.023554568698755 12.213874453943824
Se 16.000875484006965 11.204695721955554 12.717919208239246
Se 11.151535700429083 18.07295276202931 13.699170117018529
Se 9.822332553397283 7.332191122697929 11.991472644399808
Se 8.863805281034628 9.09133028133377 13.222353686808272
Se 8.815730695779449 12.260613928871232 14.78472368930131
Se 14.562600651376988 16.50555401971941 13.007496797357204
Se 10.0847909977175 16.024962814374767 14.124719503570407
Se 13.660719925866866 14.238255730441624 15.431221303807266
Se 12.613420696969326 12.347861296755356 14.422866893149214
Se 15.85171724388014 8.918771507081804 13.598898935804307
Se 13.395980078015759 17.994263616565643 14.448821396796376
Se 17.603501038523248 14.387326889602027 15.373795396523146
Se 13.656938410551215 8.336897179952956 14.013589372685287
Se 15.6518045865661 13.7452233284557 16.578174403452408
Se 10.529176202492318 10.790064581331995 18.147304567942765
Se 8.93228640728142 12.467607933024224 17.008865961944977
Se 9.200301500745303 16.103039346319083 16.35746220397177
Se 10.871439339748544 8.968419802752608 16.746936972210502
Se 10.35927912909647 14.519640608993113 17.553121997874108
Se 13.162791879774366 8.469498826957619 16.379590903200178
