54
Energy = -127.76851737 eV
Se 10.753193698034908 15.454971182977385 6.776076376228951
Se 8.205839829882894 11.776890061579328 6.678793142506185
Se 14.802186054348292 14.038001025576087 7.367947954340366
Se 10.270647660513658 13.0704969798531 7.174743801001932
Se 15.704621208035658 11.814538493500443 7.407385683791527
Se 12.770394680370247 15.149026511447765 8.095031537817336
Se 13.74246817928215 10.729241718859532 8.353652887815777
Se 16.220741487710825 15.500797370148684 8.660813436946883
Se 9.633528126883393 14.994150824121443 8.859713606812214
Se 11.8199967758346 12.064920391213933 8.661799910659367
Se 8.064470563505056 13.262942229395012 8.555725768150289
Se 8.51775035051378 10.632815924275896 8.876069869363539
Se 16.17800033224751 13.20456505602129 9.305841068007393
Se 12.711102625341905 8.843833862338293 9.411641712605862
Se 10.729703064250993 10.289625230824317 9.780914073556058
Se 14.111946155214381 15.901160741295335 9.87767710757225
Se 13.870792909177077 6.7757371255851355 10.268663308601944
Se 13.885894872668548 10.355363542900552 11.014413554962518
Se 12.585963987905643 13.725513092910768 10.173098072613042
Se 10.54273079234865 14.659426224364314 11.100943097880396
Se 6.699894464371244 9.989004602358568 10.39215454023946
Se 14.563088267157758 12.592177038147502 10.942967716109974
Se 7.420978223876997 12.242053318210381 10.622535472230545
Se 15.055595411189845 8.398624942850528 11.714706381714713
Se 11.69038665263845 15.984887941784008 12.720148394250543
Se 13.726385358969987 17.11941266945149 11.945764690496327
Se 10.332435755449307 10.707002383462171 12.09510241214794
Se 12.953281171729849 7.256879284933052 12.533388303185028
Se 12.412750032837113 9.559405992764997 12.749175510816817
Se 9.13839832119637 12.967383486523511 12.122508783566143
Se 12.71878227459987 14.042224401563859 13.769324077173387
Se 14.899270911848806 13.208577208001527 13.176256411649764
Se 8.056180072523972 9.961878035799142 12.423206705558092
Se 11.07938499110529 12.259530569265273 13.963729950653347
Se 14.743809194825776 15.795536438805474 13.732069124174776
Se 16.69269010784216 14.396060357938921 14.210600339013336
Se 8.653862667020663 12.889140191552205 14.496370069282921
Se 16.635134422125574 9.03468105930471 13.648647989598368
Se 13.084756511844716 15.914600389707624 15.481938026759673
Se 15.221434564006747 6.877207425922583 13.721471121707582
Se 10.749279820044647 16.511141614859184 14.945344592414111
Se 15.028081690005385 10.7708616410275 14.43308960973641
Se 13.041313603708979 7.138712559494836 15.08722299340337
Se 12.963869807386557 9.657734310513886 15.114610434481571
Se 8.108667167059819 8.658186626035393 14.42730220305204
Se 9.093612144121439 10.311399551016857 15.761356285702231
Se 11.319375879618745 11.1481241301557 16.05991006936399
Se 7.029809764178034 11.027785281494745 14.441952446472323
Se 15.347071785997175 12.854571635700085 15.612912758172978
Se 10.302654569685101 14.171975855524138 15.651979437009052
Se 13.194110119838786 13.751397778197758 16.33366010373345
Se 15.183279519188051 8.407285603553719 15.688874045229788
Se 11.290323023929464 13.026654738354479 17.604600160802086
Se 6.880054120764061 9.55585909329318 16.40614861562111
