5
Energy = -14.93059876 eV
Se 10.947964587465146 12.29136232217055 10.874060583493137
Se 9.506630543802457 11.138729597390158 9.3813823853861
Se 8.651083912842202 12.017667204347985 11.417271757267368
Se 9.289579005676869 7.5251613574533325 9.274460379086026
Se 10.953908487135324 6.376327076834251 8.402040518756987
