8
Energy = -27.24999132 eV
Se 11.518818157527628 10.803540328734586 9.687430811737645
Se 9.648153601679317 10.981486956548972 10.947763499102345
Se 11.458695305858807 8.342103805592634 9.003645712744378
Se 7.840872380706907 11.219123101073787 9.296035305747807
Se 9.263553259519181 8.688319738067777 6.970851009524819
Se 7.88954402672069 7.607495314541298 8.311433079684583
Se 6.571469133208067 9.369008601960978 9.606438353523833
Se 10.06432102516772 7.332742463850359 10.378260758638282
