17
Energy = -108.46917123 eV
Ti 10.105387867754487 8.158607329863305 7.101116823980397
Ti 7.914156310041414 7.436794964723968 8.636228370767142
Ti 8.25087993170966 9.641195809911462 6.97884807618518
Ti 10.698452828198095 10.866113523823872 7.350547860018223
Ti 10.569187798313521 6.893330079926555 9.18825151729868
Ti 12.167175436732911 10.794750763014308 9.724511808427517
Ti 6.765598402492446 9.945137252493883 8.99608352795519
Ti 12.109742228366828 8.745379437254478 8.496261581252853
Ti 9.161514548147446 7.140045698710784 11.07732794476624
Ti 9.543603036271106 9.550028673542931 9.551780257398708
Ti 7.213110210799981 8.732224542874729 10.988424488727118
Ti 8.291785692933722 11.806667849342881 8.301566024397086
Ti 11.559779385622148 8.503258764618488 11.210014341531071
Ti 10.179606324559565 12.349808039178532 9.632664645339222
Ti 9.196103047642172 9.320129131506631 12.385638469864002
Ti 10.642645773190925 11.072728437852982 11.717610091352979
Ti 7.9870742912606 11.399602815396696 11.01892728477529
