15
Energy = -92.98264572 eV
Ti 6.787843487885352 9.446760897748852 6.621127699967178
Ti 8.88467239047988 8.222306306150653 5.989235033706257
Ti 9.243594589961804 10.60114255916944 7.328882360147658
Ti 11.01150749156821 8.292681047460452 7.87210074018649
Ti 6.866464077589097 7.042259353291909 7.323351439225594
Ti 9.218483153807306 6.0734727353521745 7.312490776141298
Ti 6.55112477168515 11.331543671693977 7.926161786583437
Ti 8.680247510137033 8.473830232421816 8.621200150513175
Ti 10.54235701557376 5.972869876304267 9.227552935178188
Ti 6.252707181586113 8.855904585035022 9.307237846466295
Ti 10.281459634060456 10.196003429770165 9.847375149632496
Ti 7.94786602868176 6.50751892049175 9.893998987255207
Ti 7.928000400865765 11.057851386823959 9.758639608628283
Ti 10.434846061399059 7.795426189005778 10.679600053189809
Ti 8.259974403715379 9.02157700827604 11.182193632175048
