14
Energy = -84.68024466 eV
Ti 10.453548124033608 7.4701871649497 10.345780515047812
Ti 12.267332543957485 9.305523087935635 9.118623348446588
Ti 11.530179876083915 11.617612774856905 8.357905403491571
Ti 12.581889828654136 13.527175999151009 9.810430978841845
Ti 8.858905395779487 11.598165356191153 11.58878964188342
Ti 9.019072956620105 11.51207606318052 14.068086874241402
Ti 10.521845259518752 13.255743405910337 12.47676133964393
Ti 9.804218005428025 9.983201656115748 9.777052548404178
Ti 11.874606197745445 11.395673930801655 11.007471599081217
Ti 11.092435937255171 10.788845233456533 13.416901964803309
Ti 9.245761837561812 9.152472125177647 12.33275409523414
Ti 10.006346271992616 12.920012143645444 9.837647093325435
Ti 13.912656081417285 11.557508345998048 9.319777395180648
Ti 11.81934237498718 8.840190794414962 11.673782015571888
