25
Energy = -159.05165108 eV
Ti 10.018678845840533 10.44619924297421 8.67386425093843
Ti 13.090982097926632 11.74435258910649 8.352177193154183
Ti 12.226697839382505 13.953734001587456 10.118121587373082
Ti 12.011364657764284 9.32110358817867 8.28897811164731
Ti 10.845098270782369 8.733862601741627 10.66300159482836
Ti 15.786844014107519 10.941480559529301 8.978163891751398
Ti 9.994347143720756 13.228823500250645 10.053395411458915
Ti 13.981775167993597 9.536144932516292 10.02001637613493
Ti 9.083875215711975 10.930595556107479 11.112328170323687
Ti 11.81358735552719 11.069713912212217 10.408688909174986
Ti 15.972348122553466 10.4908052821232 11.446828456430305
Ti 14.258435312240518 12.281413367394912 10.687164457903496
Ti 13.407141081441436 14.600500672609787 12.200517551975077
Ti 10.755155629496606 15.018889724554954 12.313942604871734
Ti 13.297408423996563 10.04008088297745 12.496969121987558
Ti 11.355539365248621 12.529981303352285 12.486930605950258
Ti 6.919649730874667 10.854417999811615 12.600162474317592
Ti 8.643098450634486 13.204325785006302 12.357691168129989
Ti 8.22531709649256 8.935878973846075 12.515140612613482
Ti 10.82891426489057 9.565410159402582 13.09031251075816
Ti 14.016007583562983 12.339164794198368 13.325653305068075
Ti 12.359585352101842 14.075345706898839 14.411238517206456
Ti 9.199268253772981 11.061057674678985 13.97050291512777
Ti 9.940601714570423 13.568192403511231 14.535464870789603
Ti 11.898907259685549 11.4591530357502 14.823373580406153
