27
Energy = -173.41122799 eV
Ti 11.921763347783799 7.549895484169985 8.413260793644781
Ti 13.358181047608685 9.561899884537029 8.39757169773488
Ti 10.533172055956332 6.910450177495928 10.399011476501268
Ti 9.3332625694703 8.04061122332041 8.502252687064006
Ti 11.097719752794061 9.57823258655223 9.756858551142916
Ti 12.834620875356476 8.394805519237483 11.307269625726482
Ti 10.866653447906238 9.855926557355076 7.197893178422756
Ti 10.459449665399392 7.773218543929701 12.680177213695915
Ti 12.372902662318085 11.810809909367165 8.161978610599327
Ti 13.710712122707108 10.600385578904593 13.090771162876715
Ti 8.708907465788746 8.843481532030099 11.089716690013635
Ti 8.545914503327843 10.528083978025814 8.862697837188202
Ti 13.374217954607598 11.381065592947227 10.47648642418767
Ti 11.254113486805307 10.498265494992365 12.215870753161617
Ti 10.432807653692755 12.202117611704034 10.429251594418913
Ti 10.003232147717592 12.70045948739626 7.83418102963017
Ti 7.9436941409148965 12.860565779762263 9.385335285331857
Ti 12.048121000867738 8.87904613231218 14.055687884971167
Ti 12.749655733104264 13.027014490296068 12.473962057075136
Ti 9.38126700547507 9.949903341615354 13.772540489878951
Ti 8.11795126196301 11.316763879305604 11.527873341781692
Ti 12.23603263387535 13.855307418944212 9.781874934241477
Ti 11.65358870263225 11.496705656188736 14.600551153683263
Ti 9.670653500531545 12.814580823989216 13.073347105577906
Ti 9.127758120867343 14.448082910279348 10.481850465013604
Ti 11.278306889356346 14.189980203362987 14.220130416219314
Ti 10.96787522963483 14.899597061792994 11.765880983819626
