20
Energy = -128.52528602 eV
Ti 7.461276359214663 10.851283589393011 11.251481354952938
Ti 9.84188462865904 12.21250959926246 11.336352452405961
Ti 8.35546349375348 12.9234084816992 9.457715936525235
Ti 6.996870471034641 8.766613995414254 9.584171863866143
Ti 9.66431626179613 10.187317026809657 12.626398740926863
Ti 8.422444208273289 7.929930197814194 11.704262016503522
Ti 12.472451198966809 9.962063805431486 8.738121858028903
Ti 11.073899649432255 12.257734362630453 8.885382756141256
Ti 10.324978998420777 8.930282712423393 10.22424434665538
Ti 10.586377915029002 6.449633763805717 10.532660772764457
Ti 8.622724305256066 7.06465499083104 9.108816335921233
Ti 11.039345632611838 7.734660034905459 8.01467140946968
Ti 10.813565805893024 10.236904406928906 7.03936516309984
Ti 9.147716291507164 10.545007952280255 9.24708961636412
Ti 11.140848207696108 8.172036193407116 12.493476962582772
Ti 12.702647837864559 8.06284820339277 10.338071737057572
Ti 8.402406620118636 8.998424767672548 7.248570361766213
Ti 12.019772450962884 10.635663593438952 11.32363175293198
Ti 6.7698063501783015 11.005376432403171 8.500825395739616
Ti 8.880185308091106 11.812627884815583 7.083671161056489
