28
Energy = -183.54196729 eV
Ti 12.558060906836188 9.42956055730425 7.66932681232876
Ti 13.351126371598724 8.203639466483656 11.40598896734819
Ti 11.435082170403826 8.251031267562038 9.712938358156869
Ti 8.671116493318616 9.450715911958332 13.00672100467098
Ti 13.031505481565775 8.63994656833675 13.762701748210743
Ti 14.063328502128362 10.107717948577367 9.8516142602125
Ti 10.836258365313201 7.627435138183699 12.385245496488503
Ti 8.960329630432343 8.800165717742992 10.471665423856859
Ti 11.578686231611155 11.209901819248312 9.432382675307057
Ti 13.744134963016068 11.736534609920925 7.968895817629384
Ti 9.923401351759718 9.679234915296087 8.035644564340759
Ti 14.07181214770253 10.742925723299752 12.371592024283068
Ti 11.504532122474973 10.068763544031176 12.15637023531818
Ti 10.723403847977439 9.178258281829047 14.595774705156822
Ti 11.42493773867173 11.53294902059299 6.729071427763527
Ti 7.063154890776062 10.551900572364694 11.145210470996146
Ti 9.539453895039832 12.773904209262577 8.30311394675981
Ti 12.524094973045774 11.110439620446625 14.436619104815167
Ti 7.902243785793081 10.965414726973378 8.935764266171205
Ti 7.652371403973779 12.057190752290591 13.021861301280694
Ti 7.813935857432176 13.204262174844915 10.560369513288872
Ti 11.959422609653565 12.91684647963867 12.652700431183113
Ti 12.03281828208756 13.571611256699992 8.196881362844529
Ti 9.978826905736945 11.688109063302443 14.174910852934659
Ti 13.436854096537278 12.830790107207017 10.433537502565134
Ti 9.517612427817667 11.540134098022062 11.132760043703291
Ti 10.78240570645696 13.943320761048854 10.37957971182807
Ti 9.50992022460538 13.778127071296582 12.661589354323958
