21
Energy = -135.63363771 eV
Ti 13.395391927438798 11.345507705050746 9.851394027334043
Ti 13.032275845073658 8.504101176590881 9.534012503484426
Ti 11.125741913722598 12.264159203407926 11.266335906456217
Ti 8.687201233009295 8.558659745723569 7.883079455984245
Ti 12.718272520596736 10.072577304841078 11.847594782177156
Ti 7.351936065659899 10.571914513090373 8.305948362713016
Ti 7.51425649500217 9.720590758543228 12.558573451738367
Ti 10.047644308779596 7.218819138998804 9.622527530288409
Ti 6.665764767234042 11.21138352356779 10.583893253814495
Ti 8.967790706036352 7.783003589317027 12.00552374959516
Ti 8.928334870664727 9.965040169805233 10.423626162330498
Ti 8.602322667327714 12.045157058353944 12.097675824119467
Ti 9.81584726155603 10.886577143861295 7.307304443017515
Ti 11.449164846686035 12.56558775572628 8.641380099214619
Ti 11.116466887016546 8.451982790702358 7.501724841586202
Ti 11.141079669350649 10.088058273222877 9.644961057776015
Ti 11.397570043224652 8.012692862370121 11.674245269693571
Ti 8.925125972651509 12.515818538435276 9.496565180840545
Ti 12.556428237790366 10.479523423140535 7.530155934575785
Ti 7.048924189314521 8.404540779945512 10.071399941399843
Ti 10.25231432359946 10.067224082296075 12.892350493587188
