30
Energy = -193.78493867 eV
Ti 7.936787337859842 9.225004024527617 8.777812869405077
Ti 9.454111890200908 11.323857416820799 8.13475691212262
Ti 12.427118016729231 12.884141919076617 7.978372498024843
Ti 12.757400276956385 10.006527054006218 8.660205077612083
Ti 6.908815473162048 11.350382908557698 8.856013961042748
Ti 10.535167539822844 9.287615771783987 9.53954233404991
Ti 14.14213787761396 11.951528342483428 9.955938443104221
Ti 14.832087882888777 9.351680606642372 9.880590484368161
Ti 10.669565104994454 14.684480783038214 9.245426436314519
Ti 11.286604882222685 12.088304264386839 9.940496150082332
Ti 8.564432230031173 13.446020458761984 9.582930088099031
Ti 8.746162544969168 10.895663684325706 10.670120702063574
Ti 12.840205660073448 14.278486294102299 10.163908857020846
Ti 12.8454013777319 9.78237811760959 11.535931220615485
Ti 10.168027612289947 8.42071211923699 11.799430881525181
Ti 12.621184490446277 7.610616801970155 10.184744400583925
Ti 14.64395107845303 7.901031275429678 11.936567480629986
Ti 8.54678625989851 15.370639683292938 11.488810214073055
Ti 10.344083812735404 13.619429372982282 11.896044022572868
Ti 7.58191542075854 13.034330735296052 11.937467076953311
Ti 13.267933485184267 12.803276675687815 12.389506020189257
Ti 15.148383396760277 10.674126258538465 12.339585691810239
Ti 8.905345172750916 11.684650706309528 13.68615102359991
Ti 10.90084291754748 11.04810296474641 12.33411349847039
Ti 11.242522429242634 9.546219382036233 14.37727513742753
Ti 12.237672220641716 7.456087609517404 12.886232062223483
Ti 8.787531312357615 14.322279541020142 13.828438623429147
Ti 11.188419414719839 12.583652430392474 14.407799091981806
Ti 13.339442983088544 11.211661130353786 14.255900609658719
Ti 13.91108389820042 8.938235667397793 14.11101213127753
