39
Energy = -258.33567586 eV
Ti 13.07086920293743 8.10375736098415 10.065457541119004
Ti 11.05969066429138 12.631829048344308 8.578165888891998
Ti 6.5992568072742515 12.034330320437821 10.44946291454657
Ti 12.629715358536922 15.358104120179156 11.782652877047168
Ti 13.573010280904125 10.759900070882823 13.693296768953319
Ti 8.176314022197372 7.940619045244511 10.090949709633872
Ti 6.2261380881202975 9.502983327801115 11.263789834876352
Ti 9.92817598408502 15.281520066713698 11.803160772891495
Ti 10.815226924108744 7.766451755399176 8.523386295215868
Ti 11.037354362435918 15.003075659835616 9.593444945745981
Ti 8.959526441268109 12.96986789336593 13.087545411777944
Ti 13.008239071357831 8.807410414836848 7.588594215947468
Ti 11.49041395606639 13.059250368079988 11.455965633673413
Ti 8.15642153037126 8.584217523088899 12.77458574896426
Ti 8.370722004773096 11.772693984548498 8.296302706548246
Ti 10.971009255714206 12.238011614248613 14.866489196764098
Ti 15.335291548810854 9.577558581869738 11.634246196387702
Ti 13.381651888709065 13.840932164446007 9.40754163765312
Ti 15.58809506242792 11.92170183683599 12.561967410466814
Ti 10.84909627764347 10.660205614589053 12.683860303646751
Ti 8.704650993469308 10.56921652883938 10.871289311921052
Ti 13.358381174235522 11.078941109393924 10.98383355279832
Ti 11.052496003897373 14.508222331371112 13.794531113215653
Ti 10.598009122868644 8.064168697662234 11.30561162708119
Ti 9.074172859003998 13.2162585569914 10.321611330561451
Ti 7.058155211958521 11.035728927701271 12.99063278751873
Ti 13.362433689078772 13.323691392668094 13.605255834629256
Ti 11.02970615541068 10.135271944533086 9.618988610030943
Ti 12.765467922744643 8.717964874276412 12.734746022462243
Ti 14.686924936954144 13.795483036528932 11.379749648305724
Ti 10.97822971880746 10.253092145862762 7.018926331002075
Ti 13.268493487477876 11.319423360401203 8.15592095311114
Ti 9.051263890048688 10.426596809630174 14.59734998710717
Ti 8.848848443532418 9.233526857544863 7.87934347644933
Ti 6.7459331127220326 9.879068185650432 8.939618166760642
Ti 14.981364610017144 9.515114237786737 9.04640576440214
Ti 15.644398791793218 11.775614542583616 9.923027658450893
Ti 11.606340408213418 9.7602746216286 15.154418001622648
Ti 10.410460023583337 8.147847050992345 13.88843475410249
