32
Energy = -208.75989211 eV
Ti 12.22245612328153 8.000254792283645 9.80802547174974
Ti 9.894582108234664 7.8508800935497876 10.665544523090556
Ti 14.05413391850645 8.517482043376637 11.608588977732202
Ti 9.879119035366555 8.933114814269357 8.16712615869457
Ti 11.649950575194959 8.527463221290487 12.557440258889043
Ti 13.755947654556136 9.683078736242283 13.809478866812697
Ti 12.328237598843643 9.406208400636173 7.5954607354866495
Ti 8.046406449264472 9.548955026966842 10.30463475961299
Ti 9.136298882369239 9.179653904577272 12.85508870363866
Ti 11.105729170816279 10.640055000739437 14.125983959507677
Ti 14.144139461040519 9.936811688870261 9.458303998897192
Ti 7.03143279043723 10.512909352535692 12.46968014927279
Ti 10.960600956282196 10.40694359338085 9.871046918591617
Ti 15.443734407034675 10.722384183372707 11.962962410422039
Ti 8.557484995403208 11.227341363779004 8.497196333276495
Ti 8.582780273775992 11.270065371303174 14.4406417111062
Ti 12.742474267739663 11.066295704326482 11.849803642913942
Ti 16.255052916646335 13.092599314302365 12.275335416173274
Ti 10.743475754440745 11.562657772672438 7.429045844651022
Ti 13.157901424130158 11.703729382130511 7.838531963366901
Ti 9.567238301622414 11.848980763167784 11.907191997773527
Ti 7.235817610088357 12.234620334395593 10.41642699603115
Ti 12.11895967568142 12.908032687838451 9.953931746457187
Ti 7.185147207252675 12.881792917517433 13.018386329299663
Ti 14.74282358664857 12.451512403175773 9.917527446096715
Ti 14.429390445271533 12.11050894983705 14.033075418585875
Ti 11.914998056200075 12.967357555857573 13.603340354513298
Ti 9.526964739827735 13.456517831525886 9.44480458288146
Ti 9.411362673982955 13.799023663249946 13.839116638291904
Ti 13.852174254547439 13.685491264008986 12.01213373002362
Ti 10.889934658504016 14.361510353819607 11.680291884046309
Ti 8.348232187817803 14.413147923221434 11.508790548453847
