32
Energy = -208.63379289 eV
Ti 8.106686279533742 16.211343045871626 13.488763291953203
Ti 14.231430832717198 15.162349230103946 11.108090854042999
Ti 16.71258998011038 12.08383044130183 15.629386474976586
Ti 14.465851860776523 15.624982461547987 16.16947382711524
Ti 11.572115269715683 11.080934343317146 9.94433947225514
Ti 14.696120399538739 16.29933492790139 13.627614979464928
Ti 12.329728192757875 14.248449707610229 16.343473432406995
Ti 10.270070629097127 17.41874382832035 13.667166947695405
Ti 12.404409564122204 16.400340030096377 14.812562469423327
Ti 14.205780618755103 13.454212877328583 14.257035925597366
Ti 12.375758961874784 17.055530653194626 12.09298461002681
Ti 11.026483100345837 12.588084177951286 14.534935599755848
Ti 14.785918556266541 10.820827807224509 15.235898142185563
Ti 14.106935181512918 10.72394008113645 10.032797444547516
Ti 12.55333095895761 9.482737496764512 11.68889833627628
Ti 10.503036750574578 11.119624373406042 12.32116904066816
Ti 10.437877844182557 13.28308595062054 10.604854845581457
Ti 13.104258452385562 13.226799711042506 9.580907224313222
Ti 11.86736005646085 15.445841657807865 10.155373347657518
Ti 16.270111796236446 14.704303196004142 12.462594635208873
Ti 14.980390340762836 10.360400973440784 12.537783564268238
Ti 12.501107678480814 10.342111332466198 14.086613300663178
Ti 16.683976646765213 12.390764598658949 13.256682279809695
Ti 9.944266104352646 15.075493010545388 14.784461576164485
Ti 13.023965771197613 12.11070003552185 12.03432670173247
Ti 9.076762392865573 13.620473110338198 12.865875507834842
Ti 12.671936131156642 11.776815385161008 16.31669900768794
Ti 14.759985210052891 13.154086844603977 16.885963364475792
Ti 9.813064737400639 15.859577987074193 11.610713088587412
Ti 11.86081259461191 14.551061696221959 12.776088088451717
Ti 15.486798527127242 12.676249478917887 10.932754857101022
Ti 16.511255412311996 14.59690260365993 14.973471064079643
