4
Energy = -19.00621038 eV
Ti 9.72500503913547 7.149274470493668 8.012020262770363
Ti 8.821712278312377 9.061537957319375 7.8600348823886765
Ti 7.313031358907376 7.093297605775361 8.177369697779406
Ti 6.249043156943125 8.804681799709957 8.059366990360136
