46
Energy = -306.30967564 eV
Ti 16.137602056620434 14.334998647636253 10.462606102037094
Ti 15.63488441551584 15.169807516416666 12.960274817891053
Ti 15.678522516944309 12.520090844725194 12.356742379446294
Ti 14.063392637662279 12.73217345037645 10.022817807344163
Ti 15.305545027101159 16.671386859032754 10.619047545319432
Ti 14.298188281630637 15.11870230057142 8.793460866469722
Ti 13.43793753304878 12.067023268591134 7.526630343047489
Ti 14.71784449961027 10.381327923156123 9.157276761605495
Ti 13.635194128386003 10.707829041120982 11.731172899042388
Ti 12.77891556512717 9.565745174660018 7.593269337940242
Ti 14.981448400049636 10.673165375867553 14.254982039748212
Ti 13.338569184261651 14.846312162505802 11.385139803064396
Ti 15.055884529850925 13.323657305433976 15.019456874837111
Ti 13.914016946675847 17.239087570356332 12.541174689254785
Ti 12.714184390316483 17.02648328719365 10.14615802325428
Ti 11.857882368035764 11.161545350613418 9.53849846776075
Ti 12.50182688298963 7.293058214082682 12.356569516247552
Ti 11.92090218134066 13.926070445601164 8.952240756042267
Ti 14.684937620354505 8.52050795237379 12.54891476906041
Ti 13.174648995361977 12.8083495664236 13.458027420655656
Ti 13.225921371043356 7.840731835453376 14.947711652748682
Ti 10.604570259566254 11.29093155632197 7.419805299601192
Ti 12.944258802820222 8.587974603946229 10.146380292919115
Ti 10.63235682944949 8.865598321375831 8.57779127966133
Ti 10.944927263594069 9.9715979192683 11.834658410428519
Ti 13.30313959641717 11.255596341024502 15.963567473457708
Ti 10.438953506709513 15.411469150616028 10.468461772149237
Ti 13.31464772393668 15.547126471314453 14.355717798814881
Ti 11.11485556706712 13.005520935961608 11.428599311996965
Ti 10.043192811050583 7.946771576172378 11.043589697646489
Ti 12.4957280015647 9.70927010174445 13.908145870828704
Ti 9.096552160355959 10.424965603437224 9.648163430525592
Ti 11.47289438762139 16.564373360742362 12.497492796860907
Ti 9.355835668358669 13.020513575112771 9.487143388237154
Ti 12.23911236709914 13.516860035549934 15.875162287070202
Ti 10.608605071903712 11.797905403740796 14.244578740680053
Ti 8.598887888954879 14.246567649261502 11.833648940761378
Ti 10.682948045746976 7.540133445954777 13.774449216887042
Ti 8.91970657013901 9.44619866811429 13.482508808085624
Ti 10.803080666723785 11.450227133370968 16.95876876994799
Ti 8.119732206163514 13.252099301518854 14.183668488900327
Ti 10.715992290312204 14.441398017198582 13.724644900156841
Ti 8.676949056420796 11.740657277877139 12.043787447308947
Ti 10.447438359019586 9.210817417359419 15.697268721045113
Ti 9.569436595042548 13.475447515696285 16.10167908962692
Ti 8.51922417754452 11.073199930636275 15.6494202990917
