4
Energy = -18.05004696 eV
Ti 8.951879176057599 7.886999858340089 7.492045485078222
Ti 7.469546020559505 6.8040491978408495 6.87802538258709
Ti 8.896808665085324 9.231021613116102 10.247895196545162
Ti 7.8999789563512754 9.297621128291455 8.594108491864809
