41
Energy = -272.10333992 eV
Ti 15.12264958398389 10.2543772264036 14.50224538341981
Ti 15.070461958024968 12.361310291036578 12.840172439396609
Ti 14.79747884577529 8.870193220251556 9.616713195307284
Ti 14.862408173917416 9.813984461555282 12.002654684467814
Ti 14.044461999143781 12.457518849255864 15.312275886065294
Ti 13.082167163538001 10.169901842713596 15.99270267075792
Ti 13.212612462154645 8.391846120521326 13.998930331363445
Ti 15.242909895419224 11.55075997182009 9.99300397250297
Ti 12.959885893536416 7.903450468062846 11.334570133443862
Ti 12.72470803045885 10.960947422452357 13.423933923883139
Ti 14.296019973309713 14.385513531570073 10.868521715205363
Ti 14.11590581627133 10.422251149983339 7.788015604081824
Ti 12.916673605908633 13.868362035195918 13.576330171822415
Ti 12.874467415346828 12.620704830377779 11.18108616236927
Ti 12.448383005075952 8.433477414086758 8.523626012223259
Ti 10.682775383822085 7.548199583382317 10.401276688314843
Ti 12.625750520860226 10.410630030173145 10.063362563940744
Ti 11.410712796839778 12.221811570146643 15.500531785939032
Ti 10.45986112595464 9.839595113817255 12.040890845710424
Ti 10.689266036692874 7.4536251903113575 13.033092835008445
Ti 10.897960700321638 9.456524509634958 15.101668375381754
Ti 11.53634835667852 15.066926965712417 11.60844407024527
Ti 10.264261464194306 12.472993565828695 12.265334365155171
Ti 8.506775625275106 8.318648091723606 11.414483029902202
Ti 13.529999482694166 12.9027250166517 8.478460403659666
Ti 10.0044618130057 14.109633744107116 14.11625820172238
Ti 8.686150882784041 8.798358741099557 13.982117578986877
Ti 10.484310013893586 12.724523426344676 9.65346996464224
Ti 8.118734793414252 11.08308383599865 10.43658618321038
Ti 9.962129697064867 9.80446957212902 9.163240595548622
Ti 12.39661210258083 15.069533305867703 9.175373474805031
Ti 11.600020480696655 11.061561572372092 7.539871832843255
Ti 9.049694037981089 11.44750397336617 14.624865643399117
Ti 9.87904378939348 15.37450305090021 9.381245362113637
Ti 7.7801326590489435 13.040263612441588 12.878404275585726
Ti 9.01612622582621 15.020889759466082 11.85222257703034
Ti 7.595649547604679 10.455393091364899 12.664635725399433
Ti 11.094038033019764 13.801495931688125 7.333362055441572
Ti 7.8458159491412065 13.626093771686799 10.148367194542411
Ti 8.87779375867304 11.715222353613207 7.813768244030655
Ti 8.556414682832406 14.03322556704383 7.695917623290497
