40
Energy = -265.01321983 eV
Ti 12.681645816288418 8.747297529778814 15.285424439613578
Ti 14.422553484259156 10.51144325622232 14.705412371311423
Ti 12.410407495424636 11.017458025948542 16.46650644587912
Ti 10.933444308493502 8.112600310439944 13.500368496946505
Ti 15.712719453873447 10.151904514962151 11.732792047368289
Ti 10.227627220652685 9.792254822711898 15.583883851113992
Ti 15.843337159586973 10.20326896095021 9.16295600565256
Ti 14.183833939018047 12.180439451098355 12.698614858669174
Ti 13.379913527580037 8.996114060615499 12.55981921923319
Ti 13.477355930650921 12.976639135983076 15.19610334141143
Ti 15.583206925403735 12.467049799874102 10.535526252431184
Ti 11.84211199292638 10.858847176909554 13.863363219915948
Ti 14.43227514135357 8.374907984475112 10.188425336091203
Ti 13.88251884305394 14.846340279691299 13.377347459973679
Ti 10.580564533657718 12.743645082957297 15.567052738144168
Ti 11.883489082933512 15.126436684473246 15.086353719403638
Ti 9.189765010580109 8.073516229731675 11.431088694168384
Ti 13.341981719975383 10.805461692195589 10.498744413749394
Ti 8.761788532316421 9.39690849228507 13.557560722245132
Ti 14.941628302791433 12.040073877172775 7.976936166821477
Ti 12.67799204510059 12.983917129800224 9.097491242348928
Ti 9.56213413207735 14.765725220039677 14.161868331228991
Ti 11.553879615850773 13.465485182932271 12.952469054333953
Ti 13.43774458324053 14.456769208999209 11.05145337628729
Ti 11.635589793532567 16.05541261873624 12.55988862929127
Ti 7.865488817928371 10.504247931879037 11.374357653131572
Ti 13.506863884456585 9.71644405873262 7.976893443847294
Ti 9.163431953343087 12.051602708591519 13.468809340304357
Ti 10.644252849938251 10.277718127033884 11.574067119057439
Ti 11.138305787594673 15.290877321885512 9.91769070759955
Ti 11.775508762531839 8.511124421709683 10.131189377642153
Ti 9.216528330686371 9.283178534796402 9.403691508221328
Ti 9.237519209529887 15.275344707872916 11.765835433693463
Ti 12.739157097192768 11.955279630315397 6.741033801217415
Ti 8.343710081747872 11.813285806620241 9.106935881267825
Ti 10.35264178970851 12.74914756353258 10.60220562012353
Ti 11.025574466235895 10.799396718159416 8.515799923390203
Ti 7.677503058549624 13.131419944701044 11.406180488003326
Ti 10.370111198055467 13.299099127546986 7.973322454711624
Ti 8.6352246776454 14.468047467026919 9.501251905318414
