55
Energy = -368.0979751 eV
Ti 13.721699352820002 14.1949603661773 13.707561538585653
Ti 8.609976961130972 9.423534926077231 12.100844745593397
Ti 12.772097857093254 8.583407222563743 15.78745840384055
Ti 9.22316910871493 13.532403940336678 14.348520391330942
Ti 13.189559627163417 12.249096073422159 10.95184369997878
Ti 14.030466620897979 12.24504076828388 15.515516957259667
Ti 13.401887128628761 16.805331087229984 13.274521938918005
Ti 13.148186932075749 15.21587749255006 11.213317103651582
Ti 15.201276310149455 16.193064053169653 14.981403052793937
Ti 13.740581351534797 10.299711103427848 13.718204362354838
Ti 13.1567743526721 9.291755520938588 11.229995653618648
Ti 11.438009843964393 13.472891063312773 15.656471648859757
Ti 9.267820772792811 11.056889969588973 14.423896678881354
Ti 15.489108783088957 13.65704547755352 10.607271219838584
Ti 10.094120803395871 12.213744459439653 17.41998482905859
Ti 13.439284027013683 7.693456975315667 13.262163731094159
Ti 15.502538871488438 10.853097475942626 10.612891484875503
Ti 16.370150264476237 10.719058641146226 14.771472356500546
Ti 11.520168983201215 12.23976337135676 13.238207685897551
Ti 8.137085361991268 13.585475776458525 9.692374447121063
Ti 15.257257160857295 8.309458586959142 14.959740248198774
Ti 11.142279687032232 15.166383651674817 13.463495459070671
Ti 8.140780068444625 10.890248741854704 9.709045343125217
Ti 12.70226291369863 15.869587658425704 15.773837307582404
Ti 11.152251370669534 9.33402601894146 13.490922532997953
Ti 10.86594377616704 12.245186929222118 8.812943838440896
Ti 16.34851416288599 13.806685997387252 14.784797383817546
Ti 15.4163392482573 12.25720272385355 12.861123629650622
Ti 15.042941583876235 12.239048220501415 8.661949652910035
Ti 8.92854412233328 12.226486554602682 7.167261634340188
Ti 15.69481719040126 15.493627752210777 12.604309094347826
Ti 11.556404875340597 16.091264657758956 9.030997908126684
Ti 9.572235205898446 14.674517281687738 7.8550347713241
Ti 15.717253734219105 9.01943493407075 12.591042693336354
Ti 9.067740487814918 16.06008463491751 9.764822938123423
Ti 9.582656211802359 9.790858545200027 7.883238126043814
Ti 10.727972796231183 14.080173174394263 10.86076350971174
Ti 11.565213481333615 8.376606861739841 9.069246062903881
Ti 11.28579127599148 13.602438251391234 6.468910252113525
Ti 10.814859114547916 16.688955827886407 11.492607119734206
Ti 9.074337609954021 8.417712462166742 9.805175877399451
Ti 11.28784858666896 10.857706976438186 6.481517145875395
Ti 10.736647736794845 10.410820093781044 10.8658471320787
Ti 13.062841522883513 13.99549804090985 8.730668038725474
Ti 13.292903883122033 12.232330503427711 6.836896721824623
Ti 10.821787502078134 7.808505619034129 11.537645511945081
Ti 13.05583850680095 10.485717511866577 8.745556229466626
Ti 15.428350315645499 12.259447642354546 17.577665716372795
Ti 8.923278602412877 12.250217503698234 12.009395571574336
Ti 11.490103516375026 10.933982151371948 15.692549311707525
Ti 14.848424190562534 14.664974184973381 16.789086305056415
Ti 8.583903195333768 15.086111826220725 12.056757794995091
Ti 12.934414985584127 13.447684156100037 17.849863347020364
Ti 14.902173580931974 9.837563888687514 16.78123626874395
Ti 12.973611505920937 11.0163316931643 17.87261461442967
