8
Energy = -45.96320674 eV
Ti 8.626853224097196 8.800369218733278 5.8106886960606365
Ti 7.533903625423395 6.627439279653356 6.702442596007901
Ti 6.572232984101728 8.943131231231932 7.376019446084401
Ti 9.628404426202271 7.6153770783784696 7.879018490981142
Ti 8.828514110029328 10.077209159669358 7.943662426670936
Ti 5.913941322197334 6.82815212638109 8.712868552527095
Ti 8.175996168323563 5.844736667489282 9.085023384555464
Ti 7.813417454373127 8.356848553211195 9.583539721860523
