8
Energy = -45.85690866 eV
Ti 11.602818582860722 9.8364175729113 11.236364228664018
Ti 11.591397414826805 10.998212727983994 8.991485405261773
Ti 13.450685900913447 11.630435577123949 11.208145212029867
Ti 9.641457952184577 9.349102171787779 9.73193244771058
Ti 9.311683110537427 9.779323554787094 12.276528286423057
Ti 11.031179224178764 11.663215771714222 12.903539429729827
Ti 11.695187169422413 12.857507864113376 10.741651120333167
Ti 9.51828590926067 11.661151690814757 10.642088196543476
