8
Energy = -44.92796567 eV
Ti 8.432406686601173 10.537678069904807 8.651450028872054
Ti 7.990401067056132 7.058650750022592 10.22542534819209
Ti 9.772331827627266 10.327272780589272 6.682952853355649
Ti 9.142765096088374 5.45474706526435 8.891071424652468
Ti 7.533003989609977 9.272632236169729 6.620236400753441
Ti 6.773042104230238 8.801926191729182 9.034717069198832
Ti 9.245458254391991 8.062343069856011 8.112583711951482
Ti 7.185265259095466 6.559424121164906 7.856237447725202
