8
Energy = -45.85495507 eV
Ti 12.600712434222697 9.493547187325655 10.929109530679927
Ti 12.026324539348622 10.452004126620155 8.579978234779317
Ti 10.4841848731294 8.880128968041577 9.745021882671267
Ti 10.38487122416235 9.700993983271342 12.33604700110997
Ti 8.441455747767488 9.940675663632783 10.685070908727074
Ti 11.084533973521943 11.48624715055874 10.678845243235154
Ti 9.491773934746496 11.218869500325003 8.735379056972706
Ti 8.684967275394238 11.958282635943194 11.502969824269048
