unknown system                          
           1
    21.377552    0.000000    0.000000
     0.000000   21.377552    0.000000
     0.000000    0.000000   21.377552
   Ag
  30
Direct configuration=     1
   0.33792554  0.61111203  0.60920735
   0.39334619  0.50648104  0.65474518
   0.32177877  0.49793840  0.54516387
   0.45123367  0.62462329  0.66373262
   0.46869872  0.40857830  0.68283962
   0.38520321  0.39653659  0.58702490
   0.34178433  0.51082146  0.41596391
   0.31980656  0.61401812  0.48542824
   0.52547130  0.52118933  0.66464825
   0.48808200  0.31906984  0.59169667
   0.43743678  0.65051518  0.53639685
   0.33979227  0.39451202  0.46822634
   0.55397057  0.62563406  0.59063894
   0.45771062  0.34882018  0.47230336
   0.57896814  0.41041129  0.62008599
   0.42128493  0.41732974  0.37069964
   0.58059981  0.34458230  0.50593770
   0.68463463  0.41389507  0.55017051
   0.42640753  0.61204359  0.41484756
   0.41116783  0.53560309  0.31268362
   0.63173070  0.52307541  0.58996865
   0.65829803  0.62423931  0.51744885
   0.54549042  0.38077260  0.38522370
   0.66604295  0.39170197  0.42476731
   0.54131590  0.63925579  0.46117795
   0.51255125  0.46143358  0.29200541
   0.53004703  0.57810143  0.34471624
   0.68654581  0.51042904  0.46461983
   0.62278322  0.48577091  0.35107111
   0.64402980  0.60576204  0.39114265
Direct configuration=     2
   0.33780620  0.61114527  0.60927620
   0.39332085  0.50649684  0.65481324
   0.32169481  0.49798340  0.54517995
   0.45120491  0.62469532  0.66384496
   0.46862857  0.40850009  0.68297342
   0.38519520  0.39643105  0.58703701
   0.34171622  0.51082363  0.41593329
   0.31973620  0.61411002  0.48540672
   0.52550392  0.52119907  0.66470946
   0.48809066  0.31894480  0.59179641
   0.43738364  0.65059388  0.53643917
   0.33966634  0.39444120  0.46820718
   0.55398908  0.62571194  0.59070651
   0.45766690  0.34878217  0.47232453
   0.57895680  0.41035829  0.62011651
   0.42125664  0.41731377  0.37063087
   0.58066067  0.34450784  0.50595275
   0.68475013  0.41386845  0.55016588
   0.42638161  0.61206127  0.41481274
   0.41111223  0.53562421  0.31255279
   0.63178618  0.52308586  0.58998367
   0.65841073  0.62433806  0.51745445
   0.54551562  0.38071921  0.38515965
   0.66615495  0.39161301  0.42471171
   0.54135247  0.63930168  0.46114483
   0.51258761  0.46142778  0.29187155
   0.53004117  0.57812163  0.34466016
   0.68661888  0.51044594  0.46463953
   0.62282862  0.48578194  0.35101107
   0.64412066  0.60582934  0.39106661
Direct configuration=     3
   0.33744818  0.61124499  0.60948273
   0.39324483  0.50654423  0.65501740
   0.32144294  0.49811841  0.54522817
   0.45111865  0.62491143  0.66418200
   0.46841809  0.40826547  0.68337481
   0.38517116  0.39611445  0.58707334
   0.34151191  0.51083016  0.41584142
   0.31952513  0.61438573  0.48534217
   0.52560180  0.52122827  0.66489311
   0.48811664  0.31856968  0.59209561
   0.43722422  0.65082997  0.53656611
   0.33928853  0.39422876  0.46814972
   0.55404461  0.62594558  0.59090923
   0.45753575  0.34866817  0.47238803
   0.57892276  0.41019931  0.62020807
   0.42117176  0.41726587  0.37042457
   0.58084327  0.34428446  0.50599790
   0.68509665  0.41378859  0.55015201
   0.42630387  0.61211432  0.41470827
   0.41094542  0.53568757  0.31216031
   0.63195264  0.52311719  0.59002874
   0.65874883  0.62463430  0.51747126
   0.54559121  0.38055905  0.38496751
   0.66649097  0.39134611  0.42454492
   0.54146218  0.63943936  0.46104547
   0.51269672  0.46141040  0.29146997
   0.53002360  0.57818224  0.34449190
   0.68683809  0.51049666  0.46469865
   0.62296481  0.48581503  0.35083095
   0.64439326  0.60603123  0.39083848
Direct configuration=     4
   0.33673213  0.61144443  0.60989579
   0.39309280  0.50663902  0.65542572
   0.32093920  0.49838843  0.54532461
   0.45094613  0.62534363  0.66485606
   0.46799715  0.40779622  0.68417760
   0.38512310  0.39548124  0.58714600
   0.34110328  0.51084320  0.41565769
   0.31910299  0.61493716  0.48521306
   0.52579757  0.52128669  0.66526040
   0.48816860  0.31781943  0.59269403
   0.43690538  0.65130216  0.53682000
   0.33853292  0.39380387  0.46803479
   0.55415567  0.62641286  0.59131467
   0.45727344  0.34844015  0.47251502
   0.57885469  0.40988135  0.62039119
   0.42100200  0.41717007  0.37001197
   0.58120846  0.34383770  0.50608819
   0.68578967  0.41362887  0.55012427
   0.42614838  0.61222042  0.41449934
   0.41061180  0.53581428  0.31137534
   0.63228555  0.52317986  0.59011887
   0.65942502  0.62522678  0.51750488
   0.54574240  0.38023873  0.38458323
   0.66716300  0.39081232  0.42421132
   0.54168160  0.63971472  0.46084675
   0.51291492  0.46137563  0.29066682
   0.52998847  0.57830344  0.34415540
   0.68727652  0.51059810  0.46481688
   0.62323721  0.48588122  0.35047070
   0.64493845  0.60643501  0.39038222
Direct configuration=     5
   0.33530003  0.61184331  0.61072191
   0.39278873  0.50682859  0.65624236
   0.31993172  0.49892847  0.54551749
   0.45060109  0.62620804  0.66620420
   0.46715526  0.40685772  0.68578319
   0.38502698  0.39421484  0.58729131
   0.34028602  0.51086930  0.41529023
   0.31825870  0.61604002  0.48495483
   0.52618910  0.52140351  0.66599497
   0.48827252  0.31631894  0.59389086
   0.43626769  0.65224653  0.53732778
   0.33702169  0.39295408  0.46780493
   0.55437779  0.62734742  0.59212555
   0.45674883  0.34798412  0.47276901
   0.57871855  0.40924542  0.62075744
   0.42066248  0.41697847  0.36918676
   0.58193884  0.34294418  0.50626877
   0.68717573  0.41330945  0.55006878
   0.42583739  0.61243261  0.41408148
   0.40994456  0.53606769  0.30980542
   0.63295137  0.52330521  0.59029914
   0.66077741  0.62641174  0.51757211
   0.54604478  0.37959808  0.38381467
   0.66850706  0.38974473  0.42354414
   0.54212045  0.64026544  0.46044932
   0.51335133  0.46130609  0.28906050
   0.52991819  0.57854586  0.34348239
   0.68815337  0.51080099  0.46505334
   0.62378200  0.48601359  0.34975022
   0.64602883  0.60724257  0.38946970
Direct configuration=     6
   0.33488066  0.61196012  0.61096382
   0.39269968  0.50688410  0.65648150
   0.31963669  0.49908661  0.54557397
   0.45050005  0.62646116  0.66659897
   0.46690873  0.40658290  0.68625336
   0.38499883  0.39384399  0.58733387
   0.34004670  0.51087694  0.41518262
   0.31801147  0.61636297  0.48487922
   0.52630375  0.52143772  0.66621008
   0.48830295  0.31587954  0.59424133
   0.43608096  0.65252307  0.53747648
   0.33657916  0.39270524  0.46773762
   0.55444283  0.62762109  0.59236300
   0.45659520  0.34785058  0.47284338
   0.57867869  0.40905920  0.62086469
   0.42056305  0.41692236  0.36894512
   0.58215271  0.34268253  0.50632165
   0.68758161  0.41321591  0.55005253
   0.42574633  0.61249475  0.41395912
   0.40974917  0.53614190  0.30934569
   0.63314635  0.52334191  0.59035193
   0.66117343  0.62675873  0.51759180
   0.54613332  0.37941048  0.38358962
   0.66890065  0.38943211  0.42334877
   0.54224896  0.64042671  0.46033294
   0.51347913  0.46128572  0.28859013
   0.52989762  0.57861685  0.34328531
   0.68841014  0.51086039  0.46512258
   0.62394154  0.48605235  0.34953923
   0.64634813  0.60747905  0.38920249
Direct configuration=     7
   0.33490683  0.61199639  0.61103653
   0.39269070  0.50675983  0.65644964
   0.31968607  0.49883545  0.54566075
   0.45030433  0.62650176  0.66660508
   0.46678463  0.40667879  0.68645806
   0.38483000  0.39405515  0.58727149
   0.33991591  0.51094472  0.41508375
   0.31805201  0.61643266  0.48501790
   0.52617257  0.52126431  0.66631682
   0.48844751  0.31563380  0.59427942
   0.43598170  0.65258438  0.53755439
   0.33642337  0.39282336  0.46773705
   0.55458140  0.62776388  0.59241387
   0.45667651  0.34793351  0.47294618
   0.57866648  0.40907277  0.62079837
   0.42061285  0.41691897  0.36894899
   0.58209775  0.34255783  0.50625991
   0.68753805  0.41326665  0.55000845
   0.42572095  0.61247034  0.41403616
   0.40966305  0.53601336  0.30928342
   0.63320725  0.52334944  0.59027823
   0.66123219  0.62688567  0.51758071
   0.54617941  0.37933884  0.38361818
   0.66895826  0.38956699  0.42323591
   0.54231738  0.64042946  0.46038114
   0.51345381  0.46137043  0.28839736
   0.53002846  0.57856324  0.34319576
   0.68846100  0.51086778  0.46493698
   0.62414647  0.48601628  0.34957818
   0.64640158  0.60736095  0.38921412
Direct configuration=     8
   0.33491885  0.61201305  0.61106993
   0.39268657  0.50670275  0.65643500
   0.31970875  0.49872008  0.54570060
   0.45021443  0.62652041  0.66660788
   0.46672763  0.40672284  0.68655209
   0.38475245  0.39415213  0.58724284
   0.33985583  0.51097585  0.41503834
   0.31807063  0.61646466  0.48508159
   0.52611232  0.52118466  0.66636585
   0.48851390  0.31552092  0.59429692
   0.43593612  0.65261254  0.53759017
   0.33635182  0.39287761  0.46773679
   0.55464504  0.62782947  0.59243724
   0.45671386  0.34797160  0.47299339
   0.57866088  0.40907901  0.62076791
   0.42063573  0.41691741  0.36895077
   0.58207250  0.34250055  0.50623156
   0.68751803  0.41328996  0.54998821
   0.42570929  0.61245913  0.41407155
   0.40962350  0.53595432  0.30925482
   0.63323523  0.52335290  0.59024437
   0.66125918  0.62694397  0.51757562
   0.54620058  0.37930594  0.38363130
   0.66898472  0.38962894  0.42318407
   0.54234881  0.64043073  0.46040329
   0.51344218  0.46140933  0.28830882
   0.53008856  0.57853861  0.34315463
   0.68848437  0.51087117  0.46485174
   0.62424060  0.48599971  0.34959607
   0.64642613  0.60730671  0.38921947
Direct configuration=     9
   0.33493633  0.61197509  0.61109107
   0.39266057  0.50668266  0.65640134
   0.31971945  0.49867961  0.54570774
   0.45018668  0.62648862  0.66655721
   0.46668361  0.40670279  0.68656799
   0.38479225  0.39419027  0.58725159
   0.33975625  0.51104407  0.41500793
   0.31812079  0.61642283  0.48519390
   0.52603843  0.52116608  0.66636681
   0.48853845  0.31546973  0.59433741
   0.43594379  0.65262894  0.53761974
   0.33634831  0.39296306  0.46769450
   0.55467612  0.62786756  0.59250695
   0.45670803  0.34808411  0.47306169
   0.57859923  0.40909845  0.62070179
   0.42069443  0.41692831  0.36901319
   0.58208214  0.34245503  0.50617298
   0.68742981  0.41333171  0.54992387
   0.42575322  0.61240330  0.41411103
   0.40960128  0.53587599  0.30928776
   0.63320718  0.52338440  0.59018908
   0.66127596  0.62697062  0.51756082
   0.54620389  0.37932262  0.38362318
   0.66897891  0.38969682  0.42316464
   0.54234879  0.64039476  0.46044408
   0.51347045  0.46144315  0.28828407
   0.53014181  0.57849298  0.34314727
   0.68852002  0.51089257  0.46478048
   0.62430004  0.48595788  0.34955824
   0.64642227  0.60724298  0.38925447
Direct configuration=    10
   0.33498880  0.61186122  0.61115452
   0.39258258  0.50662237  0.65630038
   0.31975154  0.49855819  0.54572916
   0.45010341  0.62639325  0.66640520
   0.46655156  0.40664265  0.68661567
   0.38491165  0.39430467  0.58727785
   0.33945750  0.51124875  0.41491670
   0.31827125  0.61629734  0.48553080
   0.52581679  0.52111033  0.66636968
   0.48861207  0.31531618  0.59445889
   0.43596681  0.65267814  0.53770844
   0.33633779  0.39321940  0.46756764
   0.55476934  0.62798183  0.59271607
   0.45669054  0.34842165  0.47326657
   0.57841428  0.40915676  0.62050344
   0.42087054  0.41696101  0.36920045
   0.58211105  0.34231845  0.50599724
   0.68716515  0.41345695  0.54973088
   0.42588500  0.61223580  0.41422948
   0.40953463  0.53564100  0.30938656
   0.63312302  0.52347890  0.59002321
   0.66132629  0.62705055  0.51751642
   0.54621383  0.37937268  0.38359882
   0.66896148  0.38990044  0.42310635
   0.54234874  0.64028684  0.46056644
   0.51355527  0.46154461  0.28820984
   0.53030155  0.57835608  0.34312522
   0.68862699  0.51095677  0.46456670
   0.62447835  0.48583241  0.34944475
   0.64641070  0.60705177  0.38935946
Direct configuration=    11
   0.33509373  0.61163347  0.61128140
   0.39242661  0.50650181  0.65609845
   0.31981572  0.49831535  0.54577199
   0.44993688  0.62620251  0.66610117
   0.46628746  0.40652238  0.68671104
   0.38515045  0.39453346  0.58733036
   0.33886001  0.51165809  0.41473424
   0.31857217  0.61604636  0.48620461
   0.52537349  0.52099882  0.66637542
   0.48875933  0.31500906  0.59470185
   0.43601285  0.65277654  0.53788583
   0.33631674  0.39373207  0.46731390
   0.55495578  0.62821038  0.59313433
   0.45665555  0.34909672  0.47367633
   0.57804439  0.40927338  0.62010673
   0.42122275  0.41702641  0.36957497
   0.58216886  0.34204529  0.50564577
   0.68663583  0.41370744  0.54934488
   0.42614856  0.61190079  0.41446638
   0.40940134  0.53517102  0.30958418
   0.63295470  0.52366791  0.58969146
   0.66142694  0.62721042  0.51742762
   0.54623371  0.37947278  0.38355011
   0.66892662  0.39030769  0.42298977
   0.54234862  0.64007100  0.46081117
   0.51372490  0.46174754  0.28806138
   0.53062102  0.57808229  0.34308111
   0.68884093  0.51108517  0.46413916
   0.62483497  0.48558146  0.34921778
   0.64638755  0.60666937  0.38956945
Direct configuration=    12
   0.33503366  0.61161334  0.61138485
   0.39240906  0.50644318  0.65613508
   0.31978044  0.49827054  0.54576462
   0.44991792  0.62620556  0.66612731
   0.46626815  0.40649720  0.68677758
   0.38516745  0.39450316  0.58724741
   0.33866610  0.51171758  0.41467358
   0.31862393  0.61606608  0.48623366
   0.52534061  0.52095023  0.66635632
   0.48881391  0.31490647  0.59472762
   0.43604597  0.65281311  0.53790312
   0.33629260  0.39380837  0.46733081
   0.55504221  0.62829990  0.59318089
   0.45669452  0.34921137  0.47381645
   0.57792446  0.40932061  0.61999975
   0.42126821  0.41712630  0.36961152
   0.58214895  0.34195572  0.50558189
   0.68656146  0.41376414  0.54930062
   0.42616994  0.61178709  0.41451252
   0.40940203  0.53510768  0.30960781
   0.63288578  0.52368764  0.58962200
   0.66145076  0.62727090  0.51743822
   0.54624671  0.37947394  0.38354892
   0.66895894  0.39027999  0.42293906
   0.54238919  0.64001774  0.46088111
   0.51375134  0.46174806  0.28800118
   0.53063802  0.57803970  0.34309882
   0.68893624  0.51112107  0.46413446
   0.62492114  0.48557722  0.34909166
   0.64638879  0.60667310  0.38955396
Direct configuration=    13
   0.33487083  0.61155878  0.61166527
   0.39236151  0.50628426  0.65623436
   0.31968480  0.49814908  0.54574464
   0.44986653  0.62621382  0.66619816
   0.46621580  0.40642897  0.68695795
   0.38521354  0.39442103  0.58702257
   0.33814050  0.51187882  0.41450916
   0.31876424  0.61611952  0.48631238
   0.52525150  0.52081852  0.66630455
   0.48896183  0.31462839  0.59479749
   0.43613574  0.65291224  0.53794998
   0.33622716  0.39401517  0.46737665
   0.55527650  0.62854256  0.59330711
   0.45680014  0.34952213  0.47419628
   0.57759938  0.40944863  0.61970977
   0.42139143  0.41739708  0.36971060
   0.58209498  0.34171290  0.50540872
   0.68635984  0.41391784  0.54918063
   0.42622791  0.61147887  0.41463759
   0.40940391  0.53493599  0.30967185
   0.63269895  0.52374111  0.58943374
   0.66151533  0.62743484  0.51746695
   0.54628197  0.37947708  0.38354572
   0.66904655  0.39020492  0.42280162
   0.54249914  0.63987338  0.46107069
   0.51382300  0.46174946  0.28783802
   0.53068409  0.57792425  0.34314685
   0.68919456  0.51121837  0.46412173
   0.62515469  0.48556572  0.34874982
   0.64639215  0.60668323  0.38951199
Direct configuration=    14
   0.33454517  0.61144965  0.61222609
   0.39226639  0.50596643  0.65643293
   0.31949352  0.49790617  0.54570468
   0.44976375  0.62623034  0.66633987
   0.46611109  0.40629250  0.68731870
   0.38530572  0.39425677  0.58657287
   0.33708928  0.51220130  0.41418032
   0.31904485  0.61622641  0.48646983
   0.52507327  0.52055511  0.66620101
   0.48925768  0.31407223  0.59493721
   0.43631528  0.65311050  0.53804371
   0.33609627  0.39442878  0.46746833
   0.55574507  0.62902789  0.59355954
   0.45701138  0.35014365  0.47495594
   0.57694922  0.40970468  0.61912980
   0.42163787  0.41793863  0.36990877
   0.58198703  0.34122728  0.50506238
   0.68595661  0.41422524  0.54894065
   0.42634384  0.61086245  0.41488772
   0.40940767  0.53459261  0.30979993
   0.63232530  0.52384807  0.58905722
   0.66164446  0.62776273  0.51752441
   0.54635248  0.37948335  0.38353930
   0.66922176  0.39005477  0.42252673
   0.54271906  0.63958466  0.46144984
   0.51396634  0.46175226  0.28751168
   0.53077623  0.57769336  0.34324290
   0.68971121  0.51141299  0.46409627
   0.62562181  0.48554272  0.34806612
   0.64639888  0.60670347  0.38942805
Direct configuration=    15
   0.33446952  0.61138411  0.61232967
   0.39220997  0.50587568  0.65648824
   0.31940874  0.49799153  0.54573284
   0.44980231  0.62622390  0.66638577
   0.46606709  0.40618579  0.68735008
   0.38541521  0.39415190  0.58655601
   0.33672911  0.51224292  0.41405648
   0.31910675  0.61630017  0.48655515
   0.52504324  0.52059065  0.66614379
   0.48931217  0.31391948  0.59503673
   0.43633289  0.65311974  0.53812148
   0.33610305  0.39447170  0.46742484
   0.55579475  0.62918101  0.59368808
   0.45699089  0.35037335  0.47504469
   0.57670736  0.40974401  0.61889814
   0.42168801  0.41809042  0.37006769
   0.58207712  0.34109032  0.50499035
   0.68585131  0.41426217  0.54887907
   0.42640424  0.61065383  0.41498367
   0.40942104  0.53457896  0.30979683
   0.63221997  0.52388725  0.58890772
   0.66172664  0.62784501  0.51753014
   0.54635849  0.37951533  0.38352783
   0.66926822  0.39001427  0.42244154
   0.54277162  0.63947877  0.46151261
   0.51402934  0.46170672  0.28743442
   0.53076475  0.57761972  0.34331483
   0.68983045  0.51145852  0.46407395
   0.62581199  0.48555896  0.34791620
   0.64642226  0.60674080  0.38939401
Direct configuration=    16
   0.33436929  0.61129727  0.61246689
   0.39213521  0.50575545  0.65656151
   0.31929642  0.49810461  0.54577015
   0.44985339  0.62621537  0.66644657
   0.46600879  0.40604441  0.68739164
   0.38556027  0.39401295  0.58653367
   0.33625193  0.51229806  0.41389240
   0.31918877  0.61639789  0.48666819
   0.52500346  0.52063774  0.66606798
   0.48938435  0.31371713  0.59516857
   0.43635621  0.65313198  0.53822451
   0.33611202  0.39452855  0.46736722
   0.55586057  0.62938387  0.59385837
   0.45696375  0.35067768  0.47516226
   0.57638693  0.40979612  0.61859121
   0.42175444  0.41829152  0.37027825
   0.58219647  0.34090888  0.50489491
   0.68571180  0.41431109  0.54879748
   0.42648426  0.61037744  0.41511078
   0.40943876  0.53456088  0.30979271
   0.63208041  0.52393917  0.58870965
   0.66183552  0.62795402  0.51753774
   0.54636646  0.37955771  0.38351263
   0.66932977  0.38996060  0.42232867
   0.54284126  0.63933847  0.46159577
   0.51411282  0.46164639  0.28733207
   0.53074954  0.57752216  0.34341013
   0.68998843  0.51151885  0.46404438
   0.62606395  0.48558048  0.34771758
   0.64645324  0.60679026  0.38934892
Direct configuration=    17
   0.33444233  0.61128251  0.61241143
   0.39211845  0.50575510  0.65654338
   0.31931043  0.49817500  0.54579237
   0.44986748  0.62619952  0.66644692
   0.46601536  0.40602464  0.68731528
   0.38557814  0.39402965  0.58662649
   0.33624801  0.51226813  0.41388089
   0.31916584  0.61641767  0.48668460
   0.52501382  0.52070997  0.66604716
   0.48935090  0.31373762  0.59516768
   0.43631684  0.65306129  0.53826692
   0.33613133  0.39447519  0.46735232
   0.55579162  0.62938431  0.59387241
   0.45695529  0.35068639  0.47505477
   0.57635938  0.40978048  0.61852818
   0.42174080  0.41830597  0.37033467
   0.58227328  0.34091333  0.50492927
   0.68572915  0.41425403  0.54880718
   0.42647836  0.61036216  0.41515913
   0.40944500  0.53463777  0.30975731
   0.63209458  0.52393973  0.58866481
   0.66185982  0.62792361  0.51752264
   0.54636515  0.37959531  0.38351981
   0.66931307  0.39000040  0.42233186
   0.54282014  0.63932123  0.46155943
   0.51412409  0.46162596  0.28738925
   0.53074266  0.57748600  0.34344384
   0.68992621  0.51149479  0.46401338
   0.62608684  0.48560480  0.34780402
   0.64647411  0.60680443  0.38935543
Direct configuration=    18
   0.33456738  0.61125725  0.61231648
   0.39208975  0.50575450  0.65651233
   0.31933441  0.49829551  0.54583041
   0.44989161  0.62617238  0.66644751
   0.46602659  0.40599080  0.68718453
   0.38560874  0.39405825  0.58678541
   0.33624129  0.51221689  0.41386118
   0.31912657  0.61645154  0.48671269
   0.52503157  0.52083364  0.66601153
   0.48929364  0.31377270  0.59516616
   0.43624945  0.65294026  0.53833953
   0.33616438  0.39438383  0.46732681
   0.55567357  0.62938507  0.59389645
   0.45694082  0.35070129  0.47487073
   0.57631220  0.40975370  0.61842028
   0.42171745  0.41833071  0.37043128
   0.58240477  0.34092093  0.50498811
   0.68575887  0.41415633  0.54882377
   0.42646826  0.61033600  0.41524190
   0.40945568  0.53476941  0.30969671
   0.63211883  0.52394070  0.58858804
   0.66190141  0.62787153  0.51749678
   0.54636291  0.37965969  0.38353208
   0.66928449  0.39006855  0.42233733
   0.54278400  0.63929170  0.46149721
   0.51414339  0.46159100  0.28748714
   0.53073089  0.57742408  0.34350155
   0.68981969  0.51145359  0.46396031
   0.62612603  0.48564644  0.34795202
   0.64650985  0.60682869  0.38936659
Direct configuration=    19
   0.33457985  0.61124971  0.61233954
   0.39208284  0.50572148  0.65654770
   0.31933079  0.49830787  0.54581399
   0.44988994  0.62617684  0.66651381
   0.46605217  0.40598664  0.68716720
   0.38558929  0.39404728  0.58677058
   0.33613688  0.51221934  0.41382957
   0.31910137  0.61648802  0.48669483
   0.52504550  0.52084064  0.66597062
   0.48928459  0.31372990  0.59513242
   0.43625064  0.65288177  0.53837218
   0.33616308  0.39437970  0.46737853
   0.55568907  0.62943335  0.59388669
   0.45699119  0.35073571  0.47488060
   0.57621387  0.40979308  0.61829855
   0.42171479  0.41844906  0.37046410
   0.58243892  0.34086349  0.50498098
   0.68576242  0.41414123  0.54882172
   0.42645680  0.61024295  0.41530668
   0.40946647  0.53481616  0.30968094
   0.63208536  0.52393534  0.58849615
   0.66192101  0.62788299  0.51749696
   0.54638592  0.37969316  0.38355819
   0.66930269  0.39004627  0.42231078
   0.54279671  0.63924921  0.46151960
   0.51416165  0.46157392  0.28751704
   0.53072665  0.57735896  0.34356449
   0.68980747  0.51144619  0.46397175
   0.62617895  0.48568456  0.34794795
   0.64653161  0.60688217  0.38934867
Direct configuration=    20
   0.33461726  0.61122710  0.61240875
   0.39206212  0.50562243  0.65665382
   0.31931992  0.49834495  0.54576472
   0.44988491  0.62619019  0.66671271
   0.46612891  0.40597418  0.68711523
   0.38553093  0.39401436  0.58672609
   0.33582364  0.51222670  0.41373474
   0.31902577  0.61659746  0.48664125
   0.52508728  0.52086162  0.66584789
   0.48925744  0.31360150  0.59503123
   0.43625419  0.65270630  0.53847016
   0.33615919  0.39436731  0.46753368
   0.55573557  0.62957818  0.59385741
   0.45714233  0.35083896  0.47491023
   0.57591888  0.40991119  0.61793337
   0.42170682  0.41880409  0.37056257
   0.58254137  0.34069118  0.50495957
   0.68577308  0.41409591  0.54881556
   0.42642242  0.60996383  0.41550103
   0.40949884  0.53495639  0.30963363
   0.63198497  0.52391927  0.58822047
   0.66197980  0.62791737  0.51749748
   0.54645493  0.37979355  0.38363651
   0.66935729  0.38997945  0.42223116
   0.54283486  0.63912174  0.46158677
   0.51421642  0.46152269  0.28760676
   0.53071392  0.57716357  0.34375330
   0.68977079  0.51142397  0.46400607
   0.62633774  0.48579891  0.34793574
   0.64659689  0.60704261  0.38929493
Direct configuration=    21
   0.33462954  0.61118451  0.61239927
   0.39203369  0.50561578  0.65665836
   0.31932625  0.49840386  0.54577429
   0.44992337  0.62617655  0.66675291
   0.46611136  0.40593948  0.68708260
   0.38556556  0.39400610  0.58680086
   0.33569707  0.51224096  0.41368789
   0.31898975  0.61660972  0.48670720
   0.52506554  0.52091690  0.66579846
   0.48923040  0.31355584  0.59503498
   0.43625405  0.65263453  0.53852459
   0.33619692  0.39438348  0.46748006
   0.55572264  0.62962320  0.59392296
   0.45711839  0.35094765  0.47486222
   0.57582632  0.40994527  0.61773931
   0.42173420  0.41887494  0.37071118
   0.58262408  0.34057755  0.50492332
   0.68575149  0.41407458  0.54879228
   0.42644574  0.60984847  0.41559526
   0.40948000  0.53499434  0.30962102
   0.63193580  0.52393352  0.58810057
   0.66202271  0.62795499  0.51747312
   0.54645291  0.37984839  0.38366022
   0.66939171  0.38998824  0.42221547
   0.54283308  0.63906156  0.46160285
   0.51424073  0.46152593  0.28760512
   0.53073738  0.57707028  0.34385399
   0.68975997  0.51144601  0.46396960
   0.62641878  0.48580715  0.34792726
   0.64661905  0.60706723  0.38930561
Direct configuration=    22
   0.33466137  0.61107408  0.61237469
   0.39195998  0.50559853  0.65667013
   0.31934266  0.49855657  0.54579908
   0.45002309  0.62614119  0.66685712
   0.46606587  0.40584952  0.68699798
   0.38565532  0.39398469  0.58699469
   0.33536893  0.51227793  0.41356640
   0.31889636  0.61664151  0.48687819
   0.52500917  0.52106021  0.66567031
   0.48916030  0.31343744  0.59504472
   0.43625371  0.65244847  0.53866573
   0.33629472  0.39442538  0.46734103
   0.55568912  0.62973992  0.59409292
   0.45705632  0.35122943  0.47473775
   0.57558634  0.41003363  0.61723618
   0.42180519  0.41905861  0.37109646
   0.58283851  0.34028295  0.50482935
   0.68569551  0.41401929  0.54873191
   0.42650619  0.60954938  0.41583956
   0.40943114  0.53509272  0.30958833
   0.63180833  0.52397046  0.58778971
   0.66213395  0.62805252  0.51740998
   0.54644767  0.37999055  0.38372169
   0.66948095  0.39001106  0.42217478
   0.54282848  0.63890554  0.46164454
   0.51430375  0.46153432  0.28760086
   0.53079821  0.57682839  0.34411504
   0.68973193  0.51150314  0.46387507
   0.62662891  0.48582851  0.34790527
   0.64667650  0.60713105  0.38933330
Direct configuration=    23
   0.33466657  0.61106539  0.61238219
   0.39195363  0.50559404  0.65667621
   0.31934605  0.49856143  0.54579682
   0.45002561  0.62614009  0.66687546
   0.46606740  0.40584423  0.68699116
   0.38565526  0.39398466  0.58700342
   0.33532364  0.51228809  0.41355124
   0.31888542  0.61664666  0.48689005
   0.52500322  0.52106551  0.66565255
   0.48915452  0.31342109  0.59503710
   0.43625496  0.65242384  0.53868324
   0.33629863  0.39443544  0.46734119
   0.55569513  0.62975888  0.59410674
   0.45706466  0.35126108  0.47474226
   0.57554634  0.41004883  0.61717105
   0.42181802  0.41909887  0.37112820
   0.58285715  0.34023653  0.50481413
   0.68568919  0.41401612  0.54872177
   0.42650787  0.60950674  0.41587365
   0.40942699  0.53510104  0.30958695
   0.63179056  0.52397555  0.58774459
   0.66214463  0.62806722  0.51740502
   0.54645397  0.38000973  0.38373104
   0.66949234  0.39001133  0.42216773
   0.54283199  0.63888457  0.46165774
   0.51430915  0.46153607  0.28760239
   0.53080455  0.57679253  0.34414917
   0.68973109  0.51150794  0.46386769
   0.62665576  0.48583134  0.34789835
   0.64668420  0.60714216  0.38933374
Direct configuration=    24
   0.33468215  0.61103932  0.61240470
   0.39193460  0.50558057  0.65669445
   0.31935619  0.49857602  0.54579004
   0.45003316  0.62613680  0.66693045
   0.46607200  0.40582837  0.68697070
   0.38565505  0.39398456  0.58702960
   0.33518775  0.51231856  0.41350578
   0.31885259  0.61666209  0.48692564
   0.52498535  0.52108143  0.66559927
   0.48913718  0.31337203  0.59501423
   0.43625872  0.65234994  0.53873575
   0.33631036  0.39446562  0.46734167
   0.55571317  0.62981578  0.59414819
   0.45708969  0.35135601  0.47475577
   0.57542635  0.41009442  0.61697564
   0.42185653  0.41921965  0.37122342
   0.58291306  0.34009727  0.50476846
   0.68567023  0.41400661  0.54869133
   0.42651291  0.60937881  0.41597589
   0.40941454  0.53512600  0.30958281
   0.63173725  0.52399080  0.58760920
   0.66217668  0.62811131  0.51739016
   0.54647285  0.38006727  0.38375910
   0.66952652  0.39001217  0.42214657
   0.54284249  0.63882166  0.46169732
   0.51432532  0.46154131  0.28760695
   0.53082357  0.57668494  0.34425154
   0.68972858  0.51152235  0.46384553
   0.62673630  0.48583983  0.34787759
   0.64670731  0.60717548  0.38933506
