unknown system                          
           1
    20.941514    0.000000    0.000000
     0.000000   20.941514    0.000000
     0.000000    0.000000   20.941514
   Ag
  26
Direct configuration=     1
   0.51863939  0.33918345  0.43689738
   0.43220104  0.33226790  0.53931854
   0.44337225  0.39836064  0.64652618
   0.53639415  0.40965045  0.55290936
   0.55046902  0.47907112  0.66447640
   0.62452455  0.41965435  0.45960697
   0.64697824  0.48982323  0.57147815
   0.51198635  0.59401968  0.71307883
   0.56380256  0.40972793  0.32702964
   0.43047924  0.42741993  0.32442827
   0.38505355  0.39204124  0.43515393
   0.39933126  0.46553616  0.53710705
   0.72037459  0.51082665  0.46085138
   0.49934288  0.47265634  0.43974058
   0.41696753  0.52868315  0.64649286
   0.51380546  0.54262169  0.55208190
   0.60846081  0.52556113  0.37871036
   0.62133685  0.59654478  0.48588953
   0.60783787  0.61114530  0.61758625
   0.54810043  0.72084237  0.66079442
   0.38026009  0.52803826  0.41325189
   0.48407256  0.54292580  0.32383868
   0.39583107  0.59885358  0.52176144
   0.43629304  0.65869115  0.62731703
   0.49861129  0.61254614  0.42727029
   0.52563051  0.67926802  0.52927049
Direct configuration=     2
   0.51856055  0.33916195  0.43677573
   0.43217149  0.33202901  0.53920606
   0.44334246  0.39838151  0.64669460
   0.53639356  0.40956063  0.55301526
   0.55053202  0.47920056  0.66458426
   0.62459761  0.41963002  0.45941058
   0.64691302  0.48986113  0.57142415
   0.51211271  0.59415582  0.71309996
   0.56379622  0.40972474  0.32717137
   0.43049720  0.42731043  0.32419714
   0.38499200  0.39183845  0.43504244
   0.39930026  0.46555530  0.53714176
   0.72032206  0.51083147  0.46085640
   0.49934118  0.47260235  0.43954825
   0.41699317  0.52882090  0.64665216
   0.51384901  0.54270331  0.55203189
   0.60844476  0.52557903  0.37868372
   0.62134681  0.59652304  0.48589280
   0.60784243  0.61115167  0.61781879
   0.54805889  0.72075338  0.66077532
   0.38031994  0.52807513  0.41322579
   0.48411465  0.54286675  0.32368323
   0.39577278  0.59890682  0.52157093
   0.43639331  0.65883485  0.62744371
   0.49852715  0.61245349  0.42726971
   0.52562134  0.67944870  0.52965179
Direct configuration=     3
   0.51832400  0.33909747  0.43641078
   0.43208284  0.33131232  0.53886862
   0.44325310  0.39844411  0.64719987
   0.53639178  0.40929117  0.55333296
   0.55072103  0.47958889  0.66490783
   0.62481678  0.41955700  0.45882142
   0.64671739  0.48997483  0.57126213
   0.51249178  0.59456421  0.71316334
   0.56377721  0.40971519  0.32759657
   0.43055110  0.42698191  0.32350376
   0.38480732  0.39123006  0.43470798
   0.39920728  0.46561275  0.53724588
   0.72016447  0.51084595  0.46087146
   0.49933607  0.47244038  0.43897126
   0.41707011  0.52923415  0.64713005
   0.51397965  0.54294819  0.55188189
   0.60839660  0.52563272  0.37860378
   0.62137668  0.59645781  0.48590263
   0.60785611  0.61117079  0.61851639
   0.54793428  0.72048641  0.66071800
   0.38049950  0.52818575  0.41314748
   0.48424092  0.54268960  0.32321689
   0.39559791  0.59906653  0.52099940
   0.43669410  0.65926597  0.62782378
   0.49827472  0.61217556  0.42726799
   0.52559384  0.67999074  0.53079567
Direct configuration=     4
   0.51785091  0.33896851  0.43568089
   0.43190554  0.32987895  0.53819374
   0.44307437  0.39856932  0.64821040
   0.53638823  0.40875223  0.55396834
   0.55109904  0.48036554  0.66555497
   0.62525511  0.41941097  0.45764311
   0.64632612  0.49020222  0.57093811
   0.51324994  0.59538099  0.71329009
   0.56373920  0.40969607  0.32844696
   0.43065890  0.42632488  0.32211700
   0.38443797  0.39001329  0.43403906
   0.39902132  0.46572763  0.53745412
   0.71984928  0.51087492  0.46090156
   0.49932585  0.47211644  0.43781727
   0.41722397  0.53006064  0.64808583
   0.51424093  0.54343793  0.55158187
   0.60830028  0.52574010  0.37844391
   0.62143643  0.59632735  0.48592227
   0.60788347  0.61120903  0.61991159
   0.54768504  0.71995248  0.66060337
   0.38085861  0.52840699  0.41299088
   0.48449347  0.54233530  0.32228421
   0.39524818  0.59938597  0.51985634
   0.43729570  0.66012820  0.62858390
   0.49776987  0.61161968  0.42726455
   0.52553883  0.68107482  0.53308343
Direct configuration=     5
   0.51690472  0.33871058  0.43422110
   0.43155094  0.32701221  0.53684398
   0.44271692  0.39881972  0.65023147
   0.53638113  0.40767437  0.55523912
   0.55185506  0.48191885  0.66684925
   0.62613179  0.41911891  0.45528648
   0.64554358  0.49065700  0.57029006
   0.51476624  0.59701456  0.71354360
   0.56366316  0.40965784  0.33014775
   0.43087449  0.42501081  0.31934347
   0.38369927  0.38757975  0.43270122
   0.39864940  0.46595741  0.53787059
   0.71921892  0.51093285  0.46096178
   0.49930540  0.47146855  0.43550931
   0.41753171  0.53171363  0.64999738
   0.51476350  0.54441742  0.55098185
   0.60810765  0.52595485  0.37812417
   0.62155593  0.59606643  0.48596157
   0.60793818  0.61128551  0.62270200
   0.54718657  0.71888461  0.66037412
   0.38157684  0.52884946  0.41267766
   0.48499856  0.54162671  0.32041885
   0.39454872  0.60002483  0.51757022
   0.43849889  0.66185266  0.63010415
   0.49676017  0.61050794  0.42725766
   0.52542882  0.68324299  0.53765896
Direct configuration=     6
   0.51715894  0.33877988  0.43461332
   0.43164622  0.32778244  0.53720663
   0.44281296  0.39875244  0.64968846
   0.53638304  0.40796397  0.55489769
   0.55165193  0.48150151  0.66650151
   0.62589625  0.41919738  0.45591966
   0.64575383  0.49053481  0.57046418
   0.51435884  0.59657566  0.71347549
   0.56368359  0.40966811  0.32969079
   0.43081656  0.42536387  0.32008866
   0.38389774  0.38823359  0.43306067
   0.39874933  0.46589567  0.53775870
   0.71938828  0.51091728  0.46094560
   0.49931090  0.47164262  0.43612941
   0.41744903  0.53126951  0.64948379
   0.51462310  0.54415425  0.55114306
   0.60815940  0.52589715  0.37821008
   0.62152382  0.59613653  0.48595102
   0.60792348  0.61126496  0.62195228
   0.54732050  0.71917153  0.66043571
   0.38138387  0.52873057  0.41276181
   0.48486285  0.54181709  0.32092003
   0.39473665  0.59985318  0.51818445
   0.43817562  0.66138933  0.62969569
   0.49703146  0.61080664  0.42725951
   0.52545838  0.68266045  0.53642962
Direct configuration=     7
   0.51670046  0.33867258  0.43423050
   0.43176032  0.32720575  0.53719465
   0.44268166  0.39882837  0.64968799
   0.53627366  0.40778209  0.55491874
   0.55182532  0.48202832  0.66667744
   0.62574068  0.41886365  0.45538608
   0.64520570  0.49054835  0.57006378
   0.51479633  0.59720024  0.71409881
   0.56379481  0.40949775  0.33015720
   0.43075134  0.42479301  0.31929400
   0.38400012  0.38776933  0.43255839
   0.39898907  0.46568261  0.53775166
   0.71931907  0.51094241  0.46090141
   0.49915461  0.47117578  0.43584712
   0.41774091  0.53185047  0.64986100
   0.51452212  0.54421024  0.55082624
   0.60813037  0.52624374  0.37806151
   0.62114586  0.59647284  0.48632455
   0.60838141  0.61089755  0.62257873
   0.54773450  0.71971345  0.66110645
   0.38166240  0.52847874  0.41229669
   0.48503242  0.54154970  0.32023798
   0.39485629  0.60055553  0.51817768
   0.43739893  0.66149877  0.62995256
   0.49695702  0.61077560  0.42801779
   0.52560119  0.68272356  0.53665884
Direct configuration=     8
   0.51532500  0.33835070  0.43308206
   0.43210265  0.32547567  0.53715868
   0.44228777  0.39905615  0.64968658
   0.53594552  0.40723645  0.55498189
   0.55234548  0.48360876  0.66720524
   0.62527399  0.41786248  0.45378536
   0.64356129  0.49058897  0.56886258
   0.51610879  0.59907397  0.71596878
   0.56412846  0.40898665  0.33155646
   0.43055566  0.42308042  0.31691003
   0.38430726  0.38637656  0.43105157
   0.39970830  0.46504343  0.53773055
   0.71911141  0.51101781  0.46076884
   0.49868574  0.46977526  0.43500026
   0.41861656  0.53359334  0.65099264
   0.51421921  0.54437820  0.54987579
   0.60804326  0.52728350  0.37761583
   0.62001198  0.59748175  0.48744513
   0.60975521  0.60979530  0.62445810
   0.54897649  0.72133923  0.66311865
   0.38249800  0.52772324  0.41090130
   0.48554112  0.54074754  0.31819182
   0.39521519  0.60266259  0.51815737
   0.43506887  0.66182709  0.63072315
   0.49673372  0.61068249  0.43029263
   0.52602961  0.68291288  0.53734650
Direct configuration=     9
   0.51504146  0.33828435  0.43284532
   0.43217322  0.32511902  0.53715126
   0.44220657  0.39910311  0.64968629
   0.53587788  0.40712397  0.55499491
   0.55245270  0.48393456  0.66731405
   0.62517778  0.41765609  0.45345538
   0.64322231  0.49059735  0.56861496
   0.51637934  0.59946023  0.71635427
   0.56419724  0.40888129  0.33184490
   0.43051532  0.42272738  0.31641860
   0.38437057  0.38608945  0.43074095
   0.39985657  0.46491167  0.53772619
   0.71906861  0.51103335  0.46074151
   0.49858909  0.46948655  0.43482568
   0.41879708  0.53395262  0.65122592
   0.51415676  0.54441282  0.54967987
   0.60802531  0.52749784  0.37752396
   0.61977824  0.59768973  0.48767614
   0.61003841  0.60956808  0.62484551
   0.54923252  0.72167437  0.66353345
   0.38267026  0.52756750  0.41061365
   0.48564599  0.54058218  0.31777002
   0.39528918  0.60309695  0.51815318
   0.43458854  0.66189477  0.63088200
   0.49668769  0.61066330  0.43076158
   0.52611793  0.68295190  0.53748825
Direct configuration=    10
   0.51428319  0.33764969  0.43265095
   0.43245582  0.32492167  0.53737592
   0.44210278  0.39945211  0.64896733
   0.53565381  0.40721414  0.55468607
   0.55235607  0.48476964  0.66715263
   0.62477434  0.41736682  0.45332589
   0.64240399  0.49015583  0.56768854
   0.51656428  0.60062916  0.71714942
   0.56452687  0.40857632  0.33170471
   0.43062320  0.42212897  0.31557708
   0.38491240  0.38579090  0.43045801
   0.40063862  0.46479618  0.53749614
   0.71848968  0.51110369  0.46065426
   0.49828973  0.46924867  0.43475590
   0.41949102  0.53402924  0.65120226
   0.51362843  0.54387571  0.54966150
   0.60782754  0.52825251  0.37792581
   0.61972953  0.59822855  0.48797673
   0.61034508  0.60937814  0.62553144
   0.54939561  0.72185734  0.66412483
   0.38324637  0.52729418  0.41037094
   0.48586124  0.54030243  0.31799768
   0.39540594  0.60358128  0.51816076
   0.43437400  0.66267309  0.63147820
   0.49657329  0.60989409  0.43043748
   0.52620374  0.68279007  0.53835730
Direct configuration=    11
   0.51217092  0.33588175  0.43210953
   0.43324306  0.32437193  0.53800171
   0.44181364  0.40042431  0.64696454
   0.53502964  0.40746533  0.55382578
   0.55208687  0.48709587  0.66670300
   0.62365049  0.41656103  0.45296518
   0.64012447  0.48892592  0.56510785
   0.51707947  0.60388540  0.71936445
   0.56544507  0.40772679  0.33131421
   0.43092371  0.42046203  0.31323292
   0.38642174  0.38495925  0.42966983
   0.40281714  0.46447449  0.53685528
   0.71687700  0.51129962  0.46041121
   0.49745582  0.46858602  0.43456152
   0.42142410  0.53424266  0.65113633
   0.51215667  0.54237953  0.54961036
   0.60727663  0.53035475  0.37904523
   0.61959385  0.59972949  0.48881409
   0.61119936  0.60884905  0.62744218
   0.54984992  0.72236701  0.66577220
   0.38485119  0.52653280  0.40969484
   0.48646085  0.53952315  0.31863185
   0.39573121  0.60493045  0.51818189
   0.43377635  0.66484120  0.63313901
   0.49625461  0.60775137  0.42953465
   0.52644279  0.68233927  0.54077817
Direct configuration=    12
   0.51200501  0.33495264  0.43156065
   0.43335322  0.32396914  0.53832872
   0.44170074  0.40090718  0.64635105
   0.53485504  0.40714797  0.55328489
   0.55173991  0.48846996  0.66659626
   0.62275474  0.41600858  0.45244004
   0.63924702  0.48863308  0.56421405
   0.51672814  0.60509316  0.72012614
   0.56581442  0.40760619  0.33122425
   0.43149864  0.41991953  0.31259253
   0.38705803  0.38479899  0.42939279
   0.40315645  0.46460874  0.53589150
   0.71586533  0.51142546  0.45997934
   0.49834265  0.46740813  0.43401548
   0.42244869  0.53488934  0.65107543
   0.51235943  0.54271125  0.54934681
   0.60665816  0.53093777  0.38012027
   0.61949232  0.60078559  0.48973255
   0.61110233  0.60864998  0.62778217
   0.55002326  0.72245157  0.66625615
   0.38455400  0.52663812  0.40989638
   0.48659691  0.53843458  0.31860971
   0.39611565  0.60514588  0.51831336
   0.43379721  0.66589556  0.63413258
   0.49666983  0.60743540  0.42970971
   0.52621944  0.68103667  0.54189498
Direct configuration=    13
   0.51187809  0.33424186  0.43114074
   0.43343750  0.32366100  0.53857889
   0.44161436  0.40127659  0.64588173
   0.53472146  0.40690519  0.55287110
   0.55147447  0.48952117  0.66651461
   0.62206948  0.41558595  0.45203830
   0.63857575  0.48840905  0.56353028
   0.51645938  0.60601711  0.72070885
   0.56609698  0.40751393  0.33115543
   0.43193848  0.41950451  0.31210262
   0.38754480  0.38467638  0.42918086
   0.40341602  0.46471145  0.53515420
   0.71509139  0.51152174  0.45964895
   0.49902109  0.46650702  0.43359774
   0.42323251  0.53538405  0.65102883
   0.51251453  0.54296502  0.54914520
   0.60618501  0.53138378  0.38094269
   0.61941465  0.60159353  0.49043518
   0.61102810  0.60849769  0.62804226
   0.55015587  0.72251626  0.66662639
   0.38432665  0.52671869  0.41005057
   0.48670099  0.53760180  0.31859277
   0.39640976  0.60531068  0.51841393
   0.43381316  0.66670215  0.63489269
   0.49698748  0.60719367  0.42984363
   0.52604858  0.68004016  0.54274936
Direct configuration=    14
   0.51258570  0.33331956  0.43076681
   0.43326512  0.32334426  0.53839313
   0.44157889  0.40172603  0.64599716
   0.53452736  0.40649209  0.55303089
   0.55131293  0.48970072  0.66671454
   0.62256992  0.41492618  0.45171258
   0.63861867  0.48862508  0.56365144
   0.51592782  0.60579126  0.72103889
   0.56626506  0.40763568  0.33067052
   0.43233701  0.41909808  0.31228921
   0.38763138  0.38476507  0.42904453
   0.40299208  0.46529951  0.53465855
   0.71466438  0.51156599  0.45913898
   0.49867721  0.46634229  0.43304659
   0.42331578  0.53615880  0.65074222
   0.51314194  0.54297913  0.54842061
   0.60584274  0.53147357  0.38165567
   0.62019130  0.60227203  0.49082783
   0.61071256  0.60863825  0.62807213
   0.55054587  0.72283523  0.66654730
   0.38432036  0.52689185  0.41074529
   0.48657442  0.53695277  0.31846356
   0.39673446  0.60520937  0.51885413
   0.43328976  0.66712399  0.63535426
   0.49723381  0.60741143  0.42988280
   0.52530002  0.67938221  0.54314818
Direct configuration=    15
   0.51347085  0.33216586  0.43029906
   0.43304949  0.32294805  0.53816076
   0.44153452  0.40228824  0.64614155
   0.53428456  0.40597536  0.55323078
   0.55111085  0.48992532  0.66696464
   0.62319592  0.41410088  0.45130513
   0.63867235  0.48889532  0.56380300
   0.51526289  0.60550873  0.72145173
   0.56647530  0.40778797  0.33006394
   0.43283555  0.41858967  0.31252261
   0.38773968  0.38487601  0.42887400
   0.40246177  0.46603512  0.53403854
   0.71413023  0.51162134  0.45850106
   0.49824705  0.46613622  0.43235715
   0.42341994  0.53712794  0.65038370
   0.51392677  0.54299678  0.54751422
   0.60541459  0.53158589  0.38254754
   0.62116282  0.60312076  0.49131899
   0.61031786  0.60881407  0.62810950
   0.55103372  0.72323423  0.66644836
   0.38431250  0.52710846  0.41161431
   0.48641609  0.53614089  0.31830193
   0.39714064  0.60508265  0.51940479
   0.43263504  0.66765167  0.63593165
   0.49754194  0.60768382  0.42993180
   0.52436365  0.67855919  0.54364707
Direct configuration=    16
   0.51408775  0.33179065  0.43013433
   0.43300250  0.32301339  0.53784312
   0.44134467  0.40289056  0.64595220
   0.53436201  0.40599559  0.55302991
   0.55092619  0.48976191  0.66695597
   0.62340483  0.41356378  0.45129287
   0.63875539  0.48884778  0.56384322
   0.51488755  0.60544854  0.72157703
   0.56669327  0.40794757  0.32975791
   0.43311103  0.41792515  0.31259988
   0.38789272  0.38477041  0.42903484
   0.40225294  0.46638297  0.53425954
   0.71406220  0.51158239  0.45804064
   0.49822625  0.46538439  0.43226693
   0.42329595  0.53756974  0.64972607
   0.51455730  0.54209469  0.54681978
   0.60502084  0.53155550  0.38312558
   0.62196920  0.60386536  0.49152252
   0.60983865  0.60906560  0.62832102
   0.55118318  0.72318422  0.66625798
   0.38420116  0.52755457  0.41211321
   0.48631629  0.53606713  0.31826473
   0.39742331  0.60518517  0.52004789
   0.43207526  0.66835881  0.63659299
   0.49767683  0.60784941  0.42954826
   0.52358931  0.67830516  0.54393937
Direct configuration=    17
   0.51572949  0.33079212  0.42969595
   0.43287746  0.32318729  0.53699780
   0.44083942  0.40449350  0.64544828
   0.53456812  0.40604945  0.55249534
   0.55043476  0.48932701  0.66693291
   0.62396080  0.41213442  0.45126023
   0.63897640  0.48872127  0.56395026
   0.51388866  0.60528836  0.72191050
   0.56727337  0.40837231  0.32894348
   0.43384416  0.41615668  0.31280553
   0.38830002  0.38448938  0.42946288
   0.40169718  0.46730870  0.53484768
   0.71388113  0.51147874  0.45681535
   0.49817089  0.46338356  0.43202682
   0.42296598  0.53874551  0.64797592
   0.51623530  0.53969396  0.54497170
   0.60397296  0.53147462  0.38466393
   0.62411522  0.60584694  0.49206417
   0.60856334  0.60973497  0.62888393
   0.55158093  0.72305111  0.66575131
   0.38390483  0.52874177  0.41344092
   0.48605068  0.53587082  0.31816574
   0.39817557  0.60545802  0.52175938
   0.43058553  0.67024072  0.63835302
   0.49803579  0.60829010  0.42852753
   0.52152857  0.67762910  0.54471726
Direct configuration=    18
   0.51620344  0.33053366  0.42956716
   0.43327218  0.32370957  0.53695667
   0.44059873  0.40497562  0.64491193
   0.53474657  0.40572212  0.55228321
   0.55007700  0.48921177  0.66672539
   0.62424173  0.41175178  0.45132600
   0.63960563  0.48860472  0.56358721
   0.51340937  0.60528054  0.72181917
   0.56763557  0.40853200  0.32897078
   0.43436850  0.41541713  0.31275297
   0.38845894  0.38447053  0.42975735
   0.40144508  0.46718191  0.53487278
   0.71391775  0.51123168  0.45643275
   0.49778193  0.46255388  0.43172797
   0.42295699  0.53958550  0.64698658
   0.51701852  0.53900485  0.54362719
   0.60346679  0.53143129  0.38553064
   0.62434086  0.60668988  0.49249979
   0.60785153  0.60954130  0.62885233
   0.55133280  0.72293458  0.66570087
   0.38427825  0.52940760  0.41401781
   0.48564517  0.53564286  0.31846621
   0.39894082  0.60588028  0.52263862
   0.42983586  0.67148325  0.63964761
   0.49800822  0.60828971  0.42854132
   0.52071835  0.67689244  0.54466751
Direct configuration=    19
   0.51675587  0.33023241  0.42941705
   0.43373226  0.32431832  0.53690872
   0.44031818  0.40553756  0.64428676
   0.53495456  0.40534059  0.55203595
   0.54966000  0.48907745  0.66648351
   0.62456916  0.41130579  0.45140266
   0.64033904  0.48846887  0.56316404
   0.51285073  0.60527142  0.72171272
   0.56805773  0.40871812  0.32900261
   0.43497965  0.41455514  0.31269171
   0.38864416  0.38444856  0.43010058
   0.40115124  0.46703414  0.53490205
   0.71396043  0.51094370  0.45598680
   0.49732858  0.46158683  0.43137963
   0.42294651  0.54056457  0.64583343
   0.51793142  0.53820163  0.54206007
   0.60287681  0.53138079  0.38654085
   0.62460387  0.60767240  0.49300753
   0.60702185  0.60931555  0.62881549
   0.55104358  0.72279876  0.66564208
   0.38471349  0.53018367  0.41469023
   0.48517252  0.53537716  0.31881643
   0.39983279  0.60637245  0.52366344
   0.42896207  0.67293150  0.64115655
   0.49797608  0.60828925  0.42855740
   0.51977398  0.67603381  0.54460953
Direct configuration=    20
   0.51652375  0.33008850  0.42941072
   0.43411601  0.32430638  0.53741834
   0.44034499  0.40535605  0.64445869
   0.53572139  0.40518401  0.55227906
   0.54941790  0.48933767  0.66582745
   0.62465602  0.41148427  0.45134005
   0.64059796  0.48831684  0.56293505
   0.51272622  0.60513478  0.72158744
   0.56835833  0.40867049  0.32947781
   0.43534217  0.41437390  0.31255713
   0.38823904  0.38449147  0.42967600
   0.40113329  0.46685973  0.53426697
   0.71410890  0.51094470  0.45604456
   0.49709453  0.46170930  0.43102701
   0.42337730  0.54111746  0.64547662
   0.51801731  0.53823051  0.54159779
   0.60282888  0.53144044  0.38709178
   0.62407125  0.60736078  0.49298891
   0.60682140  0.60859261  0.62845191
   0.55054162  0.72275931  0.66569645
   0.38509491  0.53057169  0.41492891
   0.48478069  0.53510440  0.31916670
   0.40024119  0.60669698  0.52379925
   0.42882818  0.67363752  0.64155570
   0.49767067  0.60832065  0.42876965
   0.51950266  0.67586999  0.54503785
Direct configuration=    21
   0.51635640  0.32998475  0.42940615
   0.43439266  0.32429778  0.53778574
   0.44036432  0.40522519  0.64458263
   0.53627423  0.40507113  0.55245434
   0.54924336  0.48952528  0.66535448
   0.62471864  0.41161294  0.45129491
   0.64078463  0.48820723  0.56276997
   0.51263645  0.60503628  0.72149713
   0.56857505  0.40863614  0.32982039
   0.43560354  0.41424324  0.31246010
   0.38794697  0.38452241  0.42936990
   0.40112036  0.46673399  0.53380911
   0.71421594  0.51094542  0.45608621
   0.49692580  0.46179760  0.43077278
   0.42368787  0.54151607  0.64521939
   0.51807924  0.53825133  0.54126452
   0.60279432  0.53148343  0.38748897
   0.62368727  0.60713612  0.49297548
   0.60667688  0.60807141  0.62818980
   0.55017973  0.72273087  0.66573566
   0.38536989  0.53085143  0.41510098
   0.48449820  0.53490776  0.31941922
   0.40053562  0.60693095  0.52389716
   0.42873165  0.67414651  0.64184346
   0.49745050  0.60834330  0.42892268
   0.51930705  0.67575189  0.54534665
Direct configuration=    22
   0.51575874  0.33014459  0.42964108
   0.43479810  0.32449896  0.53788905
   0.44051688  0.40530889  0.64456436
   0.53672790  0.40488283  0.55277598
   0.54904654  0.48946423  0.66467525
   0.62466924  0.41176569  0.45127010
   0.64100340  0.48805464  0.56271896
   0.51279219  0.60501846  0.72153733
   0.56894027  0.40846231  0.33019335
   0.43597878  0.41387931  0.31212910
   0.38758096  0.38423505  0.42911423
   0.40153833  0.46648220  0.53384642
   0.71462452  0.51114050  0.45618586
   0.49692524  0.46146098  0.43095661
   0.42403420  0.54157754  0.64470870
   0.51774933  0.53780223  0.54108560
   0.60273466  0.53148013  0.38758480
   0.62320554  0.60684158  0.49283601
   0.60662496  0.60782140  0.62805821
   0.55003563  0.72255518  0.66592275
   0.38511348  0.53136062  0.41507971
   0.48433641  0.53507296  0.31944478
   0.40049518  0.60731587  0.52398432
   0.42836763  0.67466004  0.64198236
   0.49725091  0.60873181  0.42880611
   0.51930756  0.67594242  0.54587676
Direct configuration=    23
   0.51537668  0.33024677  0.42979127
   0.43505729  0.32462758  0.53795510
   0.44061441  0.40536239  0.64455268
   0.53701792  0.40476245  0.55298160
   0.54892071  0.48942520  0.66424104
   0.62463765  0.41186335  0.45125425
   0.64114326  0.48795710  0.56268635
   0.51289174  0.60500706  0.72156303
   0.56917374  0.40835118  0.33043177
   0.43621866  0.41364667  0.31191750
   0.38734699  0.38405135  0.42895079
   0.40180553  0.46632124  0.53387026
   0.71488571  0.51126521  0.45624956
   0.49692488  0.46124580  0.43107413
   0.42425560  0.54161684  0.64438224
   0.51753843  0.53751513  0.54097122
   0.60269652  0.53147802  0.38764606
   0.62289759  0.60665329  0.49274685
   0.60659177  0.60766158  0.62797410
   0.54994350  0.72244287  0.66604235
   0.38494957  0.53168613  0.41506611
   0.48423299  0.53517857  0.31946112
   0.40046933  0.60756193  0.52404004
   0.42813491  0.67498833  0.64207116
   0.49712332  0.60898018  0.42873160
   0.51930788  0.67606422  0.54621564
Direct configuration=    24
   0.51492228  0.33025347  0.42987786
   0.43520177  0.32483338  0.53779696
   0.44075082  0.40542179  0.64471788
   0.53740314  0.40432936  0.55325892
   0.54898729  0.48916142  0.66413002
   0.62475412  0.41197070  0.45147888
   0.64136906  0.48801609  0.56265230
   0.51298071  0.60492638  0.72149772
   0.56939232  0.40804877  0.33048542
   0.43682458  0.41331290  0.31182416
   0.38716288  0.38391965  0.42879147
   0.40203649  0.46603409  0.53368349
   0.71501981  0.51152996  0.45630284
   0.49641667  0.46119360  0.43102191
   0.42439958  0.54186031  0.64413241
   0.51731380  0.53754523  0.54054381
   0.60253128  0.53133145  0.38734934
   0.62246827  0.60659384  0.49278079
   0.60666134  0.60784742  0.62798649
   0.55017909  0.72233121  0.66648989
   0.38482191  0.53195930  0.41520826
   0.48413517  0.53523301  0.31961753
   0.40024026  0.60789101  0.52401431
   0.42769613  0.67504689  0.64217862
   0.49706940  0.60937549  0.42870557
   0.51941839  0.67599373  0.54634093
Direct configuration=    25
   0.51482276  0.33025494  0.42989683
   0.43523342  0.32487845  0.53776233
   0.44078070  0.40543480  0.64475405
   0.53748751  0.40423451  0.55331965
   0.54900187  0.48910365  0.66410571
   0.62477963  0.41199421  0.45152808
   0.64141852  0.48802901  0.56264485
   0.51300020  0.60490870  0.72148342
   0.56944019  0.40798253  0.33049717
   0.43695729  0.41323980  0.31180372
   0.38712256  0.38389081  0.42875658
   0.40208707  0.46597121  0.53364259
   0.71504918  0.51158794  0.45631451
   0.49630537  0.46118217  0.43101048
   0.42443111  0.54191364  0.64407770
   0.51726461  0.53755183  0.54045020
   0.60249509  0.53129935  0.38728435
   0.62237425  0.60658082  0.49278823
   0.60667658  0.60788812  0.62798920
   0.55023069  0.72230675  0.66658790
   0.38479396  0.53201913  0.41523940
   0.48411375  0.53524494  0.31965178
   0.40019009  0.60796308  0.52400867
   0.42760003  0.67505972  0.64220216
   0.49705759  0.60946206  0.42869987
   0.51944259  0.67597829  0.54636837
Direct configuration=    26
   0.51492545  0.33022102  0.42966527
   0.43499009  0.32495679  0.53773012
   0.44083197  0.40547078  0.64484848
   0.53774891  0.40417090  0.55340686
   0.54921358  0.48909919  0.66424488
   0.62468086  0.41208293  0.45165524
   0.64128484  0.48825602  0.56273231
   0.51296895  0.60474343  0.72131889
   0.56957174  0.40769972  0.33059507
   0.43749861  0.41300049  0.31191742
   0.38695694  0.38389903  0.42855327
   0.40205049  0.46589410  0.53363002
   0.71475097  0.51184146  0.45620489
   0.49619037  0.46122431  0.43075400
   0.42445932  0.54198497  0.64401821
   0.51737626  0.53750457  0.54033643
   0.60237836  0.53110401  0.38715976
   0.62240728  0.60658112  0.49266272
   0.60675435  0.60801663  0.62806737
   0.55033483  0.72220441  0.66683845
   0.38474827  0.53216953  0.41543747
   0.48398448  0.53521222  0.31977686
   0.39999008  0.60808795  0.52393848
   0.42767732  0.67494521  0.64222634
   0.49704335  0.60963700  0.42859957
   0.51933889  0.67595266  0.54654941
Direct configuration=    27
   0.51495988  0.33020965  0.42958764
   0.43490851  0.32498306  0.53771932
   0.44084916  0.40548284  0.64488014
   0.53783655  0.40414957  0.55343609
   0.54928455  0.48909769  0.66429154
   0.62464775  0.41211267  0.45169788
   0.64124002  0.48833213  0.56276163
   0.51295848  0.60468801  0.72126373
   0.56961585  0.40760490  0.33062789
   0.43768011  0.41292025  0.31195554
   0.38690142  0.38390179  0.42848511
   0.40203822  0.46586825  0.53362581
   0.71465098  0.51192646  0.45616814
   0.49615181  0.46123844  0.43066802
   0.42446878  0.54200889  0.64399827
   0.51741370  0.53748873  0.54029829
   0.60233922  0.53103851  0.38711799
   0.62241836  0.60658122  0.49262064
   0.60678043  0.60805972  0.62809357
   0.55036975  0.72217009  0.66692245
   0.38473295  0.53221995  0.41550387
   0.48394114  0.53520125  0.31981880
   0.39992302  0.60812981  0.52391494
   0.42770324  0.67490682  0.64223445
   0.49703858  0.60969566  0.42856595
   0.51930412  0.67594407  0.54661010
Direct configuration=    28
   0.51503864  0.33020930  0.42951016
   0.43477003  0.32525637  0.53761720
   0.44095816  0.40554583  0.64478955
   0.53761459  0.40410626  0.55346659
   0.54942366  0.48915741  0.66443414
   0.62451802  0.41218521  0.45181447
   0.64123189  0.48855794  0.56287050
   0.51292160  0.60454005  0.72126995
   0.56998166  0.40732590  0.33063089
   0.43807929  0.41259331  0.31196846
   0.38680273  0.38398040  0.42841825
   0.40202299  0.46589647  0.53369138
   0.71437198  0.51208359  0.45602163
   0.49614540  0.46111472  0.43075241
   0.42447866  0.54179151  0.64386289
   0.51737300  0.53743509  0.54025196
   0.60221041  0.53099739  0.38704403
   0.62243296  0.60674520  0.49248281
   0.60692406  0.60808208  0.62804845
   0.55039035  0.72214051  0.66705700
   0.38464671  0.53232590  0.41565936
   0.48373901  0.53527701  0.31971430
   0.39991416  0.60813241  0.52394027
   0.42786065  0.67486695  0.64227282
   0.49705793  0.60977299  0.42862755
   0.51924803  0.67584064  0.54665076
Direct configuration=    29
   0.51503934  0.33020930  0.42950947
   0.43476880  0.32525880  0.53761629
   0.44095913  0.40554639  0.64478875
   0.53761261  0.40410588  0.55346686
   0.54942490  0.48915795  0.66443541
   0.62451687  0.41218585  0.45181551
   0.64123182  0.48855995  0.56287147
   0.51292127  0.60453873  0.72127000
   0.56998492  0.40732341  0.33063092
   0.43808284  0.41259040  0.31196858
   0.38680185  0.38398110  0.42841766
   0.40202285  0.46589672  0.53369197
   0.71436950  0.51208499  0.45602033
   0.49614534  0.46111362  0.43075316
   0.42447875  0.54178958  0.64386169
   0.51737264  0.53743462  0.54025155
   0.60220926  0.53099702  0.38704337
   0.62243309  0.60674666  0.49248158
   0.60692534  0.60808228  0.62804805
   0.55039053  0.72214025  0.66705820
   0.38464594  0.53232684  0.41566074
   0.48373721  0.53527769  0.31971337
   0.39991409  0.60813244  0.52394049
   0.42786205  0.67486659  0.64227316
   0.49705810  0.60977368  0.42862810
   0.51924753  0.67583972  0.54665112
