 vasp.5.3.5 31Mar14 (build Feb 01 2018 12:10:03) gamma-only                     
  
 executed on             LinuxIFC date 2019.04.02  05:24:27
 running on   32 total cores
 distrk:  each k-point on   32 cores,    1 groups
 distr:  one band on NCORES_PER_BAND=   8 cores,    4 groups


--------------------------------------------------------------------------------------------------------


 INCAR:
 POTCAR:    PAW_PBE Cu 22Jun2005                  
 POTCAR:    PAW_PBE Cu 22Jun2005                  
   VRHFIN =Cu: d10 p1                                                           
   LEXCH  = PE                                                                  
   EATOM  =  1390.9808 eV,  102.2342 Ry                                         
                                                                                
   TITEL  = PAW_PBE Cu 22Jun2005                                                
   LULTRA =        F    use ultrasoft PP ?                                      
   IUNSCR =        1    unscreen: 0-lin 1-nonlin 2-no                           
   RPACOR =    2.000    partial core radius                                     
   POMASS =   63.546; ZVAL   =   11.000    mass and valenz                      
   RCORE  =    2.300    outmost cutoff radius                                   
   RWIGS  =    2.200; RWIGS  =    1.164    wigner-seitz radius (au A)           
   ENMAX  =  295.446; ENMIN  =  221.585 eV                                      
   ICORE  =        3    local potential                                         
   LCOR   =        T    correct aug charges                                     
   LPAW   =        T    paw PP                                                  
   EAUG   =  586.980                                                            
   DEXC   =    0.000                                                            
   RMAX   =    2.344    core radius for proj-oper                               
   RAUG   =    1.300    factor for augmentation sphere                          
   RDEP   =    2.302    radius for radial grids                                 
   RDEPT  =    1.771    core radius for aug-charge                              
                                                                                
   Atomic configuration                                                         
    9 entries                                                                   
     n  l   j            E        occ.                                          
     1  0  0.50     -8850.2468   2.0000                                         
     2  0  0.50     -1062.3498   2.0000                                         
     2  1  1.50      -916.8226   6.0000                                         
     3  0  0.50      -114.6929   2.0000                                         
     3  1  1.50       -72.1325   6.0000                                         
     3  2  2.50        -5.0394  10.0000                                         
     4  0  0.50        -4.6097   1.0000                                         
     4  1  0.50        -4.0817   0.0000                                         
     4  3  2.50        -1.3606   0.0000                                         
   Description                                                                  
     l       E           TYP  RCUT    TYP  RCUT                                 
     2     -5.0393973     23  2.200                                             
     2     10.8846608     23  2.200                                             
     0     -4.6097109     23  2.200                                             
     0      8.2520465     23  2.200                                             
     1     -2.7211652     23  2.200                                             
     1     21.7055443     23  2.200                                             
     3      2.7211652     23  2.300                                             
  local pseudopotential read in
  partial core-charges read in
  partial kinetic energy density read in
  atomic valenz-charges read in
  non local Contribution for L=           2  read in
    real space projection operators read in
  non local Contribution for L=           2  read in
    real space projection operators read in
  non local Contribution for L=           0  read in
    real space projection operators read in
  non local Contribution for L=           0  read in
    real space projection operators read in
  non local Contribution for L=           1  read in
    real space projection operators read in
  non local Contribution for L=           1  read in
    real space projection operators read in
    PAW grid and wavefunctions read in
 
   number of l-projection  operators is LMAX  =           6
   number of lm-projection operators is LMMAX =          18
 
  PAW_PBE Cu 22Jun2005                  :
 energy of atom  1       EATOM=-1390.9808
 kinetic energy error for atom=    0.0452 (will be added to EATOM!!)
 
 
 POSCAR: Au13, -989.0 <s> Cu </s>                
  positions in direct lattice
  No initial velocities read in
 exchange correlation table for  LEXCH =        8
   RHO(1)=    0.500       N(1)  =     2000
   RHO(2)=  100.500       N(2)  =     4000
 


--------------------------------------------------------------------------------------------------------


 ion  position               nearest neighbor table
   1  0.505  0.482  0.408-   4 2.31   2 2.36  10 2.38   5 2.39
   2  0.500  0.435  0.496-  11 2.35   5 2.36   1 2.36  13 2.37  10 2.39   3 2.40
   3  0.494  0.488  0.582-  13 2.32   6 2.35   5 2.37   2 2.40
   4  0.505  0.579  0.405-   9 2.29   1 2.31   5 2.35   8 2.44
   5  0.499  0.534  0.494-   6 2.34   4 2.35   2 2.36   3 2.37   1 2.39   8 2.47
   6  0.493  0.587  0.577-   7 2.30   5 2.34   3 2.35   8 2.42
   7  0.493  0.684  0.575-   6 2.30   8 2.31
   8  0.499  0.639  0.489-   9 2.29   7 2.31   6 2.42   4 2.44   5 2.47
   9  0.505  0.676  0.400-   8 2.29   4 2.29
  10  0.504  0.381  0.410-  11 2.30   1 2.38   2 2.39
  11  0.503  0.335  0.496-  12 2.28  10 2.30   2 2.35  13 2.47
  12  0.503  0.292  0.582-  11 2.28  13 2.32
  13  0.498  0.390  0.585-   3 2.32  12 2.32   2 2.37  11 2.47
 
  LATTYP: Found a simple cubic cell.
 ALAT       =    23.6663070000
  
  Lattice vectors:
  
 A1 = (  23.6663070000,   0.0000000000,   0.0000000000)
 A2 = (   0.0000000000,  23.6663070000,   0.0000000000)
 A3 = (   0.0000000000,   0.0000000000,  23.6663070000)


Analysis of symmetry for initial positions (statically):
=====================================================================
 Subroutine PRICEL returns:
 Original cell was already a primitive cell.
 

 Routine SETGRP: Setting up the symmetry group for a 
 simple cubic supercell.


 Subroutine GETGRP returns: Found  1 space group operations
 (whereof  1 operations were pure point group operations)
 out of a pool of 48 trial point group operations.


The static configuration has the point symmetry C_1 .


Analysis of symmetry for dynamics (positions and initial velocities):
=====================================================================
 Subroutine PRICEL returns:
 Original cell was already a primitive cell.
 

 Routine SETGRP: Setting up the symmetry group for a 
 simple cubic supercell.


 Subroutine GETGRP returns: Found  1 space group operations
 (whereof  1 operations were pure point group operations)
 out of a pool of 48 trial point group operations.


The dynamic configuration has the point symmetry C_1 .


Analysis of magnetic symmetry:
=====================================================================
 Subroutine PRICEL returns:
 Original cell was already a primitive cell.
 

 Subroutine MAGSYM returns: Found  1 space group operations
 (whereof  1 operations were pure point group operations)
 out of a pool of  1 trial space group operations
 (whereof  1 operations were pure point group operations)
 and found also     1 'primitive' translations


The magnetic configuration has the point symmetry C_1 .
 
 
 KPOINTS: Gamma-point only                        
  k-points in reciprocal lattice
Space group operators:
 irot       det(A)        alpha          n_x          n_y          n_z        tau_x        tau_y        tau_z
    1     1.000000     0.000000     1.000000     0.000000     0.000000     0.000000     0.000000     0.000000


--------------------------------------------------------------------------------------------------------




 Dimension of arrays:
   k-points           NKPTS =      1   k-points in BZ     NKDIM =      1   number of bands    NBANDS=     92
   number of dos      NEDOS =    301   number of ions     NIONS =     13
   non local maximal  LDIM  =      6   non local SUM 2l+1 LMDIM =     18
   total plane-waves  NPLWV = ******
   max r-space proj   IRMAX =      1   max aug-charges    IRDMAX=   2384
   dimension x,y,z NGX =   100 NGY =  100 NGZ =  100
   dimension x,y,z NGXF=   200 NGYF=  200 NGZF=  200
   support grid    NGXF=   200 NGYF=  200 NGZF=  200
   ions per type =              13
 NGX,Y,Z   is equivalent  to a cutoff of   7.02,  7.02,  7.02 a.u.
 NGXF,Y,Z  is equivalent  to a cutoff of  14.05, 14.05, 14.05 a.u.


 I would recommend the setting:
   dimension x,y,z NGX =   100 NGY =  100 NGZ =  100
 SYSTEM =  unknown system                          
 POSCAR =  Au13, -989.0 <s> Cu </s>                

 Startparameter for this run:
   NWRITE =      2    write-flag & timer
   PREC   = normal    normal or accurate (medium, high low for compatibility)
   ISTART =      0    job   : 0-new  1-cont  2-samecut
   ICHARG =      2    charge: 1-file 2-atom 10-const
   ISPIN  =      2    spin polarized calculation?
   LNONCOLLINEAR =      F non collinear calculations
   LSORBIT =      F    spin-orbit coupling
   INIWAV =      1    electr: 0-lowe 1-rand  2-diag
   LASPH  =      F    aspherical Exc in radial PAW
   METAGGA=      F    non-selfconsistent MetaGGA calc.

 Electronic Relaxation 1
   ENCUT  =  295.4 eV  21.71 Ry    4.66 a.u.  33.17 33.17 33.17*2*pi/ulx,y,z
   ENINI  =  295.4     initial cutoff
   ENAUG  =  587.0 eV  augmentation charge cutoff
   NELM   =     60;   NELMIN=  2; NELMDL= -5     # of ELM steps 
   EDIFF  = 0.1E-03   stopping-criterion for ELM
   LREAL  =      F    real-space projection
   NLSPLINE    = F    spline interpolate recip. space projectors
   LCOMPAT=      F    compatible to vasp.4.4
   GGA_COMPAT  = T    GGA compatible to vasp.4.4-vasp.4.6
   LMAXPAW     = -100 max onsite density
   LMAXMIX     =    2 max onsite mixed and CHGCAR
   VOSKOWN=      0    Vosko Wilk Nusair interpolation
   ROPT   =    0.00000
 Ionic relaxation
   EDIFFG = 0.1E-02   stopping-criterion for IOM
   NSW    =   1000    number of steps for IOM
   NBLOCK =      1;   KBLOCK =   1000    inner block; outer block 
   IBRION =      2    ionic relax: 0-MD 1-quasi-New 2-CG
   NFREE  =      1    steps in history (QN), initial steepest desc. (CG)
   ISIF   =      2    stress and relaxation
   IWAVPR =     11    prediction:  0-non 1-charg 2-wave 3-comb
   ISYM   =      2    0-nonsym 1-usesym 2-fastsym
   LCORR  =      T    Harris-Foulkes like correction to forces

   POTIM  = 0.1000    time-step for ionic-motion
   TEIN   =    0.0    initial temperature
   TEBEG  =    0.0;   TEEND  =   0.0 temperature during run
   SMASS  =  -3.00    Nose mass-parameter (am)
   estimated Nose-frequenzy (Omega)   =  0.10E-29 period in steps =****** mass=  -0.128E-25a.u.
   SCALEE = 1.0000    scale energy and forces
   NPACO  =    256;   APACO  = 16.0  distance and # of slots for P.C.
   PSTRESS=    0.0 pullay stress

  Mass of Ions in am
   POMASS =  63.55
  Ionic Valenz
   ZVAL   =  11.00
  Atomic Wigner-Seitz radii
   RWIGS  =  -1.00
  virtual crystal weights 
   VCA    =   1.00
   NELECT =     143.0000    total number of electrons
   NUPDOWN=      -1.0000    fix difference up-down

 DOS related values:
   EMIN   =  10.00;   EMAX   =-10.00  energy-range for DOS
   EFERMI =   0.00
   ISMEAR =     0;   SIGMA  =   0.00  broadening in eV -4-tet -1-fermi 0-gaus

 Electronic relaxation 2 (details)
   IALGO  =     38    algorithm
   LDIAG  =      T    sub-space diagonalisation (order eigenvalues)
   LSUBROT=      F    optimize rotation matrix (better conditioning)
   TURBO    =      0    0=normal 1=particle mesh
   IRESTART =      0    0=no restart 2=restart with 2 vectors
   NREBOOT  =      0    no. of reboots
   NMIN     =      0    reboot dimension
   EREF     =   0.00    reference energy to select bands
   IMIX   =      4    mixing-type and parameters
     AMIX     =   0.40;   BMIX     =  1.00
     AMIX_MAG =   1.60;   BMIX_MAG =  1.00
     AMIN     =   0.10
     WC   =   100.;   INIMIX=   1;  MIXPRE=   1;  MAXMIX= -45

 Intra band minimization:
   WEIMIN = 0.0010     energy-eigenvalue tresh-hold
   EBREAK =  0.27E-06  absolut break condition
   DEPER  =   0.30     relativ break condition  

   TIME   =   0.40     timestep for ELM

  volume/ion in A,a.u.               =    1019.64      6880.89
  Fermi-wavevector in a.u.,A,eV,Ry     =   0.361734  0.683579  1.780345  0.130852
  Thomas-Fermi vector in A             =   1.282474
 
 Write flags
   LWAVE  =      F    write WAVECAR
   LCHARG =      F    write CHGCAR
   LVTOT  =      F    write LOCPOT, total local potential
   LVHAR  =      F    write LOCPOT, Hartree potential only
   LELF   =      F    write electronic localiz. function (ELF)
   LORBIT =      0    0 simple, 1 ext, 2 COOP (PROOUT)


 Dipole corrections
   LMONO  =      F    monopole corrections only (constant potential shift)
   LDIPOL =      F    correct potential (dipole corrections)
   IDIPOL =      0    1-x, 2-y, 3-z, 4-all directions 
   EPSILON=  1.0000000 bulk dielectric constant

 Exchange correlation treatment:
   GGA     =    PE    GGA type
   LEXCH   =     8    internal setting for exchange type
   VOSKOWN=      0    Vosko Wilk Nusair interpolation
   LHFCALC =     F    Hartree Fock is set to
   LHFONE  =     F    Hartree Fock one center treatment
   AEXX    =    0.0000 exact exchange contribution

 Linear response parameters
   LEPSILON=     F    determine dielectric tensor
   LRPA    =     F    only Hartree local field effects (RPA)
   LNABLA  =     F    use nabla operator in PAW spheres
   LVEL    =     F    velocity operator in full k-point grid
   LINTERFAST=   F  fast interpolation
   KINTER  =     0    interpolate to denser k-point grid
   CSHIFT  =0.1000    complex shift for real part using Kramers Kronig
   OMEGAMAX=  -1.0    maximum frequency
   DEG_THRESHOLD= 0.2000000E-02 threshold for treating states as degnerate
   RTIME   =    0.100 relaxation time in fs

 Orbital magnetization related:
   ORBITALMAG=     F  switch on orbital magnetization
   LCHIMAG   =     F  perturbation theory with respect to B field
   DQ        =  0.001000  dq finite difference perturbation B field



--------------------------------------------------------------------------------------------------------


 conjugate gradient relaxation of ions
 charge density and potential will be updated during run
 spin polarized calculation
 Variant of blocked Davidson
 Davidson routine will perform the subspace rotation
 perform sub-space diagonalisation
    after iterative eigenvector-optimisation
 modified Broyden-mixing scheme, WC =      100.0
 initial mixing is a Kerker type mixing with AMIX =  0.4000 and BMIX =      1.0000
 Hartree-type preconditioning will be used
 using additional bands           20
 reciprocal scheme for non local part
 use partial core corrections
 calculate Harris-corrections to forces 
   (improved forces if not selfconsistent)
 use gradient corrections 
 use of overlap-Matrix (Vanderbilt PP)
 Gauss-broadening in eV      SIGMA  =   0.00


--------------------------------------------------------------------------------------------------------


  energy-cutoff  :      295.45
  volume of cell :    13255.36
      direct lattice vectors                 reciprocal lattice vectors
    23.666307000  0.000000000  0.000000000     0.042254163  0.000000000  0.000000000
     0.000000000 23.666307000  0.000000000     0.000000000  0.042254163  0.000000000
     0.000000000  0.000000000 23.666307000     0.000000000  0.000000000  0.042254163

  length of vectors
    23.666307000 23.666307000 23.666307000     0.042254163  0.042254163  0.042254163


 
 k-points in units of 2pi/SCALE and weight: Gamma-point only                        
   0.00000000  0.00000000  0.00000000       1.000
 
 k-points in reciprocal lattice and weights: Gamma-point only                        
   0.00000000  0.00000000  0.00000000       1.000
 
 position of ions in fractional coordinates (direct lattice) 
   0.50455574  0.48173714  0.40775385
   0.49963623  0.43474255  0.49577917
   0.49406578  0.48763211  0.58217677
   0.50462075  0.57915375  0.40548699
   0.49861354  0.53427633  0.49375837
   0.49325336  0.58661808  0.57735575
   0.49338144  0.68369116  0.57547436
   0.49909460  0.63852710  0.48934032
   0.50530032  0.67583633  0.40023972
   0.50386500  0.38118034  0.41007877
   0.50328338  0.33531044  0.49591578
   0.50273260  0.29167152  0.58160463
   0.49759728  0.38962315  0.58503553
 
 position of ions in cartesian coordinates  (Angst):
  11.94097099 11.40093897  9.65002771
  11.82454435 10.28875071 11.73326194
  11.69271252 11.54045123 13.77797405
  11.94250969 13.70643046  9.59637959
  11.80034103 12.64434759 11.68543720
  11.67348537 13.88308359 13.66387850
  11.67651666 16.18044497 13.61935294
  11.81172597 15.11157846 11.58087824
  11.95859247 15.99455011  9.47219598
  11.92462379  9.02113094  9.70505013
  11.91085905  7.93555973 11.73649503
  11.89782408  6.90278771 13.76443372
  11.77628992  9.22094102 13.84563046
 


--------------------------------------------------------------------------------------------------------


 use parallel FFT for wavefunctions z direction half grid
 k-point  1 :   0.0000 0.0000 0.0000  plane waves:   76418

 maximum and minimum number of plane-waves per node :      9554     9550

 maximum number of plane-waves:     76418
 maximum index in each direction: 
   IXMAX=   33   IYMAX=   33   IZMAX=   33
   IXMIN=  -33   IYMIN=  -33   IZMIN=    0

 WARNING: aliasing errors must be expected set NGX to 134 to avoid them
 WARNING: aliasing errors must be expected set NGY to 134 to avoid them
 WARNING: aliasing errors must be expected set NGZ to 134 to avoid them
 aliasing errors are usually negligible using standard VASP settings
 and one can safely disregard these warnings

 parallel 3D FFT for wavefunctions:
    minimum data exchange during FFTs selected (reduces bandwidth)
 parallel 3D FFT for charge:
    minimum data exchange during FFTs selected (reduces bandwidth)


 total amount of memory used by VASP on root node    83265. kBytes
========================================================================

   base      :      30000. kBytes
   nonl-proj :       3362. kBytes
   fftplans  :      12071. kBytes
   grid      :      30758. kBytes
   one-center:         31. kBytes
   wavefun   :       7043. kBytes
 
     INWAV:  cpu time    0.00: real time    0.00
 Broyden mixing: mesh for mixing (old mesh)
   NGX = 67   NGY = 67   NGZ = 67
  (NGX  =200   NGY  =200   NGZ  =200)
  gives a total of 300763 points

 initial charge density was supplied:
 charge density of overlapping atoms calculated
 number of electron     143.0000000 magnetization      13.0000000
 keeping initial charge density in first step


--------------------------------------------------------------------------------------------------------


 Maximum index for augmentation-charges          178 (set IRDMAX)


--------------------------------------------------------------------------------------------------------


 First call to EWALD:  gamma=   0.075
 Maximum number of real-space cells 3x 3x 3
 Maximum number of reciprocal cells 3x 3x 3

 FEWALD executed in parallel
    FEWALD:  cpu time    0.00: real time    0.00


----------------------------------------- Iteration    1(   1)  ---------------------------------------


    POTLOK:  cpu time    0.51: real time    0.51
    SETDIJ:  cpu time    0.01: real time    0.01
     EDDAV:  cpu time    2.12: real time    2.12
       DOS:  cpu time    0.00: real time    0.00
    --------------------------------------------
      LOOP:  cpu time    2.64: real time    2.76

 eigenvalue-minimisations  :   368
 total energy-change (2. order) : 0.9543323E+03  (-0.2106097E+04)
 number of electron     143.0000000 magnetization      13.0000000
 augmentation part      143.0000000 magnetization      13.0000000

 Free energy of the ion-electron system (eV)
  ---------------------------------------------------
  alpha Z        PSCENC =         9.32411124
  Ewald energy   TEWEN  =     18977.92588230
  -Hartree energ DENC   =    -35449.03109174
  -exchange      EXHF   =         0.00000000
  -V(xc)+E(xc)   XCENC  =       582.77682648
  PAW double counting   =     15965.26744864   -17340.97210982
  entropy T*S    EENTRO =         0.00000000
  eigenvalues    EBANDS =       126.87861090
  atomic energy  EATOM  =     18082.16260055
  ---------------------------------------------------
  free energy    TOTEN  =       954.33227854 eV

  energy without entropy =      954.33227854  energy(sigma->0) =      954.33227854


--------------------------------------------------------------------------------------------------------




----------------------------------------- Iteration    1(   2)  ---------------------------------------


     EDDAV:  cpu time    2.48: real time    2.48
       DOS:  cpu time    0.00: real time    0.00
    --------------------------------------------
      LOOP:  cpu time    2.48: real time    2.49

 eigenvalue-minimisations  :   448
 total energy-change (2. order) :-0.6755142E+03  (-0.5625102E+03)
 number of electron     143.0000000 magnetization      13.0000000
 augmentation part      143.0000000 magnetization      13.0000000

 Free energy of the ion-electron system (eV)
  ---------------------------------------------------
  alpha Z        PSCENC =         9.32411124
  Ewald energy   TEWEN  =     18977.92588230
  -Hartree energ DENC   =    -35449.03109174
  -exchange      EXHF   =         0.00000000
  -V(xc)+E(xc)   XCENC  =       582.77682648
  PAW double counting   =     15965.26744864   -17340.97210982
  entropy T*S    EENTRO =         0.00000000
  eigenvalues    EBANDS =      -548.63559638
  atomic energy  EATOM  =     18082.16260055
  ---------------------------------------------------
  free energy    TOTEN  =       278.81807126 eV

  energy without entropy =      278.81807126  energy(sigma->0) =      278.81807126


--------------------------------------------------------------------------------------------------------




----------------------------------------- Iteration    1(   3)  ---------------------------------------


     EDDAV:  cpu time    2.51: real time    2.52
       DOS:  cpu time    0.00: real time    0.00
    --------------------------------------------
      LOOP:  cpu time    2.52: real time    2.52

 eigenvalue-minimisations  :   456
 total energy-change (2. order) :-0.2630327E+03  (-0.2489446E+03)
 number of electron     143.0000000 magnetization      13.0000000
 augmentation part      143.0000000 magnetization      13.0000000

 Free energy of the ion-electron system (eV)
  ---------------------------------------------------
  alpha Z        PSCENC =         9.32411124
  Ewald energy   TEWEN  =     18977.92588230
  -Hartree energ DENC   =    -35449.03109174
  -exchange      EXHF   =         0.00000000
  -V(xc)+E(xc)   XCENC  =       582.77682648
  PAW double counting   =     15965.26744864   -17340.97210982
  entropy T*S    EENTRO =         0.00000000
  eigenvalues    EBANDS =      -811.66834123
  atomic energy  EATOM  =     18082.16260055
  ---------------------------------------------------
  free energy    TOTEN  =        15.78532642 eV

  energy without entropy =       15.78532642  energy(sigma->0) =       15.78532642


--------------------------------------------------------------------------------------------------------




----------------------------------------- Iteration    1(   4)  ---------------------------------------


     EDDAV:  cpu time    2.55: real time    2.55
       DOS:  cpu time    0.00: real time    0.00
    --------------------------------------------
      LOOP:  cpu time    2.55: real time    3.32

 eigenvalue-minimisations  :   464
 total energy-change (2. order) :-0.4712516E+02  (-0.4337673E+02)
 number of electron     143.0000000 magnetization      13.0000000
 augmentation part      143.0000000 magnetization      13.0000000

 Free energy of the ion-electron system (eV)
  ---------------------------------------------------
  alpha Z        PSCENC =         9.32411124
  Ewald energy   TEWEN  =     18977.92588230
  -Hartree energ DENC   =    -35449.03109174
  -exchange      EXHF   =         0.00000000
  -V(xc)+E(xc)   XCENC  =       582.77682648
  PAW double counting   =     15965.26744864   -17340.97210982
  entropy T*S    EENTRO =         0.00000000
  eigenvalues    EBANDS =      -858.79349966
  atomic energy  EATOM  =     18082.16260055
  ---------------------------------------------------
  free energy    TOTEN  =       -31.33983202 eV

  energy without entropy =      -31.33983202  energy(sigma->0) =      -31.33983202


--------------------------------------------------------------------------------------------------------




----------------------------------------- Iteration    1(   5)  ---------------------------------------


     EDDAV:  cpu time    2.48: real time    2.47
       DOS:  cpu time    0.00: real time    0.00
    CHARGE:  cpu time    0.16: real time    0.16
    MIXING:  cpu time    0.01: real time    0.01
    --------------------------------------------
      LOOP:  cpu time    2.65: real time    3.25

 eigenvalue-minimisations  :   464
 total energy-change (2. order) :-0.2296907E+01  (-0.2269748E+01)
 number of electron     143.0000115 magnetization      11.7357899
 augmentation part       87.3038260 magnetization      12.2193600

 Broyden mixing:
  rms(total) = 0.28595E+01    rms(broyden)= 0.28581E+01
  rms(prec ) = 0.29290E+01
  weight for this iteration     100.00

 Free energy of the ion-electron system (eV)
  ---------------------------------------------------
  alpha Z        PSCENC =         9.32411124
  Ewald energy   TEWEN  =     18977.92588230
  -Hartree energ DENC   =    -35449.03109174
  -exchange      EXHF   =         0.00000000
  -V(xc)+E(xc)   XCENC  =       582.77682648
  PAW double counting   =     15965.26744864   -17340.97210982
  entropy T*S    EENTRO =         0.00000000
  eigenvalues    EBANDS =      -861.09040640
  atomic energy  EATOM  =     18082.16260055
  ---------------------------------------------------
  free energy    TOTEN  =       -33.63673876 eV

  energy without entropy =      -33.63673876  energy(sigma->0) =      -33.63673876


--------------------------------------------------------------------------------------------------------




----------------------------------------- Iteration    1(   6)  ---------------------------------------


    POTLOK:  cpu time    0.50: real time    0.50
    SETDIJ:  cpu time    0.01: real time    0.01
     EDDAV:  cpu time    2.24: real time    2.24
       DOS:  cpu time    0.00: real time    0.00
    CHARGE:  cpu time    0.16: real time    0.16
    MIXING:  cpu time    0.01: real time    0.01
    --------------------------------------------
      LOOP:  cpu time    2.93: real time    2.93

 eigenvalue-minimisations  :   392
 total energy-change (2. order) : 0.2247962E+02  (-0.1406973E+02)
 number of electron     143.0000131 magnetization      11.0605487
 augmentation part       95.0232079 magnetization       6.8547994

 Broyden mixing:
  rms(total) = 0.12612E+01    rms(broyden)= 0.12604E+01
  rms(prec ) = 0.13355E+01
  weight for this iteration     100.00

 eigenvalues of (default mixing * dielectric matrix)
  average eigenvalue GAMMA=   0.8287
  0.8287

 Free energy of the ion-electron system (eV)
  ---------------------------------------------------
  alpha Z        PSCENC =         9.32411124
  Ewald energy   TEWEN  =     18977.92588230
  -Hartree energ DENC   =    -35226.04197475
  -exchange      EXHF   =         0.00000000
  -V(xc)+E(xc)   XCENC  =       586.92373610
  PAW double counting   =     16172.07035314   -17504.63415608
  entropy T*S    EENTRO =         0.00000000
  eigenvalues    EBANDS =     -1108.88766649
  atomic energy  EATOM  =     18082.16260055
  ---------------------------------------------------
  free energy    TOTEN  =       -11.15711398 eV

  energy without entropy =      -11.15711398  energy(sigma->0) =      -11.15711398


--------------------------------------------------------------------------------------------------------




----------------------------------------- Iteration    1(   7)  ---------------------------------------


    POTLOK:  cpu time    0.50: real time    0.50
    SETDIJ:  cpu time    0.01: real time    0.01
     EDDAV:  cpu time    2.44: real time    2.44
       DOS:  cpu time    0.00: real time    0.00
    CHARGE:  cpu time    0.16: real time    0.16
    MIXING:  cpu time    0.01: real time    0.01
    --------------------------------------------
      LOOP:  cpu time    3.13: real time    3.14

 eigenvalue-minimisations  :   440
 total energy-change (2. order) : 0.2861312E+01  (-0.3473891E+01)
 number of electron     143.0000124 magnetization      10.2707698
 augmentation part       91.8011874 magnetization       6.1354514

 Broyden mixing:
  rms(total) = 0.49375E+00    rms(broyden)= 0.49308E+00
  rms(prec ) = 0.51422E+00
  weight for this iteration     100.00

 eigenvalues of (default mixing * dielectric matrix)
  average eigenvalue GAMMA=   0.8075
  0.6221  0.9930

 Free energy of the ion-electron system (eV)
  ---------------------------------------------------
  alpha Z        PSCENC =         9.32411124
  Ewald energy   TEWEN  =     18977.92588230
  -Hartree energ DENC   =    -35390.57264439
  -exchange      EXHF   =         0.00000000
  -V(xc)+E(xc)   XCENC  =       592.94594289
  PAW double counting   =     16513.94956708   -17900.97457429
  entropy T*S    EENTRO =         0.00000000
  eigenvalues    EBANDS =      -893.05668728
  atomic energy  EATOM  =     18082.16260055
  ---------------------------------------------------
  free energy    TOTEN  =        -8.29580190 eV

  energy without entropy =       -8.29580190  energy(sigma->0) =       -8.29580190


--------------------------------------------------------------------------------------------------------




----------------------------------------- Iteration    1(   8)  ---------------------------------------


    POTLOK:  cpu time    0.50: real time    0.50
    SETDIJ:  cpu time    0.01: real time    0.01
     EDDAV:  cpu time    2.47: real time    2.47
       DOS:  cpu time    0.00: real time    0.00
    CHARGE:  cpu time    0.16: real time    0.16
    MIXING:  cpu time    0.01: real time    0.01
    --------------------------------------------
      LOOP:  cpu time    3.17: real time    3.21

 eigenvalue-minimisations  :   448
 total energy-change (2. order) :-0.1117661E+01  (-0.6242485E+00)
 number of electron     143.0000124 magnetization       9.7051904
 augmentation part       91.3441513 magnetization       5.5656306

 Broyden mixing:
  rms(total) = 0.41743E+00    rms(broyden)= 0.41727E+00
  rms(prec ) = 0.43595E+00
  weight for this iteration     100.00

 eigenvalues of (default mixing * dielectric matrix)
  average eigenvalue GAMMA=   0.7597
  1.0770  0.6011  0.6011

 Free energy of the ion-electron system (eV)
  ---------------------------------------------------
  alpha Z        PSCENC =         9.32411124
  Ewald energy   TEWEN  =     18977.92588230
  -Hartree energ DENC   =    -35415.57115484
  -exchange      EXHF   =         0.00000000
  -V(xc)+E(xc)   XCENC  =       592.22011613
  PAW double counting   =     16729.89556676   -18125.66576770
  entropy T*S    EENTRO =         0.00000000
  eigenvalues    EBANDS =      -859.70481742
  atomic energy  EATOM  =     18082.16260055
  ---------------------------------------------------
  free energy    TOTEN  =        -9.41346298 eV

  energy without entropy =       -9.41346298  energy(sigma->0) =       -9.41346298


--------------------------------------------------------------------------------------------------------




----------------------------------------- Iteration    1(   9)  ---------------------------------------


    POTLOK:  cpu time    0.50: real time    0.50
    SETDIJ:  cpu time    0.01: real time    0.01
     EDDAV:  cpu time    2.61: real time    2.61
       DOS:  cpu time    0.00: real time    0.00
    CHARGE:  cpu time    0.16: real time    0.16
    MIXING:  cpu time    0.01: real time    0.01
    --------------------------------------------
      LOOP:  cpu time    3.30: real time    3.31

 eigenvalue-minimisations  :   480
 total energy-change (2. order) :-0.1704200E+01  (-0.1407203E+00)
 number of electron     143.0000124 magnetization       8.4601483
 augmentation part       91.3140708 magnetization       4.4536093

 Broyden mixing:
  rms(total) = 0.29320E+00    rms(broyden)= 0.29313E+00
  rms(prec ) = 0.30219E+00
  weight for this iteration     100.00

 eigenvalues of (default mixing * dielectric matrix)
  average eigenvalue GAMMA=   0.9772
  1.3423  1.3423  0.4855  0.7388

 Free energy of the ion-electron system (eV)
  ---------------------------------------------------
  alpha Z        PSCENC =         9.32411124
  Ewald energy   TEWEN  =     18977.92588230
  -Hartree energ DENC   =    -35419.32685970
  -exchange      EXHF   =         0.00000000
  -V(xc)+E(xc)   XCENC  =       590.36554637
  PAW double counting   =     16822.38999473   -18218.83463665
  entropy T*S    EENTRO =        -0.00000000
  eigenvalues    EBANDS =      -855.12430192
  atomic energy  EATOM  =     18082.16260055
  ---------------------------------------------------
  free energy    TOTEN  =       -11.11766307 eV

  energy without entropy =      -11.11766307  energy(sigma->0) =      -11.11766307


--------------------------------------------------------------------------------------------------------




----------------------------------------- Iteration    1(  10)  ---------------------------------------


    POTLOK:  cpu time    0.50: real time    0.50
    SETDIJ:  cpu time    0.01: real time    0.01
     EDDAV:  cpu time    2.56: real time    2.56
       DOS:  cpu time    0.00: real time    0.00
    CHARGE:  cpu time    0.16: real time    0.16
    MIXING:  cpu time    0.02: real time    0.02
    --------------------------------------------
      LOOP:  cpu time    3.26: real time    3.26

 eigenvalue-minimisations  :   468
 total energy-change (2. order) :-0.5710067E+01  (-0.3388922E+00)
 number of electron     143.0000125 magnetization       8.0222657
 augmentation part       91.9765847 magnetization       6.1212997

 Broyden mixing:
  rms(total) = 0.32431E+00    rms(broyden)= 0.32301E+00
  rms(prec ) = 0.33790E+00
  weight for this iteration     100.00

 eigenvalues of (default mixing * dielectric matrix)
  average eigenvalue GAMMA=   0.8716
  1.4288  1.4288  0.7254  0.4977  0.2774

 Free energy of the ion-electron system (eV)
  ---------------------------------------------------
  alpha Z        PSCENC =         9.32411124
  Ewald energy   TEWEN  =     18977.92588230
  -Hartree energ DENC   =    -35408.65556043
  -exchange      EXHF   =         0.00000000
  -V(xc)+E(xc)   XCENC  =       584.90763045
  PAW double counting   =     16900.09947054   -18291.39879446
  entropy T*S    EENTRO =         0.00000000
  eigenvalues    EBANDS =      -871.19307009
  atomic energy  EATOM  =     18082.16260055
  ---------------------------------------------------
  free energy    TOTEN  =       -16.82772989 eV

  energy without entropy =      -16.82772989  energy(sigma->0) =      -16.82772989


--------------------------------------------------------------------------------------------------------




----------------------------------------- Iteration    1(  11)  ---------------------------------------


    POTLOK:  cpu time    0.50: real time    0.50
    SETDIJ:  cpu time    0.01: real time    0.01
     EDDAV:  cpu time    2.55: real time    2.55
       DOS:  cpu time    0.00: real time    0.00
    CHARGE:  cpu time    0.16: real time    0.16
    MIXING:  cpu time    0.02: real time    0.02
    --------------------------------------------
      LOOP:  cpu time    3.24: real time    3.25

 eigenvalue-minimisations  :   464
 total energy-change (2. order) :-0.3543400E+00  (-0.3906422E-01)
 number of electron     143.0000125 magnetization       7.4827405
 augmentation part       91.9842791 magnetization       5.6435123

 Broyden mixing:
  rms(total) = 0.26107E+00    rms(broyden)= 0.26098E+00
  rms(prec ) = 0.27207E+00
  weight for this iteration     100.00

 eigenvalues of (default mixing * dielectric matrix)
  average eigenvalue GAMMA=   0.9001
  1.7583  1.2881  0.6057  0.6057  0.6441  0.4988

 Free energy of the ion-electron system (eV)
  ---------------------------------------------------
  alpha Z        PSCENC =         9.32411124
  Ewald energy   TEWEN  =     18977.92588230
  -Hartree energ DENC   =    -35416.84763498
  -exchange      EXHF   =         0.00000000
  -V(xc)+E(xc)   XCENC  =       584.77892320
  PAW double counting   =     16935.95833237   -18328.69462530
  entropy T*S    EENTRO =         0.00000000
  eigenvalues    EBANDS =      -861.78965928
  atomic energy  EATOM  =     18082.16260055
  ---------------------------------------------------
  free energy    TOTEN  =       -17.18206990 eV

  energy without entropy =      -17.18206990  energy(sigma->0) =      -17.18206990


--------------------------------------------------------------------------------------------------------




----------------------------------------- Iteration    1(  12)  ---------------------------------------


    POTLOK:  cpu time    0.50: real time    0.50
    SETDIJ:  cpu time    0.01: real time    0.01
     EDDAV:  cpu time    2.68: real time    2.68
       DOS:  cpu time    0.00: real time    0.00
    CHARGE:  cpu time    0.16: real time    0.16
    MIXING:  cpu time    0.02: real time    0.02
    --------------------------------------------
      LOOP:  cpu time    3.38: real time    3.38

 eigenvalue-minimisations  :   496
 total energy-change (2. order) :-0.9739098E+00  (-0.2854174E-01)
 number of electron     143.0000124 magnetization       5.6460220
 augmentation part       91.7961441 magnetization       3.8743324

 Broyden mixing:
  rms(total) = 0.20498E+00    rms(broyden)= 0.20496E+00
  rms(prec ) = 0.21208E+00
  weight for this iteration     100.00

 eigenvalues of (default mixing * dielectric matrix)
  average eigenvalue GAMMA=   1.0759
  2.5783  1.7176  0.7992  0.7992  0.7135  0.5064  0.4172

 Free energy of the ion-electron system (eV)
  ---------------------------------------------------
  alpha Z        PSCENC =         9.32411124
  Ewald energy   TEWEN  =     18977.92588230
  -Hartree energ DENC   =    -35429.81117638
  -exchange      EXHF   =         0.00000000
  -V(xc)+E(xc)   XCENC  =       584.37601973
  PAW double counting   =     16957.05358401   -18352.45034709
  entropy T*S    EENTRO =         0.00000000
  eigenvalues    EBANDS =      -846.73665404
  atomic energy  EATOM  =     18082.16260055
  ---------------------------------------------------
  free energy    TOTEN  =       -18.15597968 eV

  energy without entropy =      -18.15597968  energy(sigma->0) =      -18.15597968


--------------------------------------------------------------------------------------------------------




----------------------------------------- Iteration    1(  13)  ---------------------------------------


    POTLOK:  cpu time    0.50: real time    0.50
    SETDIJ:  cpu time    0.01: real time    0.01
     EDDAV:  cpu time    2.96: real time    2.96
       DOS:  cpu time    0.00: real time    0.00
    CHARGE:  cpu time    0.16: real time    0.16
    MIXING:  cpu time    0.02: real time    0.02
    --------------------------------------------
      LOOP:  cpu time    3.65: real time    3.66

 eigenvalue-minimisations  :   560
 total energy-change (2. order) :-0.4135022E+01  (-0.1716165E+00)
 number of electron     143.0000124 magnetization       4.9134888
 augmentation part       91.5523744 magnetization       3.4283898

 Broyden mixing:
  rms(total) = 0.12229E+00    rms(broyden)= 0.12216E+00
  rms(prec ) = 0.12521E+00
  weight for this iteration     100.00

 eigenvalues of (default mixing * dielectric matrix)
  average eigenvalue GAMMA=   1.1263
  2.8423  2.0253  0.9244  0.9244  0.7218  0.6429  0.4155  0.5140

 Free energy of the ion-electron system (eV)
  ---------------------------------------------------
  alpha Z        PSCENC =         9.32411124
  Ewald energy   TEWEN  =     18977.92588230
  -Hartree energ DENC   =    -35447.90752338
  -exchange      EXHF   =         0.00000000
  -V(xc)+E(xc)   XCENC  =       581.47665473
  PAW double counting   =     16953.62434634   -18351.07912750
  entropy T*S    EENTRO =         0.00000000
  eigenvalues    EBANDS =      -827.81794557
  atomic energy  EATOM  =     18082.16260055
  ---------------------------------------------------
  free energy    TOTEN  =       -22.29100129 eV

  energy without entropy =      -22.29100129  energy(sigma->0) =      -22.29100129


--------------------------------------------------------------------------------------------------------




----------------------------------------- Iteration    1(  14)  ---------------------------------------


    POTLOK:  cpu time    0.51: real time    0.51
    SETDIJ:  cpu time    0.01: real time    0.01
     EDDAV:  cpu time    2.58: real time    2.59
       DOS:  cpu time    0.00: real time    0.00
    CHARGE:  cpu time    0.16: real time    0.16
    MIXING:  cpu time    0.02: real time    0.02
    --------------------------------------------
      LOOP:  cpu time    3.28: real time    3.29

 eigenvalue-minimisations  :   472
 total energy-change (2. order) :-0.2395253E+01  (-0.7017771E-01)
 number of electron     143.0000124 magnetization       4.0599435
 augmentation part       91.7293021 magnetization       2.7530015

 Broyden mixing:
  rms(total) = 0.10864E+00    rms(broyden)= 0.10860E+00
  rms(prec ) = 0.11095E+00
  weight for this iteration     100.00

 eigenvalues of (default mixing * dielectric matrix)
  average eigenvalue GAMMA=   1.1677
  2.8170  2.8170  0.9748  0.9748  0.7559  0.7559  0.5198  0.4816  0.4121

 Free energy of the ion-electron system (eV)
  ---------------------------------------------------
  alpha Z        PSCENC =         9.32411124
  Ewald energy   TEWEN  =     18977.92588230
  -Hartree energ DENC   =    -35437.24743593
  -exchange      EXHF   =         0.00000000
  -V(xc)+E(xc)   XCENC  =       579.12366476
  PAW double counting   =     16918.64926836   -18312.81985214
  entropy T*S    EENTRO =         0.00000000
  eigenvalues    EBANDS =      -841.80449388
  atomic energy  EATOM  =     18082.16260055
  ---------------------------------------------------
  free energy    TOTEN  =       -24.68625474 eV

  energy without entropy =      -24.68625474  energy(sigma->0) =      -24.68625474


--------------------------------------------------------------------------------------------------------




----------------------------------------- Iteration    1(  15)  ---------------------------------------


    POTLOK:  cpu time    0.50: real time    0.50
    SETDIJ:  cpu time    0.01: real time    0.01
     EDDAV:  cpu time    2.59: real time    2.59
       DOS:  cpu time    0.00: real time    0.00
    CHARGE:  cpu time    0.16: real time    0.16
    MIXING:  cpu time    0.02: real time    0.02
    --------------------------------------------
      LOOP:  cpu time    3.29: real time    3.32

 eigenvalue-minimisations  :   472
 total energy-change (2. order) :-0.1741499E+01  (-0.4805963E-01)
 number of electron     143.0000124 magnetization       3.1383967
 augmentation part       91.7322584 magnetization       1.9650120

 Broyden mixing:
  rms(total) = 0.78810E-01    rms(broyden)= 0.78788E-01
  rms(prec ) = 0.80477E-01
  weight for this iteration     100.00

 eigenvalues of (default mixing * dielectric matrix)
  average eigenvalue GAMMA=   1.2545
  3.3625  3.3625  1.0307  1.0307  0.8682  0.8682  0.6179  0.4903  0.4903  0.4239

 Free energy of the ion-electron system (eV)
  ---------------------------------------------------
  alpha Z        PSCENC =         9.32411124
  Ewald energy   TEWEN  =     18977.92588230
  -Hartree energ DENC   =    -35435.83706506
  -exchange      EXHF   =         0.00000000
  -V(xc)+E(xc)   XCENC  =       577.68518409
  PAW double counting   =     16889.49412601   -18283.28788503
  entropy T*S    EENTRO =         0.00000000
  eigenvalues    EBANDS =      -843.89470807
  atomic energy  EATOM  =     18082.16260055
  ---------------------------------------------------
  free energy    TOTEN  =       -26.42775398 eV

  energy without entropy =      -26.42775398  energy(sigma->0) =      -26.42775398


--------------------------------------------------------------------------------------------------------




----------------------------------------- Iteration    1(  16)  ---------------------------------------


    POTLOK:  cpu time    0.51: real time    0.51
    SETDIJ:  cpu time    0.01: real time    0.01
     EDDAV:  cpu time    2.68: real time    2.68
       DOS:  cpu time    0.00: real time    0.00
    CHARGE:  cpu time    0.16: real time    0.16
    MIXING:  cpu time    0.02: real time    0.02
    --------------------------------------------
      LOOP:  cpu time    3.38: real time    3.41

 eigenvalue-minimisations  :   496
 total energy-change (2. order) :-0.1286853E+01  (-0.3198029E-01)
 number of electron     143.0000124 magnetization       2.2675016
 augmentation part       91.6807585 magnetization       1.1991750

 Broyden mixing:
  rms(total) = 0.51977E-01    rms(broyden)= 0.51952E-01
  rms(prec ) = 0.53465E-01
  weight for this iteration     100.00

 eigenvalues of (default mixing * dielectric matrix)
  average eigenvalue GAMMA=   1.3866
  5.4218  2.6084  1.7918  0.9356  0.9356  0.7828  0.7828  0.6167  0.4227  0.4773
  0.4773

 Free energy of the ion-electron system (eV)
  ---------------------------------------------------
  alpha Z        PSCENC =         9.32411124
  Ewald energy   TEWEN  =     18977.92588230
  -Hartree energ DENC   =    -35433.41137804
  -exchange      EXHF   =         0.00000000
  -V(xc)+E(xc)   XCENC  =       576.62914029
  PAW double counting   =     16858.70190201   -18252.91017156
  entropy T*S    EENTRO =         0.00000000
  eigenvalues    EBANDS =      -846.13669344
  atomic energy  EATOM  =     18082.16260055
  ---------------------------------------------------
  free energy    TOTEN  =       -27.71460664 eV

  energy without entropy =      -27.71460664  energy(sigma->0) =      -27.71460664


--------------------------------------------------------------------------------------------------------




----------------------------------------- Iteration    1(  17)  ---------------------------------------


    POTLOK:  cpu time    0.50: real time    0.50
    SETDIJ:  cpu time    0.01: real time    0.01
     EDDAV:  cpu time    2.65: real time    2.65
       DOS:  cpu time    0.00: real time    0.00
    CHARGE:  cpu time    0.16: real time    0.16
    MIXING:  cpu time    0.02: real time    0.02
    --------------------------------------------
      LOOP:  cpu time    3.35: real time    3.35

 eigenvalue-minimisations  :   488
 total energy-change (2. order) :-0.8856214E+00  (-0.1502887E-01)
 number of electron     143.0000124 magnetization       1.7721979
 augmentation part       91.6170002 magnetization       0.7758197

 Broyden mixing:
  rms(total) = 0.40423E-01    rms(broyden)= 0.40399E-01
  rms(prec ) = 0.42572E-01
  weight for this iteration     100.00

 eigenvalues of (default mixing * dielectric matrix)
  average eigenvalue GAMMA=   1.4173
  6.2210  2.5052  1.9905  0.9722  0.9722  0.8725  0.8725  0.6132  0.6132  0.4193
  0.4781  0.4781

 Free energy of the ion-electron system (eV)
  ---------------------------------------------------
  alpha Z        PSCENC =         9.32411124
  Ewald energy   TEWEN  =     18977.92588230
  -Hartree energ DENC   =    -35430.99380410
  -exchange      EXHF   =         0.00000000
  -V(xc)+E(xc)   XCENC  =       575.84214170
  PAW double counting   =     16850.15318893   -18245.46460996
  entropy T*S    EENTRO =         0.00000000
  eigenvalues    EBANDS =      -847.54973874
  atomic energy  EATOM  =     18082.16260055
  ---------------------------------------------------
  free energy    TOTEN  =       -28.60022809 eV

  energy without entropy =      -28.60022809  energy(sigma->0) =      -28.60022809


--------------------------------------------------------------------------------------------------------




----------------------------------------- Iteration    1(  18)  ---------------------------------------


    POTLOK:  cpu time    0.50: real time    0.50
    SETDIJ:  cpu time    0.01: real time    0.01
     EDDAV:  cpu time    2.86: real time    2.86
       DOS:  cpu time    0.00: real time    0.00
    CHARGE:  cpu time    0.16: real time    0.16
    MIXING:  cpu time    0.02: real time    0.02
    --------------------------------------------
      LOOP:  cpu time    3.56: real time    3.56

 eigenvalue-minimisations  :   536
 total energy-change (2. order) :-0.5991330E+00  (-0.4188868E-02)
 number of electron     143.0000124 magnetization       1.4545526
 augmentation part       91.6614942 magnetization       0.4892956

 Broyden mixing:
  rms(total) = 0.26680E-01    rms(broyden)= 0.26669E-01
  rms(prec ) = 0.28168E-01
  weight for this iteration     100.00

 eigenvalues of (default mixing * dielectric matrix)
  average eigenvalue GAMMA=   1.5133
  7.1547  2.6560  2.6560  1.2141  0.9042  0.9042  0.8323  0.8323  0.6386  0.5223
  0.4241  0.4670  0.4670

 Free energy of the ion-electron system (eV)
  ---------------------------------------------------
  alpha Z        PSCENC =         9.32411124
  Ewald energy   TEWEN  =     18977.92588230
  -Hartree energ DENC   =    -35425.43167137
  -exchange      EXHF   =         0.00000000
  -V(xc)+E(xc)   XCENC  =       575.12033682
  PAW double counting   =     16848.14708423   -18243.23030244
  entropy T*S    EENTRO =        -0.00000000
  eigenvalues    EBANDS =      -853.21740239
  atomic energy  EATOM  =     18082.16260055
  ---------------------------------------------------
  free energy    TOTEN  =       -29.19936105 eV

  energy without entropy =      -29.19936105  energy(sigma->0) =      -29.19936105


--------------------------------------------------------------------------------------------------------




----------------------------------------- Iteration    1(  19)  ---------------------------------------


    POTLOK:  cpu time    0.50: real time    0.50
    SETDIJ:  cpu time    0.01: real time    0.01
     EDDAV:  cpu time    2.65: real time    2.65
       DOS:  cpu time    0.00: real time    0.00
    CHARGE:  cpu time    0.16: real time    0.16
    MIXING:  cpu time    0.03: real time    0.03
    --------------------------------------------
      LOOP:  cpu time    3.36: real time    3.36

 eigenvalue-minimisations  :   488
 total energy-change (2. order) :-0.5929172E+00  (-0.2079162E-02)
 number of electron     143.0000124 magnetization       1.3614162
 augmentation part       91.6992244 magnetization       0.4028079

 Broyden mixing:
  rms(total) = 0.20017E-01    rms(broyden)= 0.20013E-01
  rms(prec ) = 0.21372E-01
  weight for this iteration     100.00

 eigenvalues of (default mixing * dielectric matrix)
  average eigenvalue GAMMA=   1.5296
  7.3828  3.2648  2.5560  1.3449  0.8914  0.8914  0.9394  0.9394  0.6677  0.6677
  0.4200  0.5179  0.4656  0.4656

 Free energy of the ion-electron system (eV)
  ---------------------------------------------------
  alpha Z        PSCENC =         9.32411124
  Ewald energy   TEWEN  =     18977.92588230
  -Hartree energ DENC   =    -35420.33025081
  -exchange      EXHF   =         0.00000000
  -V(xc)+E(xc)   XCENC  =       574.44012440
  PAW double counting   =     16852.70503536   -18247.68404852
  entropy T*S    EENTRO =         0.00000000
  eigenvalues    EBANDS =      -858.33573277
  atomic energy  EATOM  =     18082.16260055
  ---------------------------------------------------
  free energy    TOTEN  =       -29.79227825 eV

  energy without entropy =      -29.79227825  energy(sigma->0) =      -29.79227825


--------------------------------------------------------------------------------------------------------




----------------------------------------- Iteration    1(  20)  ---------------------------------------


    POTLOK:  cpu time    0.50: real time    0.51
    SETDIJ:  cpu time    0.01: real time    0.01
     EDDAV:  cpu time    2.73: real time    2.73
       DOS:  cpu time    0.00: real time    0.00
    CHARGE:  cpu time    0.16: real time    0.16
    MIXING:  cpu time    0.03: real time    0.03
    --------------------------------------------
      LOOP:  cpu time    3.44: real time    3.44

 eigenvalue-minimisations  :   504
 total energy-change (2. order) :-0.2865738E+00  (-0.5755302E-03)
 number of electron     143.0000124 magnetization       1.2051693
 augmentation part       91.6821237 magnetization       0.2440091

 Broyden mixing:
  rms(total) = 0.11871E-01    rms(broyden)= 0.11866E-01
  rms(prec ) = 0.12721E-01
  weight for this iteration     100.00

 eigenvalues of (default mixing * dielectric matrix)
  average eigenvalue GAMMA=   1.5980
  7.9773  3.9815  2.1782  2.1782  0.8936  0.8936  0.9816  0.9816  0.7908  0.6628
  0.5839  0.4203  0.5125  0.4673  0.4673

 Free energy of the ion-electron system (eV)
  ---------------------------------------------------
  alpha Z        PSCENC =         9.32411124
  Ewald energy   TEWEN  =     18977.92588230
  -Hartree energ DENC   =    -35418.71006353
  -exchange      EXHF   =         0.00000000
  -V(xc)+E(xc)   XCENC  =       574.17834029
  PAW double counting   =     16855.73278291   -18250.94475632
  entropy T*S    EENTRO =         0.00000000
  eigenvalues    EBANDS =      -859.74774943
  atomic energy  EATOM  =     18082.16260055
  ---------------------------------------------------
  free energy    TOTEN  =       -30.07885200 eV

  energy without entropy =      -30.07885200  energy(sigma->0) =      -30.07885200


--------------------------------------------------------------------------------------------------------




----------------------------------------- Iteration    1(  21)  ---------------------------------------


    POTLOK:  cpu time    0.50: real time    0.50
    SETDIJ:  cpu time    0.01: real time    0.01
     EDDAV:  cpu time    2.78: real time    2.79
       DOS:  cpu time    0.00: real time    0.00
    CHARGE:  cpu time    0.16: real time    0.16
    MIXING:  cpu time    0.04: real time    0.03
    --------------------------------------------
      LOOP:  cpu time    3.50: real time    3.50

 eigenvalue-minimisations  :   520
 total energy-change (2. order) :-0.2039549E+00  (-0.4899502E-03)
 number of electron     143.0000124 magnetization       1.0870934
 augmentation part       91.6683192 magnetization       0.1291797

 Broyden mixing:
  rms(total) = 0.89918E-02    rms(broyden)= 0.89887E-02
  rms(prec ) = 0.96634E-02
  weight for this iteration     100.00

 eigenvalues of (default mixing * dielectric matrix)
  average eigenvalue GAMMA=   1.6264
  8.5953  4.1977  2.3712  2.3712  1.1157  0.8949  0.8949  0.9335  0.9335  0.6623
  0.6623  0.5380  0.4221  0.4814  0.4814  0.4663

 Free energy of the ion-electron system (eV)
  ---------------------------------------------------
  alpha Z        PSCENC =         9.32411124
  Ewald energy   TEWEN  =     18977.92588230
  -Hartree energ DENC   =    -35416.77840475
  -exchange      EXHF   =         0.00000000
  -V(xc)+E(xc)   XCENC  =       573.98220210
  PAW double counting   =     16856.70232660   -18251.98054716
  entropy T*S    EENTRO =         0.00000000
  eigenvalues    EBANDS =      -861.62097777
  atomic energy  EATOM  =     18082.16260055
  ---------------------------------------------------
  free energy    TOTEN  =       -30.28280689 eV

  energy without entropy =      -30.28280689  energy(sigma->0) =      -30.28280689


--------------------------------------------------------------------------------------------------------




----------------------------------------- Iteration    1(  22)  ---------------------------------------


    POTLOK:  cpu time    0.50: real time    0.50
    SETDIJ:  cpu time    0.01: real time    0.01
     EDDAV:  cpu time    2.62: real time    2.62
       DOS:  cpu time    0.00: real time    0.00
    CHARGE:  cpu time    0.16: real time    0.16
    MIXING:  cpu time    0.04: real time    0.04
    --------------------------------------------
      LOOP:  cpu time    3.33: real time    3.33

 eigenvalue-minimisations  :   480
 total energy-change (2. order) :-0.6600729E-01  (-0.1573901E-03)
 number of electron     143.0000124 magnetization       1.0509238
 augmentation part       91.6702860 magnetization       0.0966300

 Broyden mixing:
  rms(total) = 0.45201E-02    rms(broyden)= 0.45183E-02
  rms(prec ) = 0.51118E-02
  weight for this iteration     100.00

 eigenvalues of (default mixing * dielectric matrix)
  average eigenvalue GAMMA=   1.6615
  8.9558  4.5674  2.7418  2.2471  1.5007  0.9616  0.9616  0.8895  0.8895  0.7617
  0.7617  0.6137  0.5585  0.4212  0.4726  0.4726  0.4682

 Free energy of the ion-electron system (eV)
  ---------------------------------------------------
  alpha Z        PSCENC =         9.32411124
  Ewald energy   TEWEN  =     18977.92588230
  -Hartree energ DENC   =    -35415.53521041
  -exchange      EXHF   =         0.00000000
  -V(xc)+E(xc)   XCENC  =       573.89867847
  PAW double counting   =     16858.43128195   -18253.66859850
  entropy T*S    EENTRO =         0.00000000
  eigenvalues    EBANDS =      -862.88755977
  atomic energy  EATOM  =     18082.16260055
  ---------------------------------------------------
  free energy    TOTEN  =       -30.34881417 eV

  energy without entropy =      -30.34881417  energy(sigma->0) =      -30.34881417


--------------------------------------------------------------------------------------------------------




----------------------------------------- Iteration    1(  23)  ---------------------------------------


    POTLOK:  cpu time    0.50: real time    0.50
    SETDIJ:  cpu time    0.01: real time    0.01
     EDDAV:  cpu time    2.00: real time    2.00
       DOS:  cpu time    0.00: real time    0.00
    CHARGE:  cpu time    0.16: real time    0.16
    MIXING:  cpu time    0.04: real time    0.04
    --------------------------------------------
      LOOP:  cpu time    2.72: real time    2.72

 eigenvalue-minimisations  :   332
 total energy-change (2. order) :-0.2368214E-01  (-0.3282186E-04)
 number of electron     143.0000124 magnetization       1.0255599
 augmentation part       91.6697803 magnetization       0.0708883

 Broyden mixing:
  rms(total) = 0.28726E-02    rms(broyden)= 0.28717E-02
  rms(prec ) = 0.33803E-02
  weight for this iteration     100.00

 eigenvalues of (default mixing * dielectric matrix)
  average eigenvalue GAMMA=   1.6517
  9.1997  4.6614  2.8672  2.4141  1.5475  0.8901  0.8901  1.0140  0.9781  0.9781
  0.7080  0.6149  0.6149  0.4214  0.5115  0.4768  0.4768  0.4663

 Free energy of the ion-electron system (eV)
  ---------------------------------------------------
  alpha Z        PSCENC =         9.32411124
  Ewald energy   TEWEN  =     18977.92588230
  -Hartree energ DENC   =    -35415.05360498
  -exchange      EXHF   =         0.00000000
  -V(xc)+E(xc)   XCENC  =       573.87293062
  PAW double counting   =     16859.67996976   -18254.91545178
  entropy T*S    EENTRO =         0.00000000
  eigenvalues    EBANDS =      -863.36893402
  atomic energy  EATOM  =     18082.16260055
  ---------------------------------------------------
  free energy    TOTEN  =       -30.37249631 eV

  energy without entropy =      -30.37249631  energy(sigma->0) =      -30.37249631


--------------------------------------------------------------------------------------------------------




----------------------------------------- Iteration    1(  24)  ---------------------------------------


    POTLOK:  cpu time    0.50: real time    0.50
    SETDIJ:  cpu time    0.01: real time    0.01
     EDDAV:  cpu time    2.19: real time    2.19
       DOS:  cpu time    0.00: real time    0.00
    CHARGE:  cpu time    0.16: real time    0.16
    MIXING:  cpu time    0.04: real time    0.04
    --------------------------------------------
      LOOP:  cpu time    2.90: real time    2.91

 eigenvalue-minimisations  :   376
 total energy-change (2. order) :-0.1027753E-01  (-0.3538799E-04)
 number of electron     143.0000124 magnetization       1.0089435
 augmentation part       91.6729318 magnetization       0.0549667

 Broyden mixing:
  rms(total) = 0.14713E-02    rms(broyden)= 0.14698E-02
  rms(prec ) = 0.19585E-02
  weight for this iteration     100.00

 eigenvalues of (default mixing * dielectric matrix)
  average eigenvalue GAMMA=   1.6590
  9.3788  4.7096  3.0869  2.5133  1.7933  1.3180  0.8902  0.8902  0.9722  0.9722
  0.7629  0.7629  0.6124  0.5619  0.4214  0.4755  0.4755  0.4672  0.4568

 Free energy of the ion-electron system (eV)
  ---------------------------------------------------
  alpha Z        PSCENC =         9.32411124
  Ewald energy   TEWEN  =     18977.92588230
  -Hartree energ DENC   =    -35414.56950367
  -exchange      EXHF   =         0.00000000
  -V(xc)+E(xc)   XCENC  =       573.85677668
  PAW double counting   =     16859.20382513   -18254.38809700
  entropy T*S    EENTRO =         0.00000000
  eigenvalues    EBANDS =      -863.89836906
  atomic energy  EATOM  =     18082.16260055
  ---------------------------------------------------
  free energy    TOTEN  =       -30.38277384 eV

  energy without entropy =      -30.38277384  energy(sigma->0) =      -30.38277384


--------------------------------------------------------------------------------------------------------




----------------------------------------- Iteration    1(  25)  ---------------------------------------


    POTLOK:  cpu time    0.50: real time    0.50
    SETDIJ:  cpu time    0.01: real time    0.01
     EDDAV:  cpu time    1.86: real time    1.85
       DOS:  cpu time    0.00: real time    0.00
    CHARGE:  cpu time    0.16: real time    0.16
    MIXING:  cpu time    0.05: real time    0.05
    --------------------------------------------
      LOOP:  cpu time    2.58: real time    2.58

 eigenvalue-minimisations  :   296
 total energy-change (2. order) :-0.6065680E-02  (-0.1680307E-04)
 number of electron     143.0000124 magnetization       1.0077221
 augmentation part       91.6740093 magnetization       0.0544088

 Broyden mixing:
  rms(total) = 0.10483E-02    rms(broyden)= 0.10476E-02
  rms(prec ) = 0.14127E-02
  weight for this iteration     100.00

 eigenvalues of (default mixing * dielectric matrix)
  average eigenvalue GAMMA=   1.6480
  9.4069  4.8777  3.2262  2.5377  2.1149  1.2213  0.8894  0.8894  0.9824  0.9824
  0.9660  0.7720  0.6399  0.6399  0.5317  0.4744  0.4744  0.4821  0.4219  0.4288

 Free energy of the ion-electron system (eV)
  ---------------------------------------------------
  alpha Z        PSCENC =         9.32411124
  Ewald energy   TEWEN  =     18977.92588230
  -Hartree energ DENC   =    -35414.12341796
  -exchange      EXHF   =         0.00000000
  -V(xc)+E(xc)   XCENC  =       573.84946188
  PAW double counting   =     16858.51225863   -18253.67948933
  entropy T*S    EENTRO =         0.00000000
  eigenvalues    EBANDS =      -864.36024682
  atomic energy  EATOM  =     18082.16260055
  ---------------------------------------------------
  free energy    TOTEN  =       -30.38883951 eV

  energy without entropy =      -30.38883951  energy(sigma->0) =      -30.38883951


--------------------------------------------------------------------------------------------------------




----------------------------------------- Iteration    1(  26)  ---------------------------------------


    POTLOK:  cpu time    0.50: real time    0.50
    SETDIJ:  cpu time    0.01: real time    0.01
     EDDAV:  cpu time    1.78: real time    1.79
       DOS:  cpu time    0.00: real time    0.00
    CHARGE:  cpu time    0.16: real time    0.16
    MIXING:  cpu time    0.06: real time    0.06
    --------------------------------------------
      LOOP:  cpu time    2.52: real time    2.53

 eigenvalue-minimisations  :   280
 total energy-change (2. order) :-0.9317963E-03  (-0.5979023E-05)
 number of electron     143.0000124 magnetization       1.0044202
 augmentation part       91.6734681 magnetization       0.0507975

 Broyden mixing:
  rms(total) = 0.96899E-03    rms(broyden)= 0.96861E-03
  rms(prec ) = 0.12277E-02
  weight for this iteration     100.00

 eigenvalues of (default mixing * dielectric matrix)
  average eigenvalue GAMMA=   1.6395
  9.4814  4.8725  3.5606  2.5734  2.1795  1.3610  1.1025  0.9896  0.9896  0.8899
  0.8899  0.8077  0.7139  0.6246  0.6246  0.5329  0.4739  0.4739  0.4685  0.4212
  0.3978

 Free energy of the ion-electron system (eV)
  ---------------------------------------------------
  alpha Z        PSCENC =         9.32411124
  Ewald energy   TEWEN  =     18977.92588230
  -Hartree energ DENC   =    -35413.86243315
  -exchange      EXHF   =         0.00000000
  -V(xc)+E(xc)   XCENC  =       573.84916277
  PAW double counting   =     16858.55692723   -18253.73871554
  entropy T*S    EENTRO =         0.00000000
  eigenvalues    EBANDS =      -864.60730670
  atomic energy  EATOM  =     18082.16260055
  ---------------------------------------------------
  free energy    TOTEN  =       -30.38977131 eV

  energy without entropy =      -30.38977131  energy(sigma->0) =      -30.38977131


--------------------------------------------------------------------------------------------------------




----------------------------------------- Iteration    1(  27)  ---------------------------------------


    POTLOK:  cpu time    0.50: real time    0.50
    SETDIJ:  cpu time    0.01: real time    0.01
     EDDAV:  cpu time    1.82: real time    1.82
       DOS:  cpu time    0.00: real time    0.00
    --------------------------------------------
      LOOP:  cpu time    2.34: real time    4.20

 eigenvalue-minimisations  :   288
 total energy-change (2. order) :-0.6949682E-05  (-0.4312962E-05)
 number of electron     143.0000124 magnetization       1.0044202
 augmentation part       91.6734681 magnetization       0.0507975

 Free energy of the ion-electron system (eV)
  ---------------------------------------------------
  alpha Z        PSCENC =         9.32411124
  Ewald energy   TEWEN  =     18977.92588230
  -Hartree energ DENC   =    -35413.62451455
  -exchange      EXHF   =         0.00000000
  -V(xc)+E(xc)   XCENC  =       573.84904255
  PAW double counting   =     16858.52278518   -18253.71490897
  entropy T*S    EENTRO =         0.00000000
  eigenvalues    EBANDS =      -864.83477657
  atomic energy  EATOM  =     18082.16260055
  ---------------------------------------------------
  free energy    TOTEN  =       -30.38977826 eV

  energy without entropy =      -30.38977826  energy(sigma->0) =      -30.38977826


--------------------------------------------------------------------------------------------------------




 average (electrostatic) potential at core
  the test charge radii are     0.9430
  (the norm of the test charge is              1.0000)
       1 -74.5187       2 -74.7846       3 -74.5395       4 -74.5030       5 -74.7064
       6 -74.5220       7 -74.1287       8 -74.5381       9 -74.1738      10 -74.4478
      11 -74.4110      12 -74.1343      13 -74.3872
 
 
 
 E-fermi :  -4.1073     XC(G=0):  -0.3873     alpha+bet : -0.1555


 spin component 1

 k-point     1 :       0.0000    0.0000    0.0000
  band No.  band energies     occupation 
      1      -9.5815      1.00000
      2      -8.6517      1.00000
      3      -8.0674      1.00000
      4      -7.8960      1.00000
      5      -7.8670      1.00000
      6      -7.7189      1.00000
      7      -7.6707      1.00000
      8      -7.3911      1.00000
      9      -7.1653      1.00000
     10      -6.9309      1.00000
     11      -6.8398      1.00000
     12      -6.8296      1.00000
     13      -6.7941      1.00000
     14      -6.7863      1.00000
     15      -6.7765      1.00000
     16      -6.6081      1.00000
     17      -6.5800      1.00000
     18      -6.5339      1.00000
     19      -6.5104      1.00000
     20      -6.4764      1.00000
     21      -6.4336      1.00000
     22      -6.4311      1.00000
     23      -6.4084      1.00000
     24      -6.3523      1.00000
     25      -6.2709      1.00000
     26      -6.2199      1.00000
     27      -6.1281      1.00000
     28      -6.1260      1.00000
     29      -6.0844      1.00000
     30      -6.0201      1.00000
     31      -5.9450      1.00000
     32      -5.9172      1.00000
     33      -5.8988      1.00000
     34      -5.8851      1.00000
     35      -5.8480      1.00000
     36      -5.8259      1.00000
     37      -5.7580      1.00000
     38      -5.7437      1.00000
     39      -5.7115      1.00000
     40      -5.7060      1.00000
     41      -5.6823      1.00000
     42      -5.6452      1.00000
     43      -5.6385      1.00000
     44      -5.6217      1.00000
     45      -5.6020      1.00000
     46      -5.5411      1.00000
     47      -5.5269      1.00000
     48      -5.5250      1.00000
     49      -5.4898      1.00000
     50      -5.4848      1.00000
     51      -5.4670      1.00000
     52      -5.4581      1.00000
     53      -5.4153      1.00000
     54      -5.3952      1.00000
     55      -5.3550      1.00000
     56      -5.3410      1.00000
     57      -5.3322      1.00000
     58      -5.2965      1.00000
     59      -5.2810      1.00000
     60      -5.2653      1.00000
     61      -5.2557      1.00000
     62      -5.2236      1.00000
     63      -5.2036      1.00000
     64      -5.1866      1.00000
     65      -5.1779      1.00000
     66      -5.1004      1.00000
     67      -5.0949      1.00000
     68      -5.0530      1.00000
     69      -4.9172      1.00000
     70      -4.9038      1.00000
     71      -4.5382      1.00000
     72      -4.1293      1.00000
     73      -3.6878      0.00000
     74      -3.0960      0.00000
     75      -2.8813      0.00000
     76      -2.8400      0.00000
     77      -2.2752      0.00000
     78      -1.9538      0.00000
     79      -1.7990      0.00000
     80      -1.5027      0.00000
     81      -1.2706      0.00000
     82      -1.2476      0.00000
     83      -1.1102      0.00000
     84      -0.8215      0.00000
     85      -0.7267      0.00000
     86      -0.5017      0.00000
     87      -0.2388      0.00000
     88      -0.1788      0.00000
     89       0.0412      0.00000
     90       0.2556      0.00000
     91       0.2765      0.00000
     92       0.2838      0.00000

 spin component 2

 k-point     1 :       0.0000    0.0000    0.0000
  band No.  band energies     occupation 
      1      -9.5256      1.00000
      2      -8.6066      1.00000
      3      -7.9923      1.00000
      4      -7.8536      1.00000
      5      -7.8116      1.00000
      6      -7.6789      1.00000
      7      -7.6433      1.00000
      8      -7.3492      1.00000
      9      -7.1156      1.00000
     10      -6.8846      1.00000
     11      -6.8077      1.00000
     12      -6.8043      1.00000
     13      -6.7697      1.00000
     14      -6.7591      1.00000
     15      -6.7489      1.00000
     16      -6.5846      1.00000
     17      -6.5391      1.00000
     18      -6.5119      1.00000
     19      -6.4785      1.00000
     20      -6.4556      1.00000
     21      -6.4119      1.00000
     22      -6.4077      1.00000
     23      -6.3743      1.00000
     24      -6.3186      1.00000
     25      -6.2472      1.00000
     26      -6.2060      1.00000
     27      -6.1118      1.00000
     28      -6.0967      1.00000
     29      -6.0371      1.00000
     30      -5.9907      1.00000
     31      -5.9245      1.00000
     32      -5.8765      1.00000
     33      -5.8727      1.00000
     34      -5.8717      1.00000
     35      -5.8276      1.00000
     36      -5.8060      1.00000
     37      -5.7248      1.00000
     38      -5.7246      1.00000
     39      -5.6886      1.00000
     40      -5.6851      1.00000
     41      -5.6537      1.00000
     42      -5.6216      1.00000
     43      -5.6137      1.00000
     44      -5.6086      1.00000
     45      -5.5754      1.00000
     46      -5.5295      1.00000
     47      -5.5057      1.00000
     48      -5.4983      1.00000
     49      -5.4711      1.00000
     50      -5.4619      1.00000
     51      -5.4313      1.00000
     52      -5.4263      1.00000
     53      -5.3877      1.00000
     54      -5.3633      1.00000
     55      -5.3283      1.00000
     56      -5.3119      1.00000
     57      -5.3066      1.00000
     58      -5.2717      1.00000
     59      -5.2561      1.00000
     60      -5.2412      1.00000
     61      -5.2141      1.00000
     62      -5.2059      1.00000
     63      -5.1722      1.00000
     64      -5.1656      1.00000
     65      -5.1522      1.00000
     66      -5.0876      1.00000
     67      -5.0812      1.00000
     68      -4.9903      1.00000
     69      -4.8901      1.00000
     70      -4.8611      1.00000
     71      -4.4883      1.00000
     72      -3.9205      0.00000
     73      -3.6295      0.00000
     74      -3.0401      0.00000
     75      -2.7931      0.00000
     76      -2.7805      0.00000
     77      -2.1238      0.00000
     78      -1.9001      0.00000
     79      -1.7204      0.00000
     80      -1.4277      0.00000
     81      -1.2101      0.00000
     82      -1.1936      0.00000
     83      -0.9458      0.00000
     84      -0.7841      0.00000
     85      -0.6123      0.00000
     86      -0.4073      0.00000
     87      -0.1443      0.00000
     88      -0.1073      0.00000
     89       0.0416      0.00000
     90       0.2357      0.00000
     91       0.3192      0.00000
     92       0.3311      0.00000


--------------------------------------------------------------------------------------------------------


 soft charge-density along one line, spin component           1
         0         1         2         3         4         5         6         7         8         9
 total charge-density along one line
 
 soft charge-density along one line, spin component           2
         0         1         2         3         4         5         6         7         8         9
 total charge-density along one line
 
 pseudopotential strength for first ion, spin component:           1
-10.696   0.007   0.001  -0.000   0.000   1.156  -0.005  -0.001
  0.007 -10.818   0.001  -0.001   0.001  -0.005   1.249  -0.001
  0.001   0.001 -10.781   0.005  -0.075  -0.001  -0.001   1.218
 -0.000  -0.001   0.005 -10.689   0.007   0.000   0.000  -0.004
  0.000   0.001  -0.075   0.007 -10.705  -0.000  -0.001   0.058
  1.156  -0.005  -0.001   0.000  -0.000   6.193   0.004   0.000
 -0.005   1.249  -0.001   0.000  -0.001   0.004   6.131   0.001
 -0.001  -0.001   1.218  -0.004   0.058   0.000   0.001   6.151
  0.000   0.000  -0.004   1.149  -0.005  -0.000  -0.000   0.003
 -0.000  -0.001   0.058  -0.005   1.162  -0.000   0.001  -0.039
  0.000  -0.000   0.007  -0.002  -0.019  -0.000   0.000  -0.002
  0.000  -0.000   0.012  -0.003  -0.034  -0.000   0.000  -0.002
  0.001  -0.016   0.004  -0.000   0.007  -0.001   0.011  -0.002
 -0.000  -0.009  -0.015   0.001   0.001   0.000   0.004   0.009
 -0.008  -0.000  -0.001  -0.015   0.001   0.004   0.000   0.000
  0.001  -0.017   0.004  -0.000   0.008  -0.000   0.011  -0.002
 -0.000  -0.009  -0.015   0.001   0.001   0.000   0.004   0.008
 -0.009  -0.000  -0.001  -0.015   0.001   0.003   0.000   0.000
 pseudopotential strength for first ion, spin component:           2
-10.699   0.007   0.001  -0.000   0.000   1.159  -0.006  -0.001
  0.007 -10.822   0.001  -0.001   0.002  -0.006   1.252  -0.001
  0.001   0.001 -10.785   0.005  -0.076  -0.001  -0.001   1.221
 -0.000  -0.001   0.005 -10.692   0.007   0.000   0.000  -0.004
  0.000   0.002  -0.076   0.007 -10.709  -0.000  -0.001   0.059
  1.159  -0.006  -0.001   0.000  -0.000   6.190   0.004   0.001
 -0.006   1.252  -0.001   0.000  -0.001   0.004   6.127   0.001
 -0.001  -0.001   1.221  -0.004   0.059   0.001   0.001   6.148
  0.000   0.000  -0.004   1.150  -0.005   0.000  -0.000   0.003
 -0.000  -0.001   0.059  -0.005   1.165   0.000   0.001  -0.040
  0.000  -0.000   0.007  -0.002  -0.020  -0.000   0.001  -0.001
  0.000  -0.001   0.011  -0.003  -0.035  -0.000   0.001  -0.002
  0.001  -0.016   0.004  -0.000   0.007  -0.001   0.012  -0.002
 -0.000  -0.008  -0.014   0.001   0.001   0.000   0.004   0.009
 -0.008  -0.000  -0.001  -0.015   0.001   0.004   0.000   0.000
  0.001  -0.017   0.005  -0.000   0.008  -0.000   0.012  -0.002
 -0.000  -0.009  -0.015   0.001   0.001   0.000   0.003   0.008
 -0.009  -0.000  -0.001  -0.015   0.001   0.003   0.000   0.000
 total augmentation occupancy for first ion, spin component:           1
  1.953   0.001   0.000   0.001  -0.000  -0.021  -0.002  -0.000  -0.000  -0.000   0.002  -0.000  -0.003  -0.001   0.012   0.002
  0.001   1.929   0.003  -0.000   0.002  -0.002   0.005  -0.001  -0.000  -0.000  -0.008   0.002   0.017   0.010  -0.001  -0.023
  0.000   0.003   1.932   0.002  -0.021  -0.000  -0.001  -0.004  -0.002   0.021  -0.033   0.009  -0.018   0.096  -0.000   0.005
  0.001  -0.000   0.002   1.962   0.002  -0.000  -0.000  -0.002  -0.030  -0.001   0.005   0.000  -0.000  -0.008   0.039   0.000
 -0.000   0.002  -0.021   0.002   1.959  -0.000  -0.000   0.021  -0.001  -0.007   0.016   0.020  -0.025   0.007  -0.004   0.009
 -0.021  -0.002  -0.000  -0.000  -0.000   0.006  -0.000  -0.000  -0.000  -0.000   0.000  -0.000  -0.002  -0.000   0.001   0.000
 -0.002   0.005  -0.001  -0.000  -0.000  -0.000   0.011   0.000  -0.000   0.000  -0.001   0.000   0.025   0.001  -0.000  -0.002
 -0.000  -0.001  -0.004  -0.002   0.021  -0.000   0.000   0.011  -0.000   0.004   0.011  -0.002   0.001   0.021  -0.001   0.000
 -0.000  -0.000  -0.002  -0.030  -0.001  -0.000  -0.000  -0.000   0.004   0.000  -0.008   0.001  -0.000  -0.002   0.007   0.000
 -0.000  -0.000   0.021  -0.001  -0.007  -0.000   0.000   0.004   0.000   0.012  -0.110   0.008  -0.000  -0.006   0.000   0.000
  0.002  -0.008  -0.033   0.005   0.016   0.000  -0.001   0.011  -0.008  -0.110   1.811  -0.102   0.060   0.194  -0.014  -0.005
 -0.000   0.002   0.009   0.000   0.020  -0.000   0.000  -0.002   0.001   0.008  -0.102   0.010   0.003  -0.021   0.001   0.000
 -0.003   0.017  -0.018  -0.000  -0.025  -0.002   0.025   0.001  -0.000  -0.000   0.060   0.003   0.213  -0.006   0.000  -0.012
 -0.001   0.010   0.096  -0.008   0.007  -0.000   0.001   0.021  -0.002  -0.006   0.194  -0.021  -0.006   0.099  -0.004  -0.000
  0.012  -0.001  -0.000   0.039  -0.004   0.001  -0.000  -0.001   0.007   0.000  -0.014   0.001   0.000  -0.004   0.033   0.000
  0.002  -0.023   0.005   0.000   0.009   0.000  -0.002   0.000   0.000   0.000  -0.005   0.000  -0.012  -0.000   0.000   0.001
  0.000  -0.011  -0.029   0.002  -0.000   0.000  -0.000  -0.001   0.000   0.001  -0.024   0.002   0.000  -0.008   0.000   0.000
[...]
     63      -5.1862      1.00000
     64      -5.1658      1.00000
     65      -5.1622      1.00000
     66      -5.0969      1.00000
     67      -5.0943      1.00000
     68      -5.0220      1.00000
     69      -4.9275      1.00000
     70      -4.8836      1.00000
     71      -4.5626      1.00000
     72      -4.1352      1.00000
     73      -3.6517      0.00000
     74      -3.1878      0.00000
     75      -2.8896      0.00000
     76      -2.7760      0.00000
     77      -2.2938      0.00000
     78      -1.9394      0.00000
     79      -1.7757      0.00000
     80      -1.5118      0.00000
     81      -1.3580      0.00000
     82      -1.2265      0.00000
     83      -1.1892      0.00000
     84      -0.8444      0.00000
     85      -0.7729      0.00000
     86      -0.5024      0.00000
     87      -0.3586      0.00000
     88      -0.2501      0.00000
     89       0.0346      0.00000
     90       0.2127      0.00000
     91       0.2534      0.00000
     92       0.2651      0.00000

 spin component 2

 k-point     1 :       0.0000    0.0000    0.0000
  band No.  band energies     occupation 
      1      -9.3449      1.00000
      2      -8.4850      1.00000
      3      -7.7806      1.00000
      4      -7.6797      1.00000
      5      -7.6186      1.00000
      6      -7.5178      1.00000
      7      -7.4918      1.00000
      8      -7.2115      1.00000
      9      -7.0234      1.00000
     10      -6.7737      1.00000
     11      -6.6810      1.00000
     12      -6.6410      1.00000
     13      -6.6384      1.00000
     14      -6.6278      1.00000
     15      -6.5955      1.00000
     16      -6.4890      1.00000
     17      -6.4561      1.00000
     18      -6.3833      1.00000
     19      -6.3273      1.00000
     20      -6.3142      1.00000
     21      -6.2978      1.00000
     22      -6.2879      1.00000
     23      -6.2559      1.00000
     24      -6.1897      1.00000
     25      -6.1465      1.00000
     26      -6.1227      1.00000
     27      -6.0087      1.00000
     28      -6.0027      1.00000
     29      -5.9486      1.00000
     30      -5.9218      1.00000
     31      -5.8516      1.00000
     32      -5.8049      1.00000
     33      -5.7979      1.00000
     34      -5.7892      1.00000
     35      -5.7336      1.00000
     36      -5.7139      1.00000
     37      -5.6608      1.00000
     38      -5.6455      1.00000
     39      -5.6307      1.00000
     40      -5.6161      1.00000
     41      -5.5885      1.00000
     42      -5.5617      1.00000
     43      -5.5597      1.00000
     44      -5.5466      1.00000
     45      -5.5222      1.00000
     46      -5.4748      1.00000
     47      -5.4535      1.00000
     48      -5.4473      1.00000
     49      -5.4232      1.00000
     50      -5.4100      1.00000
     51      -5.4059      1.00000
     52      -5.3657      1.00000
     53      -5.3560      1.00000
     54      -5.3271      1.00000
     55      -5.3020      1.00000
     56      -5.2817      1.00000
     57      -5.2663      1.00000
     58      -5.2319      1.00000
     59      -5.2271      1.00000
     60      -5.2061      1.00000
     61      -5.1830      1.00000
     62      -5.1677      1.00000
     63      -5.1592      1.00000
     64      -5.1446      1.00000
     65      -5.1331      1.00000
     66      -5.0855      1.00000
     67      -5.0780      1.00000
     68      -4.9624      1.00000
     69      -4.8940      1.00000
     70      -4.8401      1.00000
     71      -4.5140      1.00000
     72      -3.9291      0.00000
     73      -3.5934      0.00000
     74      -3.1316      0.00000
     75      -2.7892      0.00000
     76      -2.7284      0.00000
     77      -2.1485      0.00000
     78      -1.8880      0.00000
     79      -1.6958      0.00000
     80      -1.4435      0.00000
     81      -1.3034      0.00000
     82      -1.1667      0.00000
     83      -1.0283      0.00000
     84      -0.8127      0.00000
     85      -0.6630      0.00000
     86      -0.4078      0.00000
     87      -0.2655      0.00000
     88      -0.1827      0.00000
     89       0.0534      0.00000
     90       0.2405      0.00000
     91       0.2800      0.00000
     92       0.2926      0.00000


--------------------------------------------------------------------------------------------------------


 soft charge-density along one line, spin component           1
         0         1         2         3         4         5         6         7         8         9
 total charge-density along one line
 
 soft charge-density along one line, spin component           2
         0         1         2         3         4         5         6         7         8         9
 total charge-density along one line
 
 pseudopotential strength for first ion, spin component:           1
-10.632   0.006   0.001  -0.001   0.000   1.105  -0.004  -0.001
  0.006 -10.750   0.001  -0.001   0.001  -0.004   1.194  -0.000
  0.001   0.001 -10.719   0.004  -0.067  -0.001  -0.000   1.169
 -0.001  -0.001   0.004 -10.634   0.006   0.000   0.001  -0.003
  0.000   0.001  -0.067   0.006 -10.641  -0.000  -0.001   0.053
  1.105  -0.004  -0.001   0.000  -0.000   6.230   0.003   0.001
 -0.004   1.194  -0.000   0.001  -0.001   0.003   6.170   0.000
 -0.001  -0.000   1.169  -0.003   0.053   0.001   0.000   6.187
  0.000   0.001  -0.003   1.104  -0.004  -0.000  -0.001   0.002
 -0.000  -0.001   0.053  -0.004   1.111   0.000   0.001  -0.036
  0.000  -0.000   0.007  -0.001  -0.018  -0.000   0.000  -0.001
  0.000  -0.000   0.012  -0.003  -0.032  -0.000   0.001  -0.002
  0.001  -0.017   0.004  -0.000   0.007  -0.001   0.011  -0.002
 -0.000  -0.008  -0.016   0.001   0.000   0.000   0.004   0.009
 -0.008  -0.000  -0.001  -0.016   0.001   0.004   0.000   0.000
  0.001  -0.018   0.004  -0.000   0.008  -0.000   0.011  -0.001
 -0.000  -0.009  -0.016   0.001   0.001   0.000   0.003   0.007
 -0.009  -0.000  -0.001  -0.016   0.001   0.003   0.000   0.000
 pseudopotential strength for first ion, spin component:           2
-10.635   0.006   0.001  -0.001   0.000   1.108  -0.004  -0.001
  0.006 -10.754   0.001  -0.001   0.002  -0.004   1.198  -0.001
  0.001   0.001 -10.723   0.004  -0.068  -0.001  -0.001   1.172
 -0.001  -0.001   0.004 -10.637   0.006   0.000   0.001  -0.003
  0.000   0.002  -0.068   0.006 -10.644  -0.000  -0.001   0.053
  1.108  -0.004  -0.001   0.000  -0.000   6.227   0.003   0.001
 -0.004   1.198  -0.001   0.001  -0.001   0.003   6.166   0.001
 -0.001  -0.001   1.172  -0.003   0.053   0.001   0.001   6.184
  0.000   0.001  -0.003   1.106  -0.004   0.000  -0.001   0.002
 -0.000  -0.001   0.053  -0.004   1.114   0.000   0.000  -0.037
  0.000  -0.000   0.007  -0.002  -0.018  -0.000   0.001  -0.001
  0.000  -0.001   0.012  -0.003  -0.033  -0.000   0.001  -0.001
  0.001  -0.016   0.004  -0.000   0.007  -0.001   0.011  -0.002
 -0.000  -0.008  -0.015   0.001   0.001   0.000   0.003   0.009
 -0.008  -0.000  -0.001  -0.015   0.001   0.003   0.000   0.000
  0.001  -0.018   0.004  -0.000   0.008  -0.000   0.011  -0.001
 -0.000  -0.009  -0.016   0.001   0.001   0.000   0.002   0.007
 -0.009  -0.000  -0.001  -0.016   0.001   0.002   0.000   0.000
 total augmentation occupancy for first ion, spin component:           1
  1.954   0.001   0.000   0.001  -0.000  -0.023  -0.001  -0.000  -0.000  -0.000   0.001  -0.000  -0.003  -0.001   0.010   0.002
  0.001   1.931   0.002  -0.000   0.002  -0.001   0.002  -0.001   0.000  -0.000  -0.007   0.002   0.022   0.011  -0.001  -0.024
  0.000   0.002   1.931   0.002  -0.024  -0.000  -0.001  -0.006  -0.001   0.018  -0.025   0.009  -0.016   0.092   0.000   0.005
  0.001  -0.000   0.002   1.963   0.002  -0.000   0.000  -0.001  -0.030  -0.001   0.004   0.000  -0.000  -0.007   0.039   0.000
 -0.000   0.002  -0.024   0.002   1.955  -0.000  -0.000   0.018  -0.001  -0.011   0.031   0.019  -0.022   0.005  -0.004   0.009
 -0.023  -0.001  -0.000  -0.000  -0.000   0.005  -0.000  -0.000  -0.000  -0.000   0.001  -0.000  -0.002   0.000   0.000   0.000
 -0.001   0.002  -0.001   0.000  -0.000  -0.000   0.010   0.000  -0.000   0.000  -0.001   0.000   0.023   0.000   0.000  -0.001
 -0.000  -0.001  -0.006  -0.001   0.018  -0.000   0.000   0.009  -0.000   0.003   0.013  -0.002   0.001   0.020  -0.000  -0.000
 -0.000   0.000  -0.001  -0.030  -0.001  -0.000  -0.000  -0.000   0.004   0.000  -0.007   0.001  -0.000  -0.002   0.006   0.000
 -0.000  -0.000   0.018  -0.001  -0.011  -0.000   0.000   0.003   0.000   0.010  -0.099   0.007   0.001  -0.005   0.000   0.000
  0.001  -0.007  -0.025   0.004   0.031   0.001  -0.001   0.013  -0.007  -0.099   1.739  -0.096   0.049   0.189  -0.012  -0.004
 -0.000   0.002   0.009   0.000   0.019  -0.000   0.000  -0.002   0.001   0.007  -0.096   0.009   0.003  -0.019   0.001   0.000
 -0.003   0.022  -0.016  -0.000  -0.022  -0.002   0.023   0.001  -0.000   0.001   0.049   0.003   0.187  -0.005   0.001  -0.010
 -0.001   0.011   0.092  -0.007   0.005   0.000   0.000   0.020  -0.002  -0.005   0.189  -0.019  -0.005   0.090  -0.004  -0.000
  0.010  -0.001   0.000   0.039  -0.004   0.000   0.000  -0.000   0.006   0.000  -0.012   0.001   0.001  -0.004   0.028  -0.000
  0.002  -0.024   0.005   0.000   0.009   0.000  -0.001  -0.000   0.000   0.000  -0.004   0.000  -0.010  -0.000  -0.000   0.001
  0.000  -0.010  -0.029   0.002  -0.000   0.000   0.000  -0.001   0.000   0.001  -0.024   0.002   0.000  -0.008   0.000   0.000
 -0.011   0.000  -0.001  -0.024   0.002   0.000   0.000   0.000  -0.000  -0.000   0.002  -0.000  -0.000   0.000  -0.002  -0.000
 total augmentation occupancy for first ion, spin component:           2
  0.000   0.000   0.000  -0.000   0.000   0.001  -0.000  -0.000  -0.000  -0.000  -0.000  -0.000  -0.000  -0.000   0.001   0.000
  0.000  -0.000  -0.000   0.000   0.000  -0.000   0.001  -0.000  -0.000   0.000  -0.003  -0.000  -0.001   0.002  -0.000  -0.000
  0.000  -0.000  -0.000   0.000  -0.000  -0.000  -0.000   0.001  -0.000   0.000  -0.003  -0.001  -0.000   0.001  -0.000  -0.000
 -0.000   0.000   0.000   0.000   0.000  -0.000  -0.000  -0.000   0.001  -0.000  -0.000  -0.000  -0.000   0.000  -0.000  -0.000
  0.000   0.000  -0.000   0.000   0.000  -0.000   0.000   0.000  -0.000   0.001  -0.003  -0.000  -0.001   0.000   0.000  -0.000
  0.001  -0.000  -0.000  -0.000  -0.000  -0.000   0.000   0.000   0.000   0.000   0.000   0.000   0.000  -0.000   0.000  -0.000
 -0.000   0.001  -0.000  -0.000   0.000   0.000  -0.000   0.000   0.000   0.000   0.000   0.000  -0.000  -0.000   0.000  -0.000
 -0.000  -0.000   0.001  -0.000   0.000   0.000   0.000  -0.000   0.000  -0.000   0.001   0.000  -0.000  -0.000   0.000   0.000
 -0.000  -0.000  -0.000   0.001  -0.000   0.000   0.000   0.000  -0.000   0.000   0.000   0.000   0.000   0.000   0.000  -0.000
 -0.000   0.000   0.000  -0.000   0.001   0.000   0.000  -0.000   0.000  -0.000   0.001   0.000  -0.000  -0.000  -0.000   0.000
 -0.000  -0.003  -0.003  -0.000  -0.003   0.000   0.000   0.001   0.000   0.001   0.050   0.002   0.014  -0.006   0.001  -0.000
 -0.000  -0.000  -0.001  -0.000  -0.000   0.000   0.000   0.000   0.000   0.000   0.002   0.000   0.000  -0.000   0.000  -0.000
 -0.000  -0.001  -0.000  -0.000  -0.001   0.000  -0.000  -0.000   0.000  -0.000   0.014   0.000   0.001  -0.002   0.000  -0.000
 -0.000   0.002   0.001   0.000   0.000  -0.000  -0.000  -0.000   0.000  -0.000  -0.006  -0.000  -0.002   0.000  -0.000   0.000
  0.001  -0.000  -0.000  -0.000   0.000   0.000   0.000   0.000   0.000  -0.000   0.001   0.000   0.000  -0.000   0.000  -0.000
  0.000  -0.000  -0.000  -0.000  -0.000  -0.000  -0.000   0.000  -0.000   0.000  -0.000  -0.000  -0.000   0.000  -0.000   0.000
 -0.000   0.000  -0.000   0.000   0.000  -0.000  -0.000  -0.000  -0.000  -0.000  -0.000   0.000  -0.000   0.000  -0.000  -0.000
  0.000  -0.000  -0.000  -0.000   0.000  -0.000   0.000  -0.000  -0.000   0.000   0.000   0.000   0.000  -0.000   0.000   0.000


------------------------ aborting loop because EDIFF is reached ----------------------------------------


    CHARGE:  cpu time    0.16: real time    0.16
    FORLOC:  cpu time    0.02: real time    0.02
    FORNL :  cpu time    0.92: real time    0.92
    STRESS:  cpu time    1.40: real time    1.40
    FORCOR:  cpu time    0.49: real time    0.50
    FORHAR:  cpu time    0.07: real time    0.07
    MIXING:  cpu time    0.01: real time    0.01
    OFIELD:  cpu time    0.00: real time    0.00

  FORCE on cell =-STRESS in cart. coord.  units (eV):
  Direction    XX          YY          ZZ          XY          YZ          ZX
  --------------------------------------------------------------------------------------
  Alpha Z     9.32411     9.32411     9.32411
  Ewald   -6055.33634 16218.34792  8160.17370  -188.05699 -1149.60817  -723.30088
  Hartree  1018.71010 20644.76627 13108.95701  -163.00929 -1033.19793  -610.25023
  E(xc)    -837.30065  -831.43033  -832.66457    -0.05639    -0.26761    -0.24492
  Local    3734.75475-38096.58900-22500.68682   350.45676  2180.60442  1329.80085
  n-local  -317.86564  -309.85150  -315.74426    -0.07319    -0.58834    -0.13069
  augment  1242.69129  1202.72180  1204.92136     0.37086     1.32861     2.01389
  Kinetic  1201.66260  1159.40139  1161.92373     0.38720     1.55149     2.11895
  Fock        0.00000     0.00000     0.00000     0.00000     0.00000     0.00000
  -------------------------------------------------------------------------------------
  Total      -3.35977    -3.30934    -3.79573     0.01896    -0.17753     0.00698
  in kB      -0.40610    -0.40000    -0.45879     0.00229    -0.02146     0.00084
  external pressure =       -0.42 kB  Pullay stress =        0.00 kB


 VOLUME and BASIS-vectors are now :
 -----------------------------------------------------------------------------
  energy-cutoff  :      295.45
  volume of cell :    13255.36
      direct lattice vectors                 reciprocal lattice vectors
    23.666307000  0.000000000  0.000000000     0.042254163  0.000000000  0.000000000
     0.000000000 23.666307000  0.000000000     0.000000000  0.042254163  0.000000000
     0.000000000  0.000000000 23.666307000     0.000000000  0.000000000  0.042254163

  length of vectors
    23.666307000 23.666307000 23.666307000     0.042254163  0.042254163  0.042254163


 FORCES acting on ions
    electron-ion (+dipol)            ewald-force                    non-local-force                 convergence-correction
 -----------------------------------------------------------------------------------------------
   -.516E+02 0.109E+03 0.899E+03   0.512E+02 -.106E+03 -.892E+03   0.461E+00 -.341E+01 -.695E+01   -.159E-01 -.209E-01 0.621E-02
   0.514E+01 0.223E+03 0.419E+02   -.518E+01 -.224E+03 -.411E+02   0.144E-01 0.579E+00 -.841E+00   0.179E-01 0.166E-01 0.928E-01
   0.885E+02 -.331E+01 -.873E+03   -.874E+02 0.181E+01 0.865E+03   -.107E+01 0.152E+01 0.760E+01   -.436E-01 -.295E-01 -.567E-01
   -.446E+02 -.199E+03 0.847E+03   0.444E+02 0.199E+03 -.840E+03   0.262E+00 0.219E+00 -.713E+01   -.149E-01 0.703E-01 0.220E-01
   -.467E+01 -.114E+03 0.122E+02   0.447E+01 0.115E+03 -.124E+02   0.152E+00 -.366E+00 0.151E+00   0.373E-01 -.658E-01 0.152E-02
   0.714E+02 -.254E+03 -.823E+03   -.707E+02 0.254E+03 0.815E+03   -.674E+00 -.236E+00 0.797E+01   -.290E-01 -.513E-01 -.436E-01
   0.433E+02 -.821E+03 -.527E+03   -.428E+02 0.810E+03 0.522E+03   -.491E+00 0.104E+02 0.559E+01   -.247E-01 -.256E-03 -.459E-01
   -.699E+01 -.652E+03 0.232E+02   0.691E+01 0.652E+03 -.234E+02   0.510E-01 0.494E+00 0.204E+00   0.202E-01 -.184E-01 -.432E-01
   -.519E+02 -.788E+03 0.592E+03   0.511E+02 0.777E+03 -.585E+03   0.685E+00 0.107E+02 -.697E+01   0.107E+00 0.947E-01 0.411E-01
   -.171E+02 0.589E+03 0.845E+03   0.170E+02 -.585E+03 -.835E+03   0.715E-01 -.386E+01 -.110E+02   -.528E-01 0.372E-01 0.603E-01
   -.234E+02 0.830E+03 0.243E+03   0.233E+02 -.826E+03 -.241E+03   0.127E+00 -.416E+01 -.263E+01   -.497E-01 -.305E-01 0.428E-01
   -.160E+02 0.811E+03 -.478E+03   0.158E+02 -.801E+03 0.471E+03   0.163E+00 -.103E+02 0.701E+01   -.376E-01 -.266E-02 0.695E-01
   0.795E+01 0.269E+03 -.803E+03   -.810E+01 -.268E+03 0.797E+03   0.790E-01 -.679E+00 0.640E+01   0.730E-01 -.368E-01 -.435E-01
 -----------------------------------------------------------------------------------------------
   0.405E-01 -.912E+00 0.528E+00   0.231E-13 -.568E-13 -.227E-12   -.165E+00 0.949E+00 -.555E+00   -.125E-01 -.373E-01 0.103E+00
 
 
 POSITION                                       TOTAL-FORCE (eV/Angst)
 -----------------------------------------------------------------------------------
     11.94157     11.39810      9.62072        -0.006383      0.018336     -0.002273
     11.83237     10.24285     11.71579         0.005083     -0.019021     -0.005000
     11.66404     11.51621     13.74594        -0.005658     -0.001780      0.022206
     11.94359     13.79895      9.55993         0.001911     -0.003358     -0.018903
     11.82040     12.66817     11.65923         0.005712     -0.007836     -0.013922
     11.65590     13.95755     13.66103        -0.008950      0.002667     -0.003272
     11.65978     16.31104     13.62221        -0.007662     -0.021731     -0.018299
     11.82555     15.15020     11.57532         0.004163     -0.014098      0.004387
     11.98984     16.14747      9.47286         0.039974      0.013087      0.003829
     11.90598      8.95828      9.70739        -0.015807      0.008313      0.004859
     11.89248      7.83323     11.79392        -0.010974      0.013777      0.001550
     11.88921      6.73896     13.85368        -0.013128      0.015539      0.018869
     11.81028      9.10998     13.84298         0.011721     -0.003896      0.005969
 -----------------------------------------------------------------------------------
    total drift:                               -0.136545     -0.000221      0.076203


--------------------------------------------------------------------------------------------------------



  FREE ENERGIE OF THE ION-ELECTRON SYSTEM (eV)
  ---------------------------------------------------
  free  energy   TOTEN  =       -30.56296226 eV

  energy  without entropy=      -30.56296226  energy(sigma->0) =      -30.56296226
 
 d Force = 0.8958113E-05[ 0.155E-04, 0.239E-05]  d Energy = 0.8046009E-05 0.912E-06
 d Force =-0.3259789E+00[-0.326E+00,-0.326E+00]  d Ewald  =-0.3259789E+00-0.655E-10


--------------------------------------------------------------------------------------------------------


    POTLOK:  cpu time    0.52: real time    0.52


--------------------------------------------------------------------------------------------------------




--------------------------------------------------------------------------------------------------------


  
 reached required accuracy - stopping structural energy minimisation
     LOOP+:  cpu time    9.40: real time   10.52
    4ORBIT:  cpu time    0.00: real time    0.00

 total amount of memory used by VASP on root node    83265. kBytes
========================================================================

   base      :      30000. kBytes
   nonl-proj :       3362. kBytes
   fftplans  :      12071. kBytes
   grid      :      30758. kBytes
   one-center:         31. kBytes
   wavefun   :       7043. kBytes
 
  
  
 General timing and accounting informations for this job:
 ========================================================
  
                  Total CPU time used (sec):      335.485
                            User time (sec):      331.773
                          System time (sec):        3.712
                         Elapsed time (sec):      363.176
  
                   Maximum memory used (kb):      114084.
                   Average memory used (kb):           0.
  
                          Minor page faults:       685479
                          Major page faults:            0
                 Voluntary context switches:         4572
