   18   18 1000    2
  0.3903958E+03  0.1915399E-08  0.1915399E-08  0.1915399E-08  0.1000000E-15
  1.000000000000000E-004
  CAR 
 unknown system                          
    198      1    128
 
  0.0000000E+00  0.0000000E+00  0.0000000E+00  0.1000000E+01
    1       -9.097859     -9.097859
    2       -8.915636     -8.915636
    3       -8.901242     -8.901242
    4       -8.854830     -8.854830
    5       -8.847276     -8.847276
    6       -8.770206     -8.770206
    7       -8.705316     -8.705316
    8       -8.628521     -8.628521
    9       -8.621325     -8.621325
   10       -8.577066     -8.577066
   11       -8.543493     -8.543493
   12       -8.516000     -8.516000
   13       -8.471621     -8.471621
   14       -8.383572     -8.383572
   15       -8.332042     -8.332042
   16       -8.316186     -8.316186
   17       -8.275522     -8.275522
   18       -8.242817     -8.242817
   19       -8.167385     -8.167385
   20       -8.148688     -8.148688
   21       -8.142342     -8.142342
   22       -8.079214     -8.079214
   23       -8.063163     -8.063163
   24       -8.037658     -8.037658
   25       -7.997866     -7.997866
   26       -7.974443     -7.974443
   27       -7.924439     -7.924439
   28       -7.885756     -7.885756
   29       -7.822253     -7.822253
   30       -7.781543     -7.781543
   31       -7.767911     -7.767911
   32       -7.721453     -7.721453
   33       -7.665825     -7.665825
   34       -7.660895     -7.660895
   35       -7.648330     -7.648330
   36       -7.587953     -7.587953
   37       -7.542424     -7.542424
   38       -7.511576     -7.511576
   39       -7.498269     -7.498269
   40       -7.488589     -7.488589
   41       -7.459520     -7.459520
   42       -7.416616     -7.416616
   43       -7.384626     -7.384626
   44       -7.307064     -7.307064
   45       -7.297118     -7.297118
   46       -7.269786     -7.269786
   47       -7.220016     -7.220016
   48       -7.206997     -7.206997
   49       -7.167067     -7.167067
   50       -7.145599     -7.145599
   51       -7.121268     -7.121268
   52       -7.101879     -7.101879
   53       -7.084128     -7.084128
   54       -7.040987     -7.040987
   55       -7.018913     -7.018913
   56       -6.991570     -6.991570
   57       -6.981531     -6.981531
   58       -6.949062     -6.949062
   59       -6.933599     -6.933599
   60       -6.914263     -6.914263
   61       -6.901288     -6.901288
   62       -6.884770     -6.884770
   63       -6.856246     -6.856246
   64       -6.841439     -6.841439
   65       -6.823417     -6.823417
   66       -6.788604     -6.788604
   67       -6.774907     -6.774907
   68       -6.759971     -6.759971
   69       -6.756907     -6.756907
   70       -6.714115     -6.714115
   71       -6.680964     -6.680964
   72       -6.664881     -6.664881
   73       -6.652073     -6.652073
   74       -6.634365     -6.634365
   75       -6.594812     -6.594812
   76       -6.580125     -6.580125
   77       -6.542612     -6.542612
   78       -6.533698     -6.533698
   79       -6.517844     -6.517844
   80       -6.479265     -6.479265
   81       -6.461230     -6.461230
   82       -6.424086     -6.424086
   83       -6.393615     -6.393615
   84       -6.367942     -6.367942
   85       -6.365207     -6.365207
   86       -6.330264     -6.330264
   87       -6.299767     -6.299767
   88       -6.257093     -6.257093
   89       -6.228916     -6.228916
   90       -6.219827     -6.219826
   91       -6.189453     -6.189453
   92       -6.149164     -6.149164
   93       -6.091229     -6.091229
   94       -5.656189     -5.656189
   95       -4.661062     -4.661061
   96       -4.523036     -4.523036
   97       -4.295313     -4.295313
   98       -4.055387     -4.055386
   99       -3.979518     -3.979518
  100       -3.067571     -3.067570
  101       -2.639085     -2.639085
  102       -2.363792     -2.363791
  103       -2.266659     -2.266658
  104       -2.260032     -2.260031
  105       -2.095665     -2.095664
  106       -2.006553     -2.006552
  107       -1.815659     -1.815658
  108       -1.579569     -1.579568
  109       -1.357361     -1.357359
  110       -0.723749     -0.723746
  111       -0.706104     -0.706100
  112       -0.661663     -0.661660
  113       -0.492597     -0.492589
  114       -0.410740     -0.410735
  115       -0.368753     -0.368750
  116       -0.272747     -0.272744
  117       -0.146791     -0.146788
  118       -0.092934     -0.092928
  119        0.119401      0.119405
  120        0.309043      0.309012
  121        0.368343      0.368030
  122        0.593841      0.593803
  123        0.669821      0.668832
  124        0.744855      0.744757
  125        0.783677      0.783295
  126        0.793668      0.793125
  127        0.810140      0.809655
  128        0.873563      0.873036
