15
Energy = -108.82159611 eV
Mn 12.152972647241098 10.567485282909104 13.335756120368103
Mn 13.664212497007618 11.939609810705937 11.860042621225212
Mn 9.341102927938191 13.39314959458802 12.091673273586736
Mn 12.196994621744427 8.644223271403753 9.292156046976144
Mn 13.997795557672372 9.333234347624554 11.45520559272501
Mn 8.033722524593482 11.099992310321039 12.134932827445017
Mn 11.595440438336885 12.818791792635576 10.40298395881098
Mn 9.679351546828112 11.747772382119148 14.122612129766209
Mn 13.430712522064907 11.100867854599368 9.425217778132469
Mn 11.976507243195488 10.212457743306263 10.91745951070661
Mn 10.36404783914193 11.37318851306091 11.89011323513293
Mn 9.67553374168151 9.612198110799659 10.337872357984951
Mn 8.965965578777276 12.064879359233826 9.875888941325075
Mn 11.702383970212644 13.125103897027385 13.165024859624708
Mn 10.98035363232974 10.917101462730951 8.620721941811992
