19
Energy = -118.6214294 eV
Mn 12.002274367417474 11.66196530459405 6.824800208464581
Mn 11.28007880555641 11.952953945677862 13.144740315613376
Mn 9.774796664803048 15.15039888469719 9.915416644299029
Mn 7.655727124823923 13.646472915620237 8.723241720952142
Mn 5.449025897073738 9.687762822501002 9.043486192227972
Mn 6.212333292163609 8.697858150864834 11.921600391263484
Mn 8.364482517338962 8.843957669433562 13.134386311834225
Mn 10.21219538142233 9.962863801912176 14.002229494438792
Mn 13.565879488946118 11.246027942303446 8.573712783503183
Mn 10.05889477236038 10.549443932209087 6.162167480967924
Mn 12.698250117534556 11.718466540690123 10.984852661963709
Mn 9.883102325868402 13.035740801893148 7.451815709260443
Mn 12.432687546077965 7.514632978098371 10.936519313588759
Mn 12.134114534615735 9.687958709992897 12.332012088969682
Mn 7.640561454792461 7.461620663329566 7.163176396758667
Mn 8.919037885167263 8.658642999530757 5.893839478551025
Mn 8.918958990054962 6.35857202976573 9.578421630447528
Mn 11.359936813722053 5.304104954458758 10.564096092395957
Mn 10.432334350286975 7.842361564763753 12.626763965863464
