14
Energy = -84.66198323 eV
Mn 11.03177947028241 11.009466637548023 11.021956397267038
Mn 8.719434658094734 7.10582716205958 12.164675406218505
Mn 11.651208757870867 4.354655471550976 12.972443162986986
Mn 11.99589960195066 2.0150565897221275 13.656658336159467
Mn 13.969570473450942 3.2595624402512993 13.29169473282678
Mn 15.770573970764973 9.374281685414143 11.500480454325158
Mn 11.296183159826246 6.906325676894568 12.221916689200508
Mn 13.549547388934752 8.254153392781893 11.830120600012778
Mn 13.692148484722672 10.768133991896201 11.091611635584446
Mn 14.407415166005832 13.665856307815009 10.24080569118756
Mn 16.72134580191065 14.037408342411231 10.137194393956113
Mn 16.141821954413114 11.720826376888452 10.811546072150067
Mn 18.151608214406657 7.982878399874807 11.910093606655131
Mn 17.966306130430272 5.803668498805014 12.545070715086194
