10
Energy = -61.45021697 eV
Mn 7.029044404322636 6.473008073283649 7.308170006010711
Mn 6.174221718228821 8.630721556529485 7.610712902975258
Mn 5.994520905109099 6.065282881272663 9.444743845871173
Mn 7.195789788396708 10.535367415771239 6.280268596473217
Mn 12.368162040558223 8.496101285865677 11.485795752191146
Mn 13.121624393641563 13.288929469189465 12.916295018473521
Mn 12.85771334547461 10.831001865027815 12.70882530346869
Mn 11.18498369113029 12.53910517444035 14.116487413496769
Mn 8.034658886370543 8.102332633799271 5.799391295642794
Mn 14.641748492126775 14.551520879086384 11.919299834498684
