24
Energy = -180.89866704 eV
Mn 9.684620641943887 6.396704301153512 11.033711211746782
Mn 10.632116968308338 9.016616582174395 11.536607930421885
Mn 8.350774415983688 8.442975657815051 10.82741227741633
Mn 6.978332062690215 6.281384345181947 10.382120917526414
Mn 8.25298317471266 10.674746111016404 11.464732724918031
Mn 9.960947684934968 7.921004732775968 9.251075649213178
Mn 12.086358113473208 9.202898603283067 9.145677199444853
Mn 8.864000164429095 5.678952136984687 8.852909162414585
Mn 10.02962679467186 10.323515294576435 9.588575389127499
Mn 11.185362881102124 6.308777341997189 8.043904488358152
Mn 7.382941706960409 7.733789448794796 8.529022098577432
Mn 6.056645812403448 8.755432283004424 10.473033961586538
Mn 8.910825479956246 9.430448086518759 7.577576809303581
Mn 5.089891822990976 7.523240749397064 8.363740782322107
Mn 11.132546876494496 8.641224453277568 7.050784948370757
Mn 6.953349273639927 5.83814675170132 7.306251486105299
Mn 7.485166198147036 10.232859653055694 9.292079847652966
Mn 5.709380295809149 9.916629019246857 7.919478567506698
Mn 9.027487528448587 7.181936762762991 6.738388180482515
Mn 10.63959340636564 11.127536330039842 7.324172923632563
Mn 8.77816277804699 12.228963124028617 9.103632105458308
Mn 6.863590909903134 8.505133233534435 6.284971538186555
Mn 7.752437493777986 11.176824440236292 6.860911688135086
Mn 9.478396829027103 9.278588743518215 5.309993156323699
