24
Energy = -179.81427334 eV
Mn 6.390610158682945 8.091252766666013 12.002246335088426
Mn 9.232652303395438 9.194668394763017 6.925935901958349
Mn 6.077261520631229 9.300160190853099 9.680075517681939
Mn 7.534274444040221 7.937303864130695 8.30016929718681
Mn 10.253465846395695 7.926015516691859 8.722064098335828
Mn 11.196904386617064 7.962912361260769 6.465238187300042
Mn 6.930466307524429 5.373914585484831 7.642470309339749
Mn 5.491569295645436 10.674875704006936 11.83982925374333
Mn 7.019604347190614 10.386855930904497 7.414720553347348
Mn 8.602478304285908 9.9042625059124 9.152407630808165
Mn 8.925126886182232 6.752496635774082 6.625295972899041
Mn 10.278632174781826 9.354505809355377 10.831072746997002
Mn 7.165025861418681 11.70188756586028 9.910131509657754
Mn 5.482337067629136 7.821547357247862 7.421564785960645
Mn 7.784690493350107 5.748728725280257 11.475251383768823
Mn 8.370539407213714 7.875262776417342 10.564080529951664
Mn 10.807723785276044 10.347896083339313 8.196687123300519
Mn 10.360355484877033 6.456734290315834 10.72570317083403
Mn 6.38205583392988 6.2700095445392705 5.571182266459468
Mn 7.863028149347747 10.066899052534353 11.602627592718054
Mn 7.249540959596493 8.566068408314779 5.749280890067096
Mn 8.584645015130867 6.009617717223012 9.124766572662717
Mn 5.988966540207349 6.6952730065734185 9.788335373538459
Mn 10.66288232760922 5.592632459529566 7.9793203093769725
