35
Energy = -231.36972438 eV
Mn 15.23640717208792 11.293896512556257 8.486323214105578
Mn 16.04425688081139 11.342365294549467 10.862299803335478
Mn 12.88523804112152 13.868929775531756 12.703393820115219
Mn 12.225571343591632 14.856808717529812 10.66880605852867
Mn 11.991830385499755 12.706779777669942 6.163782879821922
Mn 9.778783612806327 13.565690468033981 7.3874832761456934
Mn 10.20929438765571 14.213659811275585 12.044550022504968
Mn 15.157582191967107 9.411409248401734 12.15857519104156
Mn 14.61411657747533 8.665807605454495 7.853417142442751
Mn 12.256857647365623 14.022893475630294 8.337667071796657
Mn 14.80169758259338 12.043551695602844 12.76644819249294
Mn 14.129476437935608 12.978751152643254 7.17031926449721
Mn 9.752692735419046 12.266771419893303 5.365322764678427
Mn 13.777854003670383 10.718917020394064 6.436171051087121
Mn 10.89777337523442 12.984067040665865 14.24742295052231
Mn 13.28640872260211 12.44695269434058 14.580376554525726
Mn 13.765011201425521 10.103049932171116 14.205850907823027
Mn 9.868984644205916 6.91592327539944 8.642905961323814
Mn 9.772091255220449 6.471599616169206 11.106832421653408
Mn 5.400328614842321 9.677244050654105 13.168758028391615
Mn 8.318647723098316 7.835555566765019 7.0084787297959465
Mn 5.4845569274906465 11.873671217628923 7.53039465421622
Mn 6.839648957359678 11.780858395697244 13.480211645191448
Mn 11.911161612571851 6.917234129282311 12.303432825766262
Mn 6.736969725361957 9.63467173499449 7.195483321780268
Mn 4.784612517160051 11.796450104668251 12.13530296494809
Mn 9.4737122729497 7.584174111207203 13.230724157620239
Mn 11.79845249964681 6.0901641714618755 10.007025214765308
Mn 9.052283994398762 11.210792244807227 14.591825883344736
Mn 9.587646929773843 8.922486532910025 15.277505161628302
Mn 7.5006860203344425 9.147815298616605 14.271875735084334
Mn 11.771047426461115 8.276925489884814 14.509078178774557
Mn 8.591781051356913 13.431004440435915 13.67724078690441
Mn 13.115953088343764 8.405252804337024 6.052672642370506
Mn 4.6212032154915486 11.973070602338517 9.791777397506982
