30
Energy = -200.87242759 eV
Mn 10.813140549953523 10.813087442559691 10.811224497503105
Mn 11.855360424254311 6.095833822335438 11.59155939013025
Mn 11.869612620803759 9.17154906487908 14.830312388764618
Mn 12.263843278935413 6.840482374739173 13.880991600859122
Mn 12.875010059986163 9.770241900479313 17.10090871727822
Mn 14.051193253619564 5.434807491316326 15.176976530014304
Mn 13.916865595562218 5.2040812053970225 10.404745829564309
Mn 12.398751208353037 12.057915753467698 9.258813313627378
Mn 12.29696666753773 13.392920655717363 13.865820102613176
Mn 12.923324457809379 7.40602787775829 16.28806231498468
Mn 13.588418262023792 4.871362143188064 12.802257494425673
Mn 11.821489540937387 9.509130455542424 9.031770753120353
Mn 11.794134784507653 12.950363202708452 11.465504868232168
Mn 12.002708405785198 11.577396878063652 15.602610002971893
Mn 14.067958299260496 10.375083727751367 19.175149636456908
Mn 15.98615732304508 4.329704567774889 16.30606505315476
Mn 16.07102981543644 4.723010700799384 9.298820452432023
Mn 13.51991058213106 15.482074898330131 14.462160218978113
Mn 14.235513823724819 13.013138128004103 7.92039875168065
Mn 13.293764494616074 12.151048365058003 17.893648045702633
Mn 14.867624315134103 6.0231272103221825 17.518740767774386
Mn 13.114516107146075 13.938084898631892 16.210529761386542
Mn 14.182018842653612 8.144626325279985 18.55204460315876
Mn 15.73771821231251 3.8591308261275 14.007284687163557
Mn 15.891585312900137 4.037189270024654 11.543579250162031
Mn 14.659084339703803 6.286544652626833 8.208654861740602
Mn 13.453515470848684 8.325294588991454 7.581113339344061
Mn 13.63842122885879 14.221294504224218 9.848693603003523
Mn 13.25506983661415 15.071573199009721 12.148205701897556
Mn 12.36464268873694 7.077887714414181 9.4290425092239
