4
Energy = -25.1453786 eV
Mn 7.578127426868204 6.673196993299321 5.158557592628924
Mn 8.22888475859144 6.548957880216728 7.771919496001898
Mn 7.332156337173581 8.867158420790858 6.718952603464903
Mn 5.642944301045041 6.789640783667674 7.030295134200698
