4
Energy = -24.66666374 eV
Mn 11.018293104241017 11.960950895224268 9.32073466923495
Mn 9.955209651830623 10.784017226663673 11.084965365697107
Mn 9.193942937819306 8.483662808080004 11.003705400005222
Mn 10.315316852981569 9.463839219398453 8.873570927468608
