 running on   32 total cores
 distrk:  each k-point on   32 cores,    1 groups
 distr:  one band on    8 cores,    4 groups
 using from now: INCAR     
 vasp.5.3.5 31Mar14 (build Feb 01 2018 12:10:03) gamma-only                     
  
 POSCAR found type information on POSCAR  Ag
 POSCAR found :  1 types and      32 ions
 scaLAPACK will be used

 ----------------------------------------------------------------------------- 
|                                                                             |
|  ADVICE TO THIS USER RUNNING 'VASP/VAMP'   (HEAR YOUR MASTER'S VOICE ...):  |
|                                                                             |
|      You have a (more or less) 'large supercell' and for larger cells       |
|      it might be more efficient to use real space projection opertators     |
|      So try LREAL= Auto  in the INCAR   file.                               |
|      Mind: At the moment your POTCAR file does not contain real space       |
|       projectors, and has to be modified,  BUT if you                       |
|      want to do an extremely  accurate calculation you might also keep the  |
|      reciprocal projection scheme          (i.e. LREAL=.FALSE.)             |
|                                                                             |
 ----------------------------------------------------------------------------- 

 LDA part: xc-table for Pade appr. of Perdew
 POSCAR, INCAR and KPOINTS ok, starting setup
 WARNING: small aliasing (wrap around) errors must be expected
 FFT: planning ...
 WAVECAR not read
 entering main loop
       N       E                     dE             d eps       ncg     rms          rms(c)
DAV:   1     0.302080846566E+04    0.30208E+04   -0.68826E+04   912   0.607E+02
DAV:   2     0.569912430535E+03   -0.24509E+04   -0.21897E+04  1504   0.157E+02
DAV:   3    -0.385941611447E+02   -0.60851E+03   -0.55866E+03  1160   0.858E+01
DAV:   4    -0.665775894323E+02   -0.27983E+02   -0.27713E+02  1000   0.198E+01
DAV:   5    -0.669800342702E+02   -0.40244E+00   -0.40208E+00  1032   0.279E+00    0.332E+01
DAV:   6    -0.274197746681E+02    0.39560E+02   -0.11849E+02   932   0.160E+01    0.175E+01
DAV:   7    -0.225822535224E+02    0.48375E+01   -0.70926E+00   960   0.436E+00    0.104E+01
DAV:   8    -0.232297785756E+02   -0.64753E+00   -0.19463E+00   960   0.242E+00    0.623E+00
DAV:   9    -0.241940066368E+02   -0.96423E+00   -0.58390E-01   992   0.191E+00    0.374E+00
DAV:  10    -0.324210804067E+02   -0.82271E+01   -0.21639E+00   952   0.207E+00    0.359E+00
DAV:  11    -0.364257199775E+02   -0.40046E+01   -0.97447E-01   984   0.186E+00    0.282E+00
DAV:  12    -0.487729368062E+02   -0.12347E+02   -0.65214E+00   920   0.330E+00    0.165E+00
DAV:  13    -0.557293566422E+02   -0.69564E+01   -0.24466E+00   968   0.178E+00    0.187E+00
DAV:  14    -0.564266876794E+02   -0.69733E+00   -0.88583E-02  1120   0.460E-01    0.163E+00
DAV:  15    -0.598537385187E+02   -0.34271E+01   -0.78189E-01   940   0.122E+00    0.111E+00
DAV:  16    -0.625874742850E+02   -0.27337E+01   -0.69714E-01   920   0.106E+00    0.618E-01
DAV:  17    -0.638047383495E+02   -0.12173E+01   -0.14667E-01   976   0.440E-01    0.453E-01
DAV:  18    -0.649736583684E+02   -0.11689E+01   -0.83842E-02   944   0.348E-01    0.297E-01
DAV:  19    -0.655526153158E+02   -0.57896E+00   -0.25206E-02   952   0.273E-01    0.129E-01
DAV:  20    -0.657800460210E+02   -0.22743E+00   -0.61174E-03   964   0.116E-01    0.864E-02
DAV:  21    -0.658380197421E+02   -0.57974E-01   -0.14317E-03   888   0.517E-02    0.487E-02
DAV:  22    -0.658727909511E+02   -0.34771E-01   -0.15850E-03   780   0.430E-02    0.265E-02
DAV:  23    -0.658759799079E+02   -0.31890E-02   -0.24912E-04   688   0.192E-02    0.215E-02
DAV:  24    -0.658820981694E+02   -0.61183E-02   -0.37221E-04   632   0.177E-02    0.126E-02
DAV:  25    -0.658865269359E+02   -0.44288E-02   -0.22199E-04   636   0.137E-02    0.767E-03
DAV:  26    -0.658879743227E+02   -0.14474E-02   -0.30685E-05   648   0.842E-03    0.485E-03
DAV:  27    -0.658892495311E+02   -0.12752E-02   -0.29038E-05   616   0.612E-03    0.327E-03
DAV:  28    -0.658892860392E+02   -0.36508E-04   -0.48260E-06   624   0.390E-03
   1 F= -.65889286E+02 E0= -.65889286E+02  d E =-.658893E+02  mag=     2.0010
 curvature:   0.00 expect dE= 0.000E+00 dE for cont linesearch  0.000E+00
 trial: gam= 0.00000 g(F)=  0.553E-01 g(S)=  0.000E+00 ort = 0.000E+00 (trialstep = 0.100E+01)
 search vector abs. value=  0.553E-01
 bond charge predicted
       N       E                     dE             d eps       ncg     rms          rms(c)
DAV:   1    -0.659413593363E+02   -0.52110E-01   -0.37221E+00   964   0.347E+00    0.161E-01
DAV:   2    -0.659431535080E+02   -0.17942E-02   -0.17304E-02   944   0.333E-01    0.117E-01
DAV:   3    -0.659431255051E+02    0.28003E-04   -0.33947E-04   760   0.508E-02
   2 F= -.65943126E+02 E0= -.65943126E+02  d E =-.538395E-01  mag=     2.0006
 ZBRENT: can't locate minimum, use default step
 trial-energy change:   -0.053839  1 .order   -0.053351   -0.055334   -0.051369
 step:   4.0000(harm= 13.9574)  dis= 0.01813  next Energy=   -66.275444 (dE=-0.386E+00)
 bond charge predicted
       N       E                     dE             d eps       ncg     rms          rms(c)
DAV:   1    -0.660707332281E+02   -0.12758E+00   -0.33570E+01   924   0.104E+01    0.460E-01
DAV:   2    -0.660863837615E+02   -0.15651E-01   -0.15557E-01   952   0.999E-01    0.344E-01
DAV:   3    -0.660859317279E+02    0.45203E-03   -0.29872E-03   976   0.146E-01    0.210E-01
DAV:   4    -0.660856648442E+02    0.26688E-03   -0.15504E-03   976   0.811E-02    0.332E-02
DAV:   5    -0.660856476813E+02    0.17163E-04   -0.56834E-05   616   0.218E-02
   3 F= -.66085648E+02 E0= -.66085648E+02  d E =-.196362E+00  mag=     2.0002
 curvature:  -2.86 expect dE=-0.986E-01 dE for cont linesearch -0.965E-01
 ZBRENT: increasing intervall
 opt :  10.0000  next Energy=   -66.296204 (dE=-0.407E+00)
 bond charge predicted
       N       E                     dE             d eps       ncg     rms          rms(c)
DAV:   1    -0.662338881756E+02   -0.14822E+00   -0.13442E+02   920   0.209E+01    0.818E-01
DAV:   2    -0.662961136809E+02   -0.62226E-01   -0.61682E-01   944   0.200E+00    0.657E-01
DAV:   3    -0.662946016183E+02    0.15121E-02   -0.10800E-02   976   0.269E-01    0.440E-01
DAV:   4    -0.662932326714E+02    0.13689E-02   -0.71585E-03   968   0.165E-01    0.811E-02
DAV:   5    -0.662932068964E+02    0.25775E-04   -0.18547E-04   628   0.431E-02
   4 F= -.66293207E+02 E0= -.66293207E+02  d E =-.403921E+00  mag=     2.0001
 curvature:  -6.23 expect dE=-0.106E+00 dE for cont linesearch -0.823E-01
 ZBRENT: increasing intervall
 opt :  22.0000  next Energy=   -66.423002 (dE=-0.534E+00)
 bond charge predicted
       N       E                     dE             d eps       ncg     rms          rms(c)
DAV:   1    -0.662025409122E+02    0.90692E-01   -0.54338E+02   912   0.424E+01    0.135E+00
DAV:   2    -0.664558502300E+02   -0.25331E+00   -0.24990E+00   960   0.407E+00    0.124E+00
DAV:   3    -0.664531579097E+02    0.26923E-02   -0.39567E-02   992   0.496E-01    0.926E-01
DAV:   4    -0.664456126980E+02    0.75452E-02   -0.23781E-02   976   0.296E-01    0.315E-01
DAV:   5    -0.664458992864E+02   -0.28659E-03   -0.18314E-03   984   0.106E-01    0.110E-01
DAV:   6    -0.664458083066E+02    0.90980E-04   -0.39175E-04   904   0.374E-02
   5 F= -.66445808E+02 E0= -.66445808E+02  d E =-.556522E+00  mag=     2.0000
 curvature:  -9.83 expect dE=-0.125E+00 dE for cont linesearch -0.339E-05
 trial: gam= 0.23159 g(F)=  0.127E-01 g(S)=  0.000E+00 ort =-0.138E-03 (trialstep = 0.520E+01)
 search vector abs. value=  0.156E-01
 bond charge predicted
       N       E                     dE             d eps       ncg     rms          rms(c)
DAV:   1    -0.664884388987E+02   -0.42540E-01   -0.28382E+01   912   0.959E+00    0.308E-01
DAV:   2    -0.665018390146E+02   -0.13400E-01   -0.13412E-01   992   0.921E-01    0.252E-01
DAV:   3    -0.665016884255E+02    0.15059E-03   -0.22446E-03  1000   0.117E-01    0.171E-01
DAV:   4    -0.665015320708E+02    0.15635E-03   -0.11802E-03   984   0.679E-02    0.509E-02
DAV:   5    -0.665016234348E+02   -0.91364E-04   -0.55666E-05   624   0.231E-02
   6 F= -.66501623E+02 E0= -.66501623E+02  d E =-.558151E-01  mag=     2.0000
 trial-energy change:   -0.055815  1 .order   -0.055440   -0.065753   -0.045126
 step:  16.5764(harm= 16.5764)  dis= 0.06600  next Energy=   -66.550611 (dE=-0.105E+00)
 bond charge predicted
       N       E                     dE             d eps       ncg     rms          rms(c)
DAV:   1    -0.664895847588E+02    0.11947E-01   -0.13621E+02   912   0.210E+01    0.604E-01
DAV:   2    -0.665527232830E+02   -0.63139E-01   -0.63977E-01   968   0.202E+00    0.525E-01
DAV:   3    -0.665519588407E+02    0.76444E-03   -0.10369E-02  1000   0.249E-01    0.375E-01
DAV:   4    -0.665502761273E+02    0.16827E-02   -0.50850E-03   976   0.141E-01    0.136E-01
DAV:   5    -0.665503652889E+02   -0.89162E-04   -0.58154E-04  1008   0.592E-02
   7 F= -.66550365E+02 E0= -.66550365E+02  d E =-.104557E+00  mag=     2.0000
 curvature: -10.21 expect dE=-0.366E-01 dE for cont linesearch -0.337E-04
 trial: gam= 0.26541 g(F)=  0.359E-02 g(S)=  0.000E+00 ort = 0.227E-03 (trialstep = 0.748E+01)
 search vector abs. value=  0.481E-02
 bond charge predicted
       N       E                     dE             d eps       ncg     rms          rms(c)
DAV:   1    -0.665662419050E+02   -0.15966E-01   -0.17991E+01   928   0.762E+00    0.175E-01
DAV:   2    -0.665748977092E+02   -0.86558E-02   -0.85453E-02   976   0.743E-01    0.161E-01
DAV:   3    -0.665748344736E+02    0.63236E-04   -0.13967E-03  1024   0.960E-02    0.114E-01
DAV:   4    -0.665746352929E+02    0.19918E-03   -0.44064E-04   936   0.413E-02    0.608E-02
DAV:   5    -0.665746759396E+02   -0.40647E-04   -0.26326E-04   656   0.332E-02
   8 F= -.66574676E+02 E0= -.66574676E+02  d E =-.243107E-01  mag=     2.0000
 ZBRENT: can't locate minimum, use default step
 trial-energy change:   -0.024311  1 .order   -0.024680   -0.027271   -0.022090
 step:  29.9011(harm= 39.3440)  dis= 0.04402  next Energy=   -66.622132 (dE=-0.718E-01)
 bond charge predicted
       N       E                     dE             d eps       ncg     rms          rms(c)
DAV:   1    -0.665355370055E+02    0.39098E-01   -0.16263E+02   912   0.230E+01    0.575E-01
DAV:   2    -0.666137783898E+02   -0.78241E-01   -0.77627E-01   968   0.225E+00    0.486E-01
DAV:   3    -0.666126835293E+02    0.10949E-02   -0.12835E-02  1016   0.294E-01    0.338E-01
DAV:   4    -0.666104177676E+02    0.22658E-02   -0.47740E-03   968   0.133E-01    0.160E-01
DAV:   5    -0.666104132638E+02    0.45038E-05   -0.17654E-03  1008   0.833E-02    0.568E-02
DAV:   6    -0.666104163138E+02   -0.30500E-05   -0.12978E-04   616   0.216E-02
   9 F= -.66610416E+02 E0= -.66610416E+02  d E =-.600510E-01  mag=     2.0000
 curvature: -23.64 expect dE=-0.401E-01 dE for cont linesearch -0.483E-03
 trial: gam= 0.38534 g(F)=  0.170E-02 g(S)=  0.000E+00 ort = 0.314E-03 (trialstep = 0.120E+02)
 search vector abs. value=  0.265E-02
 bond charge predicted
       N       E                     dE             d eps       ncg     rms          rms(c)
DAV:   1    -0.666158779142E+02   -0.54647E-02   -0.25386E+01   912   0.907E+00    0.211E-01
DAV:   2    -0.666277553485E+02   -0.11877E-01   -0.11743E-01   984   0.866E-01    0.181E-01
DAV:   3    -0.666275879329E+02    0.16742E-03   -0.18352E-03  1008   0.108E-01    0.132E-01
DAV:   4    -0.666272821027E+02    0.30583E-03   -0.82067E-04   968   0.544E-02    0.574E-02
DAV:   5    -0.666273391082E+02   -0.57005E-04   -0.23946E-04   640   0.328E-02
  10 F= -.66627339E+02 E0= -.66627339E+02  d E =-.169228E-01  mag=     2.0000
 trial-energy change:   -0.016923  1 .order   -0.017213   -0.021728   -0.012697
 step:  28.7773(harm= 28.7773)  dis= 0.03345  next Energy=   -66.636555 (dE=-0.261E-01)
 bond charge predicted
       N       E                     dE             d eps       ncg     rms          rms(c)
DAV:   1    -0.666114248590E+02    0.15857E-01   -0.50203E+01   912   0.128E+01    0.313E-01
DAV:   2    -0.666349178009E+02   -0.23493E-01   -0.23273E-01   976   0.122E+00    0.256E-01
DAV:   3    -0.666345250000E+02    0.39280E-03   -0.36583E-03   988   0.154E-01    0.182E-01
DAV:   4    -0.666338781598E+02    0.64684E-03   -0.16980E-03   968   0.784E-02    0.734E-02
DAV:   5    -0.666339275910E+02   -0.49431E-04   -0.38032E-04   912   0.410E-02
  11 F= -.66633928E+02 E0= -.66633928E+02  d E =-.235113E-01  mag=     2.0000
 curvature: -21.00 expect dE=-0.286E-01 dE for cont linesearch -0.232E-03
 trial: gam= 0.97734 g(F)=  0.136E-02 g(S)=  0.000E+00 ort =-0.171E-03 (trialstep = 0.114E+02)
 search vector abs. value=  0.356E-02
 bond charge predicted
       N       E                     dE             d eps       ncg     rms          rms(c)
DAV:   1    -0.666296996232E+02    0.41785E-02   -0.30964E+01   912   0.100E+01    0.202E-01
DAV:   2    -0.666440451705E+02   -0.14346E-01   -0.14147E-01   968   0.954E-01    0.193E-01
DAV:   3    -0.666438672397E+02    0.17793E-03   -0.21731E-03  1012   0.117E-01    0.144E-01
DAV:   4    -0.666434093639E+02    0.45788E-03   -0.72990E-04   976   0.517E-02    0.774E-02
DAV:   5    -0.666433810987E+02    0.28265E-04   -0.61636E-04  1000   0.476E-02
  12 F= -.66643381E+02 E0= -.66643381E+02  d E =-.945351E-02  mag=     2.0000
 trial-energy change:   -0.009454  1 .order   -0.010015   -0.013639   -0.006390
 step:  21.4682(harm= 21.4682)  dis= 0.03221  next Energy=   -66.646759 (dE=-0.128E-01)
 bond charge predicted
       N       E                     dE             d eps       ncg     rms          rms(c)
DAV:   1    -0.666348117693E+02    0.85976E-02   -0.24053E+01   912   0.884E+00    0.182E-01
DAV:   2    -0.666459534709E+02   -0.11142E-01   -0.11008E-01   968   0.842E-01    0.170E-01
DAV:   3    -0.666458056056E+02    0.14787E-03   -0.16944E-03  1000   0.104E-01    0.127E-01
DAV:   4    -0.666454566203E+02    0.34899E-03   -0.58114E-04   976   0.462E-02    0.668E-02
DAV:   5    -0.666454462034E+02    0.10417E-04   -0.44459E-04   984   0.406E-02
  13 F= -.66645446E+02 E0= -.66645446E+02  d E =-.115186E-01  mag=     2.0000
 curvature: -31.97 expect dE=-0.285E-01 dE for cont linesearch -0.140E-04
 trial: gam= 0.37307 g(F)=  0.890E-03 g(S)=  0.000E+00 ort =-0.394E-04 (trialstep = 0.134E+02)
 search vector abs. value=  0.136E-02
 bond charge predicted
       N       E                     dE             d eps       ncg     rms          rms(c)
DAV:   1    -0.666465039806E+02   -0.10474E-02   -0.16359E+01   912   0.729E+00    0.189E-01
DAV:   2    -0.666540384555E+02   -0.75345E-02   -0.74799E-02   964   0.691E-01    0.165E-01
DAV:   3    -0.666539219309E+02    0.11652E-03   -0.11716E-03  1008   0.839E-02    0.117E-01
DAV:   4    -0.666537097915E+02    0.21214E-03   -0.62568E-04   968   0.493E-02    0.459E-02
DAV:   5    -0.666537329401E+02   -0.23149E-04   -0.98908E-05   640   0.225E-02
  14 F= -.66653733E+02 E0= -.66653733E+02  d E =-.828674E-02  mag=     2.0000
 trial-energy change:   -0.008287  1 .order   -0.008585   -0.011747   -0.005423
 step:  24.9307(harm= 24.9307)  dis= 0.02598  next Energy=   -66.656356 (dE=-0.109E-01)
 bond charge predicted
       N       E                     dE             d eps       ncg     rms          rms(c)
DAV:   1    -0.666503883441E+02    0.33214E-02   -0.12023E+01   912   0.624E+00    0.161E-01
DAV:   2    -0.666559212380E+02   -0.55329E-02   -0.55043E-02   984   0.592E-01    0.139E-01
DAV:   3    -0.666558343696E+02    0.86868E-04   -0.85885E-04  1016   0.717E-02
  15 F= -.66655834E+02 E0= -.66655834E+02  d E =-.103882E-01  mag=     2.0000
 curvature: -19.31 expect dE=-0.117E-01 dE for cont linesearch -0.894E-05
 trial: gam= 0.70432 g(F)=  0.605E-03 g(S)=  0.000E+00 ort =-0.251E-04 (trialstep = 0.157E+02)
 search vector abs. value=  0.124E-02
 bond charge predicted
       N       E                     dE             d eps       ncg     rms          rms(c)
DAV:   1    -0.666533123063E+02    0.26089E-02   -0.20580E+01   912   0.818E+00    0.175E-01
DAV:   2    -0.666627427096E+02   -0.94304E-02   -0.92007E-02   984   0.767E-01    0.170E-01
DAV:   3    -0.666626098419E+02    0.13287E-03   -0.13703E-03  1024   0.893E-02    0.132E-01
DAV:   4    -0.666622325787E+02    0.37726E-03   -0.75454E-04   976   0.518E-02    0.601E-02
DAV:   5    -0.666622233821E+02    0.91966E-05   -0.29035E-04   768   0.349E-02
  16 F= -.66662223E+02 E0= -.66662223E+02  d E =-.638901E-02  mag=     2.0000
 trial-energy change:   -0.006389  1 .order   -0.007055   -0.009239   -0.004872
 step:  33.2669(harm= 33.2669)  dis= 0.03753  next Energy=   -66.665608 (dE=-0.977E-02)
 bond charge predicted
       N       E                     dE             d eps       ncg     rms          rms(c)
DAV:   1    -0.666524662450E+02    0.97663E-02   -0.25575E+01   912   0.911E+00    0.189E-01
DAV:   2    -0.666642737265E+02   -0.11807E-01   -0.11559E-01   976   0.859E-01    0.176E-01
DAV:   3    -0.666641291852E+02    0.14454E-03   -0.17269E-03  1008   0.102E-01    0.134E-01
DAV:   4    -0.666637372190E+02    0.39197E-03   -0.70438E-04   976   0.504E-02    0.650E-02
DAV:   5    -0.666637187981E+02    0.18421E-04   -0.37104E-04   896   0.380E-02
  17 F= -.66663719E+02 E0= -.66663719E+02  d E =-.788443E-02  mag=     2.0000
 curvature: -35.18 expect dE=-0.210E-01 dE for cont linesearch -0.981E-04
 trial: gam= 1.06286 g(F)=  0.597E-03 g(S)=  0.000E+00 ort =-0.589E-04 (trialstep = 0.127E+02)
 search vector abs. value=  0.188E-02
 bond charge predicted
       N       E                     dE             d eps       ncg     rms          rms(c)
DAV:   1    -0.666598435006E+02    0.38937E-02   -0.20357E+01   912   0.812E+00    0.141E-01
DAV:   2    -0.666692294745E+02   -0.93860E-02   -0.91923E-02   976   0.765E-01    0.143E-01
DAV:   3    -0.666691388435E+02    0.90631E-04   -0.13665E-03  1008   0.899E-02    0.112E-01
DAV:   4    -0.666688498865E+02    0.28896E-03   -0.32845E-04   824   0.352E-02    0.668E-02
DAV:   5    -0.666687945940E+02    0.55293E-04   -0.57976E-04   984   0.463E-02
  18 F= -.66668795E+02 E0= -.66668795E+02  d E =-.507580E-02  mag=     2.0000
 trial-energy change:   -0.005076  1 .order   -0.005639   -0.006806   -0.004472
 step:  37.1537(harm= 37.1537)  dis= 0.04078  next Energy=   -66.673640 (dE=-0.992E-02)
 bond charge predicted
       N       E                     dE             d eps       ncg     rms          rms(c)
DAV:   1    -0.666384437921E+02    0.30406E-01   -0.74853E+01   912   0.156E+01    0.278E-01
DAV:   2    -0.666730558071E+02   -0.34612E-01   -0.33866E-01   968   0.147E+00    0.277E-01
DAV:   3    -0.666726954040E+02    0.36040E-03   -0.50659E-03  1000   0.173E-01    0.217E-01
DAV:   4    -0.666715959122E+02    0.10995E-02   -0.12826E-03   944   0.683E-02    0.127E-01
DAV:   5    -0.666713354020E+02    0.26051E-03   -0.18141E-03   976   0.798E-02    0.432E-02
DAV:   6    -0.666713725075E+02   -0.37105E-04   -0.22717E-05   624   0.106E-02
  19 F= -.66671373E+02 E0= -.66671373E+02  d E =-.765371E-02  mag=     2.0000
 curvature: -65.23 expect dE=-0.475E-01 dE for cont linesearch -0.590E-04
 trial: gam= 0.96419 g(F)=  0.728E-03 g(S)=  0.000E+00 ort =-0.412E-04 (trialstep = 0.138E+02)
 search vector abs. value=  0.239E-02
 bond charge predicted
       N       E                     dE             d eps       ncg     rms          rms(c)
DAV:   1    -0.666654894484E+02    0.58460E-02   -0.30557E+01   912   0.995E+00    0.189E-01
DAV:   2    -0.666795039607E+02   -0.14015E-01   -0.13711E-01   960   0.935E-01    0.176E-01
DAV:   3    -0.666793291213E+02    0.17484E-03   -0.20490E-03  1016   0.109E-01    0.136E-01
DAV:   4    -0.666788751336E+02    0.45399E-03   -0.71809E-04   976   0.504E-02    0.669E-02
DAV:   5    -0.666788587286E+02    0.16405E-04   -0.53008E-04   984   0.435E-02
  20 F= -.66678859E+02 E0= -.66678859E+02  d E =-.748622E-02  mag=     2.0000
 trial-energy change:   -0.007486  1 .order   -0.008030   -0.009509   -0.006551
 step:  44.4234(harm= 44.4234)  dis= 0.07088  next Energy=   -66.686655 (dE=-0.153E-01)
 bond charge predicted
       N       E                     dE             d eps       ncg     rms          rms(c)
DAV:   1    -0.666173322565E+02    0.61543E-01   -0.15064E+02   912   0.221E+01    0.468E-01
DAV:   2    -0.666878141450E+02   -0.70482E-01   -0.68676E-01   968   0.210E+00    0.396E-01
DAV:   3    -0.666867953937E+02    0.10188E-02   -0.10528E-02   996   0.250E-01    0.294E-01
DAV:   4    -0.666845946346E+02    0.22008E-02   -0.36978E-03   968   0.115E-01    0.136E-01
DAV:   5    -0.666844349854E+02    0.15965E-03   -0.18474E-03   976   0.829E-02    0.467E-02
DAV:   6    -0.666844929128E+02   -0.57927E-04   -0.47461E-05   624   0.149E-02
  21 F= -.66684493E+02 E0= -.66684493E+02  d E =-.131204E-01  mag=     2.0000
 curvature: -77.21 expect dE=-0.982E-01 dE for cont linesearch -0.523E-06
 trial: gam= 1.69410 g(F)=  0.127E-02 g(S)=  0.000E+00 ort = 0.402E-05 (trialstep = 0.585E+01)
 search vector abs. value=  0.815E-02
 bond charge predicted
       N       E                     dE             d eps       ncg     rms          rms(c)
DAV:   1    -0.666831230985E+02    0.13119E-02   -0.18657E+01   912   0.776E+00    0.141E-01
DAV:   2    -0.666918538611E+02   -0.87308E-02   -0.83814E-02   976   0.730E-01    0.137E-01
DAV:   3    -0.666917776274E+02    0.76234E-04   -0.12402E-03  1000   0.835E-02    0.108E-01
DAV:   4    -0.666915067925E+02    0.27083E-03   -0.41991E-04   952   0.387E-02    0.555E-02
DAV:   5    -0.666915188550E+02   -0.12062E-04   -0.39098E-04   968   0.374E-02
  22 F= -.66691519E+02 E0= -.66691519E+02  d E =-.702594E-02  mag=     2.0000
 ZBRENT: can't locate minimum, use default step
 trial-energy change:   -0.007026  1 .order   -0.007290   -0.007481   -0.007100
 step:  23.4093(harm=114.8858)  dis= 0.07301  next Energy=   -66.757919 (dE=-0.734E-01)
 bond charge predicted
       N       E                     dE             d eps       ncg     rms          rms(c)
DAV:   1    -0.666324968349E+02    0.59010E-01   -0.16925E+02   912   0.235E+01    0.490E-01
DAV:   2    -0.667129299861E+02   -0.80433E-01   -0.77621E-01   968   0.223E+00    0.414E-01
DAV:   3    -0.667118488676E+02    0.10811E-02   -0.11914E-02   996   0.264E-01    0.308E-01
DAV:   4    -0.667093893133E+02    0.24596E-02   -0.38501E-03   968   0.118E-01    0.148E-01
DAV:   5    -0.667091147005E+02    0.27461E-03   -0.22347E-03   968   0.908E-02    0.484E-02
DAV:   6    -0.667091857346E+02   -0.71034E-04   -0.46143E-05   632   0.150E-02
  23 F= -.66709186E+02 E0= -.66709186E+02  d E =-.246928E-01  mag=     2.0000
 curvature: ****** expect dE=-0.143E+00 dE for cont linesearch -0.139E-01
 ZBRENT: increasing intervall
 opt :  58.5233  next Energy=   -66.738444 (dE=-0.540E-01)
 bond charge predicted
       N       E                     dE             d eps       ncg     rms          rms(c)
DAV:   1    -0.663935397385E+02    0.31557E+00   -0.69355E+02   912   0.480E+01    0.130E+00
DAV:   2    -0.667338977091E+02   -0.34036E+00   -0.33380E+00   964   0.465E+00    0.865E-01
DAV:   3    -0.667279888719E+02    0.59088E-02   -0.54000E-02   992   0.587E-01    0.588E-01
DAV:   4    -0.667196607522E+02    0.83281E-02   -0.12791E-02   960   0.219E-01    0.305E-01
DAV:   5    -0.667183453368E+02    0.13154E-02   -0.62823E-03   952   0.155E-01    0.841E-02
DAV:   6    -0.667185925369E+02   -0.24720E-03   -0.12769E-04   680   0.263E-02    0.550E-02
DAV:   7    -0.667189141353E+02   -0.32160E-03   -0.46884E-05   632   0.130E-02    0.210E-02
DAV:   8    -0.667192137675E+02   -0.29963E-03   -0.18233E-05   632   0.772E-03    0.629E-03
DAV:   9    -0.667194683766E+02   -0.25461E-03   -0.63574E-06   624   0.373E-03    0.320E-03
DAV:  10    -0.667196515812E+02   -0.18320E-03   -0.30373E-06   640   0.206E-03    0.202E-03
DAV:  11    -0.667198808057E+02   -0.22922E-03   -0.49451E-06   624   0.206E-03    0.135E-03
DAV:  12    -0.667200670824E+02   -0.18628E-03   -0.48494E-06   632   0.163E-03    0.872E-04
DAV:  13    -0.667201563981E+02   -0.89316E-04   -0.20006E-06   648   0.108E-03
  24 F= -.66720156E+02 E0= -.66720156E+02  d E =-.356635E-01  mag=     2.0000
 curvature: ****** expect dE=-0.111E+01 dE for cont linesearch -0.143E-01
 ZBRENT: bracketing found
 ZBRENT: interpolating
 opt :  44.0751  next Energy=   -66.725324 (dE=-0.408E-01)
 bond charge predicted
       N       E                     dE             d eps       ncg     rms          rms(c)
DAV:   1    -0.666742086744E+02    0.45858E-01   -0.11432E+02   912   0.193E+01    0.348E-01
DAV:   2    -0.667258871183E+02   -0.51678E-01   -0.50662E-01   976   0.180E+00    0.353E-01
DAV:   3    -0.667252863082E+02    0.60081E-03   -0.75286E-03  1016   0.205E-01    0.286E-01
DAV:   4    -0.667234148578E+02    0.18715E-02   -0.22201E-03   984   0.898E-02    0.158E-01
DAV:   5    -0.667229588320E+02    0.45603E-03   -0.27258E-03   976   0.983E-02    0.542E-02
DAV:   6    -0.667229804634E+02   -0.21631E-04   -0.32402E-05   624   0.132E-02
  25 F= -.66722980E+02 E0= -.66722980E+02  d E =-.384876E-01  mag=     2.0000
 curvature: -82.30 expect dE=-0.233E+00 dE for cont linesearch -0.220E-03
 trial: gam= 2.04788 g(F)=  0.284E-02 g(S)=  0.000E+00 ort = 0.147E-03 (trialstep = 0.292E+01)
 search vector abs. value=  0.376E-01
 bond charge predicted
       N       E                     dE             d eps       ncg     rms          rms(c)
DAV:   1    -0.667228538761E+02    0.10496E-03   -0.21537E+01   916   0.834E+00    0.139E-01
DAV:   2    -0.667326847614E+02   -0.98309E-02   -0.95119E-02   968   0.780E-01    0.150E-01
DAV:   3    -0.667326016770E+02    0.83084E-04   -0.14292E-03  1016   0.902E-02    0.122E-01
DAV:   4    -0.667322999904E+02    0.30169E-03   -0.35505E-04   904   0.360E-02    0.741E-02
DAV:   5    -0.667322528032E+02    0.47187E-04   -0.72946E-04   968   0.505E-02
  26 F= -.66732253E+02 E0= -.66732253E+02  d E =-.927234E-02  mag=     2.0000
 ZBRENT: can't locate minimum, use default step
 trial-energy change:   -0.009272  1 .order   -0.009088   -0.009173   -0.009004
 step:  11.6962(harm=158.3920)  dis= 0.08895  next Energy=   -66.971424 (dE=-0.248E+00)
 bond charge predicted
       N       E                     dE             d eps       ncg     rms          rms(c)
DAV:   1    -0.666620161347E+02    0.70284E-01   -0.19530E+02   912   0.252E+01    0.501E-01
DAV:   2    -0.667517749412E+02   -0.89759E-01   -0.88629E-01   968   0.238E+00    0.455E-01
DAV:   3    -0.667504563532E+02    0.13186E-02   -0.13598E-02  1024   0.286E-01    0.337E-01
DAV:   4    -0.667476034865E+02    0.28529E-02   -0.36144E-03   984   0.114E-01    0.188E-01
DAV:   5    -0.667469463564E+02    0.65713E-03   -0.33831E-03   984   0.110E-01    0.597E-02
DAV:   6    -0.667469970969E+02   -0.50741E-04   -0.47385E-05   648   0.157E-02
  27 F= -.66746997E+02 E0= -.66746997E+02  d E =-.240166E-01  mag=     2.0000
 curvature: ****** expect dE=-0.264E+00 dE for cont linesearch -0.140E-02
 ZBRENT: extrapolating
 opt :  14.3319  next Energy=   -66.747935 (dE=-0.250E-01)
 bond charge predicted
       N       E                     dE             d eps       ncg     rms          rms(c)
DAV:   1    -0.667393696096E+02    0.75767E-02   -0.17455E+01   920   0.750E+00    0.136E-01
DAV:   2    -0.667472677256E+02   -0.78981E-02   -0.77411E-02   976   0.701E-01    0.135E-01
DAV:   3    -0.667471813580E+02    0.86368E-04   -0.11567E-03  1000   0.814E-02    0.105E-01
DAV:   4    -0.667469314527E+02    0.24991E-03   -0.34688E-04   872   0.356E-02    0.583E-02
DAV:   5    -0.667469355204E+02   -0.40678E-05   -0.41317E-04   960   0.388E-02
  28 F= -.66746936E+02 E0= -.66746936E+02  d E =-.239551E-01  mag=     2.0000
 curvature: -69.68 expect dE=-0.186E+00 dE for cont linesearch -0.252E-03
 trial: gam= 0.15458 g(F)=  0.267E-02 g(S)=  0.000E+00 ort =-0.369E-03 (trialstep = 0.521E+01)
 search vector abs. value=  0.345E-02
 bond charge predicted
       N       E                     dE             d eps       ncg     rms          rms(c)
DAV:   1    -0.667561613437E+02   -0.92299E-02   -0.62741E+00   912   0.451E+00    0.117E-01
DAV:   2    -0.667591159377E+02   -0.29546E-02   -0.29022E-02   976   0.430E-01    0.987E-02
DAV:   3    -0.667590957253E+02    0.20212E-04   -0.43728E-04   984   0.518E-02
  29 F= -.66759096E+02 E0= -.66759096E+02  d E =-.121602E-01  mag=     2.0000
 ZBRENT: can't locate minimum, use default step
 trial-energy change:   -0.012160  1 .order   -0.012055   -0.013595   -0.010516
 step:  20.8225(harm= 22.9907)  dis= 0.03017  next Energy=   -66.776956 (dE=-0.300E-01)
 bond charge predicted
       N       E                     dE             d eps       ncg     rms          rms(c)
DAV:   1    -0.667531499688E+02    0.59660E-02   -0.56612E+01   912   0.136E+01    0.338E-01
DAV:   2    -0.667790932673E+02   -0.25943E-01   -0.25877E-01   988   0.129E+00    0.308E-01
DAV:   3    -0.667787264830E+02    0.36678E-03   -0.38438E-03  1000   0.152E-01    0.228E-01
DAV:   4    -0.667779026584E+02    0.82382E-03   -0.20514E-03   972   0.874E-02    0.929E-02
DAV:   5    -0.667779436818E+02   -0.41023E-04   -0.47135E-04  1008   0.451E-02
  30 F= -.66777944E+02 E0= -.66777944E+02  d E =-.310082E-01  mag=     2.0000
 curvature: -14.97 expect dE=-0.158E-01 dE for cont linesearch -0.838E-03
 trial: gam= 0.17322 g(F)=  0.105E-02 g(S)=  0.000E+00 ort = 0.440E-03 (trialstep = 0.833E+01)
 search vector abs. value=  0.131E-02
 bond charge predicted
       N       E                     dE             d eps       ncg     rms          rms(c)
DAV:   1    -0.667830784109E+02   -0.51758E-02   -0.60929E+00   928   0.444E+00    0.108E-01
DAV:   2    -0.667859520453E+02   -0.28736E-02   -0.28327E-02   984   0.422E-01    0.874E-02
DAV:   3    -0.667859418624E+02    0.10183E-04   -0.44290E-04   992   0.508E-02
  31 F= -.66785942E+02 E0= -.66785942E+02  d E =-.799818E-02  mag=     2.0000
 trial-energy change:   -0.007998  1 .order   -0.007864   -0.009414   -0.006315
 step:  25.3008(harm= 25.3008)  dis= 0.02500  next Energy=   -66.792242 (dE=-0.143E-01)
 bond charge predicted
       N       E                     dE             d eps       ncg     rms          rms(c)
DAV:   1    -0.667818976822E+02    0.40544E-02   -0.25362E+01   920   0.907E+00    0.225E-01
DAV:   2    -0.667935970622E+02   -0.11699E-01   -0.11618E-01   984   0.857E-01    0.191E-01
DAV:   3    -0.667934401204E+02    0.15694E-03   -0.18152E-03  1016   0.102E-01    0.137E-01
DAV:   4    -0.667931257148E+02    0.31441E-03   -0.87064E-04   976   0.575E-02    0.507E-02
DAV:   5    -0.667931446118E+02   -0.18897E-04   -0.13786E-04   640   0.267E-02
  32 F= -.66793145E+02 E0= -.66793145E+02  d E =-.152009E-01  mag=     2.0000
 curvature: -14.66 expect dE=-0.120E-01 dE for cont linesearch -0.142E-03
 trial: gam= 0.76236 g(F)=  0.820E-03 g(S)=  0.000E+00 ort = 0.113E-03 (trialstep = 0.876E+01)
 search vector abs. value=  0.175E-02
 bond charge predicted
       N       E                     dE             d eps       ncg     rms          rms(c)
DAV:   1    -0.667958845059E+02   -0.27588E-02   -0.89921E+00   924   0.539E+00    0.102E-01
DAV:   2    -0.668001223528E+02   -0.42378E-02   -0.41118E-02   980   0.512E-01    0.960E-02
DAV:   3    -0.668000976099E+02    0.24743E-04   -0.62168E-04  1000   0.608E-02
  33 F= -.66800098E+02 E0= -.66800098E+02  d E =-.695300E-02  mag=     2.0000
 ZBRENT: can't locate minimum, use default step
 trial-energy change:   -0.006953  1 .order   -0.007011   -0.007938   -0.006084
 step:  35.0290(harm= 37.4983)  dis= 0.04741  next Energy=   -66.810139 (dE=-0.170E-01)
 bond charge predicted
       N       E                     dE             d eps       ncg     rms          rms(c)
DAV:   1    -0.667741243013E+02    0.25998E-01   -0.81233E+01   912   0.162E+01    0.316E-01
DAV:   2    -0.668116899885E+02   -0.37566E-01   -0.36756E-01   976   0.154E+00    0.313E-01
DAV:   3    -0.668112768874E+02    0.41310E-03   -0.55459E-03  1000   0.180E-01    0.242E-01
DAV:   4    -0.668099634182E+02    0.13135E-02   -0.19744E-03   976   0.855E-02    0.129E-01
DAV:   5    -0.668098254805E+02    0.13794E-03   -0.16877E-03   988   0.779E-02    0.485E-02
DAV:   6    -0.668098283849E+02   -0.29043E-05   -0.39815E-05   616   0.131E-02
  34 F= -.66809828E+02 E0= -.66809828E+02  d E =-.166838E-01  mag=     2.0000
 curvature: -36.01 expect dE=-0.227E-01 dE for cont linesearch -0.218E-03
 trial: gam= 0.72249 g(F)=  0.631E-03 g(S)=  0.000E+00 ort = 0.103E-03 (trialstep = 0.140E+02)
 search vector abs. value=  0.170E-02
 bond charge predicted
       N       E                     dE             d eps       ncg     rms          rms(c)
DAV:   1    -0.668081109172E+02    0.17146E-02   -0.22253E+01   912   0.848E+00    0.157E-01
DAV:   2    -0.668184488279E+02   -0.10338E-01   -0.99642E-02   980   0.800E-01    0.146E-01
DAV:   3    -0.668183530566E+02    0.95771E-04   -0.14910E-03   992   0.948E-02    0.111E-01
DAV:   4    -0.668180639974E+02    0.28906E-03   -0.40009E-04   944   0.381E-02    0.600E-02
DAV:   5    -0.668180280459E+02    0.35951E-04   -0.45805E-04   984   0.404E-02
  35 F= -.66818028E+02 E0= -.66818028E+02  d E =-.819966E-02  mag=     2.0000
 trial-energy change:   -0.008200  1 .order   -0.008562   -0.009890   -0.007235
 step:  52.1884(harm= 52.1884)  dis= 0.07984  next Energy=   -66.828247 (dE=-0.184E-01)
 bond charge predicted
       N       E                     dE             d eps       ncg     rms          rms(c)
DAV:   1    -0.667493359094E+02    0.68728E-01   -0.16648E+02   912   0.233E+01    0.486E-01
DAV:   2    -0.668273583457E+02   -0.78022E-01   -0.75869E-01   964   0.221E+00    0.403E-01
DAV:   3    -0.668262721732E+02    0.10862E-02   -0.11547E-02  1000   0.269E-01    0.295E-01
DAV:   4    -0.668240810125E+02    0.21912E-02   -0.31349E-03   976   0.106E-01    0.152E-01
DAV:   5    -0.668236973683E+02    0.38364E-03   -0.24449E-03   984   0.939E-02    0.459E-02
DAV:   6    -0.668237166428E+02   -0.19274E-04   -0.45473E-05   632   0.149E-02
  36 F= -.66823717E+02 E0= -.66823717E+02  d E =-.138883E-01  mag=     2.0000
 curvature: -62.69 expect dE=-0.101E+00 dE for cont linesearch -0.665E-03
 trial: gam= 0.00000 g(F)=  0.161E-02 g(S)=  0.000E+00 ort =-0.134E-03 (trialstep = 0.216E+02)
 search vector abs. value=  0.161E-02
 bond charge predicted
       N       E                     dE             d eps       ncg     rms          rms(c)
DAV:   1    -0.668085598639E+02    0.15138E-01   -0.51025E+01   912   0.129E+01    0.403E-01
DAV:   2    -0.668317192683E+02   -0.23159E-01   -0.23729E-01   960   0.121E+00    0.306E-01
DAV:   3    -0.668314180563E+02    0.30121E-03   -0.40620E-03  1008   0.148E-01    0.201E-01
DAV:   4    -0.668310603602E+02    0.35770E-03   -0.15594E-03   956   0.836E-02    0.591E-02
DAV:   5    -0.668311204616E+02   -0.60101E-04   -0.80124E-05   616   0.289E-02
  37 F= -.66831120E+02 E0= -.66831120E+02  d E =-.740382E-02  mag=     2.0000
 trial-energy change:   -0.007404  1 .order   -0.007843   -0.034911    0.019225
 step:  13.7149(harm= 13.9598)  dis= 0.01499  next Energy=   -66.834664 (dE=-0.109E-01)
 bond charge predicted
       N       E                     dE             d eps       ncg     rms          rms(c)
DAV:   1    -0.668318462840E+02   -0.78592E-03   -0.68526E+00   916   0.471E+00    0.146E-01
DAV:   2    -0.668350001579E+02   -0.31539E-02   -0.31541E-02   976   0.442E-01    0.113E-01
DAV:   3    -0.668349797250E+02    0.20433E-04   -0.53515E-04  1008   0.531E-02
  38 F= -.66834980E+02 E0= -.66834980E+02  d E =-.112631E-01  mag=     2.0000
 curvature:  -6.97 expect dE=-0.317E-02 dE for cont linesearch -0.683E-06
 trial: gam= 0.27449 g(F)=  0.455E-03 g(S)=  0.000E+00 ort = 0.126E-04 (trialstep = 0.201E+02)
 search vector abs. value=  0.584E-03
 bond charge predicted
       N       E                     dE             d eps       ncg     rms          rms(c)
DAV:   1    -0.668353022303E+02   -0.30207E-03   -0.15692E+01   912   0.714E+00    0.137E-01
DAV:   2    -0.668424414229E+02   -0.71392E-02   -0.69743E-02   976   0.669E-01    0.132E-01
DAV:   3    -0.668423494114E+02    0.92011E-04   -0.10458E-03  1016   0.795E-02    0.101E-01
DAV:   4    -0.668420988489E+02    0.25056E-03   -0.34348E-04   836   0.353E-02    0.550E-02
DAV:   5    -0.668420602840E+02    0.38565E-04   -0.32643E-04   804   0.362E-02
  39 F= -.66842060E+02 E0= -.66842060E+02  d E =-.708056E-02  mag=     2.0000
 trial-energy change:   -0.007081  1 .order   -0.007405   -0.009202   -0.005607
 step:  51.3557(harm= 51.3557)  dis= 0.05610  next Energy=   -66.846758 (dE=-0.118E-01)
 bond charge predicted
       N       E                     dE             d eps       ncg     rms          rms(c)
DAV:   1    -0.668278750628E+02    0.14224E-01   -0.38240E+01   912   0.112E+01    0.212E-01
DAV:   2    -0.668452395001E+02   -0.17364E-01   -0.17064E-01   956   0.104E+00    0.206E-01
DAV:   3    -0.668450409339E+02    0.19857E-03   -0.25508E-03  1016   0.124E-01    0.156E-01
DAV:   4    -0.668444686255E+02    0.57231E-03   -0.77096E-04   968   0.529E-02    0.875E-02
DAV:   5    -0.668443579754E+02    0.11065E-03   -0.75727E-04   984   0.527E-02    0.313E-02
DAV:   6    -0.668443722206E+02   -0.14245E-04   -0.13614E-05   596   0.784E-03
  40 F= -.66844372E+02 E0= -.66844372E+02  d E =-.939250E-02  mag=     2.0000
 curvature: -32.67 expect dE=-0.248E-01 dE for cont linesearch -0.333E-03
 trial: gam= 1.87531 g(F)=  0.759E-03 g(S)=  0.000E+00 ort =-0.772E-04 (trialstep = 0.609E+01)
 search vector abs. value=  0.252E-02
 bond charge predicted
       N       E                     dE             d eps       ncg     rms          rms(c)
DAV:   1    -0.668447239003E+02   -0.36592E-03   -0.62469E+00   912   0.450E+00    0.814E-02
DAV:   2    -0.668475848161E+02   -0.28609E-02   -0.27932E-02   968   0.422E-01    0.820E-02
DAV:   3    -0.668475558082E+02    0.29008E-04   -0.40071E-04   920   0.490E-02
  41 F= -.66847556E+02 E0= -.66847556E+02  d E =-.318359E-02  mag=     2.0000
 trial-energy change:   -0.003184  1 .order   -0.003036   -0.003742   -0.002330
 step:  16.1368(harm= 16.1368)  dis= 0.03453  next Energy=   -66.849330 (dE=-0.496E-02)
 bond charge predicted
       N       E                     dE             d eps       ncg     rms          rms(c)
DAV:   1    -0.668427680912E+02    0.48167E-02   -0.17046E+01   912   0.744E+00    0.145E-01
DAV:   2    -0.668502860460E+02   -0.75180E-02   -0.74635E-02   968   0.691E-01    0.152E-01
DAV:   3    -0.668501630177E+02    0.12303E-03   -0.10818E-03  1024   0.786E-02    0.122E-01
DAV:   4    -0.668497931381E+02    0.36988E-03   -0.55060E-04   984   0.442E-02    0.653E-02
DAV:   5    -0.668497546193E+02    0.38519E-04   -0.43849E-04   992   0.402E-02
  42 F= -.66849755E+02 E0= -.66849755E+02  d E =-.538240E-02  mag=     2.0000
 curvature: -33.12 expect dE=-0.140E-01 dE for cont linesearch -0.161E-03
 trial: gam= 0.05211 g(F)=  0.423E-03 g(S)=  0.000E+00 ort = 0.111E-03 (trialstep = 0.810E+01)
 search vector abs. value=  0.441E-03
 bond charge predicted
       N       E                     dE             d eps       ncg     rms          rms(c)
DAV:   1    -0.668519244500E+02   -0.21313E-02   -0.19341E+00   920   0.251E+00    0.588E-02
DAV:   2    -0.668528436911E+02   -0.91924E-03   -0.88517E-03   984   0.237E-01    0.491E-02
DAV:   3    -0.668528464915E+02   -0.28004E-05   -0.12546E-04   600   0.291E-02
  43 F= -.66852846E+02 E0= -.66852846E+02  d E =-.309187E-02  mag=     2.0000
 trial-energy change:   -0.003092  1 .order   -0.002767   -0.003470   -0.002065
 step:  20.0028(harm= 20.0028)  dis= 0.01101  next Energy=   -66.854039 (dE=-0.428E-02)
 bond charge predicted
       N       E                     dE             d eps       ncg     rms          rms(c)
DAV:   1    -0.668539307294E+02   -0.10870E-02   -0.41938E+00   916   0.370E+00    0.899E-02
DAV:   2    -0.668558558235E+02   -0.19251E-02   -0.18880E-02   984   0.346E-01    0.780E-02
DAV:   3    -0.668558343076E+02    0.21516E-04   -0.26741E-04   648   0.417E-02
  44 F= -.66855834E+02 E0= -.66855834E+02  d E =-.607969E-02  mag=     2.0000
 curvature: -10.30 expect dE=-0.157E-02 dE for cont linesearch -0.143E-03
 trial: gam= 0.17793 g(F)=  0.152E-03 g(S)=  0.000E+00 ort = 0.782E-04 (trialstep = 0.105E+02)
 search vector abs. value=  0.194E-03
 bond charge predicted
       N       E                     dE             d eps       ncg     rms          rms(c)
DAV:   1    -0.668568213023E+02   -0.96548E-03   -0.14346E+00   944   0.216E+00    0.528E-02
DAV:   2    -0.668574856166E+02   -0.66431E-03   -0.65244E-03  1000   0.203E-01    0.456E-02
DAV:   3    -0.668574823773E+02    0.32393E-05   -0.90862E-05   600   0.247E-02
  45 F= -.66857482E+02 E0= -.66857482E+02  d E =-.164807E-02  mag=     2.0000
 trial-energy change:   -0.001648  1 .order   -0.001306   -0.001741   -0.000872
 step:  21.0029(harm= 21.0029)  dis= 0.00749  next Energy=   -66.857578 (dE=-0.174E-02)
 bond charge predicted
       N       E                     dE             d eps       ncg     rms          rms(c)
DAV:   1    -0.668577227413E+02   -0.23712E-03   -0.14470E+00   932   0.217E+00    0.582E-02
DAV:   2    -0.668583845488E+02   -0.66181E-03   -0.66115E-03  1008   0.204E-01    0.480E-02
DAV:   3    -0.668583761967E+02    0.83520E-05   -0.89584E-05   584   0.248E-02
  46 F= -.66858376E+02 E0= -.66858376E+02  d E =-.254189E-02  mag=     2.0000
 curvature: -12.26 expect dE=-0.194E-02 dE for cont linesearch -0.446E-05
 trial: gam= 1.19770 g(F)=  0.158E-03 g(S)=  0.000E+00 ort = 0.840E-05 (trialstep = 0.534E+01)
 search vector abs. value=  0.457E-03
 bond charge predicted
       N       E                     dE             d eps       ncg     rms          rms(c)
DAV:   1    -0.668590508100E+02   -0.66626E-03   -0.87486E-01   940   0.169E+00    0.302E-02
DAV:   2    -0.668594575611E+02   -0.40675E-03   -0.39130E-03   992   0.159E-01    0.318E-02
DAV:   3    -0.668594566060E+02    0.95506E-06   -0.51853E-05   592   0.189E-02
  47 F= -.66859457E+02 E0= -.66859457E+02  d E =-.108041E-02  mag=     2.0000
 ZBRENT: can't locate minimum, use default step
 trial-energy change:   -0.001080  1 .order   -0.000835   -0.000900   -0.000769
 step:  21.3767(harm= 36.6393)  dis= 0.01077  next Energy=   -66.861462 (dE=-0.309E-02)
 bond charge predicted
       N       E                     dE             d eps       ncg     rms          rms(c)
DAV:   1    -0.668584382446E+02    0.10193E-02   -0.78473E+00   912   0.505E+00    0.878E-02
DAV:   2    -0.668620445461E+02   -0.36063E-02   -0.35210E-02   968   0.476E-01    0.961E-02
DAV:   3    -0.668620120673E+02    0.32479E-04   -0.53226E-04   976   0.562E-02
  48 F= -.66862012E+02 E0= -.66862012E+02  d E =-.363587E-02  mag=     2.0000
 curvature: -37.86 expect dE=-0.437E-02 dE for cont linesearch -0.147E-02
 ZBRENT: increasing intervall
 opt :  53.4417  next Energy=   -66.865940 (dE=-0.756E-02)
 bond charge predicted
       N       E                     dE             d eps       ncg     rms          rms(c)
DAV:   1    -0.668498256682E+02    0.12219E-01   -0.31386E+01   912   0.101E+01    0.187E-01
DAV:   2    -0.668641294935E+02   -0.14304E-01   -0.13995E-01   956   0.950E-01    0.202E-01
DAV:   3    -0.668639603591E+02    0.16913E-03   -0.21038E-03  1032   0.111E-01    0.165E-01
DAV:   4    -0.668633037987E+02    0.65656E-03   -0.82582E-04   944   0.547E-02    0.941E-02
DAV:   5    -0.668631907276E+02    0.11307E-03   -0.10599E-03   984   0.612E-02    0.379E-02
DAV:   6    -0.668632120519E+02   -0.21324E-04   -0.18833E-05   604   0.905E-03
  49 F= -.66863212E+02 E0= -.66863212E+02  d E =-.483586E-02  mag=     2.0000
 curvature: ****** expect dE=-0.257E-01 dE for cont linesearch -0.499E-04
 trial: gam= 1.49624 g(F)=  0.254E-03 g(S)=  0.000E+00 ort =-0.150E-04 (trialstep = 0.555E+01)
 search vector abs. value=  0.123E-02
 bond charge predicted
       N       E                     dE             d eps       ncg     rms          rms(c)
DAV:   1    -0.668632338173E+02   -0.43090E-04   -0.25247E+00   928   0.286E+00    0.495E-02
DAV:   2    -0.668644332040E+02   -0.11994E-02   -0.11436E-02   976   0.271E-01    0.530E-02
DAV:   3    -0.668644289262E+02    0.42778E-05   -0.15232E-04   600   0.319E-02
  50 F= -.66864429E+02 E0= -.66864429E+02  d E =-.121687E-02  mag=     2.0000
 trial-energy change:   -0.001217  1 .order   -0.000858   -0.001285   -0.000432
 step:   8.3601(harm=  8.3601)  dis= 0.00851  next Energy=   -66.864180 (dE=-0.968E-03)
 bond charge predicted
       N       E                     dE             d eps       ncg     rms          rms(c)
DAV:   1    -0.668646578844E+02   -0.22468E-03   -0.65447E-01   928   0.146E+00    0.356E-02
DAV:   2    -0.668649389852E+02   -0.28110E-03   -0.27546E-03  1000   0.134E-01    0.373E-02
DAV:   3    -0.668649342781E+02    0.47070E-05   -0.31692E-05   568   0.142E-02
  51 F= -.66864934E+02 E0= -.66864934E+02  d E =-.172223E-02  mag=     2.0000
 curvature: -22.24 expect dE=-0.516E-02 dE for cont linesearch -0.307E-03
 trial: gam= 0.00335 g(F)=  0.232E-03 g(S)=  0.000E+00 ort = 0.130E-03 (trialstep = 0.611E+01)
 search vector abs. value=  0.233E-03
 bond charge predicted
       N       E                     dE             d eps       ncg     rms          rms(c)
DAV:   1    -0.668660070999E+02   -0.10681E-02   -0.58220E-01   940   0.137E+00    0.334E-02
DAV:   2    -0.668662789959E+02   -0.27190E-03   -0.26342E-03   984   0.130E-01    0.301E-02
DAV:   3    -0.668662782255E+02    0.77041E-06   -0.37435E-05   576   0.163E-02
  52 F= -.66866278E+02 E0= -.66866278E+02  d E =-.134395E-02  mag=     2.0000
 trial-energy change:   -0.001344  1 .order   -0.001237   -0.001421   -0.001053
 step:  23.6337(harm= 23.6337)  dis= 0.00822  next Energy=   -66.867681 (dE=-0.275E-02)
 bond charge predicted
       N       E                     dE             d eps       ncg     rms          rms(c)
DAV:   1    -0.668667375212E+02   -0.45853E-03   -0.47882E+00   916   0.394E+00    0.873E-02
DAV:   2    -0.668689167873E+02   -0.21793E-02   -0.21675E-02   968   0.373E-01    0.842E-02
DAV:   3    -0.668688865829E+02    0.30204E-04   -0.31423E-04   680   0.459E-02
  53 F= -.66868887E+02 E0= -.66868887E+02  d E =-.395230E-02  mag=     2.0000
 curvature: -11.84 expect dE=-0.986E-03 dE for cont linesearch -0.479E-04
 trial: gam= 0.22868 g(F)=  0.833E-04 g(S)=  0.000E+00 ort = 0.307E-04 (trialstep = 0.962E+01)
 search vector abs. value=  0.109E-03
 bond charge predicted
       N       E                     dE             d eps       ncg     rms          rms(c)
DAV:   1    -0.668694069428E+02   -0.49016E-03   -0.68207E-01   952   0.149E+00    0.408E-02
DAV:   2    -0.668697083317E+02   -0.30139E-03   -0.30157E-03   984   0.139E-01    0.367E-02
DAV:   3    -0.668697015273E+02    0.68044E-05   -0.42680E-05   584   0.167E-02
  54 F= -.66869702E+02 E0= -.66869702E+02  d E =-.814944E-03  mag=     2.0000
 trial-energy change:   -0.000815  1 .order   -0.000702   -0.000868   -0.000535
 step:  25.0627(harm= 25.0627)  dis= 0.00656  next Energy=   -66.870018 (dE=-0.113E-02)
 bond charge predicted
       N       E                     dE             d eps       ncg     rms          rms(c)
DAV:   1    -0.668696415315E+02    0.66800E-04   -0.17542E+00   944   0.238E+00    0.616E-02
DAV:   2    -0.668704507877E+02   -0.80926E-03   -0.79875E-03   960   0.225E-01    0.526E-02
DAV:   3    -0.668704387875E+02    0.12000E-04   -0.11578E-04   600   0.280E-02
  55 F= -.66870439E+02 E0= -.66870439E+02  d E =-.155220E-02  mag=     2.0000
 curvature: -15.20 expect dE=-0.230E-02 dE for cont linesearch -0.167E-04
 trial: gam= 2.19899 g(F)=  0.151E-03 g(S)=  0.000E+00 ort =-0.110E-04 (trialstep = 0.220E+01)
 search vector abs. value=  0.632E-03
 bond charge predicted
       N       E                     dE             d eps       ncg     rms          rms(c)
DAV:   1    -0.668707325543E+02   -0.28177E-03   -0.20659E-01   952   0.820E-01    0.186E-02
DAV:   2    -0.668708257535E+02   -0.93199E-04   -0.89087E-04   944   0.760E-02
  56 F= -.66870826E+02 E0= -.66870826E+02  d E =-.386966E-03  mag=     2.0000
 ZBRENT: can't locate minimum, use default step
 trial-energy change:   -0.000387  1 .order   -0.000256   -0.000279   -0.000233
 step:   8.8004(harm= 13.3124)  dis= 0.00626  next Energy=   -66.871284 (dE=-0.845E-03)
 bond charge predicted
       N       E                     dE             d eps       ncg     rms          rms(c)
DAV:   1    -0.668711442445E+02   -0.41169E-03   -0.18412E+00   912   0.244E+00    0.443E-02
DAV:   2    -0.668719645068E+02   -0.82026E-03   -0.81010E-03   952   0.230E-01    0.522E-02
DAV:   3    -0.668719531385E+02    0.11368E-04   -0.11062E-04   600   0.272E-02
  57 F= -.66871953E+02 E0= -.66871953E+02  d E =-.151435E-02  mag=     2.0000
 curvature: -27.68 expect dE=-0.364E-02 dE for cont linesearch -0.375E-03
 trial: gam=-0.03714 g(F)=  0.132E-03 g(S)=  0.000E+00 ort = 0.925E-04 (trialstep = 0.352E+01)
 search vector abs. value=  0.126E-03
 bond charge predicted
       N       E                     dE             d eps       ncg     rms          rms(c)
DAV:   1    -0.668722688602E+02   -0.30435E-03   -0.10558E-01   952   0.582E-01    0.304E-02
DAV:   2    -0.668723061696E+02   -0.37309E-04   -0.48225E-04   936   0.545E-02
  58 F= -.66872306E+02 E0= -.66872306E+02  d E =-.353031E-03  mag=     2.0000
 trial-energy change:   -0.000353  1 .order   -0.000354   -0.000451   -0.000256
 step:   8.1460(harm=  8.1460)  dis= 0.00245  next Energy=   -66.872475 (dE=-0.522E-03)
 bond charge predicted
       N       E                     dE             d eps       ncg     rms          rms(c)
DAV:   1    -0.668725581589E+02   -0.28930E-03   -0.18293E-01   940   0.766E-01    0.328E-02
DAV:   2    -0.668726403304E+02   -0.82171E-04   -0.84376E-04   960   0.721E-02
  59 F= -.66872640E+02 E0= -.66872640E+02  d E =-.687192E-03  mag=     2.0000
 curvature:  -3.99 expect dE=-0.177E-03 dE for cont linesearch -0.671E-05
 trial: gam= 0.18432 g(F)=  0.444E-04 g(S)=  0.000E+00 ort = 0.145E-04 (trialstep = 0.445E+01)
 search vector abs. value=  0.540E-04
 reached required accuracy - stopping structural energy minimisation
Application 90991125 resources: utime ~61281s, stime ~340s, Rss ~85716, inblocks ~82727, outblocks ~156089
