  11  11   0   0
  0.5774690E+03  0.1851998E-08  0.1851998E-08  0.1851998E-08  0.1000000E-15
  1.000000000000000E-004
  CAR 
 unknown system                          
      1.18486651     -9.81102529  301     -3.35093886      1.00000000
     -9.811  0.0000E+00  0.0000E+00  0.0000E+00  0.0000E+00
     -9.774  0.0000E+00  0.0000E+00  0.0000E+00  0.0000E+00
     -9.738  0.0000E+00  0.0000E+00  0.0000E+00  0.0000E+00
     -9.701  0.0000E+00  0.0000E+00  0.0000E+00  0.0000E+00
     -9.664  0.0000E+00  0.0000E+00  0.0000E+00  0.0000E+00
     -9.628  0.0000E+00  0.0000E+00  0.0000E+00  0.0000E+00
     -9.591  0.0000E+00  0.0000E+00  0.0000E+00  0.0000E+00
     -9.554  0.0000E+00  0.0000E+00  0.0000E+00  0.0000E+00
     -9.518  0.0000E+00  0.0000E+00  0.0000E+00  0.0000E+00
     -9.481  0.0000E+00  0.0000E+00  0.0000E+00  0.0000E+00
     -9.444  0.0000E+00  0.0000E+00  0.0000E+00  0.0000E+00
     -9.408  0.0000E+00  0.0000E+00  0.0000E+00  0.0000E+00
     -9.371  0.0000E+00  0.0000E+00  0.0000E+00  0.0000E+00
     -9.335  0.0000E+00  0.0000E+00  0.0000E+00  0.0000E+00
     -9.298  0.0000E+00  0.0000E+00  0.1000E-02  0.0000E+00
     -9.261  0.0000E+00  0.0000E+00  0.1000E-02  0.1000E-02
     -9.225  0.0000E+00  0.0000E+00  0.1000E-02  0.1000E-02
     -9.188  0.0000E+00  0.0000E+00  0.1000E-02  0.1000E-02
     -9.151  0.0000E+00  0.0000E+00  0.1000E-02  0.1000E-02
     -9.115  0.0000E+00  0.0000E+00  0.2000E-02  0.1000E-02
     -9.078  0.0000E+00  0.0000E+00  0.3000E-02  0.2000E-02
     -9.041  0.0000E+00  0.0000E+00  0.3000E-02  0.3000E-02
     -9.005  0.0000E+00  0.0000E+00  0.3000E-02  0.3000E-02
     -8.968  0.0000E+00  0.0000E+00  0.4000E-02  0.3000E-02
     -8.931  0.0000E+00  0.0000E+00  0.5000E-02  0.4000E-02
     -8.895  0.0000E+00  0.0000E+00  0.5000E-02  0.5000E-02
     -8.858  0.0000E+00  0.0000E+00  0.5000E-02  0.5000E-02
     -8.821  0.0000E+00  0.0000E+00  0.5000E-02  0.5000E-02
     -8.785  0.0000E+00  0.0000E+00  0.5000E-02  0.5000E-02
     -8.748  0.0000E+00  0.0000E+00  0.6000E-02  0.5000E-02
     -8.711  0.0000E+00  0.0000E+00  0.6000E-02  0.6000E-02
     -8.675  0.2427E-01  0.0000E+00  0.6890E-02  0.6000E-02
     -8.638  0.0000E+00  0.0000E+00  0.7000E-02  0.7000E-02
     -8.601  0.0000E+00  0.0000E+00  0.8000E-02  0.8000E-02
     -8.565  0.0000E+00  0.0000E+00  0.8000E-02  0.8000E-02
     -8.528  0.0000E+00  0.0000E+00  0.8000E-02  0.8000E-02
     -8.492  0.0000E+00  0.0000E+00  0.8000E-02  0.8000E-02
     -8.455  0.0000E+00  0.0000E+00  0.9000E-02  0.9000E-02
     -8.418  0.0000E+00  0.0000E+00  0.1000E-01  0.9000E-02
     -8.382  0.0000E+00  0.2728E-01  0.1100E-01  0.1100E-01
     -8.345  0.0000E+00  0.0000E+00  0.1100E-01  0.1100E-01
     -8.308  0.0000E+00  0.0000E+00  0.1100E-01  0.1100E-01
     -8.272  0.0000E+00  0.0000E+00  0.1200E-01  0.1100E-01
     -8.235  0.0000E+00  0.0000E+00  0.1300E-01  0.1300E-01
     -8.198  0.0000E+00  0.0000E+00  0.1300E-01  0.1300E-01
     -8.162  0.0000E+00  0.0000E+00  0.1400E-01  0.1300E-01
     -8.125  0.0000E+00  0.0000E+00  0.1400E-01  0.1400E-01
     -8.088  0.0000E+00  0.0000E+00  0.1400E-01  0.1400E-01
     -8.052  0.0000E+00  0.0000E+00  0.1600E-01  0.1500E-01
     -8.015  0.0000E+00  0.0000E+00  0.1700E-01  0.1600E-01
     -7.978  0.0000E+00  0.0000E+00  0.1700E-01  0.1700E-01
     -7.942  0.0000E+00  0.0000E+00  0.1800E-01  0.1800E-01
     -7.905  0.0000E+00  0.0000E+00  0.1800E-01  0.1800E-01
     -7.868  0.0000E+00  0.0000E+00  0.2000E-01  0.1900E-01
     -7.832  0.0000E+00  0.0000E+00  0.2000E-01  0.2000E-01
     -7.795  0.0000E+00  0.0000E+00  0.2000E-01  0.2000E-01
     -7.758  0.0000E+00  0.0000E+00  0.2100E-01  0.2100E-01
     -7.722  0.0000E+00  0.0000E+00  0.2100E-01  0.2100E-01
     -7.685  0.0000E+00  0.0000E+00  0.2200E-01  0.2100E-01
     -7.648  0.0000E+00  0.0000E+00  0.2200E-01  0.2200E-01
     -7.612  0.0000E+00  0.0000E+00  0.2300E-01  0.2200E-01
     -7.575  0.0000E+00  0.0000E+00  0.2400E-01  0.2400E-01
     -7.539  0.0000E+00  0.0000E+00  0.2400E-01  0.2400E-01
     -7.502  0.0000E+00  0.0000E+00  0.2400E-01  0.2400E-01
     -7.465  0.0000E+00  0.0000E+00  0.2600E-01  0.2500E-01
     -7.429  0.0000E+00  0.0000E+00  0.2700E-01  0.2600E-01
     -7.392  0.0000E+00  0.0000E+00  0.2800E-01  0.2700E-01
     -7.355  0.0000E+00  0.0000E+00  0.2900E-01  0.2900E-01
     -7.319  0.0000E+00  0.0000E+00  0.3000E-01  0.2900E-01
     -7.282  0.0000E+00  0.0000E+00  0.3100E-01  0.3100E-01
     -7.245  0.0000E+00  0.0000E+00  0.3200E-01  0.3100E-01
     -7.209  0.0000E+00  0.0000E+00  0.3400E-01  0.3300E-01
     -7.172  0.0000E+00  0.0000E+00  0.3400E-01  0.3400E-01
     -7.135  0.0000E+00  0.0000E+00  0.3500E-01  0.3400E-01
     -7.099  0.0000E+00  0.0000E+00  0.3600E-01  0.3600E-01
     -7.062  0.0000E+00  0.0000E+00  0.3800E-01  0.3700E-01
     -7.025  0.0000E+00  0.0000E+00  0.3900E-01  0.3900E-01
     -6.989  0.0000E+00  0.0000E+00  0.3900E-01  0.3900E-01
     -6.952  0.0000E+00  0.0000E+00  0.4100E-01  0.4000E-01
     -6.915  0.0000E+00  0.0000E+00  0.4200E-01  0.4100E-01
     -6.879  0.0000E+00  0.0000E+00  0.4300E-01  0.4300E-01
     -6.842  0.4386E-09  0.0000E+00  0.4400E-01  0.4300E-01
     -6.805  0.0000E+00  0.0000E+00  0.4500E-01  0.4500E-01
     -6.769  0.0000E+00  0.0000E+00  0.4600E-01  0.4500E-01
     -6.732  0.0000E+00  0.0000E+00  0.4700E-01  0.4600E-01
     -6.696  0.0000E+00  0.0000E+00  0.4800E-01  0.4800E-01
     -6.659  0.0000E+00  0.0000E+00  0.5000E-01  0.4900E-01
     -6.622  0.0000E+00  0.1271E-02  0.5200E-01  0.5005E-01
     -6.586  0.0000E+00  0.0000E+00  0.5200E-01  0.5200E-01
     -6.549  0.0000E+00  0.0000E+00  0.5300E-01  0.5300E-01
     -6.512  0.0000E+00  0.0000E+00  0.5400E-01  0.5400E-01
     -6.476  0.0000E+00  0.0000E+00  0.5400E-01  0.5400E-01
     -6.439  0.0000E+00  0.0000E+00  0.5500E-01  0.5400E-01
     -6.402  0.0000E+00  0.0000E+00  0.5500E-01  0.5500E-01
     -6.366  0.0000E+00  0.0000E+00  0.5500E-01  0.5500E-01
     -6.329  0.0000E+00  0.0000E+00  0.5500E-01  0.5500E-01
     -6.292  0.0000E+00  0.0000E+00  0.5600E-01  0.5500E-01
     -6.256  0.0000E+00  0.0000E+00  0.5600E-01  0.5600E-01
     -6.219  0.0000E+00  0.0000E+00  0.5600E-01  0.5600E-01
     -6.182  0.0000E+00  0.0000E+00  0.5600E-01  0.5600E-01
     -6.146  0.0000E+00  0.0000E+00  0.5600E-01  0.5600E-01
     -6.109  0.0000E+00  0.0000E+00  0.5600E-01  0.5600E-01
     -6.072  0.0000E+00  0.0000E+00  0.5600E-01  0.5600E-01
     -6.036  0.0000E+00  0.0000E+00  0.5600E-01  0.5600E-01
     -5.999  0.0000E+00  0.0000E+00  0.5600E-01  0.5600E-01
     -5.962  0.0000E+00  0.0000E+00  0.5600E-01  0.5600E-01
     -5.926  0.0000E+00  0.0000E+00  0.5600E-01  0.5600E-01
     -5.889  0.0000E+00  0.0000E+00  0.5600E-01  0.5600E-01
     -5.853  0.0000E+00  0.0000E+00  0.5600E-01  0.5600E-01
     -5.816  0.0000E+00  0.0000E+00  0.5700E-01  0.5600E-01
     -5.779  0.0000E+00  0.0000E+00  0.5700E-01  0.5700E-01
     -5.743  0.0000E+00  0.0000E+00  0.5700E-01  0.5700E-01
     -5.706  0.0000E+00  0.0000E+00  0.5700E-01  0.5700E-01
     -5.669  0.0000E+00  0.0000E+00  0.5700E-01  0.5700E-01
     -5.633  0.0000E+00  0.0000E+00  0.5700E-01  0.5700E-01
     -5.596  0.0000E+00  0.0000E+00  0.5700E-01  0.5700E-01
     -5.559  0.0000E+00  0.0000E+00  0.5700E-01  0.5700E-01
     -5.523  0.0000E+00  0.0000E+00  0.5800E-01  0.5700E-01
     -5.486  0.0000E+00  0.0000E+00  0.5800E-01  0.5700E-01
     -5.449  0.0000E+00  0.0000E+00  0.5800E-01  0.5800E-01
     -5.413  0.0000E+00  0.0000E+00  0.5800E-01  0.5800E-01
     -5.376  0.0000E+00  0.0000E+00  0.5800E-01  0.5800E-01
     -5.339  0.0000E+00  0.0000E+00  0.5800E-01  0.5800E-01
     -5.303  0.0000E+00  0.0000E+00  0.5800E-01  0.5800E-01
     -5.266  0.0000E+00  0.0000E+00  0.5800E-01  0.5800E-01
     -5.229  0.0000E+00  0.0000E+00  0.5800E-01  0.5800E-01
     -5.193  0.0000E+00  0.0000E+00  0.5800E-01  0.5800E-01
     -5.156  0.0000E+00  0.0000E+00  0.5800E-01  0.5800E-01
     -5.119  0.0000E+00  0.0000E+00  0.5800E-01  0.5800E-01
     -5.083  0.0000E+00  0.0000E+00  0.5800E-01  0.5800E-01
     -5.046  0.0000E+00  0.0000E+00  0.5900E-01  0.5800E-01
     -5.009  0.0000E+00  0.0000E+00  0.5900E-01  0.5900E-01
     -4.973  0.0000E+00  0.0000E+00  0.5900E-01  0.5900E-01
     -4.936  0.0000E+00  0.0000E+00  0.5900E-01  0.5900E-01
     -4.900  0.0000E+00  0.0000E+00  0.5900E-01  0.5900E-01
     -4.863  0.0000E+00  0.0000E+00  0.5900E-01  0.5900E-01
     -4.826  0.0000E+00  0.0000E+00  0.5900E-01  0.5900E-01
     -4.790  0.0000E+00  0.0000E+00  0.5900E-01  0.5900E-01
     -4.753  0.0000E+00  0.0000E+00  0.5900E-01  0.5900E-01
     -4.716  0.0000E+00  0.0000E+00  0.5900E-01  0.5900E-01
     -4.680  0.0000E+00  0.0000E+00  0.5900E-01  0.5900E-01
     -4.643  0.0000E+00  0.0000E+00  0.5900E-01  0.5900E-01
     -4.606  0.0000E+00  0.0000E+00  0.5900E-01  0.5900E-01
     -4.570  0.0000E+00  0.0000E+00  0.5900E-01  0.5900E-01
     -4.533  0.0000E+00  0.0000E+00  0.5900E-01  0.5900E-01
     -4.496  0.0000E+00  0.0000E+00  0.5900E-01  0.5900E-01
     -4.460  0.0000E+00  0.0000E+00  0.5900E-01  0.5900E-01
     -4.423  0.0000E+00  0.0000E+00  0.5900E-01  0.5900E-01
     -4.386  0.0000E+00  0.0000E+00  0.5900E-01  0.5900E-01
     -4.350  0.0000E+00  0.0000E+00  0.5900E-01  0.5900E-01
     -4.313  0.0000E+00  0.0000E+00  0.5900E-01  0.5900E-01
     -4.276  0.0000E+00  0.0000E+00  0.5900E-01  0.5900E-01
     -4.240  0.0000E+00  0.0000E+00  0.5900E-01  0.5900E-01
     -4.203  0.0000E+00  0.0000E+00  0.5900E-01  0.5900E-01
     -4.166  0.0000E+00  0.0000E+00  0.5900E-01  0.5900E-01
     -4.130  0.0000E+00  0.0000E+00  0.5900E-01  0.5900E-01
     -4.093  0.0000E+00  0.0000E+00  0.5900E-01  0.5900E-01
     -4.057  0.0000E+00  0.0000E+00  0.5900E-01  0.5900E-01
     -4.020  0.0000E+00  0.0000E+00  0.6000E-01  0.5900E-01
     -3.983  0.0000E+00  0.0000E+00  0.6000E-01  0.6000E-01
     -3.947  0.0000E+00  0.0000E+00  0.6000E-01  0.6000E-01
     -3.910  0.0000E+00  0.0000E+00  0.6000E-01  0.6000E-01
     -3.873  0.0000E+00  0.0000E+00  0.6000E-01  0.6000E-01
     -3.837  0.0000E+00  0.0000E+00  0.6000E-01  0.6000E-01
     -3.800  0.0000E+00  0.0000E+00  0.6000E-01  0.6000E-01
     -3.763  0.0000E+00  0.0000E+00  0.6000E-01  0.6000E-01
     -3.727  0.0000E+00  0.0000E+00  0.6000E-01  0.6000E-01
     -3.690  0.0000E+00  0.0000E+00  0.6000E-01  0.6000E-01
     -3.653  0.0000E+00  0.0000E+00  0.6000E-01  0.6000E-01
     -3.617  0.0000E+00  0.0000E+00  0.6000E-01  0.6000E-01
     -3.580  0.0000E+00  0.0000E+00  0.6000E-01  0.6000E-01
     -3.543  0.0000E+00  0.0000E+00  0.6000E-01  0.6000E-01
     -3.507  0.0000E+00  0.0000E+00  0.6000E-01  0.6000E-01
     -3.470  0.0000E+00  0.0000E+00  0.6000E-01  0.6000E-01
     -3.433  0.0000E+00  0.0000E+00  0.6000E-01  0.6000E-01
     -3.397  0.0000E+00  0.0000E+00  0.6000E-01  0.6000E-01
     -3.360  0.0000E+00  0.0000E+00  0.6100E-01  0.6000E-01
     -3.323  0.0000E+00  0.0000E+00  0.6100E-01  0.6000E-01
     -3.287  0.0000E+00  0.0000E+00  0.6100E-01  0.6000E-01
     -3.250  0.0000E+00  0.0000E+00  0.6100E-01  0.6000E-01
     -3.213  0.0000E+00  0.0000E+00  0.6100E-01  0.6000E-01
     -3.177  0.0000E+00  0.0000E+00  0.6100E-01  0.6000E-01
     -3.140  0.0000E+00  0.0000E+00  0.6100E-01  0.6100E-01
     -3.104  0.0000E+00  0.0000E+00  0.6100E-01  0.6100E-01
     -3.067  0.0000E+00  0.0000E+00  0.6100E-01  0.6100E-01
     -3.030  0.0000E+00  0.0000E+00  0.6100E-01  0.6100E-01
     -2.994  0.0000E+00  0.0000E+00  0.6100E-01  0.6100E-01
     -2.957  0.0000E+00  0.0000E+00  0.6200E-01  0.6100E-01
     -2.920  0.0000E+00  0.0000E+00  0.6300E-01  0.6100E-01
     -2.884  0.0000E+00  0.0000E+00  0.6300E-01  0.6200E-01
     -2.847  0.0000E+00  0.0000E+00  0.6300E-01  0.6200E-01
     -2.810  0.0000E+00  0.0000E+00  0.6300E-01  0.6300E-01
     -2.774  0.0000E+00  0.0000E+00  0.6400E-01  0.6300E-01
     -2.737  0.0000E+00  0.0000E+00  0.6400E-01  0.6300E-01
     -2.700  0.0000E+00  0.0000E+00  0.6400E-01  0.6300E-01
     -2.664  0.0000E+00  0.0000E+00  0.6400E-01  0.6400E-01
     -2.627  0.0000E+00  0.0000E+00  0.6400E-01  0.6400E-01
     -2.590  0.0000E+00  0.0000E+00  0.6400E-01  0.6400E-01
     -2.554  0.0000E+00  0.0000E+00  0.6400E-01  0.6400E-01
     -2.517  0.0000E+00  0.0000E+00  0.6400E-01  0.6400E-01
     -2.480  0.0000E+00  0.0000E+00  0.6400E-01  0.6400E-01
     -2.444  0.0000E+00  0.0000E+00  0.6400E-01  0.6400E-01
     -2.407  0.0000E+00  0.0000E+00  0.6400E-01  0.6400E-01
     -2.370  0.0000E+00  0.0000E+00  0.6400E-01  0.6400E-01
     -2.334  0.0000E+00  0.0000E+00  0.6400E-01  0.6400E-01
     -2.297  0.0000E+00  0.0000E+00  0.6500E-01  0.6400E-01
     -2.261  0.0000E+00  0.0000E+00  0.6500E-01  0.6400E-01
     -2.224  0.0000E+00  0.0000E+00  0.6500E-01  0.6500E-01
     -2.187  0.0000E+00  0.0000E+00  0.6500E-01  0.6500E-01
     -2.151  0.0000E+00  0.0000E+00  0.6500E-01  0.6500E-01
     -2.114  0.0000E+00  0.0000E+00  0.6500E-01  0.6500E-01
     -2.077  0.0000E+00  0.0000E+00  0.6500E-01  0.6500E-01
     -2.041  0.0000E+00  0.0000E+00  0.6500E-01  0.6500E-01
     -2.004  0.0000E+00  0.0000E+00  0.6500E-01  0.6500E-01
     -1.967  0.0000E+00  0.0000E+00  0.6500E-01  0.6500E-01
     -1.931  0.0000E+00  0.0000E+00  0.6500E-01  0.6500E-01
     -1.894  0.0000E+00  0.0000E+00  0.6600E-01  0.6500E-01
     -1.857  0.0000E+00  0.0000E+00  0.6600E-01  0.6600E-01
     -1.821  0.0000E+00  0.0000E+00  0.6600E-01  0.6600E-01
     -1.784  0.0000E+00  0.0000E+00  0.6600E-01  0.6600E-01
     -1.747  0.0000E+00  0.0000E+00  0.6600E-01  0.6600E-01
     -1.711  0.0000E+00  0.0000E+00  0.6600E-01  0.6600E-01
     -1.674  0.0000E+00  0.0000E+00  0.6600E-01  0.6600E-01
     -1.637  0.0000E+00  0.0000E+00  0.6600E-01  0.6600E-01
     -1.601  0.0000E+00  0.0000E+00  0.6600E-01  0.6600E-01
     -1.564  0.0000E+00  0.0000E+00  0.6600E-01  0.6600E-01
     -1.527  0.0000E+00  0.0000E+00  0.6600E-01  0.6600E-01
     -1.491  0.0000E+00  0.0000E+00  0.6600E-01  0.6600E-01
     -1.454  0.0000E+00  0.0000E+00  0.6600E-01  0.6600E-01
     -1.417  0.0000E+00  0.0000E+00  0.6600E-01  0.6600E-01
     -1.381  0.0000E+00  0.0000E+00  0.6600E-01  0.6600E-01
     -1.344  0.0000E+00  0.0000E+00  0.6600E-01  0.6600E-01
     -1.308  0.0000E+00  0.0000E+00  0.6600E-01  0.6600E-01
     -1.271  0.0000E+00  0.0000E+00  0.6700E-01  0.6600E-01
     -1.234  0.0000E+00  0.0000E+00  0.6700E-01  0.6600E-01
     -1.198  0.0000E+00  0.0000E+00  0.6800E-01  0.6600E-01
     -1.161  0.0000E+00  0.0000E+00  0.6800E-01  0.6700E-01
     -1.124  0.0000E+00  0.0000E+00  0.6800E-01  0.6700E-01
     -1.088  0.0000E+00  0.0000E+00  0.6900E-01  0.6700E-01
     -1.051  0.0000E+00  0.0000E+00  0.6900E-01  0.6800E-01
     -1.014  0.0000E+00  0.0000E+00  0.6900E-01  0.6800E-01
     -0.978  0.0000E+00  0.0000E+00  0.6900E-01  0.6800E-01
     -0.941  0.0000E+00  0.0000E+00  0.6900E-01  0.6900E-01
     -0.904  0.0000E+00  0.0000E+00  0.6900E-01  0.6900E-01
     -0.868  0.0000E+00  0.0000E+00  0.6900E-01  0.6900E-01
     -0.831  0.0000E+00  0.0000E+00  0.6900E-01  0.6900E-01
     -0.794  0.0000E+00  0.0000E+00  0.6900E-01  0.6900E-01
     -0.758  0.0000E+00  0.0000E+00  0.7000E-01  0.6900E-01
     -0.721  0.0000E+00  0.0000E+00  0.7000E-01  0.6900E-01
     -0.684  0.0000E+00  0.0000E+00  0.7000E-01  0.7000E-01
     -0.648  0.0000E+00  0.0000E+00  0.7100E-01  0.7000E-01
     -0.611  0.0000E+00  0.0000E+00  0.7100E-01  0.7000E-01
     -0.574  0.0000E+00  0.0000E+00  0.7100E-01  0.7000E-01
     -0.538  0.0000E+00  0.0000E+00  0.7100E-01  0.7100E-01
     -0.501  0.0000E+00  0.0000E+00  0.7100E-01  0.7100E-01
     -0.465  0.0000E+00  0.0000E+00  0.7200E-01  0.7100E-01
     -0.428  0.0000E+00  0.0000E+00  0.7300E-01  0.7100E-01
     -0.391  0.0000E+00  0.0000E+00  0.7300E-01  0.7200E-01
     -0.355  0.0000E+00  0.0000E+00  0.7300E-01  0.7200E-01
     -0.318  0.0000E+00  0.0000E+00  0.7400E-01  0.7300E-01
     -0.281  0.0000E+00  0.0000E+00  0.7400E-01  0.7300E-01
     -0.245  0.0000E+00  0.0000E+00  0.7400E-01  0.7300E-01
     -0.208  0.0000E+00  0.0000E+00  0.7400E-01  0.7400E-01
     -0.171  0.0000E+00  0.0000E+00  0.7400E-01  0.7400E-01
     -0.135  0.0000E+00  0.0000E+00  0.7400E-01  0.7400E-01
     -0.098  0.0000E+00  0.0000E+00  0.7500E-01  0.7400E-01
     -0.061  0.0000E+00  0.0000E+00  0.7500E-01  0.7400E-01
     -0.025  0.0000E+00  0.0000E+00  0.7500E-01  0.7500E-01
      0.012  0.0000E+00  0.0000E+00  0.7500E-01  0.7500E-01
      0.049  0.0000E+00  0.0000E+00  0.7500E-01  0.7500E-01
      0.085  0.0000E+00  0.0000E+00  0.7500E-01  0.7500E-01
      0.122  0.0000E+00  0.0000E+00  0.7500E-01  0.7500E-01
      0.159  0.0000E+00  0.0000E+00  0.7500E-01  0.7500E-01
      0.195  0.0000E+00  0.0000E+00  0.7600E-01  0.7500E-01
      0.232  0.0000E+00  0.0000E+00  0.7600E-01  0.7500E-01
      0.269  0.0000E+00  0.0000E+00  0.7600E-01  0.7600E-01
      0.305  0.0000E+00  0.0000E+00  0.7600E-01  0.7600E-01
      0.342  0.0000E+00  0.0000E+00  0.7800E-01  0.7600E-01
      0.379  0.0000E+00  0.0000E+00  0.7800E-01  0.7700E-01
      0.415  0.0000E+00  0.0000E+00  0.7800E-01  0.7800E-01
      0.452  0.0000E+00  0.0000E+00  0.7800E-01  0.7800E-01
      0.488  0.0000E+00  0.0000E+00  0.7900E-01  0.7800E-01
      0.525  0.0000E+00  0.0000E+00  0.7900E-01  0.7800E-01
      0.562  0.0000E+00  0.0000E+00  0.7900E-01  0.7900E-01
      0.598  0.0000E+00  0.0000E+00  0.7900E-01  0.7900E-01
      0.635  0.0000E+00  0.0000E+00  0.8000E-01  0.7900E-01
      0.672  0.0000E+00  0.0000E+00  0.8000E-01  0.7900E-01
      0.708  0.0000E+00  0.0000E+00  0.8000E-01  0.8000E-01
      0.745  0.0000E+00  0.0000E+00  0.8000E-01  0.8000E-01
      0.782  0.0000E+00  0.0000E+00  0.8000E-01  0.8000E-01
      0.818  0.0000E+00  0.0000E+00  0.8000E-01  0.8000E-01
      0.855  0.0000E+00  0.0000E+00  0.8000E-01  0.8000E-01
      0.892  0.0000E+00  0.0000E+00  0.8000E-01  0.8000E-01
      0.928  0.0000E+00  0.0000E+00  0.8000E-01  0.8000E-01
      0.965  0.0000E+00  0.0000E+00  0.8000E-01  0.8000E-01
      1.002  0.0000E+00  0.0000E+00  0.8000E-01  0.8000E-01
      1.038  0.0000E+00  0.0000E+00  0.8000E-01  0.8000E-01
      1.075  0.0000E+00  0.0000E+00  0.8000E-01  0.8000E-01
      1.112  0.0000E+00  0.0000E+00  0.8000E-01  0.8000E-01
      1.148  0.0000E+00  0.0000E+00  0.8000E-01  0.8000E-01
      1.185  0.0000E+00  0.0000E+00  0.8000E-01  0.8000E-01
