18
Energy = -35.91103449 eV
Ag 9.9228465 9.9228465 7.574749653364483
Ag 9.9228465 12.113401470976845 12.57639114648121
Ag 6.620096541734146 9.9228465 9.927446149797037
Ag 9.9228465 7.168619639421801 7.918256048214143
Ag 7.481570242886062 11.33664493140072 7.685115974547703
Ag 8.480992702908942 11.993585263834332 10.210073983248863
Ag 8.480992702908942 7.852107736165671 10.210073983248863
Ag 11.606558324982728 9.9228465 12.135189793163413
Ag 11.364700297091058 7.852107736165671 10.210073983248863
Ag 12.364122757113938 11.33664493140072 7.685115974547703
Ag 12.364122757113938 8.509048068599279 7.685115974547703
Ag 9.9228465 12.677073360578198 7.918256048214143
Ag 13.225596458265857 9.9228465 9.927446149797037
Ag 9.9228465 7.732291529023159 12.57639114648121
Ag 9.9228465 9.9228465 14.341161240137232
Ag 7.481570242886062 8.509048068599279 7.685115974547703
Ag 11.364700297091058 11.993585263834332 10.210073983248863
Ag 8.239134675017272 9.9228465 12.135189793163413
