16
Energy = -30.3955918 eV
Ag 11.048876640174099 12.274376077338044 10.663291654283533
Ag 8.179461359825904 12.274376077338044 10.663291654283533
Ag 9.614169 10.996904440040401 12.665708448215995
Ag 7.731682480685744 9.614169 11.046367947746862
Ag 9.614169 11.49665551931426 8.181970052253138
Ag 11.49665551931426 9.614169 11.046367947746862
Ag 12.274376077338044 11.048876640174099 8.565046345716468
Ag 6.953961922661959 11.048876640174099 8.565046345716468
Ag 9.614169 8.231433559959598 12.665708448215995
Ag 9.614169 7.731682480685744 8.181970052253138
Ag 12.274376077338044 8.179461359825904 8.565046345716468
Ag 10.996904440040401 9.614169 6.562629551784008
Ag 11.048876640174099 6.953961922661959 10.663291654283533
Ag 8.231433559959598 9.614169 6.562629551784008
Ag 8.179461359825904 6.953961922661959 10.663291654283533
Ag 6.953961922661959 8.179461359825904 8.565046345716468
