10
Energy = -17.92099165 eV
Ag 8.22135792680412 8.126902529028083 11.33963336891031
Ag 10.785793584883418 9.251301135220553 11.241236967070064
Ag 10.76665865293308 12.025570508234656 11.459351436187307
Ag 8.474401318541005 10.748297434784261 10.503819200944749
Ag 13.129554259826827 10.802786761626077 10.557664982594542
Ag 6.611968314473223 8.950803712262372 9.184439585102405
Ag 9.45388031716314 8.474652423819133 8.88066927156017
Ag 10.78325958499066 11.003732457622023 8.889629653388013
Ag 8.266054525019346 10.693289059686267 7.7331124058894956
Ag 12.24465764712192 8.660250109472889 8.948029260109546
