15
Energy = -28.03237318 eV
Ag 13.121142645090147 9.019671024768947 7.9985503941310965
Ag 13.53633115407702 8.804997829770606 10.72754041874886
Ag 11.741227738922044 11.413266893700998 8.250105946163565
Ag 11.268137446027776 8.887950182531457 12.381433497725965
Ag 12.196998612637604 11.19545792238426 10.907605360937364
Ag 10.067733692132277 12.84880184447364 9.950560436751166
Ag 10.919624778103971 8.810449257901414 9.631668208569513
Ag 9.412838950583621 10.76601307408484 11.635455623998702
Ag 10.522771902754192 9.28063276504948 6.8916241989420906
Ag 8.794267642790018 10.761298319235056 8.568446018002813
Ag 7.331510505885997 12.158873142587813 10.496922913920503
Ag 8.450075882171449 8.02935081686971 8.458124000695385
Ag 8.639282348185496 8.141156939871161 11.247568387049958
Ag 6.932039895657672 9.97909198076167 12.498878942822188
Ag 6.57293397655784 9.473767256264246 9.830598126445665
