10
Energy = -16.95840335 eV
Ag 8.334432969274568 7.028237596030342 7.3261415697712255
Ag 8.446129629599534 9.717240181797155 6.806811076915637
Ag 10.748124923556444 8.275848608076613 7.551849164577485
Ag 8.80974054367297 8.500910886271184 9.598900744234301
Ag 12.688690103885996 10.126350820399178 7.555738306057121
Ag 10.399860835816526 10.697831477901591 8.852946946096216
Ag 9.156177818092761 8.129795197268711 12.286175092542658
Ag 7.739936992627305 11.204744714985793 8.997392395028806
Ag 9.090605390073764 10.64799223015791 11.389478163531537
Ag 9.085806107885821 10.160984964324918 14.085020933338546
