13
Energy = -23.12014797 eV
Ag 12.96205004294688 10.066586876484442 11.947961764991803
Ag 11.99132680472121 10.764783047220787 9.458058437018009
Ag 11.454148918933136 8.233767513809923 10.678422602239994
Ag 11.683917849943104 11.329334424971758 6.775097881829068
Ag 10.138167193895985 10.680337607494447 11.465749589943616
Ag 10.733814912344638 8.952805456024082 7.624389721754066
Ag 9.717588820817847 6.831331753492639 9.075068100720708
Ag 9.451794202852524 11.357340061686207 8.659095443132495
Ag 8.77041906686732 8.114943437968247 11.329771961646788
Ag 7.896185733100491 9.894256279644173 13.157120006141303
Ag 8.050855415264085 8.864547505657908 8.27722590432725
Ag 7.58734752470304 10.594828827921932 10.505304185304981
Ag 6.609980405925124 11.116033117165774 7.975767886094419
