19
Energy = -38.05042588 eV
Ag 10.799950214372693 9.230127904218106 14.647105328095384
Ag 9.723195497055446 13.074367429552774 10.631309
Ag 11.414949661010617 10.860119970864364 10.631309
Ag 10.141313339749432 11.496504006146521 13.046844641735866
Ag 13.119981680923484 8.631628571734648 10.631309
Ag 12.2515611602964 13.102182540923677 12.031622598703906
Ag 12.778347003445894 10.34871121642023 8.26672295893084
Ag 12.778347003445894 10.34871121642023 12.995895041069158
Ag 14.128393843108963 11.40915263372731 10.631309
Ag 12.2515611602964 13.102182540923677 9.230995401296092
Ag 10.647576693138802 8.463305614814967 9.227331201805871
Ag 10.141313339749432 11.496504006146521 8.215773358264132
Ag 8.67137620845736 9.907978574738523 10.631309
Ag 8.287748182945151 9.433588004154474 7.9274904079817325
Ag 10.647576693138802 8.463305614814967 12.035286798194129
Ag 7.561990460773843 11.981392623012905 9.18210972587465
Ag 7.561990460773843 11.981392623012905 12.08050827412535
Ag 8.287748182945151 9.433588004154474 13.335127592018267
Ag 10.799950214372693 9.230127904218106 6.615512671904615
