12
Energy = -21.1378645 eV
Ag 10.419117 10.419117 11.919579282478344
Ag 8.182190563133982 14.290174038651005 10.419117
Ag 12.65604343686602 6.5480599613489945 10.419117
Ag 10.419117 10.419117 8.918654717521656
Ag 10.42740496932075 7.530952909098427 9.058071102167405
Ag 8.477898210243843 8.895078059558374 10.419117
Ag 12.49573688928232 9.213118830815086 10.419117
Ag 10.42740496932075 7.530952909098427 11.780162897832591
Ag 10.410829030679249 13.307281090901572 9.058071102167405
Ag 8.342497110717682 11.625115169184912 10.419117
Ag 12.36033578975616 11.943155940441628 10.419117
Ag 10.410829030679249 13.307281090901572 11.780162897832591
