27
Energy = -55.54949742 eV
Ag 13.926215249553165 14.203796348033006 8.930115127340684
Ag 14.896093263888684 11.642483431075519 9.172004810294649
Ag 12.480546331676145 12.11782394243418 7.7155236531496145
Ag 11.19653592052595 14.549663843814875 8.334099493278748
Ag 12.195972606181376 15.113598888296174 10.887588666823907
Ag 13.879370065724645 12.90413148926111 11.442182336556547
Ag 12.703589178162398 9.85838682078705 9.634055791874225
Ag 11.27373093135038 12.225837192044759 10.316399959602835
Ag 9.520080134573233 12.298926675863186 8.107715921320983
Ag 14.755298023210562 10.111114950450235 11.503846224868564
Ag 9.445062059687269 14.231259871705976 10.547260884595902
Ag 10.829758658557203 9.895279031865607 7.590957089399417
Ag 11.527198329836253 13.495774114826832 13.00414995365788
Ag 12.272674833767539 10.823707480885336 12.600834928209677
Ag 12.738965095811064 8.163928151657991 11.856077047219289
Ag 10.763745020179302 7.6479569301779975 9.243642449638044
Ag 7.714779649214198 12.0723141952543 10.19547286729603
Ag 8.428043847780751 9.695959489911939 8.936388222113074
Ag 10.706011464747446 11.49144155547218 14.825058626001063
Ag 10.19650546511482 9.535997358678326 11.129177085657377
Ag 9.300237607429066 11.916699421348763 12.451150930508408
Ag 10.46856557083618 6.628262263577045 11.969520710617973
Ag 10.728517136286278 8.739892523047988 13.856635252363473
Ag 8.22027981353323 7.344257011209314 10.471115252025628
Ag 7.396898477529869 9.761428428990724 11.713458036343065
Ag 8.329523467499351 10.075479397719075 14.400826639261178
Ag 8.219511781331722 7.5683091755975465 13.27845202397014
