35
Energy = -72.68522085 eV
Ag 13.54191062303773 17.434581355577986 10.54475164193206
Ag 14.847561158356934 15.657843428294631 12.240213565613816
Ag 11.269877985005087 16.133279724898376 9.602384789288665
Ag 13.695330915104075 14.757730166312799 9.799494882687716
Ag 12.071985179477972 15.707519527048806 12.270321096161265
Ag 16.09398555736472 13.827048665313638 13.866181446737748
Ag 15.423018021749577 13.095985506398712 11.258532706355725
Ag 11.566202198540813 13.539198458100373 8.446355224430773
Ag 9.532738442290716 14.896297809657153 11.475319430710314
Ag 13.356046164515764 14.13982262280024 14.196177494693137
Ag 13.782364499674664 12.014481107466041 9.225358878582579
Ag 9.058955547669356 14.725962862793631 8.761657434242126
Ag 10.632242839718968 13.903613938986155 13.879024596336883
Ag 15.627366839841944 10.443403221540644 10.567348118145318
Ag 9.146127228657694 12.13504151163549 7.911884928568601
Ag 15.642359308815937 11.09930902606577 13.291964004660503
Ag 14.765774116053871 12.264334914456079 15.721089224450314
Ag 7.943474124902484 12.775267672453449 10.401825292999385
Ag 7.995428392889311 13.35235582946258 13.158368016424097
Ag 14.317678223966759 8.800382197100928 12.36094426994654
Ag 13.82928242618641 9.779743197765837 14.95002248220552
Ag 12.0221277215787 11.913964055019322 15.352725073406207
Ag 13.229368141605269 9.293101031957173 9.809782929003203
Ag 9.30492776780119 9.505348362059333 7.10122336741411
Ag 11.606660615412569 10.768610325203486 8.059135775019499
Ag 9.40029823910748 11.473384810496857 14.627841864213039
Ag 8.363317970125141 10.061861447355982 9.655740981560438
Ag 7.981924132796401 10.72158344999862 12.299805925534757
Ag 12.906558306244923 7.2955537285877545 14.178327890996838
Ag 11.10145631754302 9.259083686909591 15.009204798941488
Ag 11.904010038039273 7.503138622643034 11.578802472880435
Ag 10.643553969494171 8.428687216062032 9.290117875911239
Ag 9.194023642833471 8.259407790609087 11.6456725480108
Ag 8.487194700233543 8.835354779141309 14.268303727459479
Ag 10.25634148285999 6.741680681683103 13.727442352506332
