36
Energy = -75.11231299 eV
Ag 10.95989179843835 8.389005894853689 9.89564747259111
Ag 10.210569143800372 9.577164956434952 15.268852931113564
Ag 16.684772806124972 15.871710025336787 10.037482152560235
Ag 16.273165360257313 13.344211598432361 14.332532968372076
Ag 7.833147567236344 14.142224006188478 13.0472492241722
Ag 11.025689852172446 11.11697138609506 9.72824879092694
Ag 12.48747273805559 14.88226309044646 11.736891883216083
Ag 7.937803204746998 9.368447843308385 13.65466580079613
Ag 12.621032579433104 9.740747407211565 16.706230307787514
Ag 13.101945120783817 9.822103868661287 11.288457766628014
Ag 14.580725188672048 11.275987706946877 15.131251464378565
Ag 14.907321491478156 11.949865299444111 12.373670517876429
Ag 8.679775158809633 7.736026904875681 11.35690212737564
Ag 8.945440541704174 12.302982249118415 8.35329920253102
Ag 8.315315789939733 14.792144193338553 9.338655092843336
Ag 13.511139811937385 13.786895729118763 14.104638899660564
Ag 11.811180784824225 12.162984201373453 12.371975377134465
Ag 9.790585823944225 15.50547933104078 11.549744785696099
Ag 13.224307413415824 9.786540699006853 8.551173518856524
Ag 8.382814910589229 10.225933012575654 10.234205739675357
Ag 12.727951442997362 9.58426567177799 13.978162841838476
Ag 11.739738100744649 11.990990984444954 15.282709355378566
Ag 13.444102443447017 12.447188976809265 9.960405877589473
Ag 15.348124037287965 9.319570754810252 12.956973481299654
Ag 14.040350314822074 15.100632849362727 9.47088395791359
Ag 10.403828498116754 9.7382271841485 12.315160783013432
Ag 11.179480824242662 14.048634583369733 9.36779390338597
Ag 9.212763559691872 12.78465346605658 11.107588854919541
Ag 6.153556003339985 9.006745338824908 11.61873075993689
Ag 15.586025157475694 10.42724918300241 10.111873485135526
Ag 9.222954237257788 11.864147972769578 13.903460895035753
Ag 6.882659445018357 11.633268741731703 12.271351078368024
Ag 10.698331223873701 14.270852138789229 13.880109310279252
Ag 15.241777460771111 14.826372847708795 12.141321814282342
Ag 16.150309824855928 13.17848927097959 10.086148478651966
Ag 15.734006907968 9.091124365077368 7.770615960961216
