38
Energy = -81.13681143 eV
Ag 12.741083351255863 11.800958042131397 6.695066131673992
Ag 14.26995099719506 13.823028985645458 8.191253212822424
Ag 10.347589089098687 10.592849619925905 7.76554100086312
Ag 12.267363446351201 14.72021486120173 6.510375672200075
Ag 14.170391234879277 11.149858836875728 9.058938214580047
Ag 10.126165799674217 13.0179343960053 6.501598463998542
Ag 9.811188368607048 8.251857867098556 9.194160676060353
Ag 12.547972027379945 8.915536414873731 8.077749913327706
Ag 7.797372647349698 10.173268858894225 8.687913558796394
Ag 11.67244278258677 12.850244586324418 9.027128945291905
Ag 14.453760016668832 10.700974566850977 11.93872931046499
Ag 13.831375565690543 13.216652553147734 10.936924275569973
Ag 10.141257244832007 15.158401108523774 8.27513834287277
Ag 14.494267164289447 8.592796479009861 10.16030514927325
Ag 12.498699237567209 15.405392244651926 9.901272337938906
Ag 11.84638444703883 10.267369917123387 10.331749694520765
Ag 12.056717650902206 7.359874190501029 10.603416813112503
Ag 7.226787003306522 8.129540405917776 10.436317003938337
Ag 8.726940512831487 12.741750461532575 9.006122247171765
Ag 9.371813269434226 11.238839964025956 11.40346733561168
Ag 13.841302458644197 8.129229354024687 12.8595658489741
Ag 9.411841676446109 7.0234499710204 11.717100699155539
Ag 11.098843953075255 9.107715877636648 12.76750430009049
Ag 6.590945302954669 10.802587660367365 11.12707206372786
Ag 14.200304214309641 12.91316977902454 13.730316843560113
Ag 11.821753110599644 11.915345631506552 12.547650565577927
Ag 10.126932051867858 14.275046911541642 10.96914937145419
Ag 7.998099444202246 9.16437519524056 12.931602816856081
Ag 7.567213630042304 13.434599385513883 11.515534649976614
Ag 11.695995560164622 6.288998414733763 13.173457840376756
Ag 13.293224426869502 10.40217719895896 14.528998584417137
Ag 12.150673043799076 14.680360427637536 12.804320969444154
Ag 7.316918773077887 11.749960557117397 13.736707903799827
Ag 12.280366127799423 7.9579566573877605 15.284558537682363
Ag 9.620425712621913 7.73609035071737 14.633272053284234
Ag 9.81803440243171 10.762490837596273 14.594618862428943
Ag 9.562332736985732 13.4430174353918 13.595124200863093
Ag 11.769634962945743 12.725074808209477 15.215750435725042
