31
Energy = -64.22286401 eV
Ag 13.623133148176048 9.584915151591085 8.155364193661368
Ag 12.591160111074092 7.178819697356791 9.181147653446574
Ag 11.06248815458307 8.920632344239383 7.366330061090943
Ag 9.994895233135106 6.597425410180706 8.580022498330225
Ag 11.955527481664676 11.632466971660268 7.315565681516242
Ag 12.362162972872772 11.315572743555006 10.125397960766968
Ag 9.252939135386644 11.222791508387745 7.062797862758147
Ag 13.901666878524072 9.023135039844332 10.848929538490093
Ag 13.421686851402892 6.435661099303975 11.793182847782353
Ag 8.487419261755186 8.984160921038667 8.497946430590174
Ag 7.5020616147737895 13.02165384886937 8.286474390199203
Ag 10.684136765898563 6.466288691111348 11.375435896784992
Ag 10.645752558860709 9.062767627162355 10.31768108407915
Ag 12.898672587447535 13.82686477387285 8.856253228581943
Ag 10.182087261837458 13.647425291644218 8.30587510452948
Ag 8.088732995247756 7.064057175773959 10.58248034261791
Ag 11.866736243838382 8.514932742568734 12.928141258779474
Ag 14.538161440591692 8.401754254754751 13.508509303821539
Ag 9.259339913897058 11.529468787059844 9.942028563581319
Ag 7.290570421965941 9.684533186530226 10.937133808882738
Ag 13.851693811273869 13.405026465487902 11.429052041384441
Ag 13.453941633192233 10.91430630941787 12.857734799297399
Ag 11.129229483075013 13.822443863562983 10.988579462869522
Ag 6.565061096093369 12.347127547706458 10.833702576856743
Ag 8.42842900437223 14.398339592571194 10.599294064279396
Ag 9.118343490292046 8.649885816697237 12.762265979439007
Ag 10.608397237964681 11.081397732229563 12.454010646981665
Ag 7.854626100987934 11.319957301527129 13.139861131866152
Ag 12.09188802084963 13.252289678863434 13.576146104996678
Ag 9.41794126264262 13.666379685826605 13.166530880645398
Ag 6.7637200190719415 14.021756950189863 12.989899048992422
