4
Energy = -5.22374354 eV
Ag 11.854735776547308 9.882570974190418 9.970071053071672
Ag 7.185234633479758 9.75276982611316 9.375175613435017
Ag 7.399778670397851 7.649408672657285 7.862867718869766
Ag 9.696546089366967 8.879189375935436 8.955595191147161
