44
Energy = -94.5764654 eV
Ag 9.556755903052409 13.80533247009587 14.557772187297903
Ag 11.541975767811198 16.42855415425508 11.11777249709718
Ag 6.265983250786998 11.942954627631362 11.405662705531713
Ag 9.2120736191983 15.486364424451883 12.348563301154746
Ag 10.287409429939196 14.251560096279487 9.894018019238365
Ag 8.135946645486 11.309296571316514 13.940793147433263
Ag 11.658724448729595 16.022850612168725 13.900221255000348
Ag 13.871235198222902 15.11883347693589 11.968557983804773
Ag 6.965126726639844 13.897206831839398 13.387418537442255
Ag 12.251720165631632 13.748459198800486 15.302692013640947
Ag 8.869830320486978 12.779692523033473 11.768951459883136
Ag 6.497815487482732 10.476934386808987 9.063428011062303
Ag 11.67093465230011 12.446660051897627 8.333070151251754
Ag 12.894780397858389 14.956207150392006 9.203297507869854
Ag 10.978805177225219 11.41472417085166 14.274243005815244
Ag 10.80432252841457 9.781884837396753 8.243911737150455
Ag 11.541770828906126 13.631326607568008 12.420028221008836
Ag 14.602616941286481 13.615072668452793 16.81178174921312
Ag 8.22343314188921 9.963185598307486 11.287529568381318
Ag 9.828242628804377 9.076401676870057 13.403720590318068
Ag 8.954595542051013 11.84416315458541 9.110648374056094
Ag 13.680068581580061 11.908497488360798 13.346759591606062
Ag 14.408134055977122 15.487791031090804 14.669867486565883
Ag 8.428985313285244 8.39808209347284 8.987061233760645
Ag 11.036549645155814 11.153097847418241 11.123387699296073
Ag 8.359219504726806 10.272135259076325 6.934024982793409
Ag 13.512891792895063 12.538303769916551 10.586355936074044
Ag 14.410670704514057 13.107136252981967 7.808397276677097
Ag 15.67171303961208 14.532072098170206 9.881546544639063
Ag 13.109678441295786 11.31390742697205 16.181959331262235
Ag 10.57755871614305 8.375505013340833 10.724524017626432
Ag 11.888910548139394 8.935075878459365 15.387284858208282
Ag 16.52524104276755 15.255201886602116 12.628900072749383
Ag 13.48784077294601 10.515658683399142 7.388211990778506
Ag 16.15546172572292 13.326956820463801 14.566253529611945
Ag 12.529019857733346 9.179233691848275 12.651060170255745
Ag 16.11195083750913 12.577414906677136 11.80628865841579
Ag 14.083297038405863 8.975623398898133 17.255571189843803
Ag 13.1007163150105 9.562490889828208 9.93389692339641
Ag 15.525068396798712 11.08249652348098 9.366897882504349
Ag 14.58682791420045 9.343836027487404 14.566851082821776
Ag 15.114126912957392 9.887897173696777 11.83478216694801
Ag 16.829906745061972 10.783406658075414 13.821876833492706
Ag 15.887803253107059 11.126253848093041 16.439898474769215
