49
Energy = -106.98697813 eV
Ag 6.144942584265542 9.667656784246688 11.137460308966606
Ag 8.705186049606262 8.5926861478365 10.23814285511265
Ag 7.049131017456818 10.500076109420888 8.652851929415625
Ag 8.185430102327002 9.216119203535165 12.996535508649647
Ag 10.301873708930609 9.09716709954455 14.839299735909643
Ag 6.095531269676877 12.61614783863122 10.517152137125093
Ag 6.4875692502372475 11.525665938607052 13.174044152046033
Ag 10.86428869182466 8.717525590508515 12.119242300883917
Ag 8.140862971802784 10.84793790968632 15.27023512161508
Ag 12.94024521513265 8.208974491331347 13.947651977984545
Ag 11.555604873386619 8.426412390454214 9.451008194221735
Ag 8.478130475249293 11.270532932039039 10.987726625562166
Ag 13.272827289412168 7.225155019653679 11.342431968759227
Ag 9.881430621662153 10.518463338856675 8.498653673356342
Ag 10.619033424418065 11.706128760554932 16.167670809169838
Ag 8.329447545338471 12.956265136162154 8.568059885157396
Ag 12.57507075022537 9.677669212171054 16.340334862362752
Ag 12.21035064044643 10.993600982964981 13.755864709132911
Ag 9.741090846983704 12.255503631707368 13.28373922690474
Ag 15.58452351528138 8.243992444119279 12.818658350198875
Ag 7.470273969970016 14.01593469079335 12.609992472433538
Ag 8.543122078554529 13.64713710732003 15.306905584167302
Ag 12.723538618181827 10.633632084208143 8.300140078825228
Ag 9.867921291923455 13.870633892169742 10.82372369913345
Ag 11.531210702281557 14.061350372102309 15.095424132442218
Ag 11.27614743226048 11.361579963488898 10.947534539046273
Ag 9.785295594097962 15.45000845436443 8.513235585566038
Ag 13.467970170351759 12.303335535035188 16.00147492388861
Ag 11.187607999280214 12.988868168522156 8.395037927351671
Ag 14.437645763872842 8.611394865935335 9.175896540312399
Ag 12.23771561692139 13.779196614515765 12.417683475168989
Ag 14.926032621695903 10.041758320154816 14.843159671758329
Ag 13.730141278696731 9.978897840815106 11.542603357977713
Ag 7.448091189395678 15.139900637532723 10.070295171566855
Ag 9.879706831281165 15.233589468444048 13.249158268209595
Ag 14.656014799891901 12.237952710976844 12.988291711933158
Ag 12.478255045425149 15.055302670533468 9.846208262168263
Ag 14.274754538427448 14.574652281630218 14.453873162362736
Ag 13.714483606854147 12.555590832881112 10.236032146871706
Ag 16.530722527790093 9.73529949396627 10.701403898043333
Ag 16.18155560472865 12.47808008290332 15.433373871187056
Ag 12.170583238730451 15.328653095421584 7.0888202535511375
Ag 13.74990875040064 13.07193703721144 7.34479368169495
Ag 14.78487179524884 14.824053076598588 11.634185889403696
Ag 17.09449795233312 10.859940016193978 13.209754882333906
Ag 15.543673594022515 11.235236125617357 8.601498504328212
Ag 16.88770855647809 13.997565384298097 13.249378348615606
Ag 15.62493925039695 14.225570142787976 8.997654902964028
Ag 16.709756289257868 12.515985623962353 10.8924182765748
