4
Energy = -4.81624808 eV
Ag 10.063502276263254 10.011841757827566 11.518508173877198
Ag 9.206341852573907 6.683427436171013 6.433105517881583
Ag 8.231042886993617 10.058446870237299 9.697225262774253
Ag 7.716049759384912 8.465057725227686 7.572727823518287
