45
Energy = -97.24661259 eV
Ag 13.158299411067965 12.559634496465739 8.415037729812031
Ag 14.27521195568117 9.93067695428816 7.7883195962278196
Ag 10.835214806155339 13.29834899894805 7.102932923909104
Ag 11.483281566912652 10.521116088355166 7.536561114319664
Ag 15.061303029560756 11.363334512429509 10.126564346209792
Ag 15.547709941718105 8.604859013450731 9.892507837337973
Ag 12.678961401822235 9.546801651108396 9.973533934245394
Ag 16.531871688673476 7.253269065188256 12.142926673149212
Ag 14.467682860915891 14.23140896728842 10.372068614025874
Ag 16.433697951042475 9.998800344120706 12.212135169854276
Ag 12.58436731496858 12.324883899062003 11.112681179733421
Ag 15.08663035130124 12.655897113655314 12.704102262837893
Ag 8.963355197254067 14.716184499327253 8.567043818764029
Ag 13.759870456427917 7.498226556034768 11.854405038577285
Ag 10.715423250991813 10.50898854977593 11.99633626154505
Ag 9.859303151116821 9.30938868477534 9.464774699106615
Ag 10.037582184763297 12.096248218006252 9.491132898469115
Ag 14.2750880769841 16.79222488151816 11.558526971094663
Ag 11.507799861373014 14.644293338049955 9.695595115854704
Ag 13.619690860223928 10.204576423956278 12.6497435178964
Ag 10.997490575399226 7.736709876577248 11.470762205290356
Ag 14.998813465207697 8.326603779338859 14.253668640768026
Ag 11.322826429262703 17.045824780652644 11.319237540527466
Ag 8.003141746555173 10.584400330125026 11.081593360226172
Ag 10.083487030946628 13.338187071877373 12.12705769395101
Ag 12.20629410646888 12.380300369514337 13.88860079401085
Ag 7.6330299073900205 13.32266375600705 10.559697042993585
Ag 11.967195256450156 8.348427470094535 14.01000010896759
Ag 14.891192424100817 15.269605057167343 13.900309254082096
Ag 10.462317083290422 10.501612315845687 15.11847824466764
Ag 17.001401506375633 13.493113503456284 14.51876844329017
Ag 12.56591915067269 14.787662398478165 12.425603225234438
Ag 8.875355656953758 15.786538427548606 11.097398095036693
Ag 5.9516993029028145 12.05662766322222 12.319454975171578
Ag 16.04160230929275 10.86087485586481 14.797220786389204
Ag 9.071294216345327 8.773015927393393 13.274236995550481
Ag 12.67755031693629 17.200766042886052 13.839444148115248
Ag 14.441962913365499 13.017906406981174 15.581679396781485
Ag 13.37045828610837 10.29104321205958 15.53192630297695
Ag 8.267005591316968 11.481515972558494 13.71128027638773
Ag 11.873798796091197 12.383885045932834 16.6813345916366
Ag 7.677724759584217 14.27592815732283 13.24851432104928
Ag 9.764501006550027 13.399204137060805 15.08123436776906
Ag 10.096726705708795 15.819979066580133 13.621002241653242
Ag 12.271316825888288 14.8536456871967 15.299852776115051
