48
Energy = -104.54913627 eV
Ag 18.060414867197277 11.335243552913619 9.26405554979889
Ag 15.72458005805149 12.901976896828378 9.558861547625751
Ag 16.971649552596123 11.512549289620795 11.780453118552728
Ag 15.573377897738249 10.07980723603892 9.28430570018319
Ag 13.53801435623352 14.776003330689917 9.753389217051785
Ag 17.722301393581745 8.961450051837032 10.732607086940233
Ag 15.074258891261785 13.720730001399541 12.117382420656204
Ag 13.244320805412176 11.726361644050526 9.066685918545842
Ag 12.419349908822879 17.596722601638003 10.56592906550636
Ag 14.162133385844328 10.844172446037904 11.678620665930111
Ag 16.05338636699721 9.111768105663558 12.980623301713113
Ag 15.293061580944027 7.59198847618634 10.610210832803851
Ag 11.015903541607562 13.350748243111145 8.828467734801269
Ag 13.203110726996563 15.772245480501375 12.562998556625786
Ag 11.23571877540941 16.135784865552758 8.393821399462567
Ag 12.97297067753321 8.999802737800042 9.684065834824649
Ag 12.375817947791393 12.995379696809405 11.55596040791969
Ag 13.317884630708745 8.229584651081263 12.535094552103617
Ag 15.43346097022254 11.71959939032662 14.121408042284463
Ag 9.574138066882135 17.617449578638308 10.246150519187161
Ag 10.661578105699542 17.32131935649905 12.890921962723308
Ag 10.660328576297061 10.528702070580733 9.035034307167422
Ag 12.029676411363797 16.2267695435819 15.092266671886486
Ag 10.924024905611093 15.294287292137696 11.00218321593569
Ag 13.88530331628437 14.06927620528463 14.646301470473162
Ag 9.537343336016853 12.799272890110531 11.371558112796013
Ag 8.364731633505501 12.224113280641735 8.850673741605517
Ag 10.826845564886135 14.07363404837976 13.649348731013442
Ag 11.28883863099149 10.336311516641787 11.777607649613033
Ag 8.708036581113394 15.015066584986698 9.306203255519323
Ag 10.421910464749429 8.021828387840847 10.501889923138938
Ag 9.069954850822585 15.915112373797005 14.781790139067603
Ag 8.265767566252634 15.873120279235776 12.032818087362498
Ag 13.781727128444768 11.848691968758938 16.429062866415336
Ag 12.760764199635396 6.333616509480634 10.624647737518872
Ag 12.525739651103018 11.53446900076628 13.964056726236374
Ag 11.822746157517093 13.841430925368046 16.516105550432712
Ag 11.041576057228992 6.549844497459063 12.90553754512789
Ag 9.519739822568448 11.221873899238458 13.817014158565511
Ag 14.081513649263275 9.379237936358583 15.023696347215292
Ag 13.063166012050305 6.775012570615022 14.845078429821996
Ag 8.528539010768275 10.239895540795004 10.859988907601789
Ag 6.90271690030304 13.576575966612364 10.914200107612835
Ag 9.055375044988091 8.514288180527167 12.924931256471611
Ag 7.841412417020053 13.578744761785202 13.532950296833022
Ag 10.982324078006886 11.14331880527415 16.275890222557617
Ag 9.202085891119937 13.272769346700631 15.888673963407138
Ag 11.286843382856224 8.962885647539192 14.501246733695636
