43
Energy = -92.92547034 eV
Ag 6.638081188175709 9.506283700967492 8.85249381473722
Ag 7.68603643266901 11.545204972474272 13.105354681701087
Ag 9.237351245037365 8.52373602079922 9.346485583959527
Ag 7.450176409863077 9.15770628475969 11.518909060022295
Ag 8.657055931686806 13.552063501649846 14.87014918110177
Ag 8.353215958219755 8.74124915690544 6.728992371373178
Ag 7.07503713372759 11.899747354093325 10.28028547559366
Ag 10.299888420669586 11.38481634996363 14.35471839894938
Ag 10.26936485568401 8.338669083434116 11.997437694273776
Ag 9.548990679920143 10.886399715502819 10.978102686569155
Ag 8.322419831116061 14.001875468289837 12.055974440564402
Ag 8.628960513862296 9.151266269619871 14.103162393715072
Ag 12.064819600499039 8.836030492471737 9.906559902537705
Ag 10.637594494972793 15.094323959144745 13.676997916017152
Ag 11.330660502389316 13.470009254056212 16.01845758530974
Ag 10.905433640509521 9.77207185489686 7.39463828261715
Ag 8.508660063553597 11.271269572779556 7.8495277251218525
Ag 11.36884059729465 8.763392909907301 14.581557083487445
Ag 10.983978778426646 13.18094694704478 11.588955140539818
Ag 10.219867019227651 15.782768143645356 10.942833364687731
Ag 12.084801893930933 10.632211073050659 12.213707625306101
Ag 12.749394602828453 10.917819803562098 15.771752663381745
Ag 9.317572333646782 13.455039215825854 9.36535710208248
Ag 10.803932416067578 12.693396574432041 7.029413058382651
Ag 12.708298384483733 12.91028927726527 13.738690424160174
Ag 13.255464870011625 8.187592587980454 12.53591351251672
Ag 14.030367664935662 8.445768330062224 15.251619703226028
Ag 13.231646134749909 15.407972975073935 14.803175308748154
Ag 11.758779491524237 11.629409088818031 9.37104087727024
Ag 12.937118235719732 15.339310726511918 11.86121923203811
Ag 14.67758128813912 10.71155724474768 13.537424270938438
Ag 14.542150261325725 13.149460788723877 15.826682272315876
Ag 11.993628680703718 14.513358798942118 9.210127361112184
Ag 13.664772557771135 10.197066443602553 7.993755439621974
Ag 13.815595868646165 12.639892123676262 11.160901094473674
Ag 13.578635573053006 12.996302547096592 7.528172497660456
Ag 14.564003493239243 9.952702681954502 10.728303401645311
Ag 15.565968742682573 10.570928431231454 16.227465870543707
Ag 15.24454225331367 14.126186615805123 13.159965048045219
Ag 16.897246818877182 12.304632697797551 14.49234049711797
Ag 15.632062453322021 12.010706129449922 9.085241578111358
Ag 14.758600419656776 14.70704281289431 9.654650258158394
Ag 16.486098006639313 12.001322068155037 11.74405007535013
