40
Energy = -85.92925505 eV
Ag 16.81030412023577 11.390670490385935 13.340998219366769
Ag 14.821612923675845 12.50198089606406 14.951864268211791
Ag 14.875858532166832 13.30232581178883 12.276963500518994
Ag 12.760517241176057 14.897338118415254 11.27426900508165
Ag 16.916429007522375 12.324538208268356 10.673672614989991
Ag 14.862638774626923 14.029698095774405 9.575281757777654
Ag 12.718894037410747 14.234367027918099 14.026017856073489
Ag 10.437496941641866 15.28113359530977 12.80737331536099
Ag 15.05742687133049 10.329848391960756 11.43928339763123
Ag 12.300524322507252 11.960632140261463 15.973557773713411
Ag 14.634226401463925 9.715787000496332 14.215520201842423
Ag 15.065079008046952 11.336517792331266 8.748969767005837
Ag 12.948857318811104 11.917530532033645 10.51628394043244
Ag 10.316597548980948 15.573227433097303 9.903797439036618
Ag 12.801772347809745 11.548337580421602 13.25226595486002
Ag 10.47769527277124 13.032593123959177 11.101880881915172
Ag 12.207324398130524 13.84843226723081 8.593142119172908
Ag 14.454468665479725 13.352477395280827 6.860984224959158
Ag 7.914922569398194 14.363569091222276 13.503232082297345
Ag 10.237939041908502 12.666416126516358 14.0672301229033
Ag 7.720362998171942 12.138828484795813 15.14751090072288
Ag 12.569308247629465 11.317532501782322 7.369567469399736
Ag 9.451543200477152 13.377899523930168 8.361537249823117
Ag 9.83126507240007 10.712680267473033 16.302130642767207
Ag 10.571859263810119 10.425690587443686 12.112610318600693
Ag 11.836734058982234 9.38179097282321 14.804744835553343
Ag 7.959992597976843 14.1355086636885 10.669005929362418
Ag 10.654753969775836 10.827440334657696 9.316552356507191
Ag 12.865022375938322 8.685264659450182 12.200432114851187
Ag 9.618260728145732 11.022215921208948 6.827433898918994
Ag 7.982194576898885 11.804843207992182 12.310969588797766
Ag 13.236707871703398 9.27753890331052 9.452073871732509
Ag 7.899069707649675 11.401017209674926 9.55480709572927
Ag 8.550053907440414 9.692271538910067 14.047619744026958
Ag 9.709880162147936 7.945615615242437 15.855345183268884
Ag 11.299613258772482 8.773641541761208 7.474994675182417
Ag 8.273671449845025 9.121087514831201 11.274651504008782
Ag 10.27049367492512 7.735090651782093 13.022891464715178
Ag 10.806684090118248 8.073727107747578 10.270505974759354
Ag 8.683623513469794 8.856360913437634 8.510629231407874
