42
Energy = -89.74080307 eV
Ag 15.23414569604247 11.13182374711946 16.38862840910373
Ag 12.758513229359705 12.437389430875387 16.006557869244226
Ag 15.140718945918223 13.381822136393449 14.454048858710763
Ag 10.334760202547075 16.148370917022277 13.986972043857946
Ag 10.246454860026365 13.624683804528647 15.25002050179778
Ag 12.627690079383882 14.512810513006183 14.001112758296534
Ag 14.723935569180245 15.060307729532509 12.102066995253487
Ag 12.023469441384789 16.076636152851794 11.73436967631584
Ag 15.726705867880197 8.74684782631048 15.052498897622238
Ag 12.812564614726874 9.542096910329764 15.73795467952103
Ag 13.682841363812978 16.003522215843358 9.549831273047237
Ag 16.98258370588147 11.105925749941074 14.055461501295657
Ag 10.217526242432438 10.776008120570662 15.59807157509795
Ag 7.970010491723914 14.762613350570927 14.047290412157551
Ag 14.26309984415585 10.816354081088079 13.818382540595453
Ag 7.807292437196504 12.194577864000852 15.134600115561161
Ag 15.633794267752531 12.385028587140528 11.867464370900171
Ag 11.717516210981653 11.880424270120363 13.528586146618798
Ag 10.093739646102248 14.046021093387097 12.088436548520072
Ag 12.82240108307189 13.149476905987072 11.224386684062107
Ag 15.638592985813863 14.003513682331432 9.62751496673345
Ag 11.127561627578853 9.070969631663468 13.465599860570903
Ag 11.136830841436 14.65800971331874 9.458886859495767
Ag 12.879595826025048 10.261117032283837 11.44877418139756
Ag 13.374308064185811 13.726280733333052 7.99592821417397
Ag 8.486435319702629 10.151127117928823 13.383095625799468
Ag 14.500977969801024 11.368634516412852 9.491188017193101
Ag 15.784474727794608 12.453018047110888 7.259163333718307
Ag 13.735157311614682 8.065888164409266 13.278246266714406
Ag 7.595080757005066 12.654421022245534 12.308411810542776
Ag 10.16938360897828 11.251906522179674 11.380201670588942
Ag 15.642996555857213 9.606941559818862 11.723067899990813
Ag 8.819195333614022 12.971894963451678 9.657608522584255
Ag 9.45583814265208 8.540641455190823 11.252793813950209
Ag 11.472282161144996 11.936765119539432 8.947469047902114
Ag 12.351477014965806 9.284545695510257 8.887153021805847
Ag 13.304709220710345 11.105871613904881 6.9806377261748
Ag 7.529058095042087 10.430945907243446 10.613511731358193
Ag 12.050614053942704 7.579577936175879 11.1205295648077
Ag 6.0458693500307055 12.69494771201645 9.905122010512784
Ag 7.265156167537983 11.204383849943579 7.950851185060229
Ag 9.579810722523844 9.879315193276131 8.722121532883977
