51
Energy = -111.58793556 eV
Ag 16.950749539671886 9.39591349425652 10.212256681530759
Ag 15.100594080925777 7.422896359850826 10.942322314056737
Ag 16.044005212727175 11.880300956495901 8.984960463147388
Ag 16.9249938389637 11.638089267937895 11.817716858141893
Ag 12.53265166468866 7.34156514157466 9.817448936796124
Ag 16.463157413078225 14.111219983460739 10.666916556528076
Ag 14.200900378298387 7.193447923483823 13.5822218610467
Ag 14.303655423675508 9.633724692532034 9.376997704495745
Ag 15.994668248534941 9.241894853687544 12.87590958604237
Ag 10.04183840853352 7.411746306941867 8.416350384604499
Ag 13.257490603785898 11.98945748758138 8.271775800288369
Ag 14.152795908198032 12.095994708676118 11.031119019322349
Ag 11.608815002538439 6.900955656544054 12.583048348454989
Ag 16.431893109657146 11.36827653803061 14.658360321182935
Ag 11.664136976038575 9.65867076223572 8.357368719921494
Ag 14.52922977613825 14.455437233499001 8.697618562829533
Ag 14.89533409342099 9.148152503688419 15.476815719508396
Ag 15.324393657250933 13.535508764262666 13.186016115102655
Ag 14.042286940510696 15.362103083048755 11.355870019772807
Ag 13.025029259513047 9.309676715216197 11.899845547461156
Ag 12.165085097729646 8.816973008706753 14.664353702435427
Ag 11.438361346117805 11.384195148753994 10.568758676297728
Ag 13.746203962439438 11.203891368908002 13.859641702767169
Ag 8.91756315896476 10.044293006591174 8.822918553172155
Ag 10.42080724097157 12.349845595883522 8.13921326608153
Ag 12.044541770251442 13.999889668003965 9.87236658575761
Ag 12.85807164402136 10.700075840283525 16.667294565504562
Ag 10.321930127928054 8.693023467398863 10.860795183872021
Ag 14.383285701956583 13.127186751822103 15.865807547025392
Ag 12.28414453247251 13.461472987432233 12.692439645532222
Ag 13.637306598999485 15.441501093164913 14.262730900209837
Ag 12.067628604734201 16.699149808832495 9.684160577458757
Ag 9.600595275806656 14.952898073539837 8.937053481585282
Ag 7.908492961632148 12.599002607160045 9.46493767895878
Ag 8.666926726566388 10.83321525142739 11.545923980888382
Ag 9.527686300938102 8.640482718591567 13.534230119272115
Ag 12.49894632607931 15.133748033411427 16.759492237588518
Ag 10.949503783406904 11.032772709944979 13.226862171185186
Ag 12.069100685091671 16.977766449450833 12.468593124898241
Ag 9.705794869944022 13.630793964875314 11.561612656888148
Ag 10.076690545501416 10.498401421772046 15.789511649912303
Ag 11.631910502858663 12.848087908103047 15.464927320775468
Ag 12.06537012735848 17.56196263418424 15.251235816668999
Ag 10.684476733947234 15.284355342626853 14.47288786344159
Ag 9.638909180015986 16.662986523614503 11.126388379131477
Ag 7.350490098207853 15.073978374247513 10.616343446661197
Ag 7.008589494300897 12.928411357790983 12.435292629620688
Ag 7.683903513737163 10.659450232608158 14.124416247722143
Ag 9.691761683862918 17.784313521640343 13.69335322424249
Ag 9.11272598551056 12.997434736278393 14.311132914071814
Ag 8.138325486549254 15.453068233163057 13.262588217141614
