55
Energy = -119.92522156 eV
Ag 13.244675625266968 16.955027408931173 10.183908520431835
Ag 15.49337505221889 15.270026966314493 10.503456679877127
Ag 18.46590684072061 18.662706467619557 11.854293502047696
Ag 15.76719871429176 18.109377564088806 11.170796912340553
Ag 18.131077175536646 16.26529264642215 10.539034929045666
Ag 15.949395466337032 11.097092466259364 12.766322275664953
Ag 13.335422597232137 12.148775588842641 13.24476851571519
Ag 12.866897842373973 14.308039651779774 11.348010556466182
Ag 11.276148067414786 16.64325032480196 12.211304638966531
Ag 16.867838225800188 16.439047108179786 13.101233754918761
Ag 18.134721680128354 13.867509077108755 11.960474624711933
Ag 18.083214201087213 18.66178233490527 14.56417469611913
Ag 18.302542144470905 11.604616740410364 14.362240089926523
Ag 14.066978604841957 16.387394252527667 12.762065072626923
Ag 15.235542932487892 18.270567450362382 14.567653173990983
Ag 20.244862787230154 13.563990675091704 13.799634391373669
Ag 12.161906993291607 14.748372868234963 14.106142094692455
Ag 19.704523288979765 16.27962842707272 12.871994781023604
Ag 15.453872750914975 13.873026063349329 12.88306177522659
Ag 13.205746763292119 19.000956641500547 12.151384393692775
Ag 15.577272038487168 12.297688425473309 15.218463061558477
Ag 12.338074044382887 17.858013321216745 14.560651856858579
Ag 16.51771393752248 19.11173041367281 16.98998568670446
Ag 17.246105329156208 16.54243474000133 16.153732282068447
Ag 16.423523674504846 9.673354648916133 15.2626976436749
Ag 13.454284796660371 20.427605584044276 14.583505994874102
Ag 10.736009239162236 12.386807747753805 14.154269682006136
Ag 10.021771828387807 16.346848935959894 14.912821560160296
Ag 17.692708162525303 14.292487875019951 14.695416095139683
Ag 12.325609167706043 16.146814724296117 16.721253324826574
Ag 14.819629267447025 15.259606627837348 15.32755392110031
Ag 20.076074477088603 15.764316825375296 15.56970422271869
Ag 13.602550271362858 18.8642626983576 16.888135537351385
Ag 20.836254485891427 18.252039565952554 14.715535338282946
Ag 17.500400702203944 17.52110494476986 19.20382957347996
Ag 19.435327763990912 13.245302220046161 16.620173196992738
Ag 12.97215297991295 12.871332703646484 15.999491015426495
Ag 16.519737128991537 14.012469430341046 17.299760941758738
Ag 14.692843034114915 11.658332060946497 17.851845516947883
Ag 9.249748841231472 16.09959396085364 17.579633514929856
Ag 10.437844879395575 13.930138018073595 16.419642222679244
Ag 15.071769104565096 16.667576052000168 17.883370849892103
Ag 12.739251416318758 17.348434351104423 19.203434375813647
Ag 17.49251038847548 11.353982605411852 17.24579393278968
Ag 21.723782048745143 17.0928162855963 17.345054815465275
Ag 11.311169903684684 14.99392604009064 19.109053533617836
Ag 19.276606086167543 18.30461559498623 17.121703588372977
Ag 15.050329566952675 18.974905442079272 19.40266685109456
Ag 18.399961319230805 13.181741472448088 19.24960678575062
Ag 13.888635593321572 14.249844324585482 18.39683335957707
Ag 11.800089765416311 12.277722112511897 18.42614005676601
Ag 16.25371443391222 15.049667174721916 19.841556742285174
Ag 9.14365126765852 13.377338098805632 18.760915004828778
Ag 19.41044212637476 15.614270351973216 18.23192928655285
Ag 18.734353571990972 15.558144294185722 20.865633645653855
