7
Energy = -11.16685105 eV
Ag 10.889020582189165 10.584084494117295 8.00259258954591
Ag 8.406022706699796 10.608655770903372 6.845518517939627
Ag 11.43730693361394 8.526128957738157 9.82340991187319
Ag 8.87656450937932 8.879988744151845 8.886378922220784
Ag 6.346348965752626 9.18507834931909 7.856948360526556
Ag 9.402089517371166 7.067458804803162 10.835130969405961
Ag 6.824881277493273 7.3360256340961625 9.938545203775544
