   48   48 1000    2
  0.2712250E+03  0.2352468E-08  0.2352468E-08  0.2352468E-08  0.1000000E-15
  1.000000000000000E-004
  CAR 
 unknown system                          
    528      1    340
 
  0.0000000E+00  0.0000000E+00  0.0000000E+00  0.1000000E+01
    1       -9.806749     -9.806749
    2       -9.289207     -9.289207
    3       -9.163734     -9.163734
    4       -9.151217     -9.151217
    5       -9.107806     -9.107806
    6       -9.074472     -9.074472
    7       -9.043375     -9.043375
    8       -9.020685     -9.020685
    9       -8.994211     -8.994211
   10       -8.968949     -8.968949
   11       -8.939960     -8.939960
   12       -8.913071     -8.913071
   13       -8.887548     -8.887548
   14       -8.858729     -8.858729
   15       -8.852377     -8.852377
   16       -8.808127     -8.808127
   17       -8.793604     -8.793604
   18       -8.781820     -8.781820
   19       -8.751810     -8.751810
   20       -8.737385     -8.737385
   21       -8.719602     -8.719602
   22       -8.696920     -8.696920
   23       -8.686172     -8.686172
   24       -8.670319     -8.670319
   25       -8.663823     -8.663823
   26       -8.633143     -8.633143
   27       -8.625085     -8.625085
   28       -8.614646     -8.614646
   29       -8.602390     -8.602390
   30       -8.583688     -8.583688
   31       -8.566220     -8.566220
   32       -8.561718     -8.561718
   33       -8.553384     -8.553384
   34       -8.530989     -8.530989
   35       -8.521104     -8.521104
   36       -8.515337     -8.515337
   37       -8.509997     -8.509997
   38       -8.496014     -8.496014
   39       -8.477031     -8.477031
   40       -8.460675     -8.460675
   41       -8.441695     -8.441695
   42       -8.436453     -8.436453
   43       -8.419005     -8.419005
   44       -8.399892     -8.399892
   45       -8.391176     -8.391176
   46       -8.379324     -8.379324
   47       -8.364359     -8.364359
   48       -8.350536     -8.350536
   49       -8.338623     -8.338623
   50       -8.318833     -8.318833
   51       -8.316353     -8.316353
   52       -8.290308     -8.290308
   53       -8.283994     -8.283994
   54       -8.276482     -8.276482
   55       -8.263866     -8.263866
   56       -8.251110     -8.251111
   57       -8.240410     -8.240410
   58       -8.233791     -8.233791
   59       -8.212659     -8.212659
   60       -8.188501     -8.188501
   61       -8.172091     -8.172091
   62       -8.165028     -8.165028
   63       -8.147009     -8.147009
   64       -8.141410     -8.141410
   65       -8.128468     -8.128468
   66       -8.115137     -8.115137
   67       -8.108803     -8.108803
   68       -8.104379     -8.104379
   69       -8.089159     -8.089159
   70       -8.065813     -8.065813
   71       -8.041781     -8.041781
   72       -8.023516     -8.023516
   73       -8.020395     -8.020395
   74       -8.000808     -8.000808
   75       -7.989748     -7.989748
   76       -7.978465     -7.978465
   77       -7.969745     -7.969745
   78       -7.936893     -7.936893
   79       -7.935637     -7.935637
   80       -7.928461     -7.928461
   81       -7.905540     -7.905540
   82       -7.893147     -7.893147
   83       -7.874844     -7.874844
   84       -7.867009     -7.867009
   85       -7.843290     -7.843290
   86       -7.840996     -7.840996
   87       -7.828062     -7.828062
   88       -7.800242     -7.800242
   89       -7.799991     -7.799991
   90       -7.793221     -7.793221
   91       -7.773812     -7.773812
   92       -7.763608     -7.763608
   93       -7.742273     -7.742273
   94       -7.737074     -7.737074
   95       -7.718172     -7.718172
   96       -7.702806     -7.702806
   97       -7.679528     -7.679528
   98       -7.672093     -7.672093
   99       -7.653535     -7.653535
  100       -7.643856     -7.643856
  101       -7.633571     -7.633571
  102       -7.596211     -7.596211
  103       -7.593522     -7.593522
  104       -7.580006     -7.580006
  105       -7.567020     -7.567020
  106       -7.553704     -7.553704
  107       -7.548340     -7.548340
  108       -7.527468     -7.527468
  109       -7.508922     -7.508922
  110       -7.501927     -7.501927
  111       -7.496111     -7.496111
  112       -7.486886     -7.486886
  113       -7.470579     -7.470579
  114       -7.451653     -7.451653
  115       -7.436515     -7.436515
  116       -7.427622     -7.427622
  117       -7.416120     -7.416120
  118       -7.411231     -7.411231
  119       -7.395763     -7.395763
  120       -7.380415     -7.380415
  121       -7.371218     -7.371218
  122       -7.370725     -7.370725
  123       -7.338545     -7.338545
  124       -7.327485     -7.327485
  125       -7.321410     -7.321410
  126       -7.309254     -7.309254
  127       -7.295666     -7.295666
  128       -7.274164     -7.274164
  129       -7.257377     -7.257377
  130       -7.249860     -7.249860
  131       -7.233864     -7.233864
  132       -7.224712     -7.224712
  133       -7.211058     -7.211058
  134       -7.189506     -7.189506
  135       -7.171585     -7.171585
  136       -7.168235     -7.168235
  137       -7.155693     -7.155693
  138       -7.153118     -7.153118
  139       -7.136243     -7.136243
  140       -7.125053     -7.125053
  141       -7.105900     -7.105900
  142       -7.101345     -7.101345
  143       -7.083375     -7.083375
  144       -7.073979     -7.073979
  145       -7.072020     -7.072020
  146       -7.064663     -7.064663
  147       -7.039402     -7.039402
  148       -7.029067     -7.029067
  149       -7.013220     -7.013220
  150       -7.004657     -7.004657
  151       -6.992207     -6.992207
  152       -6.985271     -6.985271
  153       -6.964000     -6.964000
  154       -6.958170     -6.958170
  155       -6.953892     -6.953892
  156       -6.942266     -6.942266
  157       -6.937482     -6.937482
  158       -6.906092     -6.906092
  159       -6.901320     -6.901320
  160       -6.889314     -6.889314
  161       -6.883455     -6.883455
  162       -6.873092     -6.873092
  163       -6.869471     -6.869471
  164       -6.855888     -6.855888
  165       -6.843057     -6.843057
  166       -6.838617     -6.838617
  167       -6.827010     -6.827009
  168       -6.817842     -6.817842
  169       -6.807489     -6.807489
  170       -6.806603     -6.806603
  171       -6.784936     -6.784936
  172       -6.780909     -6.780909
  173       -6.766605     -6.766605
  174       -6.753475     -6.753475
  175       -6.750315     -6.750315
  176       -6.744959     -6.744959
  177       -6.739894     -6.739894
  178       -6.723754     -6.723754
  179       -6.715978     -6.715978
  180       -6.704193     -6.704193
  181       -6.694751     -6.694751
  182       -6.683553     -6.683553
  183       -6.677829     -6.677829
  184       -6.672814     -6.672814
  185       -6.664391     -6.664391
  186       -6.650585     -6.650585
  187       -6.644297     -6.644297
  188       -6.639191     -6.639191
  189       -6.633831     -6.633831
  190       -6.629216     -6.629216
  191       -6.620736     -6.620736
  192       -6.609138     -6.609138
  193       -6.603337     -6.603337
  194       -6.597517     -6.597516
  195       -6.591902     -6.591902
  196       -6.580756     -6.580756
  197       -6.574882     -6.574882
  198       -6.571488     -6.571488
  199       -6.555535     -6.555535
  200       -6.550620     -6.550620
  201       -6.536936     -6.536936
  202       -6.528688     -6.528688
  203       -6.522815     -6.522815
  204       -6.514694     -6.514694
  205       -6.509017     -6.509017
  206       -6.508524     -6.508524
  207       -6.494900     -6.494900
  208       -6.490582     -6.490582
  209       -6.480460     -6.480460
  210       -6.478195     -6.478195
  211       -6.466013     -6.466013
  212       -6.457270     -6.457270
  213       -6.446932     -6.446932
  214       -6.442335     -6.442335
  215       -6.428149     -6.428149
  216       -6.421935     -6.421935
  217       -6.418688     -6.418688
  218       -6.404131     -6.404131
  219       -6.396683     -6.396683
  220       -6.384193     -6.384193
  221       -6.366108     -6.366108
  222       -6.363972     -6.363972
  223       -6.351114     -6.351114
  224       -6.335665     -6.335665
  225       -6.316376     -6.316376
  226       -6.314114     -6.314114
  227       -6.300086     -6.300086
  228       -6.291066     -6.291066
  229       -6.282046     -6.282046
  230       -6.262405     -6.262405
  231       -6.256633     -6.256633
  232       -6.252745     -6.252745
  233       -6.247109     -6.247109
  234       -6.235670     -6.235670
  235       -6.221418     -6.221418
  236       -6.209231     -6.209231
  237       -6.198800     -6.198800
  238       -6.180913     -6.180913
  239       -6.166753     -6.166753
  240       -6.157525     -6.157525
  241       -6.130676     -6.130676
  242       -6.126080     -6.126080
  243       -6.108094     -6.108094
  244       -6.096325     -6.096325
  245       -6.090248     -6.090248
  246       -6.047769     -6.047769
  247       -6.039061     -6.039061
  248       -5.856244     -5.856244
  249       -5.814620     -5.814620
  250       -5.393865     -5.393865
  251       -5.252677     -5.252677
  252       -5.171439     -5.171439
  253       -5.001870     -5.001870
  254       -4.984394     -4.984394
  255       -4.756691     -4.756691
  256       -4.509100     -4.509100
  257       -4.430297     -4.430297
  258       -4.180121     -4.180121
  259       -3.896584     -3.896584
  260       -3.781357     -3.781357
  261       -3.706243     -3.706243
  262       -3.602719     -3.602719
  263       -3.547707     -3.547707
  264       -3.482811     -3.482811
  265       -3.192712     -3.192712
  266       -3.112035     -3.112035
  267       -2.986368     -2.986367
  268       -2.766886     -2.766886
  269       -2.696524     -2.696524
  270       -2.623587     -2.623587
  271       -2.463876     -2.463876
  272       -2.255032     -2.255032
  273       -2.220205     -2.220205
  274       -2.178877     -2.178878
  275       -2.130183     -2.130183
  276       -2.017017     -2.017017
  277       -1.911509     -1.911509
  278       -1.860312     -1.860312
  279       -1.852556     -1.852556
  280       -1.810788     -1.810788
  281       -1.712919     -1.712919
  282       -1.587249     -1.587249
  283       -1.464175     -1.464175
  284       -1.347815     -1.347815
  285       -1.259606     -1.259606
  286       -1.202696     -1.202696
  287       -1.076479     -1.076479
  288       -1.009476     -1.009477
  289       -0.851918     -0.851918
  290       -0.771877     -0.771877
  291       -0.700853     -0.700853
  292       -0.618092     -0.618092
  293       -0.468365     -0.468366
  294       -0.442501     -0.442501
  295       -0.371965     -0.371965
  296       -0.262796     -0.262796
  297       -0.241445     -0.241446
  298       -0.179000     -0.179000
  299       -0.092733     -0.092733
  300       -0.074398     -0.074398
  301       -0.014568     -0.014568
  302        0.095888      0.095888
  303        0.153388      0.153387
  304        0.220476      0.220475
  305        0.345450      0.345450
  306        0.415728      0.415728
  307        0.467695      0.467696
  308        0.539704      0.539704
  309        0.571863      0.571863
  310        0.676245      0.676247
  311        0.762850      0.762851
  312        0.790643      0.790645
  313        0.824239      0.824238
  314        0.841836      0.841835
  315        0.875043      0.875043
  316        0.920019      0.920019
  317        0.970456      0.970455
  318        0.992530      0.992528
  319        0.998041      0.998039
  320        1.009012      1.009011
  321        1.066457      1.066457
  322        1.079814      1.079815
  323        1.109425      1.109427
  324        1.114210      1.114206
  325        1.131453      1.131454
  326        1.139735      1.139733
  327        1.155502      1.155500
  328        1.164982      1.164985
  329        1.206709      1.206711
  330        1.215944      1.215944
  331        1.248465      1.248466
  332        1.290768      1.290769
  333        1.314110      1.314109
  334        1.319102      1.319102
  335        1.350708      1.350706
  336        1.366339      1.366337
  337        1.384470      1.384470
  338        1.396411      1.396411
  339        1.405981      1.405981
  340        1.439043      1.439040
