14
Energy = -90.5104339 eV
Fe 6.85605814039297 5.891129876148186 9.461499752439144
Fe 10.182169747163314 8.000362766898919 10.497765980634005
Fe 6.299332768980917 8.151426396595143 9.48453928492641
Fe 10.569670805118433 10.44052193507745 10.144339111086145
Fe 8.666248284340025 7.21977169039333 8.874839033640525
Fe 7.828471957927399 7.381128190407389 11.078119772570453
Fe 10.213319412700267 8.947663338142332 8.340607705306319
Fe 9.136729550131966 11.325012326589242 8.518670800378343
Fe 9.469609469509832 10.205582485550945 6.458102757048739
Fe 11.339973801050967 10.932318483729354 7.917020971696557
Fe 8.322679280681902 9.499429432255297 9.980378127526347
Fe 9.071554401201766 7.771204384414371 6.581787855455541
Fe 6.804605720104512 7.220154612875756 7.376229592951339
Fe 7.633691031497382 9.408408451723929 7.680213625142205
