19
Energy = -124.66667281 eV
Fe 8.8112284605861 8.039254740675261 10.746621059678342
Fe 7.719926066803746 8.760794780025751 8.403157574992369
Fe 10.843458027729135 8.130221385666712 12.115232334556705
Fe 7.617116164705912 11.486147202966526 11.333206436256356
Fe 11.635352057086045 7.533530609190083 8.096358991500969
Fe 10.068566166337718 12.06712993271034 10.657182668596073
Fe 8.869937498517485 10.248183138606631 9.763024950234419
Fe 9.475518420801139 10.19645592774317 12.003691203269238
Fe 9.831884898369374 9.156178137539753 7.628881896853135
Fe 9.376393538990579 6.95733622765821 8.787811257906085
Fe 6.692784116116705 10.866650432218272 9.072031243082634
Fe 12.750405390355326 8.014484952536698 10.505064620613707
Fe 10.90800124023113 6.462308495195004 10.486212777360734
Fe 7.969628376016912 12.756927628329072 9.435414987828606
Fe 8.515897565551787 11.161918403498044 7.529603919326798
Fe 10.82324339759988 8.810704142174512 9.711421096573044
Fe 10.989239943776992 10.936063224842174 8.736171659713026
Fe 11.786070547908897 10.146294130566487 11.253933827954071
Fe 9.912056063977845 12.866124449320287 8.331685435166674
