18
Energy = -115.25864588 eV
Fe 12.022665355369082 8.187378566612296 6.402762465327559
Fe 7.953428463490241 9.74559908045311 11.61400553666163
Fe 8.54021286339713 9.705780054697964 9.160971456936146
Fe 8.90698554512221 11.756707360372266 10.61818345777292
Fe 10.790676983396835 11.009037265253742 9.065686419853995
Fe 14.533547435817727 10.103661548323897 11.1465984535938
Fe 12.579700070426616 10.155068928093224 7.641340725617815
Fe 12.271758496415751 10.531287728624953 11.885410499052913
Fe 9.535163858486913 13.448212662485027 12.384462190283164
Fe 13.176156266750334 11.498329330924784 9.66130186791692
Fe 9.50895944055139 12.51629698479151 14.615788081993074
Fe 11.279793561369882 12.605594202744536 10.879122949273333
Fe 10.296655957115924 9.313127166511915 10.84086662279355
Fe 9.958268228742481 10.869312582480685 12.810185440846327
Fe 11.685430150481483 12.500738782047463 13.372802070672847
Fe 7.74186224490847 11.873317425171686 12.89643533257813
Fe 12.637417433861906 9.080527062200732 9.908214363465774
Fe 10.695909382432962 8.639259017877286 8.383958823532017
