14
Energy = -89.11281739 eV
Fe 8.963612406239546 9.237471186155757 8.35897151712534
Fe 11.558910645109842 9.305924253191014 8.332665420522408
Fe 6.5198027267616245 9.251964837637153 8.560671056450246
Fe 10.348556094886792 11.3637243995115 8.501012612435842
Fe 7.747755623647445 11.359963739215564 8.552157424852936
Fe 10.18256352005295 6.94768218729574 8.345043511986212
Fe 7.7990228719893215 6.987514291250514 8.521652040196802
Fe 9.072607106350754 10.649842381424696 10.379857746087563
Fe 11.471590362721047 10.622609510369603 10.375428481116971
Fe 6.62930818195548 10.605350144224406 10.438745357528719
Fe 10.391278374744333 8.411252866076156 10.200082214294241
Fe 7.801574568978313 8.463048790585797 10.391498730773556
Fe 10.466081603359168 8.353771986786041 6.604195669614054
Fe 9.002211913203242 6.394755469801843 10.392894173488774
