18
Energy = -120.33171867 eV
Fe 7.3852468363980295 9.326933848040762 9.256375854603702
Fe 12.08280736033142 7.986162591996556 9.9521231442022
Fe 8.953376396561664 13.257296993576182 9.441005814460437
Fe 9.778077597123751 8.848132717232891 9.8837248705567
Fe 9.896626965218452 11.050501092886506 12.177559764547828
Fe 10.87966434018548 7.811929879754971 7.942180865215168
Fe 7.947569204650642 7.355080365631259 10.688772655125856
Fe 7.791368732267916 11.56054350874836 8.08836609429344
Fe 9.144092333009901 11.071204979990782 9.946001485324029
Fe 10.151020419193568 6.567576354111432 10.177737748672683
Fe 10.111149916518356 8.365857550430814 12.04579336742996
Fe 9.24170735285075 9.69756724356047 7.672925304436472
Fe 8.014842286421093 9.54882252443556 11.549523425899443
Fe 8.589274584775733 7.300248741433495 8.354704230032718
Fe 11.148555458664726 12.314692557189764 9.911470042937118
Fe 10.150610147160968 12.066553243236278 7.761512931445009
Fe 11.634482549935038 10.067220857170865 10.916811749802967
Fe 11.47196112759242 10.176108559433224 8.605844259874594
