14
Energy = -92.32088158 eV
Fe 8.806443248870515 8.853289848837509 8.82699733984313
Fe 9.174664884639917 9.801654476189523 11.047618558325992
Fe 8.830048816152262 10.09941787375735 6.998642330470042
Fe 8.77682724802843 7.488887192153603 10.81559404963938
Fe 9.038395491397473 7.475076068955827 6.823604590444799
Fe 10.525170499306636 10.588396289967262 8.962502333830836
Fe 6.764540052640447 10.353259207594588 8.073641355031162
Fe 10.098243339822169 6.6930678101136 8.839245443229895
Fe 7.688887648468101 6.6748699695116995 8.897244145841611
Fe 10.958731327325061 8.503549281473054 10.081624822272035
Fe 10.88109705210055 8.719875822151316 7.583375909367123
Fe 6.909316462860151 8.977701033948732 9.957221246434857
Fe 6.881078324278311 8.189542115087907 7.333521302156042
Fe 8.3519986041101 11.266856010258165 9.444609573113102
