19
Energy = -125.12024967 eV
Fe 11.706543418356715 9.796818997874068 14.025245349685584
Fe 8.268706043764835 9.23105228614801 10.72192378102063
Fe 11.398391511468862 9.79302370746496 8.03714376852947
Fe 9.476112287470935 11.490784161079668 11.274704267065038
Fe 9.89872708537896 9.60895880390108 12.62160010355093
Fe 10.184634065370155 11.827639418414956 7.130783527702801
Fe 12.29407694728053 8.588492517609446 11.9982988576367
Fe 10.034130984197429 7.581755615741326 11.111500936356212
Fe 7.27533447227943 9.250501304378476 8.507780357005894
Fe 9.485258487890956 8.360114545539025 8.783491011522381
Fe 11.879940003514045 10.963726830992679 11.950906848010046
Fe 9.250933019050882 9.65830849269286 6.840044276301689
Fe 11.322539962060556 11.88399118708183 9.525908788034638
Fe 10.818572381886867 9.589432141184306 10.387909786003354
Fe 9.22561108472222 10.875329068084472 9.032212714393637
Fe 7.629001781403025 11.342989900851173 7.499177475854656
Fe 7.155436102830063 11.162804710514127 10.00346603661946
Fe 12.443802596969618 11.792424671706234 7.563383847185211
Fe 10.766389248421994 7.7159931230596355 13.498659751839867
