22
Energy = -147.66693938 eV
Fe 12.017714235806219 12.970310282433703 7.567033807565533
Fe 11.765598284377544 11.330427489836158 15.038759661373659
Fe 9.691598465978554 11.446763839598068 14.077418559109391
Fe 9.131899388527891 11.892728926775904 9.501384826525813
Fe 9.377785162242981 12.04608486368729 11.830933537463608
Fe 11.320127767704987 12.180242029645418 10.442614729916265
Fe 10.306191728252113 9.949952157666468 10.546090575585694
Fe 11.764776047309857 8.63601148108087 12.142087518716828
Fe 11.241834936016737 11.104005493297501 8.34943520687643
Fe 10.157062602500403 13.756122931579775 8.834082309069284
Fe 13.066423625884209 9.538322384973608 14.030894234400284
Fe 11.600443774965342 10.913062085204839 12.516024246926484
Fe 13.53907754898706 12.01643715873883 13.781053725961332
Fe 14.152360803773627 10.27972973639951 12.13944904003313
Fe 12.358426255460593 14.038538036891069 9.816757689515077
Fe 9.260018981128196 9.693469104490067 12.590266980754537
Fe 10.136975327596042 14.165756311274462 11.097918099563447
Fe 13.512413457694114 11.979381989849854 9.198867830696267
Fe 12.699692375640264 10.132783601349823 10.330757973106348
Fe 10.729653835718901 9.211117943234726 14.285596087670674
Fe 13.518573200621287 12.447017362170076 11.470611426455276
Fe 11.542930363501108 13.195547728307028 12.863972028431743
