29
Energy = -198.9536533 eV
Fe 12.428743572551367 7.038266621807658 11.644141524501496
Fe 14.430971271750721 10.498469212041003 14.422645093197103
Fe 11.141792796780544 15.20073630739906 10.779880039019782
Fe 9.83233793512802 14.360496048722881 12.702079947804021
Fe 12.336104722987152 10.228512577308473 13.547356356794142
Fe 11.307515780234043 10.644789300297617 11.184860458840811
Fe 11.456921991891594 8.017189650081146 13.432912417906705
Fe 10.497238371842027 8.502075156628262 11.241957278609448
Fe 9.09639748095429 11.17958968994544 11.134139131241216
Fe 10.849828097405831 12.104263786039354 13.16890914534389
Fe 9.858463906775375 9.88476774989493 13.064922923068995
Fe 13.292552082638627 11.838347358857927 12.109883272232633
Fe 13.858669516342456 8.33221924603414 13.237934081088778
Fe 13.331344748283213 12.731205058992469 14.318178460794522
Fe 15.264251365782455 12.295705286025607 10.749847590503723
Fe 15.577009251025565 12.122784815640948 13.259893361028809
Fe 13.416475003611355 15.202061434189893 14.251034119977403
Fe 12.244082734764932 13.974329434094885 12.516959616785414
Fe 8.521607372486216 12.366025833194835 12.965754070675551
Fe 13.007543061752255 9.17999080517417 11.185067610711297
Fe 9.013778473075883 13.476202090935846 10.673969550577313
Fe 11.276232395673583 14.131095383557572 14.692178362578108
Fe 11.473514548762482 16.170459485364717 13.215453435064195
Fe 13.256631027249966 15.947840757178549 11.661893968049059
Fe 11.204231366856954 12.82682063477037 10.768906488691394
Fe 14.64801384889244 14.109403022453902 12.434376777571153
Fe 13.383048923714046 13.793310346660268 10.295304504226113
Fe 13.265602418755996 11.376137913160115 9.797637077795782
Fe 14.979659064833312 10.171752156742201 11.972686378344928
