25
Energy = -172.13218738 eV
Fe 6.839126059895351 6.80107398049133 8.734079879473285
Fe 7.183841091725208 6.925710184867243 11.07812829647379
Fe 6.221940068685031 9.081742081478424 10.207104929525174
Fe 8.970836363329692 5.943193573344459 9.40006722036188
Fe 8.97696368363435 7.517983473961138 7.374004360590372
Fe 7.039532676754546 9.16088226575136 7.8529982346119755
Fe 7.587659577650325 11.29887918027702 7.216350439452993
Fe 8.385229053750717 8.313351994730782 9.575071950272712
Fe 7.9957956618754435 9.185058834113061 11.837225487866748
Fe 8.58025164260591 9.353686130131317 5.934972394170363
Fe 9.672740707981655 7.225427501612927 11.387838113148025
Fe 7.9888647227784935 10.885990905175637 9.753181858348846
Fe 10.061825911603972 9.51564347676548 10.543624166251899
Fe 9.281096807045904 12.514679273277045 8.214422909915214
Fe 9.815194420311945 11.27936858174118 6.107280171023504
Fe 11.971731403290823 8.091940279750112 11.112547513082493
Fe 9.556552383009146 9.958446061726132 8.197887183954688
Fe 10.297626478539213 9.175376702542529 12.868834069474012
Fe 10.712144650499967 7.676529694294033 9.012544803268781
Fe 9.237358292456372 11.255094683384085 11.953319653816386
Fe 11.056081718155589 8.999211809414454 6.778854702242168
Fe 10.598248949704935 11.706048578523735 9.91359769595232
Fe 11.512446424359997 11.463792377945396 7.636976581089512
Fe 11.890781166024576 10.422706174630214 11.64288650100711
Fe 12.012436267154463 9.690897330851934 9.123187849314016
