27
Energy = -181.89087645 eV
Fe 10.407503644977137 14.470451483471281 10.415230877076336
Fe 11.9507749509104 14.43493636227074 8.649984011122106
Fe 9.6060801736 14.076929689521569 8.281071534459272
Fe 12.787461661183793 13.781482868492878 10.835299876238015
Fe 10.819381903574559 12.852755597900567 12.251146285898708
Fe 13.152286733519219 12.567919777070633 12.979152154934619
Fe 11.391240551750979 12.041717665028187 14.641943371540728
Fe 8.64757436396516 12.633454609332972 10.12995310699579
Fe 11.136979293471304 12.321123309394673 7.62411627303152
Fe 13.253607212260771 12.513209038267155 8.852772464601554
Fe 8.64388638475082 11.935140800314569 7.809197314338904
Fe 13.338371319709214 11.308362187699622 10.984235755605177
Fe 13.621252377431054 11.588380147139912 15.135888857529679
Fe 11.54632992922331 10.59896431762017 12.603198555181732
Fe 10.157936697738903 10.117790602047915 7.837591632433167
Fe 11.96265711599259 9.82078492667649 15.215466857043248
Fe 8.394528992410859 10.253321119698013 9.453836749487518
Fe 12.364043994576031 10.191402072236228 8.887434030404602
Fe 13.738790965575317 10.160031362650978 13.243961561679635
Fe 9.816192904830777 10.208929373348091 14.08044385756996
Fe 9.343490630350166 10.576202402849898 11.592521958855832
Fe 10.921082104133173 11.774802997885445 10.073226666207358
Fe 10.414164325036781 8.95989977589252 9.888555451969872
Fe 12.458256624328424 8.95751997675069 11.09875997892924
Fe 10.339295494268683 8.017865006511789 14.642320356059352
Fe 12.295828458544516 8.251042168585602 13.434169052279287
Fe 10.174098145040718 8.450294946801597 12.259260721152085
