27
Energy = -185.15646699 eV
Fe 6.310077628376887 9.657333572376029 11.138276792951055
Fe 8.470729415743474 9.007576948194291 12.13300015517024
Fe 8.135282181360587 11.40535707808162 11.653007142107562
Fe 7.304500345094912 7.638896114229709 10.21967135287879
Fe 9.028607270335662 6.637985780014032 11.656619545301021
Fe 10.283581598202048 10.51579112788085 11.003109031516082
Fe 6.590938268048756 11.717362114152433 9.636743243401375
Fe 6.278432187532877 9.243820042043932 8.428300283917293
Fe 8.122167718951324 9.947958156060249 9.841466107843258
Fe 9.698851464193996 8.269364914737825 10.157661300900847
Fe 9.221935949641452 12.111353691059199 9.475437294997839
Fe 10.994131819358532 8.448653502548167 12.06723245254052
Fe 6.78079861582344 6.816626320940615 8.0371850958987
Fe 11.841057742985726 11.316533003257314 9.351074511742183
Fe 8.970483615908908 6.098662462694948 9.18395007596127
Fe 7.856471911416537 10.98839673986372 7.640840913692936
Fe 11.224683944874002 6.499559792921921 10.47559238406822
Fe 10.356003790153146 11.860491363380852 7.328438201001791
Fe 8.543473158058461 8.37557710854057 8.064354008871705
Fe 7.392315723155584 8.761022172442807 6.213428279614069
Fe 12.082545165784968 8.993202852466455 9.917113263818479
Fe 8.916495796915195 6.530411959652857 6.816969119952014
Fe 10.139658782429082 9.964090581517553 8.477307957531067
Fe 10.97881902890965 7.518029989293635 8.32391134863514
Fe 9.10859411436054 10.403416997511442 5.9222760459088155
Fe 12.069354553112078 9.737970449408545 7.402588641236069
Fe 10.246590907174044 8.492002376371476 6.281850960756282
