25
Energy = -168.55698916 eV
Fe 12.443849879555797 11.056446519605636 7.221341619738657
Fe 9.639874816565538 12.797922867930236 9.917258356685988
Fe 13.437409164775907 10.21833270217071 9.145741253261574
Fe 11.955081534511535 11.901232471571216 9.883377955311088
Fe 12.308332428343999 7.9334597409874315 11.697062650198768
Fe 12.444787574138587 10.31573158137285 11.534889160372154
Fe 8.841020784905043 10.605832513533118 13.003166832277323
Fe 9.989347474353158 10.3939834250192 10.772995617547522
Fe 11.082112215795908 8.900105152470418 7.513338742015548
Fe 11.255427466428399 12.98373970505776 7.8509488904820826
Fe 11.578313137196881 8.97458463975913 9.791663686293749
Fe 10.890256545201792 9.374228781393708 12.907476352764608
Fe 9.254554802493502 8.682732893162347 9.086867426473608
Fe 7.018344256514835 9.01329699275199 8.68092185613961
Fe 8.755355994346079 9.863970522215231 7.110549404971281
Fe 10.407648409681505 10.893334351111577 8.432368443742863
Fe 6.196730497056668 10.62590540298515 10.20003909170968
Fe 7.905238490163283 9.327971226767568 11.130153300031697
Fe 8.152359933459504 11.067722368617797 9.108839578590207
Fe 8.695423973626117 8.178131273868884 13.321942767708721
Fe 7.920901659362687 11.948773282210631 11.347637578928497
Fe 10.500274612418522 12.131288629389026 12.079320137583064
Fe 10.567775595083772 7.056071236940941 13.37278003664374
Fe 13.563877045230836 12.6357695407214 8.476770198757137
Fe 10.009314263994717 7.933044733590909 11.226161616975538
