33
Energy = -225.99520401 eV
Fe 15.392468124228017 10.137618118595988 8.58959261093557
Fe 11.528402674393126 12.130089638564913 12.02629636469028
Fe 13.809220460891972 12.777744353827977 12.617841893561698
Fe 13.485386956874981 11.489914798563746 10.204485019665482
Fe 12.77958692204526 14.113613931199872 11.006543617614897
Fe 11.081820441183568 10.44047067389983 10.41057916910449
Fe 12.837352199449338 11.790658351326437 14.38835908252437
Fe 8.882020775591478 11.007315510666244 14.609536967153602
Fe 10.788245079903323 8.536986226658792 12.529860162045017
Fe 11.222522914533458 12.904845541078199 9.68490235939651
Fe 9.377300759366172 15.119326025982065 13.47853323814046
Fe 15.121560111463724 13.25902815822307 10.723505983435821
Fe 9.50050510177008 12.804041530976386 13.257431505446075
Fe 13.131643947901662 9.480084008184807 8.775495826313698
Fe 11.524141977746162 11.16322220306846 8.189092989149536
Fe 10.396223085356137 14.37471299434357 11.485427774649523
Fe 9.273001691534166 10.479648570064672 12.237561639955223
Fe 15.524448546684818 12.495528513957579 8.534198447082767
Fe 10.366354585671552 14.533344409835532 15.357093517447687
Fe 11.756351025098589 13.960596730586035 13.542160670961715
Fe 10.954245528633997 8.728398599802844 8.67393002662833
Fe 9.260255235972304 12.362591819455082 10.889467392203944
Fe 15.133990909216385 10.965614722435353 12.39220233531178
Fe 16.242858314966725 11.214292793967969 10.408519186676955
Fe 13.299105444703939 13.35702487959592 8.66334637394192
Fe 13.71436243953879 11.386981129780079 7.406855171684302
Fe 9.585935787540537 8.628258388824849 10.59918936524176
Fe 12.90859924845242 10.164803873647154 12.314410107127935
Fe 12.242399672005579 8.34524359372464 10.72819625611177
Fe 8.391084720179723 13.309691142589047 15.218177042677432
Fe 10.750261320540858 12.23698185170769 15.452735371492711
Fe 14.568855646509332 9.25650224205383 10.794240813735671
Fe 10.991136358852838 10.493582143372564 13.781774729121638
