38
Energy = -230.11231946 eV
Fe 14.771843935645798 13.427402541116514 19.47828374089887
Fe 20.19044764760209 17.54823292047728 17.103024254699008
Fe 16.746117811883437 16.616533021242493 16.266810363957767
Fe 18.82372306317631 15.484019204722848 16.56334622948693
Fe 14.928899950054989 17.639325789288783 15.250951504982313
Fe 21.177566972166144 20.49214208562401 13.450264996813086
Fe 18.73295054821963 21.858171183121367 15.66563215183676
Fe 24.17424013408241 15.343345786874815 21.485500952316237
Fe 7.459142001376311 23.175736940204608 17.233087454132917
Fe 21.470371257940354 22.59560653306722 13.897791775402368
Fe 21.294486680020537 17.02648260638845 19.488464368242923
Fe 17.436064545033563 21.891982151446083 0.7625993145529598
Fe 16.935955984064755 12.820107670107951 20.059975954265028
Fe 16.15593768795558 15.03134553492433 18.139595953363333
Fe 18.927370864012317 20.914745300441723 1.6165633568616844
Fe 16.708842139420362 18.869191501829103 15.034449849271107
Fe 16.803672718560072 14.212723923252774 15.703347161456778
Fe 23.170362585618367 15.544430093012497 19.51705231148955
Fe 21.612669598846946 15.841796790967432 17.657509760443205
Fe 20.79529392087222 16.038877632864363 15.326169970463825
Fe 19.207327876576763 16.410512293260123 13.738546737473909
Fe 13.362840523373753 13.470048414469785 21.423446704009518
Fe 20.916789219009573 21.0689039285787 15.674003995009434
Fe 18.59233957978316 23.692433823844826 17.036401354905887
Fe 20.61091745781458 23.454280284366543 16.039871583517627
Fe 12.430721177475972 14.02401099026629 19.406322618626678
Fe 15.45961058782641 12.740048568333117 21.749629865613855
Fe 14.840546172665062 13.135814641233448 16.993758466969126
Fe 13.796015608526774 15.057351685142601 17.882499158523
Fe 18.41265206624934 19.62297450112188 16.668049986319293
Fe 18.64536744085076 17.657164226887847 15.413293041404572
Fe 9.665311130243252 21.586447979161772 20.874203598264188
Fe 17.041451467901798 12.996124661593983 17.636157210039716
Fe 22.478349160689316 16.726784937733136 21.44446245436364
Fe 8.548682147606408 22.413852477389188 19.082850750941848
Fe 14.761806862253762 15.351311822125453 15.81602301569354
Fe 19.094069976397908 19.778608554558723 14.595717412694638
Fe 20.90745892011564 18.199046878773874 14.616662688628583
