40
Energy = -266.96761981 eV
Fe 16.552922110048478 13.607268404139466 12.332304155866469
Fe 13.456868486951725 17.969120270409007 10.360075656635939
Fe 14.48574116810699 14.697860875186361 12.268756795562432
Fe 10.36081486385524 13.607268404139466 14.58143281803725
Fe 10.360075656635939 8.944616703494585 13.456868486951725
Fe 13.456868486951725 11.117045966534386 10.647428855993613
Fe 12.3018487038196 15.79555469450951 16.64036647238267
Fe 14.644980178341152 12.215876098716958 14.48574116810699
Fe 16.552922110048478 13.607268404139466 14.58143281803725
Fe 13.456868486951725 17.969120270409007 16.553661317267512
Fe 14.48574116810699 14.697860875186361 14.644980178341152
Fe 12.332304155866469 13.306468569763986 10.36081486385524
Fe 12.427995805796462 14.697860875186361 12.268756795562432
Fe 12.427995805796462 14.697860875186361 14.644980178341152
Fe 10.27337050152078 11.118182279393942 14.611888270083853
Fe 16.64036647238267 11.118182279393942 12.3018487038196
Fe 14.611888270083853 15.79555469450951 16.64036647238267
Fe 10.27337050152078 11.118182279393942 12.3018487038196
Fe 10.647428855993613 15.7966910073692 13.456868486951725
Fe 14.58143281803725 13.306468569763986 10.36081486385524
Fe 14.611888270083853 15.79555469450951 10.27337050152078
Fe 12.3018487038196 15.79555469450951 10.27337050152078
Fe 12.268756795562432 12.215876098716958 14.48574116810699
Fe 14.644980178341152 12.215876098716958 12.427995805796462
Fe 12.268756795562432 12.215876098716958 12.427995805796462
Fe 12.29764968736124 17.130313217531057 14.600266226486701
Fe 12.29764968736124 17.130313217531057 12.313470747417016
Fe 10.36081486385524 13.607268404139466 12.332304155866469
Fe 12.313470747417016 9.783423756372528 12.29764968736124
Fe 13.456868486951725 11.117045966534386 16.266308117909837
Fe 16.64036647238267 11.118182279393942 14.611888270083853
Fe 14.616087286542346 17.130313217531057 14.600266226486701
Fe 14.616087286542346 17.130313217531057 12.313470747417016
Fe 14.600266226486701 9.783423756372528 12.29764968736124
Fe 12.332304155866469 13.306468569763986 16.552922110048478
Fe 16.266308117909837 15.7966910073692 13.456868486951725
Fe 12.313470747417016 9.783423756372528 14.616087286542346
Fe 16.553661317267512 8.944616703494585 13.456868486951725
Fe 14.58143281803725 13.306468569763986 16.552922110048478
Fe 14.600266226486701 9.783423756372528 14.616087286542346
