43
Energy = -293.47009891 eV
Fe 14.380722252292253 12.775257553486693 9.294270269570768
Fe 15.983198418882104 11.597438119532022 8.292247963620788
Fe 14.732004606086113 10.77296440703462 10.55711368129391
Fe 15.386250145148699 11.651948836768407 12.702272234828172
Fe 13.861995419840321 15.292872641454498 12.287866985837082
Fe 12.23857299404319 13.882426852295714 13.6401050048483
Fe 12.663501550584519 11.254413749434208 13.139181636827175
Fe 12.690928912167294 11.135968664747969 8.68694122383957
Fe 12.927977966701157 13.795051309712967 7.804146106170484
Fe 13.554503668495492 12.98031664777136 11.713560878939182
Fe 14.097683792534982 12.863184752441184 14.338405767850412
Fe 14.53052778795146 9.721864503966515 8.467906755064874
Fe 14.104016150752804 11.799568529070946 6.933205330294102
Fe 15.704430262277539 13.483197783429082 11.181786804463634
Fe 11.837824477641828 16.22751985875614 13.113952657687468
Fe 13.509952411889405 14.847828636124209 10.060515925528573
Fe 14.052299053423948 9.425844690201323 12.720502689749486
Fe 15.11039750647158 8.453386996227083 10.769001484901942
Fe 12.834103701938572 8.907638261464239 10.212592015392277
Fe 9.721599439494089 12.656037602956905 10.896260971591579
Fe 8.61244130652865 10.708488045703707 10.019408301443518
Fe 8.504408948536394 10.83825222380143 14.52218803200478
Fe 8.579638325086824 13.257290285261854 14.908207656810246
Fe 8.718761717577497 14.18358378736671 12.326373944170253
Fe 10.798812766292286 13.99520587420946 15.662036175967833
Fe 10.70411559899242 10.287010732127047 14.19344554760487
Fe 11.339615512850648 10.826425461398633 10.69609959928118
Fe 11.79929681576421 13.085945769181675 9.688578713524057
Fe 10.235583395857837 12.521080894546545 13.336359833000708
Fe 10.54117953967034 11.709933001080435 15.966478957488047
Fe 9.42633583781017 10.553233183797625 12.185893966295424
Fe 10.194671221140219 11.76700081587159 8.601024028765655
Fe 11.280813377618141 14.563765903764319 11.544044164841736
Fe 11.779246852364354 9.110041228369187 12.402998416709412
Fe 10.894312487259935 7.070363042166647 12.053419464064643
Fe 9.55628560934698 8.456376181246531 13.331760448950469
Fe 10.03645203871503 8.710552684740406 10.6786822304803
Fe 12.680985541742857 9.36623868096102 14.760241386311751
Fe 9.996701346867631 15.032216232181595 13.761566447408992
Fe 11.391858736758874 15.348171381611717 9.33712455530815
Fe 10.92633238803331 9.59595303134449 8.532473173175141
Fe 8.029127574017721 11.79329019455978 16.624541370193608
Fe 9.505701026299738 13.150019451581631 17.510385681647943
