44
Energy = -309.26036647 eV
Fe 9.699857946987645 9.864632893751013 4.97489509070305
Fe 7.250804869441469 9.290783858954363 5.344806189636357
Fe 7.7210902384168705 11.86003047853043 6.021510615108193
Fe 11.58497628564067 7.9527848959426946 5.479493357926217
Fe 12.052274798537242 10.30863737763249 5.454708351743189
Fe 9.17888472128235 7.754244110237492 6.08040516239765
Fe 10.191633229534439 11.725090799345603 6.549224589446548
Fe 8.512652454744886 10.077048888421892 7.0910724482235725
Fe 6.174765664767305 10.514535538381791 7.406035671949976
Fe 12.310209572865967 11.028190026426046 7.793227140508304
Fe 6.94552606708203 8.142631243037117 7.477696326126835
Fe 10.794310919278278 9.332274176141135 7.172981822810818
Fe 11.116156853845977 7.008180389669347 7.9509542985784645
Fe 8.645499350389896 6.168506759582069 8.047715290834438
Fe 10.838039797935595 12.9531820097627 8.46883022905977
Fe 8.233321780835437 12.24416088735506 8.451536202300078
Fe 12.996396707090037 8.587966878187585 7.421882427847235
Fe 9.165088418444322 8.27867545460385 8.453629237194
Fe 5.484894128942964 8.780602778692534 9.47067814229741
Fe 9.907729188850654 10.793288475353421 9.036447092437735
Fe 13.774238023286792 9.608120402808979 9.439889403335783
Fe 7.437521920926355 9.964720617968359 9.278786237508747
Fe 11.45998264762538 9.034135285847258 9.510582712232768
Fe 12.707395396990902 7.3199736477620165 10.16715195663892
Fe 12.33477591375722 11.52242220119586 10.062553451207467
Fe 7.358493508766775 7.36936594691424 9.909329631621095
Fe 5.972387702491531 11.086419175369675 10.655755533696851
Fe 9.125829387894193 8.906324606928496 10.633948271738456
Fe 10.0510979215275 6.7217792606218065 10.152878164846708
Fe 10.245575872518636 12.772238461214503 10.752648651749496
Fe 6.840098715125045 9.103030501277143 11.664945732913738
Fe 12.88501230973731 9.487976366334129 11.666098873175478
Fe 8.541248639881744 7.183739606658388 12.283793912060654
Fe 8.356325048055266 11.330927081157906 11.080467552023242
Fe 10.722288642019592 10.481705350751017 11.405449396475351
Fe 10.990306515516936 8.031589882658587 11.975609531801878
Fe 9.07114599025704 9.567650310769434 12.79127591264004
Fe 12.115801249827797 11.886281364256108 12.593811777633722
Fe 7.232363932742603 10.968988167561974 13.221771586391581
Fe 7.44841807379686 8.521889242210214 14.08546461635276
Fe 9.726166876260384 11.959792295862796 13.177145101763763
Fe 11.31372660479891 9.893791664216328 13.768572272976783
Fe 9.900053771937728 7.871374023285169 14.211802422297167
Fe 9.154497952195468 10.309182229212393 14.931403222641096
