45
Energy = -316.96357806 eV
Fe 10.136675005611442 15.02206801734908 8.651061520074904
Fe 11.870087177576961 14.451860492378769 10.122951935121055
Fe 11.583337057547125 12.974248051240753 8.16358439257252
Fe 9.51435116930695 15.234432672639622 10.907018028489865
Fe 13.640287236472078 14.100965458683886 11.560168501615465
Fe 11.150322298993895 14.436293899464527 12.428884197882653
Fe 9.078522101307202 13.060549021659018 7.745531817896832
Fe 8.002681221006892 13.835184880115756 9.692450401933073
Fe 13.14402606652559 12.242978537275865 9.871043021719323
Fe 10.141056811859427 12.92448959733018 10.15598956163179
Fe 11.765651273339465 12.23127724196485 11.869827104527923
Fe 12.89849184812031 13.251386780939486 13.688710367444953
Fe 10.486500656638986 11.37824440335047 6.812312924406487
Fe 9.068819375392604 13.125780742573248 12.240939389468693
Fe 12.651650422225703 10.593750753089555 7.708466462111267
Fe 14.318258704161286 11.779753189424369 11.888205006834529
Fe 6.824391017726883 12.35715675677882 8.192454759503828
Fe 10.639430309886684 12.30229669555698 13.95261658979516
Fe 14.059577180885533 10.040101067978453 9.727882220143579
Fe 8.06289890641224 10.673408813439755 6.968986381723851
Fe 11.289911144991555 10.80413225624136 9.517152577123953
Fe 8.84574233692612 11.054099562730201 9.09765381858312
Fe 10.281440701252167 9.337052936105845 7.6156086381076085
Fe 14.729858797469747 9.47612768256381 12.107098581287188
Fe 12.519152515430717 10.01059797972056 11.424204671678861
Fe 9.766015401026214 8.820355760016097 9.95050951757499
Fe 6.399451981604792 10.297306080005828 9.096572531658088
Fe 9.814572634716082 10.73894942261162 11.460859813386273
Fe 7.44016950210269 11.809167027019013 10.859581858090436
Fe 13.083476861990796 10.900237017209525 13.729222291360436
Fe 8.447637583741935 10.876930303394571 13.225993651366988
Fe 12.054530493980117 8.488134063113378 9.143576671050557
Fe 10.91202156452812 9.97182890766909 13.477063902822742
Fe 9.89203331093965 7.060159413196712 8.378013635429188
Fe 12.971681451519006 8.430958678202055 13.415467757397845
Fe 7.7040633975385235 9.433880116664117 10.900138721476173
Fe 7.98233278743742 8.732872166956037 8.365508389119746
Fe 13.42750158536308 7.734262877820303 10.969649185884236
Fe 11.081448114117308 8.197066394753437 11.789845401006717
Fe 8.796221531317869 6.976729211093962 10.777090657456121
Fe 8.949221090739846 8.474200727374754 12.734453640995216
Fe 11.219047520394195 6.4091485998167155 10.33463591794081
Fe 10.810333152212339 7.60454015950156 14.150308744106125
Fe 12.42734730134595 6.236493990739226 12.52918291660993
Fe 10.034876374076624 6.065293267348538 12.554688832987978
