40
Energy = -275.7791104 eV
Fe 10.975580194855903 6.992375432864658 6.474170559414099
Fe 6.600604380280258 10.077454767276048 9.273316655900464
Fe 7.848836266640378 7.814810206329037 9.872082007807558
Fe 9.401043109154982 7.2595399711098585 8.16864393192584
Fe 6.592586589777255 11.814855784100478 11.031195822351831
Fe 7.217181109342954 13.583218471895453 9.331143541710707
Fe 8.078244452907903 11.767421426689264 7.864459583819992
Fe 8.71769898560952 7.414110838603215 11.955724649945173
Fe 8.119982261500068 9.769673816472912 11.175386053126108
Fe 10.210615451559773 6.333981207422167 10.311105079610607
Fe 10.840190423625357 9.07948815768601 7.524724451248101
Fe 8.883578517862212 9.692430629316627 8.809634658118414
Fe 8.738195902189288 12.087861846539022 10.166073892225608
Fe 7.6964757675822835 13.707642341963151 11.846662440116393
Fe 10.36427068909976 8.640611750162492 10.400832777720776
Fe 8.452242077945305 11.490536600117728 12.750467094465446
Fe 12.410532464456837 9.342255669048447 9.366946671757212
Fe 11.148455845600203 7.292976191523837 12.495689317793325
Fe 9.792122432025087 9.28861473841934 12.897890398037983
Fe 11.826502427858099 7.1204391843354005 8.634946826835689
Fe 12.761910234905594 7.429266561639503 10.8977754734018
Fe 11.80043318949471 8.847882261600919 14.230344543524222
Fe 9.205251204978953 14.576606280387061 10.195751823403084
Fe 10.256469781822087 11.412548739071582 6.680152435562453
Fe 10.47933882748635 10.984010866655606 11.216412795795884
Fe 10.6839874445508 11.186394027803296 8.884727723018827
Fe 12.22600167458647 9.699056222882719 11.95841696608097
Fe 10.863913037158826 11.21172237695696 13.728235668045958
Fe 9.714655883810009 13.421461131527959 8.105415690231865
Fe 12.617021477759485 10.794115556286837 7.482013270496002
Fe 10.003554086196534 13.22799309037439 12.230877772441058
Fe 14.362907601673271 9.311255865790917 10.576143739114881
Fe 13.869780629740461 8.511011202138782 12.904950814901913
Fe 13.226394116083034 10.72770532226987 14.06473321180662
Fe 11.175547389886475 13.222314494358173 10.163867777110449
Fe 12.140757870763467 12.987872806543084 8.03646942270437
Fe 12.977130105203152 11.520006915287837 10.076387432050563
Fe 12.41246038179214 12.305208319207876 12.287093863259633
Fe 14.450600807736071 11.003533082326896 12.126604152600235
Fe 5.679780310663758 11.8725712511817 8.625364416684366
