40
Energy = -278.65784705 eV
Fe 12.99646579910819 8.871992655636463 10.13482959907624
Fe 11.480617514766875 12.726877161390844 9.020027192882534
Fe 7.374547960176551 12.532000539884493 10.441822070784411
Fe 13.549433400162567 14.592462217232663 11.823575440662866
Fe 12.926076035266487 10.496863728360445 14.498259839266881
Fe 9.14045528433467 9.132697900145796 10.503295205334176
Fe 7.278647339534236 10.235588772055415 12.012741638708746
Fe 9.763120742509175 15.674016425660332 11.563804422941894
Fe 10.858204524357898 8.36574754971727 9.01374927142288
Fe 11.691460542092651 14.80226457688453 10.32583881315176
Fe 9.358450787273645 13.501945121066774 12.679015658673405
Fe 12.881509105157782 8.795026773476566 7.7590294404635625
Fe 11.476209594708033 12.684008962200373 11.441740079744328
Fe 9.254761088717109 9.133698748085354 13.052124820306345
Fe 9.307000572890413 11.511955461409187 8.95756878955658
Fe 7.6835032559065 14.70815083973499 11.472835881739421
Fe 11.045058184657512 12.479890761832783 14.253757213369274
Fe 15.182427961001778 9.12046675210642 11.034590976133048
Fe 13.628157733611745 13.065709555366023 10.094463392353887
Fe 15.013991762815143 10.628753531694745 12.919472150794657
Fe 11.250657265405591 10.633021369486011 12.719044284045733
Fe 9.223038713364542 11.376745541266983 11.420487075750895
Fe 13.26905190726413 10.94068789339531 11.23342009047773
Fe 11.435508106467879 14.54303912541467 12.880168059688026
Fe 11.163364359763303 8.465527708627464 11.623371746382674
Fe 9.548591516406809 13.574877798782463 10.207839525692417
Fe 7.1695248287407685 12.576496686013003 12.728508573718901
Fe 13.170015988322929 12.510960195473618 13.145097849286213
Fe 11.229595712544626 10.518829092373062 10.186600873539735
Fe 13.310900171183514 8.988529205520413 12.720586827074024
Fe 15.216508766030463 12.790572903979072 11.951213661464042
Fe 11.108676088206964 10.451825396504097 7.768839272920564
Fe 13.218541369273593 10.936956960164817 8.935253473701598
Fe 8.85985012757451 11.31111206941202 13.862434679100847
Fe 9.020767328321005 9.329461981533926 7.958508390357921
Fe 7.363757071854197 10.29499930230897 9.574071077804078
Fe 14.984361782928415 9.382461042003934 8.651634988766977
Fe 15.463086920026875 11.198194508665404 10.211073817241074
Fe 10.600920362951953 10.263986229120723 15.116104688665358
Fe 11.375923630042202 8.397847005153633 14.01680273299078
