44
Energy = -308.34638051 eV
Fe 6.4969704262928305 10.909183969275944 5.359110321925743
Fe 8.282709575228193 8.817917971759723 4.977462921643019
Fe 9.187802475761693 11.550665451137679 5.691024967057223
Fe 7.727653387101179 6.429412615621168 5.507251252109306
Fe 5.177227780234645 12.458206670883891 6.648722216522182
Fe 10.576793145529205 6.745655421077554 6.149604649496536
Fe 6.225373346335606 8.260832499320161 6.231455719479342
Fe 10.324574512297525 9.384749285188068 6.638140082634121
Fe 7.401456644811003 12.490262384816292 7.278116837892225
Fe 7.935094875169127 10.095182227794393 6.901254696960485
Fe 11.887448308284968 11.229243448525771 7.217655457584972
Fe 12.415379635940454 8.178803840165944 7.230363889006921
Fe 5.486274477307391 10.362226116681057 7.626850363541525
Fe 8.599549501159709 7.69493492844203 7.050346557264691
Fe 9.189770685942214 5.3918167252959055 7.7115655660615605
Fe 6.754959596781117 6.232361327174105 8.02316519112558
Fe 4.709940379678863 8.041043016195138 8.63686388855151
Fe 11.807731277969959 5.590107595341461 7.968333029849168
Fe 9.716202397000558 11.566327478233479 8.039895031689817
Fe 11.522611401354588 9.738191113139493 8.934273643940674
Fe 6.840481388987682 8.607864222335312 8.510532231558377
Fe 5.647904818116693 12.299928551097368 9.078636824978005
Fe 10.441740118081954 3.9757223340853987 9.067239662195853
Fe 8.446242900925254 7.091994055151635 9.41805819614624
Fe 8.62466004440286 12.898486060580051 9.716468899929891
Fe 12.344610648098627 5.090074730398266 10.370829531067084
Fe 10.608258171477477 7.508381031913284 8.373799736368044
Fe 9.148680616672348 9.327126227173578 8.756582763737732
Fe 12.344428251307393 7.389620503189517 9.961687918960315
Fe 11.42538162463311 12.019593887479658 9.669603987629145
Fe 6.266565598697829 7.0889822891435905 10.404367762515802
Fe 10.26637902446717 5.908456311158281 10.236118239345892
Fe 7.460200651247058 10.95228938994742 9.202043836275317
Fe 10.266365400908342 8.381230906047486 10.696610903510212
Fe 8.023023307015409 4.9964749478028105 9.894515295326006
Fe 7.834480738945191 9.051940735288852 10.779844709759962
Fe 5.437874853033047 9.687744424593825 10.267391720857397
Fe 8.493942322120107 6.862802045732805 11.815790312558105
Fe 11.043444302471306 6.832085911357571 12.170915915649463
Fe 9.619158101690058 10.8542922632068 10.647213747937991
Fe 11.875316909647212 9.93515505867957 11.233005270021122
Fe 6.36015918383648 8.506657993492997 12.367328920483457
Fe 9.213250508074212 9.030863107840373 12.630830561636584
Fe 7.139267976265483 11.13245021753874 11.506468058519333
