48
Energy = -339.48853215 eV
Fe 14.104412899554648 14.128547020823172 11.380797247566754
Fe 12.551776314771773 13.356620352210987 12.925503071554008
Fe 11.582919803917994 12.972671918030825 14.911976222113589
Fe 12.907451305467248 10.998316855001574 13.807044480938155
Fe 10.637562624561781 14.815028740604971 13.526230425946178
Fe 14.455314317144982 11.751741808149372 12.064091849425914
Fe 11.983141361460714 15.413796932798338 11.541032584745999
Fe 9.429141055336567 12.878323827037816 13.893114967218198
Fe 8.746175199120692 14.605506773265505 11.883125862351886
Fe 10.664876922138419 10.818629457782775 15.167414460429676
Fe 10.190942650646177 16.556746210945057 11.802579033598263
Fe 14.650777581492784 9.273165038939919 12.192886918640248
Fe 12.503387975970142 12.085159638425763 10.751346787488384
Fe 14.841610110495854 12.712390336465228 9.72857758453195
Fe 10.282489477098608 15.046526355925385 9.739412996248975
Fe 13.281581240123835 8.723850426739135 14.085546605537752
Fe 10.853308979914871 11.410966346075362 12.775624906155603
Fe 14.252653445263386 10.43566816151956 9.924916683768227
Fe 12.490274165319766 9.799284049659295 11.666460886234438
Fe 8.914212381043594 10.305693149801447 13.558879614816732
Fe 10.604701008040964 13.434548124947813 11.391977237165827
Fe 12.703062747112757 14.161351981651118 9.458828716737253
Fe 10.988634147847426 8.932915858616553 13.73736906490819
Fe 8.262402164030565 12.23661266010769 11.907084292416085
Fe 12.686013295992053 7.528964958738583 12.164706353209905
Fe 13.174512593459983 11.937036136858113 8.223329614121736
Fe 10.165016129215042 9.128503616312383 11.600776600950901
Fe 9.864849297977058 11.227546072489979 10.554878842152343
Fe 10.961925724951946 12.744435183823576 8.84810158937589
Fe 11.658593045559218 10.162110236031166 9.351227725413898
Fe 13.412909721139714 8.247934692810974 9.809327917956447
Fe 8.72405690377747 13.29987459424548 9.656564775680566
Fe 8.459360313860218 7.998987626403331 13.073110277420675
Fe 7.863747231130298 9.671420259200938 11.4775799425742
Fe 13.553236502835459 9.598835350546981 7.774047078680887
Fe 10.385892798752977 6.851741697879387 12.464936105191809
Fe 11.110372360014132 7.602847231176787 10.19460446432485
Fe 7.429161326717198 11.15068915655644 9.686028475377366
Fe 11.348427023591345 10.63492779063169 7.072387329285425
Fe 9.242158671987106 9.166120611307358 9.232311383732808
Fe 9.277513243601282 11.289959901481655 8.070058902387194
Fe 8.581970685608814 7.3293087006745 10.616125839535265
Fe 11.518598612384322 8.23446009803287 7.890208227120769
Fe 6.712456268261377 8.71402664898848 9.69609528556093
Fe 9.765201070136987 6.677107642198224 8.481853368078944
Fe 9.417214337278203 8.836644178535304 6.888919598150928
Fe 7.365417858085627 9.893911212389561 7.63386190354996
Fe 7.713638562623832 7.4935978339792735 7.992189356444041
