53
Energy = -375.04474559 eV
Fe 13.417918704130305 13.04667838744895 14.706699050899495
Fe 11.29975393598564 11.884562874688443 15.01802452128603
Fe 13.604509114965467 10.664845577396608 14.004964332956535
Fe 14.080042620717004 8.302765275189683 13.568976963790137
Fe 9.264925763167252 10.60198729905219 15.132571252754083
Fe 11.311471438445027 14.201024908379315 13.721464478491177
Fe 11.84610277008178 9.525587058012523 15.071866280511163
Fe 9.475158597074124 12.730574779560499 13.43422409140955
Fe 13.433040505972784 14.469092194539613 12.77516667381276
Fe 12.216643481320773 12.067960994806048 12.828225774156746
Fe 12.237341604874832 9.213422552154542 12.61799961693483
Fe 11.430787957060462 15.29137847705686 11.580226548812595
Fe 12.177552742253406 7.164565215638748 14.360433842123777
Fe 10.291363820837205 10.557682138894155 13.123875348538553
Fe 7.571080804152659 11.454466186787322 13.333579490610646
Fe 9.217177444011384 14.820292280170852 12.300109564993006
Fe 8.053084103413704 9.217272501051648 13.303592235875591
Fe 8.04061587075333 13.006654183640089 11.180312888255354
Fe 10.616181211360576 12.878009240453753 11.28215514605149
Fe 13.290562752351413 13.086192344484719 10.962148785559858
Fe 13.732230767752696 10.641398329604144 11.285119119397384
Fe 10.073813124476091 8.207189002583144 14.041480065779904
Fe 13.565413706967075 15.568024905347041 10.64295237313744
Fe 8.8017291294378 10.83929853037233 11.361151033308117
Fe 14.094427943591414 8.287553259156038 11.104493319880063
Fe 10.337833423844714 6.053231252087591 12.960511941080169
Fe 7.657181184952227 13.50161170288411 8.85432288526005
Fe 14.04220174603841 14.03778202424341 8.962564166556167
Fe 11.284483204833412 10.559788040011293 10.755430046095563
Fe 12.376702324831097 6.851355599882061 12.021453410942705
Fe 11.732308254159264 14.292876418818402 9.388615786654672
Fe 14.560535065292974 11.742751194855169 9.098133210608166
Fe 9.936838231852839 8.476052442915814 11.703842495511756
Fe 9.43845133375489 14.66441759190543 9.929594922350619
Fe 9.773955028617499 11.987935342584846 9.166719883320885
Fe 12.241705646293013 12.002696004045378 9.033067927529157
Fe 7.541854642813355 11.162279254933601 9.242901350367928
Fe 13.408981545544238 9.647701104553327 9.135189498982133
Fe 8.243153946860746 6.926378632114485 12.290877120238378
Fe 14.633530708654428 12.956759105331551 6.923282120472295
Fe 9.320027337902966 9.352428972487694 9.550460950646157
Fe 7.402918173322296 8.922933404926582 11.004890152134717
Fe 10.365449898762233 6.280538308455764 10.602868507422663
Fe 11.753737591068251 8.247141051830104 10.093805295776564
Fe 8.366954169144824 12.279615058766694 6.962501955461832
Fe 12.533683908820597 13.494211209471969 7.0721534489049525
Fe 10.01818940054071 13.858084621325373 7.680486098935986
Fe 13.110692993810998 11.015172870935904 7.0759877690565185
Fe 8.312619382329917 7.081551929248927 9.884572596844349
Fe 8.898597960985603 10.103141716131681 7.418102823032025
Fe 11.226909569248532 9.877185649023106 8.177039457737711
Fe 10.754596103513974 11.731124059288165 6.806378726838391
Fe 10.175754734702036 7.635953443986418 8.33603950633895
