5
Energy = -28.95734675 eV
Fe 7.473913429619156 8.112849430978677 9.691719598846548
Fe 9.843700777917705 8.27887640592095 9.671515328265004
Fe 8.529563082060484 10.139056471233642 9.53521780740589
Fe 10.206779040942285 9.878315163220373 7.971493172019393
Fe 8.677103686928902 8.173428602066203 7.726297122698276
