55
Energy = -384.87602619 eV
Fe 15.63920158207056 11.038777809875622 8.324456600023835
Fe 14.50233365298725 13.100958145452998 8.182601488339735
Fe 10.6488799042344 13.76745619138689 9.001607624713634
Fe 13.23681695173594 11.105296675043661 8.590437331025559
Fe 16.8985821534092 10.303572473857445 10.304118596640809
Fe 11.390313096442862 14.963402078595498 10.77401408608725
Fe 12.772943221158151 13.090894407665557 9.816408644765334
Fe 15.18580472236991 14.527069818773553 9.852330714751151
Fe 14.790214695663405 11.953469888172307 10.583280885141889
Fe 16.807555904295235 12.666316712656801 9.639906666671989
Fe 10.580945466034361 9.940273384499399 11.846987788423046
Fe 12.069904841836708 17.268898217449358 11.465953178304671
Fe 9.210808369117075 14.022241940505317 11.347996012224012
Fe 10.806068511315315 12.167093376753892 10.707523764912425
Fe 13.231992996805287 15.779280164035807 9.727674339814444
Fe 14.783925783600159 9.448570582166578 9.90349689865487
Fe 14.552739634938348 16.29662536411828 11.620169851861496
Fe 12.723041956197358 15.734859685067976 12.960450133022457
Fe 10.192779058738331 16.0300225292773 12.637379389416068
Fe 9.66929746826012 11.840397010474776 12.832171438214056
Fe 12.419992364927955 11.70563197074193 12.527343386369163
Fe 10.891418922964219 10.239873383661157 14.353432633635649
Fe 16.91162064698042 11.496082756361277 12.224893821701661
Fe 12.678570846048057 10.247331259887337 10.722893376357908
Fe 16.23658527641923 13.899001711999135 11.742002049387843
Fe 13.668332206891728 13.962704657656689 11.842241303587166
Fe 14.160098909830396 8.098814521023382 11.77345315323289
Fe 14.563686581946126 10.325037871705899 12.354261363967812
Fe 11.25131505070949 13.745539586038845 12.70074902355792
Fe 14.971369628498216 12.490615934372979 13.081486904217304
Fe 16.39713558243588 8.964332644443434 12.29654282914499
Fe 11.314279395663116 17.419779540240523 14.217979127221819
Fe 14.937704369177245 14.865086811454736 13.669985433887074
Fe 12.717484331057069 9.057852606072409 15.607369137342491
Fe 11.018897088387208 12.506847790196234 14.763041913331678
Fe 14.651849249741462 8.773160078908433 14.218016666253984
Fe 12.522406349193604 9.217395004453845 13.092014516612197
Fe 13.123247570357648 13.547815909927358 14.158986852838064
Fe 7.950892344658527 15.673791869411712 12.851207645604548
Fe 11.987190813331853 11.183685595711685 16.52604562619799
Fe 13.683368459058633 16.927225737028976 14.593769157009735
Fe 11.27000292540003 15.117665033534418 14.841241714330865
Fe 15.390613365836945 12.84190507556086 15.322570833094035
Fe 16.065216120877903 10.684414495293014 14.408512133364816
Fe 9.143510300039454 16.051172642051803 15.027486541741803
Fe 9.11499896914627 14.005379487773777 13.859167961313979
Fe 13.868208648118147 14.919951265639174 15.92594407109538
Fe 13.472826046925185 11.165535583646273 14.645320413762851
Fe 13.868048437252476 12.541208940950376 16.98015633278387
Fe 12.1722882329975 16.58507433590548 16.493486050597713
Fe 14.713186563688861 10.300486691469342 16.361353917550197
Fe 11.88034449193354 13.749155265501292 16.665922680137268
Fe 9.464025719516899 13.622450197560996 16.169561134478833
Fe 10.316243716082955 15.459655533266348 17.258831656149585
Fe 13.000146076337503 15.05411732836007 18.09501877877008
