6
Energy = -35.01690471 eV
Fe 8.347523920808559 9.487743351687838 9.635654501473354
Fe 7.991466320906795 7.066989727624823 8.963868109923277
Fe 10.008254516871459 9.962579740549437 8.14411044881094
Fe 10.030638846162695 8.031580799056474 9.37327954197158
Fe 8.655667243538684 8.377143830212143 7.264208970545057
Fe 6.658580135357518 8.803058538805999 8.300941372185704
