6
Energy = -35.44868859 eV
Fe 9.338266242117022 7.075005846582951 9.069790377571463
Fe 7.248674831335044 7.809249487870623 8.64295857481893
Fe 7.613383016400621 9.891422031961758 7.874676844623975
Fe 9.691303189334159 9.16521203684066 8.32849238308298
Fe 8.60139642866545 7.85704558171149 6.850519990812868
Fe 8.341908671443692 9.098061303267277 10.125556462342882
