7
Energy = -42.56470522 eV
Fe 9.756374637667358 7.443748323596928 9.345439967550504
Fe 7.728255613586773 6.430651729883668 9.565671379576107
Fe 9.751405678205542 9.282488935068583 7.890694242181665
Fe 8.349484720353718 7.167401946959698 7.497272822281863
Fe 7.760817382880965 8.773815680326393 9.410274171010856
Fe 7.557924712183632 9.32680242432494 7.069160904358508
Fe 8.278414823051087 10.896909717691276 8.544770805513336
