9
Energy = -55.90411953 eV
Fe 12.456450975218745 11.223702612796766 9.26431336865688
Fe 10.487338567074794 10.8572747291802 8.175035335236467
Fe 9.495273657460034 8.74374445825171 8.7110088664259
Fe 9.487252845381947 9.932032666730064 11.724122747112082
Fe 11.241988219472097 9.4911807291744 10.057751991989752
Fe 10.71437380639833 11.729602658162701 10.657111675948613
Fe 8.775345148871043 11.055958728544763 9.653841845273286
Fe 7.92081865040314 9.080750229433644 10.305562378965423
Fe 9.890274596384538 7.856201084099553 10.809421373692867
