unknown system                          
           1
    23.182781    0.000000    0.000000
     0.000000   23.182781    0.000000
     0.000000    0.000000   23.182781
   Ag
  53
Direct configuration=     1
   0.47923664  0.51404456  0.74139373
   0.51950618  0.31633624  0.60833762
   0.40330862  0.34752788  0.63429761
   0.48349915  0.42232884  0.65944821
   0.38242128  0.49088616  0.69207287
   0.58327240  0.49997373  0.68139937
   0.58634039  0.43110847  0.59097362
   0.53382284  0.60851724  0.70422881
   0.67222834  0.52028978  0.58065779
   0.42395136  0.27435662  0.55252166
   0.41834057  0.60514514  0.70003015
   0.64817087  0.59578961  0.67684956
   0.51311530  0.28223369  0.49521003
   0.46324531  0.38753568  0.53919323
   0.58172658  0.37262814  0.50318558
   0.46819325  0.53286952  0.62667708
   0.37930810  0.45780000  0.58734947
   0.34588574  0.35982982  0.53405807
   0.35383045  0.57846297  0.60670900
   0.67377860  0.64447297  0.58036953
   0.69802405  0.41712993  0.50115354
   0.72936253  0.53000742  0.47824173
   0.58147445  0.68624987  0.64018857
   0.57650444  0.58321383  0.58525695
   0.51323529  0.49734380  0.52544707
   0.41166313  0.32247769  0.44522746
   0.61995970  0.48691154  0.47630980
   0.47448161  0.64698982  0.58861943
   0.38131068  0.44260009  0.45965902
   0.63864394  0.60385252  0.48189790
   0.57316589  0.69096260  0.52718144
   0.29560804  0.50113981  0.52267540
   0.50284132  0.43946116  0.42573021
   0.70460933  0.46157928  0.39229570
   0.61861777  0.38730892  0.39450372
   0.40114643  0.55596657  0.50585637
   0.50770210  0.33111140  0.38943861
   0.53521629  0.40701702  0.31462030
   0.51029041  0.60186349  0.47483250
   0.38005169  0.67443333  0.53047827
   0.56377903  0.53808584  0.39008467
   0.42134481  0.41093596  0.34946465
   0.29723911  0.61171607  0.50057292
   0.67752545  0.57089050  0.37192695
   0.32047037  0.53460169  0.41781137
   0.58572930  0.65492905  0.39553001
   0.46513698  0.69955660  0.46043292
   0.62343426  0.47946333  0.31094129
   0.43136505  0.53011162  0.38786766
   0.37438495  0.63917044  0.41892496
   0.50105724  0.51201315  0.29500942
   0.58910072  0.59187763  0.29468169
   0.48849965  0.62244129  0.35341413
Direct configuration=     2
   0.47959018  0.51377045  0.74192693
   0.51982006  0.31632744  0.60863581
   0.40297609  0.34751684  0.63487499
   0.48382711  0.42236631  0.65965119
   0.38184662  0.49071797  0.69242979
   0.58316981  0.49987572  0.68155241
   0.58638811  0.43133769  0.59152123
   0.53378970  0.60854833  0.70442316
   0.67245250  0.52007999  0.58078717
   0.42337208  0.27380532  0.55274473
   0.41810084  0.60555743  0.70018541
   0.64844600  0.59565905  0.67738382
   0.51372679  0.28190983  0.49475934
   0.46341250  0.38781130  0.53894549
   0.58175879  0.37222334  0.50260610
   0.46837614  0.53300654  0.62632189
   0.37932227  0.45773835  0.58714342
   0.34532211  0.35981938  0.53401368
   0.35359629  0.57856536  0.60689313
   0.67438613  0.64484379  0.58015406
   0.69839392  0.41661252  0.50142619
   0.72976154  0.53031564  0.47839195
   0.58143767  0.68678690  0.64039415
   0.57605685  0.58290356  0.58517896
   0.51302692  0.49732466  0.52544747
   0.41136799  0.32250785  0.44505434
   0.61948644  0.48702577  0.47626307
   0.47446016  0.64703448  0.58873485
   0.38140293  0.44254873  0.45961771
   0.63878943  0.60378611  0.48173071
   0.57309107  0.69120264  0.52679336
   0.29523835  0.50072003  0.52301227
   0.50296262  0.43960740  0.42594627
   0.70492535  0.46132744  0.39202951
   0.61864757  0.38708072  0.39447456
   0.40157236  0.55580719  0.50583636
   0.50802398  0.33059125  0.38943381
   0.53526576  0.40689799  0.31411361
   0.51036524  0.60153135  0.47493905
   0.38014271  0.67487277  0.53092198
   0.56359278  0.53790940  0.39045464
   0.42116593  0.41092432  0.34931649
   0.29645547  0.61183423  0.50065678
   0.67763868  0.57113310  0.37190876
   0.32024081  0.53452788  0.41729281
   0.58600478  0.65553148  0.39560512
   0.46537325  0.70011052  0.46019431
   0.62363740  0.47936540  0.31061914
   0.43135374  0.53002234  0.38788164
   0.37456571  0.63923439  0.41844655
   0.50082517  0.51214256  0.29476727
   0.58925412  0.59213583  0.29418942
   0.48795115  0.62271347  0.35321280
Direct configuration=     3
   0.48065078  0.51294812  0.74352652
   0.52076169  0.31630106  0.60953038
   0.40197850  0.34748372  0.63660714
   0.48481100  0.42247874  0.66026016
   0.38012265  0.49021340  0.69350055
   0.58286203  0.49958169  0.68201151
   0.58653127  0.43202533  0.59316406
   0.53369028  0.60864159  0.70500623
   0.67312498  0.51945064  0.58117532
   0.42163424  0.27215139  0.55341393
   0.41738166  0.60679430  0.70065117
   0.64927138  0.59526739  0.67898662
   0.51556128  0.28093825  0.49340727
   0.46391409  0.38863815  0.53820228
   0.58185542  0.37100893  0.50086766
   0.46892481  0.53341762  0.62525632
   0.37936478  0.45755342  0.58652528
   0.34363123  0.35978804  0.53388051
   0.35289379  0.57887251  0.60744550
   0.67620872  0.64595624  0.57950763
   0.69950353  0.41506028  0.50224414
   0.73095858  0.53124028  0.47884263
   0.58132732  0.68839798  0.64101088
   0.57471409  0.58197276  0.58494501
   0.51240181  0.49726725  0.52544865
   0.41048257  0.32259833  0.44453499
   0.61806667  0.48736848  0.47612288
   0.47439581  0.64716847  0.58908111
   0.38167967  0.44239462  0.45949380
   0.63922591  0.60358690  0.48122914
   0.57286662  0.69192275  0.52562913
   0.29412930  0.49946070  0.52402285
   0.50332652  0.44004612  0.42659445
   0.70587339  0.46057193  0.39123094
   0.61873697  0.38639610  0.39438707
   0.40285017  0.55532904  0.50577631
   0.50898959  0.32903079  0.38941939
   0.53541418  0.40654091  0.31259352
   0.51058974  0.60053492  0.47525868
   0.38041577  0.67619108  0.53225311
   0.56303403  0.53738006  0.39156453
   0.42062931  0.41088942  0.34887198
   0.29410456  0.61218869  0.50090839
   0.67797835  0.57186090  0.37185418
   0.31955216  0.53430643  0.41573714
   0.58683119  0.65733877  0.39583047
   0.46608206  0.70177226  0.45947847
   0.62424679  0.47907159  0.30965267
   0.43131983  0.52975450  0.38792356
   0.37510797  0.63942625  0.41701131
   0.50012895  0.51253079  0.29404082
   0.58971434  0.59291043  0.29271260
   0.48630567  0.62353003  0.35260881
Direct configuration=     4
   0.48277197  0.51130345  0.74672571
   0.52264496  0.31624830  0.61131951
   0.39998333  0.34741746  0.64007143
   0.48677877  0.42270359  0.66147808
   0.37667470  0.48920426  0.69564208
   0.58224648  0.49899362  0.68292972
   0.58681761  0.43340062  0.59644971
   0.53349143  0.60882811  0.70617236
   0.67446994  0.51819193  0.58195161
   0.41815857  0.26884355  0.55475233
   0.41594328  0.60926805  0.70158270
   0.65092215  0.59448405  0.68219220
   0.51923025  0.27899509  0.49070312
   0.46491726  0.39029185  0.53671585
   0.58204869  0.36858011  0.49739078
   0.47002215  0.53423976  0.62312520
   0.37944980  0.45718355  0.58528901
   0.34024947  0.35972538  0.53361418
   0.35148879  0.57948683  0.60855026
   0.67985391  0.64818115  0.57821478
   0.70172275  0.41195579  0.50388003
   0.73335264  0.53308956  0.47974399
   0.58110661  0.69162014  0.64224433
   0.57202858  0.58011115  0.58447710
   0.51115160  0.49715242  0.52545102
   0.40871174  0.32277928  0.44349628
   0.61522714  0.48805389  0.47584250
   0.47426711  0.64743644  0.58977362
   0.38223314  0.44208641  0.45924596
   0.64009885  0.60318847  0.48022599
   0.57241770  0.69336297  0.52330068
   0.29191120  0.49694204  0.52604401
   0.50405431  0.44092356  0.42789082
   0.70776947  0.45906091  0.38963381
   0.61891576  0.38502687  0.39421209
   0.40540578  0.55437276  0.50565622
   0.51092082  0.32590986  0.38939056
   0.53571101  0.40582675  0.30955336
   0.51103875  0.59854206  0.47589793
   0.38096189  0.67882771  0.53491538
   0.56191653  0.53632139  0.39378432
   0.41955605  0.41081962  0.34798298
   0.28940273  0.61289760  0.50141161
   0.67865770  0.57331650  0.37174502
   0.31817485  0.53386354  0.41262581
   0.58848403  0.66095335  0.39628116
   0.46749968  0.70509576  0.45804679
   0.62546558  0.47848398  0.30771974
   0.43125200  0.52921882  0.38800740
   0.37619251  0.63980997  0.41414083
   0.49873652  0.51330724  0.29258791
   0.59063476  0.59445963  0.28975897
   0.48301469  0.62516316  0.35140082
Direct configuration=     5
   0.48242046  0.51157600  0.74619556
   0.52233287  0.31625704  0.61102303
   0.40031396  0.34742844  0.63949735
   0.48645268  0.42266633  0.66127625
   0.37724608  0.48937149  0.69528720
   0.58234849  0.49909107  0.68277756
   0.58677016  0.43317272  0.59590523
   0.53352438  0.60879720  0.70597911
   0.67424706  0.51840052  0.58182297
   0.41873454  0.26939170  0.55453054
   0.41618164  0.60885812  0.70142833
   0.65064859  0.59461386  0.68166099
   0.51862225  0.27931710  0.49115124
   0.46475102  0.39001781  0.53696217
   0.58201666  0.36898260  0.49796695
   0.46984031  0.53410352  0.62347836
   0.37943571  0.45724484  0.58549388
   0.34080987  0.35973576  0.53365831
   0.35172162  0.57938503  0.60836718
   0.67924985  0.64781245  0.57842902
   0.70135500  0.41247025  0.50360894
   0.73295591  0.53278311  0.47959462
   0.58114318  0.69108618  0.64203993
   0.57247361  0.58041965  0.58455463
   0.51135878  0.49717145  0.52545063
   0.40900519  0.32274930  0.44366841
   0.61569769  0.48794031  0.47588897
   0.47428844  0.64739203  0.58965886
   0.38214143  0.44213749  0.45928703
   0.63995419  0.60325449  0.48039222
   0.57249209  0.69312431  0.52368653
   0.29227877  0.49735942  0.52570907
   0.50393371  0.44077816  0.42767600
   0.70745526  0.45931131  0.38989848
   0.61888613  0.38525377  0.39424109
   0.40498228  0.55453123  0.50567612
   0.51060078  0.32642705  0.38939534
   0.53566182  0.40594510  0.31005716
   0.51096434  0.59887231  0.47579200
   0.38087139  0.67839078  0.53447420
   0.56210171  0.53649683  0.39341647
   0.41973391  0.41083119  0.34813030
   0.29018189  0.61278012  0.50132822
   0.67854512  0.57307529  0.37176311
   0.31840309  0.53393693  0.41314140
   0.58821013  0.66035436  0.39620647
   0.46726476  0.70454501  0.45828404
   0.62526361  0.47858136  0.30804005
   0.43126324  0.52930759  0.38799350
   0.37601279  0.63974638  0.41461651
   0.49896726  0.51317857  0.29282867
   0.59048223  0.59420291  0.29024843
   0.48356005  0.62489252  0.35160101
Direct configuration=     6
   0.48246894  0.51116920  0.74674113
   0.52245969  0.31641944  0.61105131
   0.39995001  0.34755513  0.64021972
   0.48677884  0.42263748  0.66177936
   0.37689174  0.48928797  0.69574123
   0.58221036  0.49946362  0.68374856
   0.58686558  0.43251941  0.59538749
   0.53350674  0.60891823  0.70626883
   0.67458322  0.51822554  0.58205173
   0.41863946  0.26907369  0.55449642
   0.41595766  0.60918607  0.70161745
   0.65098124  0.59461675  0.68191891
   0.51846888  0.27802617  0.49141406
   0.46497316  0.38952643  0.53684731
   0.58238872  0.36913143  0.49829216
   0.46922903  0.53427979  0.62404437
   0.37973979  0.45722849  0.58569314
   0.33994051  0.35962950  0.53373088
   0.35126459  0.57949353  0.60844067
   0.67963391  0.64811818  0.57839546
   0.70141824  0.41225465  0.50370460
   0.73340875  0.53287848  0.47966288
   0.58128488  0.69152211  0.64199987
   0.57286741  0.58043491  0.58473765
   0.51097478  0.49671051  0.52559175
   0.40875707  0.32275298  0.44353466
   0.61636022  0.48704854  0.47659817
   0.47443046  0.64771419  0.59002950
   0.38208718  0.44214165  0.45921884
   0.64026457  0.60330079  0.48045196
   0.57250090  0.69338592  0.52315774
   0.29164394  0.49699926  0.52582160
   0.50397387  0.44024438  0.42739496
   0.70803390  0.45904711  0.38991531
   0.61919183  0.38500217  0.39350357
   0.40478196  0.55454692  0.50580407
   0.51112948  0.32599453  0.38888356
   0.53553834  0.40555379  0.30941108
   0.51096482  0.59944679  0.47573602
   0.38046770  0.67870984  0.53462568
   0.56177002  0.53705804  0.39231689
   0.41975645  0.41079260  0.34793869
   0.28969013  0.61283630  0.50137650
   0.67855633  0.57332664  0.37161437
   0.31794323  0.53391841  0.41278057
   0.58813775  0.66129804  0.39604272
   0.46776926  0.70505724  0.45786571
   0.62552124  0.47873020  0.30757773
   0.43123734  0.52911600  0.38796237
   0.37627175  0.63976363  0.41424751
   0.49878619  0.51352409  0.29245312
   0.59054010  0.59445135  0.28999817
   0.48316585  0.62548226  0.35140163
Direct configuration=     7
   0.48261437  0.50994882  0.74837785
   0.52284015  0.31690663  0.61113614
   0.39885816  0.34793517  0.64238682
   0.48775732  0.42255093  0.66328869
   0.37582873  0.48903740  0.69710335
   0.58179598  0.50058127  0.68666158
   0.58715184  0.43055947  0.59383427
   0.53345381  0.60928131  0.70713797
   0.67559171  0.51770062  0.58273802
   0.41835422  0.26811965  0.55439407
   0.41528573  0.61016993  0.70218483
   0.65197918  0.59462540  0.68269268
   0.51800878  0.27415340  0.49220251
   0.46563960  0.38805227  0.53650273
   0.58350490  0.36957791  0.49926778
   0.46739520  0.53480859  0.62574240
   0.38065202  0.45717945  0.58629093
   0.33733242  0.35931069  0.53394859
   0.34989351  0.57981902  0.60866113
   0.68078611  0.64903535  0.57829477
   0.70160797  0.41160784  0.50399159
   0.73476727  0.53316460  0.47986767
   0.58170995  0.69282991  0.64187969
   0.57404880  0.58048069  0.58528671
   0.50982278  0.49532768  0.52601512
   0.40801268  0.32276402  0.44313342
   0.61834780  0.48437325  0.47872577
   0.47485654  0.64868068  0.59114142
   0.38192443  0.44215414  0.45901425
   0.64119569  0.60343969  0.48063117
   0.57252731  0.69417077  0.52157134
   0.28973942  0.49591877  0.52615918
   0.50409435  0.43864306  0.42655184
   0.70976981  0.45825450  0.38996580
   0.62010894  0.38424738  0.39129103
   0.40418099  0.55459400  0.50618789
   0.51271558  0.32469697  0.38734823
   0.53516791  0.40437985  0.30747286
   0.51096626  0.60117024  0.47556808
   0.37925665  0.67966699  0.53508012
   0.56077493  0.53874167  0.38901816
   0.41982407  0.41067685  0.34736384
   0.28821484  0.61300481  0.50152135
   0.67858993  0.57408070  0.37116813
   0.31656367  0.53386283  0.41169808
   0.58792061  0.66412908  0.39555144
   0.46928276  0.70659394  0.45661071
   0.62629415  0.47917673  0.30619078
   0.43115965  0.52854122  0.38786898
   0.37704862  0.63981538  0.41314052
   0.49824295  0.51456066  0.29132646
   0.59071369  0.59519668  0.28924740
   0.48198325  0.62725148  0.35080352
Direct configuration=     8
   0.48265229  0.50963058  0.74880466
   0.52293937  0.31703368  0.61115827
   0.39857344  0.34803428  0.64295194
   0.48801248  0.42252836  0.66368228
   0.37555152  0.48897205  0.69745855
   0.58168792  0.50087272  0.68742121
   0.58722649  0.43004838  0.59342924
   0.53344001  0.60937599  0.70736462
   0.67585469  0.51756373  0.58291698
   0.41827984  0.26787087  0.55436738
   0.41511050  0.61042649  0.70233279
   0.65223941  0.59462766  0.68289445
   0.51788880  0.27314349  0.49240812
   0.46581339  0.38766786  0.53641287
   0.58379597  0.36969434  0.49952219
   0.46691699  0.53494648  0.62618520
   0.38088990  0.45716666  0.58644681
   0.33665230  0.35922756  0.53400537
   0.34953597  0.57990390  0.60871861
   0.68108657  0.64927452  0.57826851
   0.70165744  0.41143918  0.50406643
   0.73512153  0.53323921  0.47992107
   0.58182080  0.69317094  0.64184835
   0.57435688  0.58049263  0.58542989
   0.50952237  0.49496708  0.52612552
   0.40781857  0.32276690  0.44302879
   0.61886611  0.48367561  0.47928059
   0.47496765  0.64893272  0.59143138
   0.38188199  0.44215740  0.45896091
   0.64143851  0.60347592  0.48067790
   0.57253420  0.69437544  0.52115765
   0.28924278  0.49563701  0.52624721
   0.50412577  0.43822548  0.42633198
   0.71022248  0.45804781  0.38997897
   0.62034809  0.38405055  0.39071406
   0.40402428  0.55460627  0.50628799
   0.51312919  0.32435860  0.38694786
   0.53507131  0.40407372  0.30696743
   0.51096664  0.60161967  0.47552428
   0.37894084  0.67991659  0.53519862
   0.56051543  0.53918072  0.38815795
   0.41984171  0.41064666  0.34721394
   0.28783012  0.61304875  0.50155912
   0.67859870  0.57427733  0.37105177
   0.31620391  0.53384834  0.41141580
   0.58786399  0.66486733  0.39542333
   0.46967744  0.70699466  0.45628344
   0.62649570  0.47929317  0.30582910
   0.43113939  0.52839134  0.38784462
   0.37725121  0.63982887  0.41285184
   0.49810129  0.51483097  0.29103266
   0.59075895  0.59539104  0.28905162
   0.48167486  0.62771284  0.35064754
Direct configuration=     9
   0.48211946  0.50944597  0.74934433
   0.52285605  0.31728551  0.61100368
   0.39841965  0.34824658  0.64316056
   0.48829284  0.42238457  0.66420658
   0.37555263  0.48901787  0.69786971
   0.58175976  0.50057823  0.68761882
   0.58727590  0.43020459  0.59421163
   0.53342046  0.60967429  0.70756212
   0.67623205  0.51754491  0.58332995
   0.41835406  0.26836902  0.55444619
   0.41487665  0.61054311  0.70253874
   0.65252105  0.59487926  0.68270200
   0.51766422  0.27239736  0.49265624
   0.46558346  0.38628601  0.53638073
   0.58379764  0.36848622  0.49892570
   0.46626039  0.53515772  0.62706108
   0.38111998  0.45705567  0.58657002
   0.33604186  0.35932857  0.53422691
   0.34885406  0.57994124  0.60870191
   0.68105183  0.64944029  0.57852937
   0.70217844  0.41104371  0.50413430
   0.73542371  0.53304773  0.47983457
   0.58210233  0.69306887  0.64148232
   0.57496498  0.58060426  0.58580480
   0.50924464  0.49519523  0.52625815
   0.40807151  0.32285285  0.44301065
   0.61876953  0.48391623  0.47893015
   0.47513903  0.64941285  0.59179538
   0.38157774  0.44212130  0.45915426
   0.64145538  0.60339010  0.48048028
   0.57287055  0.69468687  0.52086228
   0.28902502  0.49530125  0.52619531
   0.50456435  0.43749538  0.42570327
   0.71061550  0.45809313  0.39016555
   0.62063558  0.38383377  0.38989313
   0.40322176  0.55487031  0.50645232
   0.51353224  0.32366390  0.38702044
   0.53497978  0.40404135  0.30622375
   0.51099442  0.60180261  0.47548738
   0.37869066  0.67980755  0.53483808
   0.56075625  0.53942041  0.38819355
   0.42004313  0.41054782  0.34700144
   0.28795131  0.61280079  0.50148538
   0.67844295  0.57424528  0.37091567
   0.31579239  0.53397105  0.41161140
   0.58756082  0.66565135  0.39533153
   0.46986102  0.70760470  0.45580458
   0.62671803  0.47943830  0.30548320
   0.43118673  0.52836548  0.38784932
   0.37744785  0.63970795  0.41304165
   0.49799738  0.51492719  0.29042066
   0.59076801  0.59592414  0.28889036
   0.48152098  0.62842963  0.35043827
Direct configuration=    10
   0.48080183  0.50898946  0.75067883
   0.52265001  0.31790826  0.61062143
   0.39803934  0.34877159  0.64367644
   0.48898615  0.42202901  0.66550310
   0.37555536  0.48913115  0.69888645
   0.58193743  0.49984997  0.68810749
   0.58739809  0.43059089  0.59614636
   0.53337211  0.61041195  0.70805051
   0.67716520  0.51749837  0.58435116
   0.41853759  0.26960088  0.55464107
   0.41429835  0.61083149  0.70304802
   0.65321750  0.59550141  0.68222609
   0.51710886  0.27055229  0.49326980
   0.46501488  0.38286890  0.53630124
   0.58380176  0.36549871  0.49745066
   0.46463672  0.53568008  0.62922702
   0.38168892  0.45678121  0.58687471
   0.33453231  0.35957835  0.53477475
   0.34716780  0.58003358  0.60866062
   0.68096594  0.64985021  0.57917442
   0.70346678  0.41006578  0.50430216
   0.73617096  0.53257422  0.47962067
   0.58279851  0.69281647  0.64057719
   0.57646872  0.58088029  0.58673189
   0.50855786  0.49575943  0.52658612
   0.40869702  0.32306539  0.44296579
   0.61853070  0.48451126  0.47806354
   0.47556281  0.65060016  0.59269551
   0.38082537  0.44203201  0.45963240
   0.64149711  0.60317789  0.47999160
   0.57370231  0.69545699  0.52013187
   0.28848652  0.49447097  0.52606699
   0.50564890  0.43568995  0.42414857
   0.71158738  0.45820521  0.39062694
   0.62134652  0.38329771  0.38786308
   0.40123723  0.55552323  0.50685869
   0.51452894  0.32194599  0.38719992
   0.53475342  0.40396129  0.30438475
   0.51106312  0.60225499  0.47539612
   0.37807202  0.67953791  0.53394649
   0.56135177  0.54001315  0.38828161
   0.42054120  0.41030340  0.34647594
   0.28825098  0.61218762  0.50130302
   0.67805781  0.57416601  0.37057913
   0.31477474  0.53427452  0.41209510
   0.58681112  0.66759013  0.39510452
   0.47031500  0.70911324  0.45462042
   0.62726780  0.47979719  0.30462783
   0.43130382  0.52830154  0.38786093
   0.37793411  0.63940894  0.41351103
   0.49774045  0.51516514  0.28890729
   0.59079041  0.59724242  0.28849158
   0.48114045  0.63020215  0.34992076
Direct configuration=    11
   0.48068994  0.50895069  0.75079215
   0.52263252  0.31796114  0.61058897
   0.39800705  0.34881617  0.64372025
   0.48904502  0.42199882  0.66561320
   0.37555559  0.48914077  0.69897278
   0.58195251  0.49978814  0.68814898
   0.58740846  0.43062369  0.59631065
   0.53336801  0.61047459  0.70809198
   0.67724443  0.51749442  0.58443788
   0.41855317  0.26970548  0.55465762
   0.41424925  0.61085598  0.70309127
   0.65327664  0.59555424  0.68218568
   0.51706170  0.27039561  0.49332190
   0.46496660  0.38257873  0.53629449
   0.58380211  0.36524503  0.49732541
   0.46449885  0.53572444  0.62941094
   0.38173723  0.45675791  0.58690059
   0.33440413  0.35959956  0.53482127
   0.34702462  0.58004142  0.60865711
   0.68095865  0.64988502  0.57922920
   0.70357618  0.40998274  0.50431641
   0.73623441  0.53253401  0.47960251
   0.58285762  0.69279503  0.64050033
   0.57659641  0.58090373  0.58681061
   0.50849955  0.49580734  0.52661397
   0.40875013  0.32308343  0.44296198
   0.61851043  0.48456178  0.47798996
   0.47559880  0.65070098  0.59277194
   0.38076148  0.44202443  0.45967300
   0.64150065  0.60315987  0.47995011
   0.57377294  0.69552238  0.52006985
   0.28844079  0.49440047  0.52605610
   0.50574099  0.43553664  0.42401655
   0.71166990  0.45821472  0.39066612
   0.62140689  0.38325219  0.38769070
   0.40106872  0.55557867  0.50689320
   0.51461357  0.32180012  0.38721516
   0.53473420  0.40395449  0.30422860
   0.51106895  0.60229341  0.47538838
   0.37801948  0.67951502  0.53387079
   0.56140234  0.54006348  0.38828909
   0.42058349  0.41028264  0.34643132
   0.28827642  0.61213556  0.50128753
   0.67802510  0.57415928  0.37055055
   0.31468833  0.53430028  0.41213617
   0.58674746  0.66775476  0.39508524
   0.47035355  0.70924133  0.45451987
   0.62731449  0.47982767  0.30455520
   0.43131377  0.52829611  0.38786192
   0.37797540  0.63938355  0.41355088
   0.49771863  0.51518534  0.28877878
   0.59079231  0.59735436  0.28845772
   0.48110813  0.63035267  0.34987681
Direct configuration=    12
   0.48041153  0.50922047  0.75131044
   0.52299220  0.31796669  0.61092651
   0.39799441  0.34918964  0.64369709
   0.48905086  0.42188082  0.66611479
   0.37539718  0.48907596  0.69911782
   0.58186343  0.50002872  0.68856999
   0.58737062  0.43026596  0.59575308
   0.53332841  0.61035720  0.70817161
   0.67765274  0.51740412  0.58464003
   0.41820841  0.27039526  0.55504271
   0.41375380  0.61107181  0.70341034
   0.65328554  0.59568443  0.68208116
   0.51684907  0.26948625  0.49335441
   0.46448330  0.38241418  0.53557845
   0.58413830  0.36482662  0.49717502
   0.46461309  0.53589835  0.62968822
   0.38200812  0.45669574  0.58685832
   0.33413656  0.35989030  0.53502542
   0.34625535  0.57998444  0.60902442
   0.68083201  0.65003008  0.57901555
   0.70348261  0.41010605  0.50410789
   0.73614169  0.53225916  0.47973954
   0.58322032  0.69250056  0.64007557
   0.57638072  0.58078561  0.58705461
   0.50787104  0.49544137  0.52673702
   0.40916986  0.32331331  0.44293165
   0.61840171  0.48423260  0.47775004
   0.47570116  0.65112305  0.59289775
   0.38079338  0.44198509  0.45977169
   0.64143392  0.60328175  0.47980328
   0.57425112  0.69579027  0.51982387
   0.28856330  0.49381104  0.52611354
   0.50652445  0.43532534  0.42410267
   0.71157912  0.45826704  0.39076657
   0.62162157  0.38315571  0.38698828
   0.40054391  0.55579509  0.50690666
   0.51520325  0.32122336  0.38724453
   0.53476868  0.40387357  0.30365573
   0.51068874  0.60245852  0.47559108
   0.37854569  0.67920255  0.53333384
   0.56140484  0.54018787  0.38834892
   0.42078286  0.41022953  0.34638141
   0.28832471  0.61172932  0.50116238
   0.67786001  0.57395323  0.37036927
   0.31457139  0.53435914  0.41246489
   0.58638338  0.66821293  0.39517424
   0.47041375  0.70956889  0.45410304
   0.62739866  0.48000818  0.30443650
   0.43163469  0.52837475  0.38794814
   0.37820198  0.63920689  0.41401443
   0.49795395  0.51537356  0.28861599
   0.59057563  0.59792411  0.28857731
   0.48114097  0.63072389  0.34969193
Direct configuration=    13
   0.47991042  0.50970603  0.75224329
   0.52363957  0.31797666  0.61153405
   0.39797166  0.34986184  0.64365541
   0.48906139  0.42166843  0.66701760
   0.37511206  0.48895930  0.69937888
   0.58170309  0.50046176  0.68932776
   0.58730252  0.42962208  0.59474954
   0.53325716  0.61014591  0.70831494
   0.67838765  0.51724159  0.58500387
   0.41758787  0.27163676  0.55573583
   0.41286205  0.61146029  0.70398464
   0.65330155  0.59591876  0.68189303
   0.51646635  0.26784950  0.49341291
   0.46361342  0.38211800  0.53428968
   0.58474339  0.36407352  0.49690433
   0.46481871  0.53621138  0.63018728
   0.38249567  0.45658385  0.58678226
   0.33365497  0.36041359  0.53539286
   0.34487076  0.57988188  0.60968552
   0.68060408  0.65029116  0.57863101
   0.70331422  0.41032799  0.50373258
   0.73597481  0.53176446  0.47998619
   0.58387314  0.69197054  0.63931104
   0.57599251  0.58057301  0.58749377
   0.50673981  0.49478267  0.52695848
   0.40992532  0.32372705  0.44287707
   0.61820602  0.48364010  0.47731822
   0.47588538  0.65188273  0.59312418
   0.38085081  0.44191428  0.45994932
   0.64131382  0.60350111  0.47953900
   0.57511179  0.69627245  0.51938114
   0.28878380  0.49275013  0.52621693
   0.50793457  0.43494502  0.42425768
   0.71141572  0.45836120  0.39094737
   0.62200797  0.38298205  0.38572399
   0.39959932  0.55618460  0.50693091
   0.51626460  0.32018527  0.38729740
   0.53483075  0.40372791  0.30262463
   0.51000442  0.60275571  0.47595592
   0.37949278  0.67864015  0.53236741
   0.56140935  0.54041177  0.38845661
   0.42114171  0.41013393  0.34629159
   0.28841162  0.61099815  0.50093713
   0.67756287  0.57358236  0.37004299
   0.31436091  0.53446508  0.41305653
   0.58572808  0.66903759  0.39533443
   0.47052209  0.71015844  0.45335282
   0.62755015  0.48033309  0.30422284
   0.43221231  0.52851629  0.38810333
   0.37860980  0.63888892  0.41484876
   0.49837750  0.51571233  0.28832299
   0.59018564  0.59894959  0.28879255
   0.48120008  0.63139205  0.34935917
Direct configuration=    14
   0.47973905  0.50987208  0.75256230
   0.52386095  0.31798008  0.61174181
   0.39796388  0.35009172  0.64364116
   0.48906498  0.42159580  0.66732634
   0.37501456  0.48891940  0.69946815
   0.58164825  0.50060984  0.68958690
   0.58727923  0.42940189  0.59440635
   0.53323279  0.61007366  0.70836395
   0.67863897  0.51718600  0.58512830
   0.41737566  0.27206132  0.55597286
   0.41255710  0.61159314  0.70418103
   0.65330702  0.59599890  0.68182869
   0.51633548  0.26728978  0.49343291
   0.46331594  0.38201672  0.53384895
   0.58495032  0.36381598  0.49681176
   0.46488903  0.53631843  0.63035795
   0.38266240  0.45654559  0.58675625
   0.33349028  0.36059254  0.53551852
   0.34439728  0.57984681  0.60991160
   0.68052614  0.65038044  0.57849951
   0.70325663  0.41040389  0.50360424
   0.73591774  0.53159529  0.48007054
   0.58409638  0.69178929  0.63904960
   0.57585976  0.58050031  0.58764395
   0.50635296  0.49455742  0.52703421
   0.41018367  0.32386854  0.44285840
   0.61813911  0.48343748  0.47717055
   0.47594838  0.65214252  0.59320161
   0.38087044  0.44189006  0.46001006
   0.64127275  0.60357613  0.47944862
   0.57540611  0.69643734  0.51922974
   0.28885921  0.49238733  0.52625228
   0.50841679  0.43481496  0.42431068
   0.71135984  0.45839340  0.39100920
   0.62214010  0.38292266  0.38529165
   0.39927630  0.55631780  0.50693920
   0.51662755  0.31983027  0.38731547
   0.53485197  0.40367810  0.30227202
   0.50977040  0.60285734  0.47608069
   0.37981666  0.67844782  0.53203692
   0.56141089  0.54048834  0.38849343
   0.42126442  0.41010124  0.34626087
   0.28844134  0.61074811  0.50086010
   0.67746126  0.57345554  0.36993141
   0.31428893  0.53450130  0.41325885
   0.58550398  0.66931960  0.39538922
   0.47055914  0.71036005  0.45309626
   0.62760196  0.48044420  0.30414978
   0.43240984  0.52856470  0.38815640
   0.37874926  0.63878019  0.41513408
   0.49852234  0.51582818  0.28822279
   0.59005228  0.59930028  0.28886616
   0.48122029  0.63162054  0.34924538
Direct configuration=    15
   0.47953687  0.51043325  0.75298271
   0.52391525  0.31859812  0.61148388
   0.39796033  0.35090857  0.64387933
   0.48933532  0.42192971  0.66779610
   0.37491393  0.48881131  0.69920849
   0.58128628  0.50029795  0.68939369
   0.58693261  0.42948445  0.59391286
   0.53290168  0.61012107  0.70830328
   0.67854427  0.51715592  0.58520750
   0.41686965  0.27268919  0.55634500
   0.41201797  0.61160310  0.70433494
   0.65327344  0.59601621  0.68177487
   0.51586847  0.26674961  0.49375442
   0.46391727  0.38189367  0.53360399
   0.58527923  0.36293412  0.49639838
   0.46504165  0.53661248  0.63058236
   0.38338688  0.45716100  0.58698269
   0.33314051  0.36112802  0.53551605
   0.34380463  0.57948515  0.61044420
   0.68058299  0.65038538  0.57778184
   0.70297091  0.41056142  0.50340502
   0.73539879  0.53150658  0.48041983
   0.58450336  0.69143727  0.63880329
   0.57530082  0.57966090  0.58738976
   0.50552025  0.49426134  0.52714349
   0.41062737  0.32392924  0.44247525
   0.61751697  0.48316676  0.47728076
   0.47621557  0.65244146  0.59345059
   0.38134361  0.44213013  0.45954838
   0.64108785  0.60336368  0.47911511
   0.57569888  0.69671517  0.51875674