   29   29 1000    2
  0.3189332E+03  0.2099097E-08  0.2099097E-08  0.2099097E-08  0.1000000E-15
  1.000000000000000E-004
  CAR 
 unknown system                          
    319      1    208
 
  0.0000000E+00  0.0000000E+00  0.0000000E+00  0.1000000E+01
    1       -9.638534     -9.624054
    2       -9.117607     -9.098861
    3       -9.093609     -9.084728
    4       -9.065601     -9.055004
    5       -9.043253     -9.034744
    6       -9.016932     -9.005455
    7       -8.990990     -8.980607
    8       -8.989777     -8.975231
    9       -8.966123     -8.953408
   10       -8.923781     -8.918800
   11       -8.838464     -8.832385
   12       -8.819392     -8.808330
   13       -8.731865     -8.712660
   14       -8.718389     -8.706192
   15       -8.651336     -8.646912
   16       -8.636837     -8.621363
   17       -8.619250     -8.605609
   18       -8.576970     -8.565312
   19       -8.550966     -8.539801
   20       -8.550422     -8.538613
   21       -8.545792     -8.534901
   22       -8.537068     -8.530842
   23       -8.507812     -8.499580
   24       -8.485337     -8.475694
   25       -8.475131     -8.467095
   26       -8.466296     -8.451313
   27       -8.451710     -8.438656
   28       -8.424524     -8.416328
   29       -8.394847     -8.385832
   30       -8.380943     -8.371659
   31       -8.351462     -8.336280
   32       -8.344736     -8.334200
   33       -8.294220     -8.280808
   34       -8.280308     -8.270256
   35       -8.211051     -8.198883
   36       -8.190464     -8.180483
   37       -8.168274     -8.159113
   38       -8.136601     -8.127160
   39       -8.132100     -8.120970
   40       -8.128706     -8.117064
   41       -8.105140     -8.093285
   42       -8.075736     -8.066200
   43       -8.047816     -8.037530
   44       -8.027539     -8.018382
   45       -8.014478     -8.005794
   46       -7.984034     -7.972077
   47       -7.969507     -7.959095
   48       -7.961734     -7.950697
   49       -7.945952     -7.937314
   50       -7.937437     -7.923264
   51       -7.932813     -7.919656
   52       -7.885370     -7.870467
   53       -7.873369     -7.863561
   54       -7.863198     -7.849251
   55       -7.857151     -7.848507
   56       -7.807228     -7.797799
   57       -7.781004     -7.770693
   58       -7.772187     -7.760294
   59       -7.700724     -7.691674
   60       -7.691365     -7.679922
   61       -7.673856     -7.664012
   62       -7.663069     -7.654576
   63       -7.647095     -7.636188
   64       -7.639481     -7.625630
   65       -7.608167     -7.596527
   66       -7.578780     -7.570505
   67       -7.567075     -7.558543
   68       -7.552225     -7.536459
   69       -7.544610     -7.531654
   70       -7.523913     -7.514035
   71       -7.510467     -7.498727
   72       -7.492420     -7.485926
   73       -7.474540     -7.464695
   74       -7.469811     -7.454389
   75       -7.459330     -7.449327
   76       -7.428477     -7.419985
   77       -7.422753     -7.414981
   78       -7.408832     -7.400811
   79       -7.381803     -7.371383
   80       -7.337261     -7.325758
   81       -7.322831     -7.309685
   82       -7.320036     -7.304069
   83       -7.274074     -7.265515
   84       -7.239160     -7.231236
   85       -7.218786     -7.213037
   86       -7.210492     -7.201063
   87       -7.198851     -7.190021
   88       -7.123955     -7.117705
   89       -7.116026     -7.104416
   90       -7.110675     -7.098736
   91       -7.092444     -7.085348
   92       -7.047582     -7.037469
   93       -7.042398     -7.035706
   94       -7.037541     -7.031534
   95       -6.987227     -6.981902
   96       -6.952877     -6.945304
   97       -6.942798     -6.934979
   98       -6.938702     -6.930615
   99       -6.918413     -6.911081
  100       -6.908216     -6.898466
  101       -6.904261     -6.896470
  102       -6.885645     -6.875151
  103       -6.864489     -6.854450
  104       -6.859271     -6.846162
  105       -6.835537     -6.823117
  106       -6.828762     -6.819187
  107       -6.824951     -6.816492
  108       -6.809222     -6.800675
  109       -6.790797     -6.781696
  110       -6.769892     -6.763721
  111       -6.741868     -6.733615
  112       -6.732385     -6.725396
  113       -6.728545     -6.717214
  114       -6.701475     -6.690735
  115       -6.699529     -6.687697
  116       -6.684587     -6.677432
  117       -6.673138     -6.663801
  118       -6.669438     -6.662099
  119       -6.636070     -6.628069
  120       -6.630684     -6.622409
  121       -6.627653     -6.620104
  122       -6.623314     -6.611632
  123       -6.605277     -6.591994
  124       -6.597678     -6.591739
  125       -6.587503     -6.577361
  126       -6.582462     -6.573383
  127       -6.573436     -6.565257
  128       -6.544848     -6.539166
  129       -6.534996     -6.527404
  130       -6.531848     -6.519277
  131       -6.496266     -6.489112
  132       -6.493301     -6.483869
  133       -6.485859     -6.478472
  134       -6.482717     -6.466636
  135       -6.473705     -6.463893
  136       -6.444238     -6.433580
  137       -6.409072     -6.391838
  138       -6.396392     -6.389746
  139       -6.390384     -6.385702
  140       -6.363400     -6.355989
  141       -6.353334     -6.342485
  142       -6.332933     -6.328868
  143       -6.314664     -6.307158
  144       -6.299988     -6.295611
  145       -6.288323     -6.280584
  146       -6.279880     -6.273782
  147       -6.246620     -6.238817
  148       -6.242506     -6.220801
  149       -6.220375     -6.209978
  150       -5.893924     -5.879691
  151       -5.410044     -5.380977
  152       -5.364701     -5.348682
  153       -5.239677     -5.195171
  154       -5.073826     -5.025528
  155       -4.378486     -4.361918
  156       -4.078798     -4.058744
  157       -3.961755     -3.929695
  158       -3.935880     -3.908598
  159       -3.431539     -3.397474
  160       -3.402050     -3.313194
  161       -3.343239     -3.292481
  162       -3.064406     -3.034892
  163       -2.905274     -2.879305
  164       -2.601869     -2.584519
  165       -2.489794     -2.441745
  166       -2.333323     -2.312382
  167       -2.067256     -2.040061
  168       -1.933213     -1.887197
  169       -1.911124     -1.882765
  170       -1.798213     -1.764188
  171       -1.587177     -1.562945
  172       -1.570971     -1.510996
  173       -1.475062     -1.437805
  174       -1.429749     -1.335158
  175       -1.312324     -1.250829
  176       -1.091088     -1.053280
  177       -0.989226     -0.979984
  178       -0.802154     -0.783653
  179       -0.760976     -0.734405
  180       -0.602636     -0.588080
  181       -0.438038     -0.410595
  182       -0.318488     -0.278719
  183       -0.109410     -0.095103
  184       -0.078820     -0.042619
  185        0.046464      0.109238
  186        0.200836      0.229542
  187        0.297074      0.381302
  188        0.391110      0.436242
  189        0.425435      0.464031
  190        0.474937      0.512279
  191        0.561484      0.561361
  192        0.604882      0.616976
  193        0.616524      0.637827
  194        0.763878      0.816492
  195        0.797258      0.827619
  196        0.842605      0.839894
  197        0.853023      0.867481
  198        0.919101      0.919438
  199        0.939499      0.956265
  200        1.030074      1.066213
  201        1.051358      1.087287
  202        1.091621      1.099894
  203        1.098495      1.114476
  204        1.125592      1.144022
  205        1.132463      1.182122
  206        1.172752      1.212176
  207        1.202189      1.229380
  208        1.222091      1.246954
