17
Energy = -33.31544524 eV
Ag 10.045213946192217 6.692594426745269 11.891073195082624
Ag 12.145105610226139 8.444298399913288 11.3984846528403
Ag 13.573532564926012 10.867038523576543 10.527483777280235
Ag 9.471052239113298 9.361647320349691 12.465400190773366
Ag 7.655400716154019 7.895043853228697 10.959236793670886
Ag 11.887973543425176 10.957324925635978 12.848571708047421
Ag 12.387756037374151 9.196341186411964 8.585026278148412
Ag 10.02759464463943 7.91561965254138 9.386537429840326
Ag 11.791833712761688 13.153246459190319 10.97041191918908
Ag 10.766264708737138 10.620767869540998 10.317764861099203
Ag 9.397885617273799 12.190781465579283 12.13675416557522
Ag 7.603290464336553 8.796191163352553 8.312290343540587
Ag 12.092408714090698 12.047657089030354 8.334774435064253
Ag 9.434621733566344 12.834280017382142 9.274174367488298
Ag 7.793179203817832 10.64782936836243 10.45911528118888
Ag 7.440747004350907 11.571922892243379 7.841424549359052
Ag 9.897070797347164 10.243345972827886 7.6731046408555885
