10
Energy = -17.51190171 eV
Ag 6.67967242802597 9.120610856980706 8.806688836486826
Ag 9.151165382291685 7.9417405347659695 9.532403557871099
Ag 8.134614879675429 10.270481426099883 10.879519243688485
Ag 12.63491322311228 7.7036383488333415 10.5933363335747
Ag 10.502970522506587 9.212172796593721 11.601036036416083
Ag 12.881845787875323 10.389596828149516 10.750143723401871
Ag 10.424289761713428 11.598980815731922 10.022096552812327
Ag 9.031702638748586 10.341282350728351 7.960766420794291
Ag 11.416075390206313 9.298924050010958 8.645641459008717
Ag 6.845684202779107 11.812077732166978 8.91513133974061
