15
Energy = -27.84339708 eV
Ag 13.360610273136343 9.410549201490786 11.232564307040622
Ag 11.821232730568696 10.259902094206444 13.410333370683706
Ag 11.237752326767255 11.361466545671494 10.908629688775877
Ag 9.145637743227743 10.663634714870415 12.648509677351663
Ag 12.105912090085205 9.759508640255056 8.777481605012888
Ag 12.412246197398474 12.499126631430585 8.701170345036358
Ag 10.593535406695691 8.57125783373466 11.54396481069483
Ag 12.231678844462376 7.255247337886863 9.813273668628852
Ag 7.971944545700956 11.736424308634227 10.412758507743591
Ag 9.914762987397616 11.314140781480013 8.235081789702614
Ag 7.810234750262365 8.997283296725694 10.915466248190404
Ag 9.68402444518719 8.389793475857498 8.789205089447654
Ag 7.588295764917131 12.722911672311668 7.8558933800638675
Ag 7.46184739142107 10.0149462063731 8.230586296243512
Ag 6.990032632424341 7.4327151845698145 8.864995046728733
