15
Energy = -28.13131685 eV
Ag 12.367536798959911 8.954292873107187 10.982627306582057
Ag 13.995668319244913 10.87373179612979 9.92910023465546
Ag 10.180015335483326 7.466672333212364 11.78665706498907
Ag 10.572063719597582 10.147738824571436 12.785544685064243
Ag 11.461269326564915 11.739466928809563 10.588420809773826
Ag 11.75849944381131 9.943238348345762 8.433402949542206
Ag 10.480297077859086 12.918427968320835 12.929223222823424
Ag 8.806746862731938 12.537362885540809 10.83518842959265
Ag 9.344299607531251 11.508525305825412 8.30347833979363
Ag 9.491562435954389 9.604117594580043 10.268652365788846
Ag 9.411023560164281 8.763230538927477 7.533260405590795
Ag 11.087022523699002 7.163393230500239 9.12283575025952
Ag 6.815228237185446 12.48522639535307 8.993675749771182
Ag 8.219143500467098 7.243427195337393 9.582424746033604
Ag 7.08435844401551 9.717861356749877 8.806487530179258
