15
Energy = -28.71741495 eV
Ag 12.902940228998757 7.658336296233837 10.548564980862066
Ag 10.737846013257796 8.566241049687005 8.873107544834985
Ag 8.192026400214917 7.018801330206874 8.9727948855688
Ag 10.226118623892347 6.712460919677873 10.82834006906498
Ag 8.397391272074593 9.46588546952046 7.684581930069479
Ag 12.642035832424977 10.376474188325343 9.836673265267425
Ag 10.313892265562526 11.295286567302961 8.483909799161994
Ag 6.129907143399413 9.02138075064353 9.24241719559824
Ag 12.347656532799025 11.56681982003546 12.381939345588068
Ag 8.476167757496436 9.112819220362672 10.747303454160518
Ag 11.022415087149064 9.195453782140818 11.847335411049372
Ag 11.861529082600034 13.06043718701118 10.049800649712983
Ag 9.196441059267938 13.680234439292258 9.487905820426603
Ag 7.529067199499269 11.443250197554617 9.490647144028141
Ag 9.767675831013694 11.569229111655176 11.267788834256844
