10
Energy = -17.21887496 eV
Ag 10.27949088839982 10.085452056568725 8.995622053387391
Ag 11.092712099310718 11.298433107633803 11.461834962782051
Ag 9.74356736715142 13.562087942909004 10.986608958365386
Ag 8.357684210537043 11.250043444004637 10.660393283359584
Ag 9.556502003277243 8.929371684684318 6.660231806545752
Ag 13.184190925321108 9.747778071985936 12.08624965664015
Ag 7.600517343530926 10.22030226776362 8.187173892181336
Ag 8.317543934752619 8.505231677620849 10.309509268069593
Ag 10.92752594509582 8.493007714737884 11.243527316454346
Ag 10.374428417845039 7.304930434155883 8.795842922967896
