25
Energy = -50.19265588 eV
Ag 13.111443496944133 13.587237114157459 8.920555191766974
Ag 10.299223118502788 14.00307699270762 9.567212281916419
Ag 11.221820765221098 11.357656780575763 9.190973580888128
Ag 8.53691254234538 11.7940611981405 8.820571400494455
Ag 13.836535811663898 11.063713305319876 9.961774912109139
Ag 9.308668596453424 9.432568509569752 10.188272760696663
Ag 15.870707634416462 12.89765187482774 9.516233297069247
Ag 12.192067898012402 13.016108962734902 11.439196888492688
Ag 9.486639232051767 11.95756838422694 11.38210582223268
Ag 11.815197270822022 10.050517690149784 11.687507219673712
Ag 14.795238901171746 9.20353365462529 11.753397120803948
Ag 9.909110698496885 14.509276364012822 12.423266823242091
Ag 15.358653237028548 11.982982540973552 12.143878511200425
Ag 14.558289321638135 14.547808285299753 11.288368177536169
Ag 12.816943384007395 7.706188985552456 12.871500551295327
Ag 8.043714731217467 7.124766073578008 10.796226789725038
Ag 12.434311983095405 15.741362996631855 12.533830930132535
Ag 10.114552645575275 7.820874630788124 12.352354520546056
Ag 10.892321280995722 12.069010049244822 13.71042675083523
Ag 10.26095072272822 16.954956432312205 13.66411482843331
Ag 11.24619914363915 9.407256200633302 14.443745191770903
Ag 13.695085339996128 13.504990782447054 13.827820032161098
Ag 13.634281434411267 10.64553689903185 13.862595625509528
Ag 11.339757058300163 14.620505016295164 14.906630137810666
Ag 12.387962390154023 12.167378915052291 15.914029292546482
