23
Energy = -45.94298875 eV
Ag 9.938316933611498 14.534220083828277 10.23825095227861
Ag 9.28371506106547 12.43806342973556 11.998064753052468
Ag 8.666073575094396 10.219788783119345 13.537642458094929
Ag 6.312203776358617 10.746549050734245 8.573813157386466
Ag 10.787783309956648 12.602742582797722 8.403472254547454
Ag 7.818449516362516 10.064483189276432 10.833803013602447
Ag 13.585113947354662 12.286882519333583 8.815527980089742
Ag 10.224173094023266 12.404181638064395 14.620904952999426
Ag 15.333977092547354 8.450392227714389 11.686227122149113
Ag 14.730368333225346 12.415544163779096 11.485875037932116
Ag 11.88770736964332 10.07820249029221 8.047468963541682
Ag 14.273442602713793 10.347626059789778 13.306110491681299
Ag 10.95261676601907 14.560095868036104 12.90490625691388
Ag 9.03111448321216 10.270337823528314 8.10455212210183
Ag 9.853212402528765 8.217175464750856 12.04532550475232
Ag 11.996529056935442 12.757674471950379 11.029639638644467
Ag 10.513462239486882 10.417811755098798 10.41873541796536
Ag 13.344820801830654 10.119814376547861 10.60065257968597
Ag 8.124740182859119 12.591225061925623 9.433856469748683
Ag 11.424583699715907 10.472075221720942 13.052645711391616
Ag 12.963119366438669 12.756508454772584 13.6822584361088
Ag 12.66651263426758 8.060173970048465 12.43569585414224
Ag 11.609383605054541 7.9417110734939635 9.83452026445299
