34
Energy = -69.49882095 eV
Ag 15.183320854695602 10.12884693894133 15.615960927401224
Ag 12.732708658033868 14.552087883638075 8.418587406259165
Ag 10.161976556836002 7.616240833222844 13.701573113923786
Ag 16.315621095025104 11.36204862563413 10.279332245717203
Ag 10.594529775423647 12.018066593596346 13.056341183697368
Ag 13.217175588703007 11.381902032418166 13.96916218144357
Ag 8.847561311485219 10.231640872321696 8.914816861689483
Ag 14.46546445329705 12.738455298464837 11.741921585177797
Ag 11.826206430070311 13.34534150642381 10.747628631986439
Ag 10.813433185475164 12.453294428255923 8.143105509373408
Ag 6.997565838510469 8.231956783261317 10.084414115232441
Ag 10.823156159313857 7.567852658375473 16.37904744135408
Ag 11.703873478852612 16.447724487142658 11.654120111007504
Ag 9.838224216082864 14.600370524083191 12.347030136935848
Ag 9.20277959484228 12.540218194960474 10.459320135414858
Ag 7.535770175114893 12.99317113223957 12.620661039146235
Ag 15.560023177940993 13.802900265274461 9.134610605650423
Ag 12.866010910589901 17.132319109809426 9.208419998797245
Ag 8.188991085564586 10.704146719945918 14.001904051933748
Ag 15.785637308778277 10.636055227920464 12.997843542575737
Ag 11.798104681340986 9.417323046269798 12.520472225907035
Ag 13.597338177116468 11.847165634961623 8.85667106930471
Ag 14.045159992947385 15.302428818569853 10.923126416158082
Ag 13.956480242882819 10.058273487636317 10.95791983153193
Ag 10.653505945993063 10.106366085941424 15.092338295755471
Ag 11.395750022259596 10.531214714669744 10.041079874094066
Ag 8.299372962253589 8.447028984622312 15.62684384079785
Ag 12.618669234616462 14.21127073165061 13.24066840334774
Ag 7.307040284080038 10.605866608361117 11.326417665164692
Ag 14.782106046052911 14.87266714456501 6.691010011279626
Ag 12.996123322670812 8.661163882307633 14.993706335939633
Ag 7.496583651664475 8.180287526746115 12.88802245777267
Ag 9.582062600422057 8.621120596951764 11.105069072201887
Ag 12.846430257332331 12.845294698196717 6.27479434225682
