33
Energy = -69.50539792 eV
Ag 8.589315365252562 6.523201826541131 12.403838118977852
Ag 7.489495854650947 8.863142653780399 11.335230515806565
Ag 8.533293945954803 8.82142579795525 14.007219152496038
Ag 9.860732792145575 7.846349989370196 10.287745006809061
Ag 8.695693587951984 11.569107397872951 14.257937585627316
Ag 7.618781461704828 11.634820448635883 11.611906513191121
Ag 11.008422232955013 7.750304227945474 13.12013517612702
Ag 8.713602690224963 10.36243603740059 9.286724509700694
Ag 11.023517760913965 10.119395795209936 14.784428661619058
Ag 10.013410345900931 10.242960416399967 12.012783307090768
Ag 11.167612307935347 9.344280719239126 8.32039041054968
Ag 8.94038722337632 13.172375956654179 9.694986050324902
Ag 12.350671199967666 8.986248822176028 10.937056043856147
Ag 10.97812081215089 12.967150539667697 14.98775423132022
Ag 10.069295572511237 13.103127981940522 12.287017805794434
Ag 13.391348142739592 9.177964361112265 13.675704781114101
Ag 11.78110774405476 15.134873686254888 13.350588275860138
Ag 10.254083073258645 15.50943801753828 10.945279014774515
Ag 12.521049425214544 11.601483978649853 12.567746322727942
Ag 10.079775623833381 11.958905920902883 7.411445507779418
Ag 11.426025651008906 11.68686515163672 9.953976014498705
Ag 13.25732486740691 14.413088856810393 15.672376383378042
Ag 13.414668793552025 11.634245140198876 15.312974627887805
Ag 15.045648515962425 9.517456242602366 11.31655926409127
Ag 14.275392589275087 13.825540920500895 13.205753029245985
Ag 13.824865776029181 10.313062176163266 8.927640965236197
Ag 12.58756966495495 11.000817498357648 6.569609750614923
Ag 15.34966420422068 11.312272314173656 13.39530107400209
Ag 12.660094133817264 14.174342307664642 10.856614010916365
Ag 11.066957038803999 14.510325550248368 8.4875962074205
Ag 14.703307358406688 12.282299929849472 10.780733222314984
Ag 11.920231813844543 13.627525329164325 6.041388448281497
Ag 13.490837394335156 13.05862539809946 8.327170830302977
