33
Energy = -68.41202122 eV
Ag 11.369104691473096 14.109358477373949 14.039296058413642
Ag 15.866870986751247 9.96845997156275 10.134046106114209
Ag 13.155512390715675 15.598208489408986 16.013819033988742
Ag 12.293068996701296 13.023076571354872 16.561141975110356
Ag 14.445589614463067 13.006396476863998 14.711776375672182
Ag 15.832869008340756 12.063560385509906 19.118819353142918
Ag 9.852047415235235 12.20173732092307 15.776827437967016
Ag 13.313940710800651 10.682687052589614 9.363754695657228
Ag 13.391740836742231 13.295391595395902 8.356433086164389
Ag 14.602859588936427 10.081189408328239 14.590483256341312
Ag 11.578149460074505 16.012547369960586 11.775377401171578
Ag 16.104718397212174 8.738092089041805 12.631668181655746
Ag 10.899023371454986 11.657660246867353 8.504154050966731
Ag 12.077410409178809 11.328267364522748 14.132271550478015
Ag 15.925500756952742 11.507914172684197 12.578625006513784
Ag 15.427871906435335 11.421103858818489 7.735355203187086
Ag 9.500484278127953 12.06925357308692 13.071252018268924
Ag 14.89624950571501 13.967625897790429 17.413397243143457
Ag 8.55229353797043 14.353104077060873 14.499834551575018
Ag 13.318246046524411 12.902378966279501 12.104588765043692
Ag 9.226638362606483 14.68670967140761 11.848791519223164
Ag 13.91246080343048 15.117856309589776 10.509076082517907
Ag 15.892135459861604 15.341663935705775 15.161493914357479
Ag 11.30421970529782 13.825632760597172 10.155186099216337
Ag 13.774328272174735 15.811861546821715 13.349326007124002
Ag 15.873075668753371 14.264476881053655 12.516768886254084
Ag 15.509187866783542 12.813499420421316 10.120439933289619
Ag 7.016096012773033 13.134744721377535 12.380131920042597
Ag 13.645834966433478 9.879836222668272 11.98901963868221
Ag 8.870084630186613 12.264658830619068 10.372810353633533
Ag 14.31943664652477 11.246520722411478 17.041596587709137
Ag 11.275117741672796 11.05588624769887 11.25722210488982
Ag 11.226244674444805 16.817052084952053 14.433628323231996
