36
Energy = -75.98440178 eV
Ag 11.905156686985935 9.724688459388524 15.437266749184365
Ag 11.949553497490905 12.448044235468316 16.136100371848947
Ag 13.850882591312054 8.580022652367365 13.592326355999528
Ag 11.924023932150533 15.185571966216068 16.61951083111757
Ag 13.777304963111893 11.316166488339066 14.236613405746077
Ag 11.23380394469544 9.207192392048295 12.834531336004577
Ag 10.58716108114062 11.724674225423685 13.810547872008978
Ag 13.87312330017416 14.063353787534348 14.925904011837904
Ag 15.933624553752239 10.242198969892806 12.515255835066739
Ag 9.805496711015332 14.068467460731094 15.121238728265261
Ag 13.811074498576238 5.959378778591169 12.77123967644915
Ag 8.676429836630298 10.214715213042611 12.304055208878589
Ag 7.927800280093718 12.685922176507914 13.538195585506767
Ag 15.381187165876218 12.998627915898792 12.63503655213607
Ag 13.38425744450372 10.656301915409285 11.50680964466265
Ag 15.491705461170394 7.745095493276949 11.381165801522275
Ag 11.749397242268298 15.711810601198433 13.91738473888285
Ag 12.750368492014942 7.750281102288435 10.953623719456733
Ag 14.445527487634246 15.650580566257021 12.74931017501939
Ag 9.931947473186133 7.98701576055189 10.767492322048001
Ag 12.564953015436702 13.34130662212354 12.381712106168985
Ag 9.85217324036517 14.205010829152107 12.249388434198437
Ag 10.759512652054257 11.619443367230938 10.940954676835156
Ag 12.219934640510772 15.989133539232343 11.210900578436393
Ag 7.697922673999312 12.390131231706574 10.793485811115746
Ag 14.450424012496395 9.354778128632864 9.290640250018578
Ag 14.183665858385687 14.194353034782713 10.226293086058083
Ag 15.643441659517645 11.7628453074059 10.080490398397844
Ag 11.581810950011969 9.537936751632255 9.142205003714025
Ag 9.614315452742362 16.145509329418346 10.345288698975514
Ag 11.417559890232136 14.067846368465016 9.463516668866331
Ag 8.677434664059835 10.041774812926004 9.485122355752553
Ag 13.075606371975079 11.886506617288529 8.91026268108458
Ag 8.737700276368411 14.10360713850233 8.792163682387216
Ag 10.302710545065159 11.866750258133688 8.062676008730033
Ag 7.365235163304945 11.918576997344854 8.016121296855594
