46
Energy = -99.29308825 eV
Ag 13.310460398476529 9.712363222924662 15.835409290952398
Ag 10.423634716362066 10.253102552707787 16.04708401174429
Ag 12.041307364165528 7.704269279201342 14.289197047603567
Ag 15.942640235469643 10.489429369211614 15.210366993348112
Ag 12.398294455723484 12.340553502693883 15.98757078646007
Ag 9.409193417879795 8.62785249673137 13.825700286713678
Ag 14.576354364579991 8.616040277744025 13.593512848725359
Ag 10.571282650818546 6.125618841518239 12.55436464319931
Ag 9.67487935941073 13.035817888475819 15.844767219411239
Ag 15.14201576623601 13.106107040998742 15.890178479460994
Ag 13.195079746130213 6.98555413082495 11.780733333379315
Ag 11.711030807824347 10.439827576814347 13.648947376392714
Ag 16.585058519397894 10.19000905854976 12.562032474189106
Ag 10.47175164196652 11.437550450361679 11.332175021149697
Ag 10.942224694601467 8.614762424878228 11.520658834605648
Ag 13.282174883544082 14.718643589625012 14.641057976874185
Ag 15.369003650239904 8.36843830923162 10.795252402741502
Ag 10.560240471813783 15.650686839814231 14.753659038892605
Ag 14.077468360142424 12.043012870256913 13.516312622695917
Ag 8.847041691945313 11.37230354719895 13.754469159562454
Ag 13.397973165102998 10.313332925452794 11.408213879686901
Ag 8.340207267738432 14.224009237075624 13.632720093235957
Ag 11.153262343770058 13.249917604452945 13.466228225981629
Ag 16.697124940031117 12.907822374337186 13.526717002731967
Ag 7.1741265669339285 15.335159338448252 11.327269778749834
Ag 12.710900202943819 13.15732507109176 11.132390164687392
Ag 14.817844254391204 14.650202232739634 12.301057282724699
Ag 17.36762171407371 10.163871501476146 9.935098340218556
Ag 15.608262749396141 12.243859930256198 10.918555920768245
Ag 12.731059633689066 8.54438230473861 9.34072407074035
Ag 8.25450241660425 9.77636450887625 11.430582253718013
Ag 12.075383833300481 15.791263487311781 12.32989319589732
Ag 9.8821572401684 14.26408444428854 11.141513607175893
Ag 9.349724534566466 16.749164846658516 12.473505790752998
Ag 9.992042229495704 9.620846129261622 9.115247020816325
Ag 7.647883117356518 12.543714895340196 11.445515786708986
Ag 12.110187099280456 11.347387623599026 8.870932376977883
Ag 14.80713956462201 10.477492474751559 8.855634347274284
Ag 16.17717678285223 14.749427967760761 9.833557860174853
Ag 9.255166441411184 12.37979809337934 9.023994136903891
Ag 8.212610872267993 17.635397428620024 10.101615655954175
Ag 13.498065724315532 15.731080021994925 9.891691001899174
Ag 11.40733121529652 14.197542155238366 8.733042129673363
Ag 10.84195257865744 16.734604731814475 9.895704798481056
Ag 14.147944314421187 13.245652572466105 8.680735255038043
Ag 8.643933852882354 15.152657445817674 8.823984929490635
