48
Energy = -104.17311667 eV
Ag 13.461501914750723 11.0576682277639 6.424657411131926
Ag 11.71798019497034 13.312476549166224 6.858400007072962
Ag 11.216386383877797 10.622770238163039 8.096603152763203
Ag 14.57786775705181 13.659007155766103 6.740396371931302
Ag 13.70530255152503 9.497652434381228 8.96806992121177
Ag 11.364161389396923 8.345089423945504 10.3066578968809
Ag 9.216484766591417 12.61061760268933 7.791663918784731
Ag 15.831611015114825 11.368710419538454 8.161960872907382
Ag 13.38436789810941 12.315105027251034 8.91764333799861
Ag 13.066739569742166 15.242478787658674 8.579802829402487
Ag 10.246267484173872 15.403952176723182 8.155518281195771
Ag 9.787862022162543 9.439825966870261 12.542035625932668
Ag 14.101970418250561 8.18431001611171 11.399974156583326
Ag 16.08816320336597 9.505264493251094 13.287252768203903
Ag 9.197143277778828 10.536282051085013 10.006691096586701
Ag 9.638662263571955 8.020465397775485 15.006147976491494
Ag 15.507761190626045 14.035838436318379 9.369381321383708
Ag 13.40796684305849 10.194385364822276 13.101145032740684
Ag 11.932189530839157 10.877577993232808 10.875727827784754
Ag 10.98332090349905 13.396322792030858 9.891294759449574
Ag 9.983216723446494 12.289483521206012 12.36180434032051
Ag 15.259421673662127 10.937659899876236 10.946405578303782
Ag 7.906766127435597 12.998041137856559 10.184162923770224
Ag 11.82111767730965 7.721383028250642 13.228814731246041
Ag 8.940684603341849 10.978112003643309 14.833914516779016
Ag 12.359273234066443 7.833970491491924 16.386931708381493
Ag 13.501011179849806 12.993486841433413 11.630456203093482
Ag 11.542670117810992 10.04465382992168 15.067416023208871
Ag 16.152049519870452 13.647148084787604 12.016693763326607
Ag 14.326311051266895 7.623561872701837 14.341397271889235
Ag 9.13068347867851 15.472498801191191 10.76525944128794
Ag 15.181523468276398 12.094860171718212 14.081862860237601
Ag 7.792903386293102 14.055514170220118 12.766220011933644
Ag 7.483178039080337 11.165536078236165 12.284107523415791
Ag 11.436699301986213 14.673129490033698 12.415637564313878
Ag 9.962245589809859 9.674736529270572 17.266595121046432
Ag 14.089431034907728 15.738205374534344 11.227771326134876
Ag 11.583245955486548 16.695694297453006 10.416030697288678
Ag 12.198281453490402 12.52742760521914 14.10526291020482
Ag 14.457539922816519 9.974411861554184 15.804652318758514
Ag 14.245197725991735 14.744482094864683 13.88691948725568
Ag 12.633400876774589 10.380056269564628 17.82267500866022
Ag 9.66257554350029 13.761766920207888 14.768353348449184
Ag 12.524738074900954 16.950300286467996 13.437052536214464
Ag 9.605072196947377 16.30483813461468 13.521698268031917
Ag 13.713486817981424 12.657382594523664 16.471104359952115
Ag 10.94069554548248 12.364391963389998 16.772602282594875
Ag 12.038489429727333 14.960413760707013 15.555254691959052
