41
Energy = -87.90651255 eV
Ag 15.15330257621825 13.345451826191873 13.4287396752328
Ag 13.424588552522605 14.390321928718265 11.387273741544448
Ag 6.7076939105026545 12.780889961794673 11.856393259941367
Ag 10.914291106234055 12.644735323917477 15.044620549436768
Ag 8.348846046673186 8.283845354957323 11.02583560003721
Ag 14.797100523256784 9.184737977352098 10.497943791353618
Ag 14.689817862949512 11.923521523185554 10.851918525912339
Ag 10.757410729567647 12.57177995491749 7.870118379987572
Ag 12.349177458638287 14.408908320034856 6.591679102606614
Ag 10.724513444841088 14.117541826270706 12.275773918546108
Ag 12.757154310946731 12.00901756040523 12.982490782518118
Ag 8.204230523215205 15.126534984378766 12.236488324189587
Ag 8.190156092344496 8.75623527399244 8.248317138939461
Ag 8.978861188848413 13.214473449368704 10.141530640128085
Ag 11.741574032545378 12.227212653661907 10.492287876341996
Ag 9.904228903097902 15.23688318490103 14.666023840342344
Ag 6.26690432063018 13.144161529089136 9.16968737955631
Ag 12.041383841796666 9.529277589273638 11.61306575144989
Ag 15.147050838110323 10.454981817891714 13.183776377809748
Ag 10.717317882455577 7.825149987816272 9.282869793254726
Ag 8.173622503998258 11.58029355481708 7.823258338963459
Ag 9.58278157702085 8.51244575967381 13.461994065759924
Ag 10.538034109575735 9.887025841802958 7.0310041321518595
Ag 8.354900900220064 12.934576918621556 14.042631661579398
Ag 14.812828265826315 7.725917008156858 12.849475626764303
Ag 7.0244187455818725 10.598658353086915 10.184963936707504
Ag 12.948140886573372 7.0228673720630646 10.836705472330848
Ag 12.943385168694045 11.54200736442654 6.5211235419652835
Ag 13.742076436261764 11.774630189050308 15.505621068158833
Ag 12.166569882668282 7.4128837669253445 13.589272555661395
Ag 11.346192917048434 14.83224554520868 9.461044739735412
Ag 14.094878184557901 8.913022891224461 15.238547017375495
Ag 9.860361015545653 10.418456351765723 9.769037889035191
Ag 7.443955470527067 10.288736443579223 12.987332664775645
Ag 10.32001650131385 6.407399481908578 11.67937378613011
Ag 13.65758512338486 13.283832235197389 8.669193623120773
Ag 12.750449471582062 14.61607210879644 14.214498018077215
Ag 9.99821744573769 11.229778265964054 12.564832226935026
Ag 11.611272902338023 9.985810770562136 14.629252680413414
Ag 15.161035662169308 10.93777595667831 8.232604583741828
Ag 12.650028559494999 9.916257667886592 8.857753797002546
