45
Energy = -97.35696722 eV
Ag 13.448450052901705 11.232373512689666 8.170739714831013
Ag 15.02773416365953 12.52659368808704 10.173007695503317
Ag 15.560073447517594 9.813190634693251 9.628858996159012
Ag 11.371938931449211 9.926108362338049 6.606445523474403
Ag 13.949272539322799 15.073473147564712 11.187455496847061
Ag 12.922803803254595 8.421554816923335 8.374810833606709
Ag 12.899297367242104 13.918880704043183 8.854802316195647
Ag 11.05302980687159 12.679785546051292 7.158749269581197
Ag 11.543245262887114 16.224592281862705 9.937561846367688
Ag 8.668048627128002 10.202888852421754 7.732512889318097
Ag 12.781370778001342 17.441411036637728 12.218214479795876
Ag 17.038787502006205 11.299754644686159 11.635183901546283
Ag 12.440741839343557 12.651642598945372 11.319903079390329
Ag 13.018692467586547 9.912499868172004 10.75013763148346
Ag 10.17055747292455 7.902707101762682 8.19767268935621
Ag 14.150688216254423 7.327640103392491 10.622014030969254
Ag 10.133534346942485 17.385672945386034 13.148435160046178
Ag 16.09392873061407 13.814604313546706 12.468661916445381
Ag 8.28668424271047 11.602618199653412 10.19791057488785
Ag 14.897920143141041 16.218256327944232 13.60774453949984
Ag 10.862125149329357 10.860856472909065 9.226495964926986
Ag 11.232216397787932 14.954333350023997 12.33460432568927
Ag 11.324668891654415 7.502088945448174 10.674876652060282
Ag 13.045691363675378 10.873185355691371 13.361376387707317
Ag 12.265308333164358 16.23059702722712 14.694350848997304
Ag 8.918577834308673 15.851245307864582 11.048527163970105
Ag 15.291619930661737 9.288436831571147 12.428064367080205
Ag 10.18002987139809 13.68162877718799 9.74649173685928
Ag 8.92090682810622 8.906744677994817 10.478121669581835
Ag 10.53349343345543 10.787347546489967 11.984919126278962
Ag 13.65949015725513 13.757786859180678 13.93910206830414
Ag 15.635369256575347 11.59291119480841 14.108807247103169
Ag 12.743263292382723 8.083975207918177 13.034030634170781
Ag 11.078039263007613 12.69570710172671 14.109279982981247
Ag 13.210339726319713 11.737641617482655 15.957230194975693
Ag 7.928835637357205 10.500368303675932 12.826865063733129
Ag 9.62366926391728 15.002753375278347 14.665828131801916
Ag 11.745808759060253 14.137448510928735 16.434438489234335
Ag 8.89674780181924 13.280397954682101 12.323062148289
Ag 9.871573620513418 8.33220423388524 13.150595533715826
Ag 14.379709377300808 9.226624372356039 15.150620595144982
Ag 11.526693462448513 9.36750029471442 15.290325497902678
Ag 8.764397407707644 9.666393939840933 15.397065691561115
Ag 10.439362513073181 11.604437569860083 16.632235221776774
Ag 8.370982469556823 12.406856268045477 14.917582454443014
