4
Energy = -5.43110485 eV
Ag 6.929252177993376 7.305970399037059 6.814974650574926
Ag 5.573930569829819 5.270607513307497 5.93351819241671
Ag 7.300310422411929 4.868952740617759 8.021971269233504
Ag 5.2843219813558635 7.652267880232466 4.638308852030499
