53
Energy = -115.47856804 eV
Ag 15.523231787126218 9.35679820597457 9.50684305507977
Ag 14.754216103034505 11.627079428348816 8.140724020471238
Ag 12.393687915073675 11.83250180457002 6.526112427298615
Ag 15.89246335800988 9.855439319309587 12.248616489059145
Ag 16.35730115404233 11.983255599533608 10.415205201361545
Ag 11.62687801270718 10.283141102369358 8.719880553936672
Ag 14.160880917284699 14.023523045233095 6.780463765312461
Ag 13.408740353162047 8.4898722330232 12.854798487122169
Ag 13.008494207446264 8.21324036618918 10.100982998677242
Ag 16.74747769409544 14.71717513900602 11.52326918669283
Ag 12.055442812465609 6.990174266709262 14.932849112915914
Ag 15.736102132855331 7.755147100722505 14.126184070014467
Ag 15.315824022048501 14.34379376742261 9.224805737842777
Ag 10.28388788462565 7.924834610254409 9.692712325775409
Ag 13.566740075100412 10.899434188114986 10.791849991687313
Ag 10.934126956718245 7.140687021963751 12.355700569961947
Ag 16.503119528711046 12.532726168904736 13.227150397003355
Ag 16.156980869375737 10.405618610184023 15.010159747730382
Ag 9.917891743038265 12.390521135575948 7.805133571122291
Ag 11.434465909887587 14.508124444005553 6.794221165543306
Ag 12.61599796370925 13.150531484281895 9.154078747738255
Ag 13.73213036167169 11.276791136821247 13.670899971949861
Ag 14.188125720149785 13.428669355966623 11.81047003710373
Ag 11.033629180126335 9.838976109929432 11.66945971802375
Ag 14.27098809114595 16.194708404948667 11.159006754540897
Ag 13.034031744057678 15.937113248232125 8.636755109481165
Ag 15.123802883476014 12.915795149847769 15.626984167699558
Ag 8.854891021748157 10.287675074433919 9.385156635461085
Ag 11.358729110737206 9.625730980777762 14.505003658448755
Ag 15.24502707338071 15.178081172885932 13.822722604710869
Ag 8.45398782938656 8.550463766580775 11.771474552880854
Ag 10.246131904210285 14.947133280092544 9.2200854795652
Ag 11.63014621380465 14.505829539266857 11.810257223477858
Ag 11.568390245170956 17.076955191283055 10.748180114989145
Ag 10.37294586379605 12.313202785706029 10.6435734083411
Ag 13.808899002079565 9.079733524801332 15.68586288338018
Ag 9.261482028837396 7.901834806448017 14.529048886204354
Ag 12.791730125082424 14.064417902594576 14.501302722043672
Ag 7.953662259435308 13.23155780312913 9.683578311040716
Ag 10.969462627515968 12.192427161909878 13.434032738658091
Ag 12.56686419041372 11.61290173348249 16.2307221918376
Ag 13.269374339695789 14.217285868701117 17.235961234857285
Ag 7.1209939070178265 11.01987854162784 11.342889188120775
Ag 9.096955346220733 15.778633479465379 11.556351952908155
Ag 12.585512666600222 16.643265154101652 13.399700629262615
Ag 9.99775278959837 14.95269769669178 14.152217050236992
Ag 8.638712623486699 10.526419170176183 13.7592071821826
Ag 11.650671421332612 16.197885283846244 16.000081720331057
Ag 9.759487761843223 10.865562867774361 16.359698314743923
Ag 8.399187156135762 13.231133832040316 12.519849587117653
Ag 10.604389861225874 13.601243234069129 16.597980768073537
Ag 8.29559148143916 12.972576009966074 15.305470385830619
Ag 6.226675706432647 11.912679055827464 13.804992224407792
