52
Energy = -112.49327479 eV
Ag 12.795543494538938 12.66900260462939 16.62679526257056
Ag 13.109541472221839 14.188443799252216 18.886357107040368
Ag 16.626528660993145 10.026097649133613 14.759514751860218
Ag 14.913141873724522 14.677415403336711 16.752434683556967
Ag 12.929523469735093 7.223581571754528 15.111528439377894
Ag 13.735132021373666 9.964256161330823 15.483154454819305
Ag 15.241604803116998 12.362258332304581 15.281364227650347
Ag 10.255567480981608 11.550471308164608 16.57295816066388
Ag 10.441999193285008 13.942636515263533 17.880960368243375
Ag 10.713488010608065 9.206804796572541 15.120526127128201
Ag 15.188274749689825 8.075197357953535 13.480747774635635
Ag 13.2236330816687 14.277236796621308 14.152018175257446
Ag 13.269796778976852 6.422296143852439 12.27147925152879
Ag 12.295738793834454 15.56487774909301 16.583139376111404
Ag 10.69901327409532 6.914036302953438 13.370215429275037
Ag 16.10444152244605 14.7896300676464 14.177742720788332
Ag 14.446976916048726 11.00096611182237 12.877878688573505
Ag 12.492162988435082 9.023302588687816 13.052580680443281
Ag 8.065410275898177 13.317927843059586 16.047572444491557
Ag 9.054559364390398 11.488228079071796 14.113201694914341
Ag 17.171420742192048 12.31846256533944 13.218209666932372
Ag 16.71667192895029 9.84118348315226 11.81806160471071
Ag 11.93509000563862 11.714155127674221 14.062281255890813
Ag 10.446061316858417 14.107816669897696 14.967984500955753
Ag 9.630954044196422 9.348950810218728 12.41060441637027
Ag 14.198112425181654 8.758174170181068 10.857695299055381
Ag 11.76458459775845 11.14290937847042 11.264470389157134
Ag 17.08415571700321 12.271100046468407 10.43592253048694
Ag 8.809510753709523 11.79592772933616 11.350314765435293
Ag 14.272679262706584 16.84841918658813 13.573443967965654
Ag 11.4311326179608 7.944587067705827 10.681823931094096
Ag 10.863104083846784 13.714004562960469 12.147114232308601
Ag 14.814850813708532 13.631015279573726 11.918837996329946
Ag 11.55458603470408 16.684750580613784 14.19672264210477
Ag 14.514340701913115 11.389846118961696 10.014985038919288
Ag 17.356614889698115 14.746028049691992 11.646576505181454
Ag 8.138825866559484 13.951346852314893 13.243113890760503
Ag 12.381855036060891 9.938096656241246 8.836323371807165
Ag 9.651772909461455 9.818960674475827 9.607879262719171
Ag 12.44695929480419 16.234333413896415 11.626327109372564
Ag 12.713723996315615 13.701045853120903 10.040055465226192
Ag 15.12301425760908 16.28494433589333 10.939034705487702
Ag 9.603345458793905 16.19415675426366 12.267102053881272
Ag 13.299163649683768 12.332701153951822 7.698280318773605
Ag 10.279222877121073 12.611297447957144 9.008902410549128
Ag 8.333529841638722 14.33768362197125 10.437075528033098
Ag 15.326766228723427 14.102804045688563 9.126428536934805
Ag 10.617311741054976 15.684513075980565 9.691437105426155
Ag 13.285169310462495 16.25115419464097 8.787263975530688
Ag 11.651875645048692 14.423292463997303 7.294945845080647
Ag 8.926376709053283 14.92515999302268 7.709948316977204
Ag 10.8694362763641 17.078423242002746 7.3593848378961075
