52
Energy = -114.77146965 eV
Ag 17.157805748856212 13.78142081212314 11.516464461893824
Ag 16.988149281109273 11.052161601506455 12.267673239195146
Ag 16.424239579785873 13.081013282359926 14.236719202501517
Ag 17.322828168672125 11.912143422207379 9.466867649285629
Ag 16.332142987153752 10.27271998918609 14.895319732780633
Ag 14.667456025874413 14.414729111135149 12.433124733452134
Ag 15.549056060012006 14.308648218218512 9.102569931416385
Ag 14.22366977865351 14.556565804697112 15.206366383590025
Ag 15.850910005267645 9.644326071293314 10.101404858274456
Ag 15.309519892359127 8.777995593763173 12.8159188143272
Ag 14.799458187133649 12.235499776496043 10.729748444432547
Ag 14.557382887471856 11.89897258934752 16.25009121591157
Ag 14.955613542982073 11.6314996999474 7.9382408740457615
Ag 12.549669368801359 13.471515363443451 17.328615131194827
Ag 13.631149815270776 9.235633113376377 15.034139148921826
Ag 13.218288707078086 13.88299734608169 7.488086845956009
Ag 12.074861786532512 12.740780256333766 11.82553154925899
Ag 12.306443766562058 15.47713245519845 13.175600285800948
Ag 14.15966745430864 11.578586383766801 13.460042983602841
Ag 14.253827681003152 7.3903154619509195 10.669761834216938
Ag 11.732800372780346 15.779431383433888 15.88503099369818
Ag 12.933643101992226 14.75096650246253 10.132787741209118
Ag 13.160256035211873 9.975230760832057 11.269067183557661
Ag 12.551604666244797 7.716264399640923 12.95543001764529
Ag 11.871971828859932 10.906914183778726 16.36481535730644
Ag 13.545754528350459 9.2258581249683 8.53508971194296
Ag 11.42698339517704 10.556969914075939 13.485684417920188
Ag 11.739149832848682 13.146992791387527 14.630920723391231
Ag 10.844830275258076 9.683883818430226 8.073323015064886
Ag 10.552841711406883 8.549577997288011 14.98130664526435
Ag 12.40833130748943 11.767706379708349 9.147958336080634
Ag 9.802474168800318 13.75834627724144 16.58526003154778
Ag 10.30414311329378 15.166246014080066 11.353888556377576
Ag 10.778771658893769 15.065260484779245 8.283774937541665
Ag 9.845005214158553 7.692017988509293 12.2801933001648
Ag 9.612361641051116 15.28056671774218 14.099054612849626
Ag 10.747020139072959 12.366236081775602 7.02929124793349
Ag 11.583883047117544 7.820007455442904 10.105205275490281
Ag 9.39496996189665 12.541908516454596 12.72479109634274
Ag 9.326073685736974 11.301563737171215 15.349756236426648
Ag 10.215974336158542 10.3795845725862 10.878632896319882
Ag 8.399239674474059 9.800611336053349 13.254176887299407
Ag 9.8424383241272 12.937406869788989 9.795717030875263
Ag 7.605536147237301 13.481213400424668 14.852717574602075
Ag 8.39464079853733 10.927881509158096 8.411112437181483
Ag 8.219844367926502 15.397700950795665 9.574200705316139
Ag 7.588738692340346 14.650664635758785 12.211642378762496
Ag 8.269785672571745 13.563005866016168 7.510519494435577
Ag 8.86616060692985 8.302274023563182 9.616599010053879
Ag 6.590831265344354 12.001546948809272 12.72963090877855
Ag 7.196489183283703 10.14783057713216 10.799607209684131
Ag 6.979397413912977 12.85629446936709 10.049640159398484
