6
Energy = -9.537381 eV
Ag 8.043553852554098 7.611704523721817 9.007311269410872
Ag 9.95460380296585 9.371561608225889 9.653681091020514
Ag 7.40038551510116 10.17698955292511 9.648949557287088
Ag 11.804130702711442 11.135075509626542 10.445134155571932
Ag 9.264448465803957 12.109109835092406 10.172996639830638
Ag 12.470363687120015 8.53575283827436 10.012991886845343
