7
Energy = -11.18564162 eV
Ag 8.979093376102044 10.908802580325192 13.391226023062979
Ag 12.132716304345399 9.707412572743452 10.450039974356075
Ag 10.337580851573458 11.735146844992208 11.247208510752728
Ag 9.645754650385733 9.060100035381305 11.50093410273992
Ag 13.051658519661414 12.2461151044316 11.127043855222631
Ag 9.84648283397965 9.864868255495475 8.872028441256731
Ag 11.569538121433116 12.006862005549968 8.820404426092775
