7
Energy = -11.32514087 eV
Ag 11.937336474362612 12.580476623424605 12.982355487906906
Ag 12.909749154767514 13.961557763360949 10.875378252799624
Ag 11.154435539592097 9.897404137010382 9.458316863385026
Ag 10.896397357764767 10.120129984535254 12.133787280830646
Ag 10.641725220606432 12.430192686899701 10.442845836319766
Ag 13.188994519185961 11.1863151011714 10.863147603537174
Ag 10.464302186258811 11.052711208130036 14.61655086341117
