unknown system                          
           1
    19.834393    0.000000    0.000000
     0.000000   19.834393    0.000000
     0.000000    0.000000   19.834393
   Ag
  18
Direct configuration=     1
   0.55399521  0.37195814  0.53646108
   0.62556516  0.54654285  0.70016710
   0.62606998  0.48603120  0.56634187
   0.51714193  0.47476309  0.65827502
   0.37267983  0.41175577  0.49935129
   0.68361916  0.60929902  0.60104150
   0.59291737  0.47537227  0.43584914
   0.48448374  0.38995577  0.41968687
   0.35659026  0.43577390  0.35827652
   0.63398147  0.60378266  0.47526556
   0.48556374  0.49041471  0.52220758
   0.37328908  0.54543280  0.45669569
   0.54418713  0.60061387  0.59280794
   0.39274039  0.44155351  0.62570825
   0.47743284  0.52125707  0.36575422
   0.58700575  0.60026870  0.34649285
   0.49419529  0.61751910  0.46652865
   0.40803371  0.58629792  0.58346367
Direct configuration=     2
   0.55399376  0.37197416  0.53657737
   0.62547461  0.54642354  0.70035963
   0.62631446  0.48603099  0.56655759
   0.51728002  0.47473934  0.65834527
   0.37253532  0.41159651  0.49908412
   0.68385974  0.60947377  0.60091886
   0.59308671  0.47538106  0.43552003
   0.48432941  0.38980470  0.41940517
   0.35681774  0.43585465  0.35846688
   0.63398786  0.60378608  0.47526858
   0.48542930  0.49024638  0.52234631
   0.37302667  0.54545278  0.45649593
   0.54430728  0.60081860  0.59304161
   0.39257089  0.44167206  0.62582433
   0.47730655  0.52113060  0.36566063
   0.58694218  0.60022642  0.34659152
   0.49419291  0.61775461  0.46633308
   0.40803665  0.58622610  0.58357787
Direct configuration=     3
   0.55398940  0.37202222  0.53692625
   0.62520296  0.54606559  0.70093722
   0.62704790  0.48603036  0.56720476
   0.51769428  0.47466808  0.65855600
   0.37210178  0.41111875  0.49828264
   0.68458150  0.60999801  0.60055095
   0.59359474  0.47540744  0.43453269
   0.48386644  0.38935147  0.41856007
   0.35750016  0.43609691  0.35903793
   0.63400702  0.60379636  0.47527767
   0.48502597  0.48974141  0.52276252
   0.37223945  0.54551270  0.45589667
   0.54466770  0.60143278  0.59374262
   0.39206237  0.44202771  0.62617257
   0.47692766  0.52075121  0.36537986
   0.58675146  0.60009958  0.34688756
   0.49418577  0.61846112  0.46574636
   0.40804548  0.58601067  0.58392046
Direct configuration=     4
   0.55398070  0.37211834  0.53762400
   0.62465967  0.54534970  0.70209240
   0.62851478  0.48602909  0.56849910
   0.51852281  0.47452557  0.65897746
   0.37123471  0.41016323  0.49667967
   0.68602500  0.61104648  0.59981513
   0.59461079  0.47546019  0.43255802
   0.48294050  0.38844501  0.41686986
   0.35886499  0.43658142  0.36018004
   0.63404535  0.60381691  0.47529584
   0.48421932  0.48873147  0.52359494
   0.37066500  0.54563254  0.45469815
   0.54538856  0.60266114  0.59514463
   0.39104535  0.44273900  0.62686905
   0.47616988  0.51999243  0.36481832
   0.58637003  0.59984590  0.34747962
   0.49417149  0.61987413  0.46457292
   0.40806313  0.58557979  0.58460564
Direct configuration=     5
   0.55396329  0.37231058  0.53901951
   0.62357308  0.54391793  0.70440276
   0.63144854  0.48602654  0.57108778
   0.52017986  0.47424055  0.65982038
   0.36950056  0.40825217  0.49347373
   0.68891200  0.61314344  0.59834348
   0.59664289  0.47556570  0.42860867
   0.48108862  0.38663209  0.41348945
   0.36159467  0.43755045  0.36246427
   0.63412201  0.60385801  0.47533218
   0.48260602  0.48671160  0.52525979
   0.36751610  0.54587224  0.45230110
   0.54683026  0.60511787  0.59794865
   0.38901129  0.44416159  0.62826202
   0.47465432  0.51847486  0.36369523
   0.58560717  0.59933854  0.34866374
   0.49414293  0.62270017  0.46222605
   0.40809844  0.58471804  0.58597601
Direct configuration=     6
   0.55397272  0.37220640  0.53826327
   0.62416191  0.54469382  0.70315076
   0.62985871  0.48602792  0.56968495
   0.51928189  0.47439501  0.65936360
   0.37044031  0.40928779  0.49521105
   0.68734751  0.61200708  0.59914098
   0.59554168  0.47550852  0.43074886
   0.48209217  0.38761452  0.41532132
   0.36011544  0.43702533  0.36122643
   0.63408047  0.60383574  0.47531249
   0.48348028  0.48780619  0.52435760
   0.36922252  0.54574235  0.45360008
   0.54604899  0.60378655  0.59642913
   0.39011356  0.44339067  0.62750716
   0.47547562  0.51929724  0.36430384
   0.58602057  0.59961349  0.34802206
   0.49415841  0.62116872  0.46349784
   0.40807931  0.58518503  0.58523339
Direct configuration=     7
   0.55395906  0.37263170  0.53822388
   0.62457933  0.54491373  0.70325146
   0.63018997  0.48612920  0.56969478
   0.51913156  0.47405480  0.65928426
   0.37017175  0.40896846  0.49546611
   0.68769704  0.61209516  0.59943590
   0.59544416  0.47542603  0.43059338
   0.48236255  0.38728334  0.41495619
   0.36038563  0.43716229  0.36112192
   0.63396901  0.60367265  0.47556540
   0.48333519  0.48782405  0.52420524
   0.36892652  0.54603848  0.45349252
   0.54617295  0.60408718  0.59657269
   0.38971698  0.44382476  0.62724244
   0.47539502  0.51913615  0.36433738
   0.58568380  0.59944022  0.34824077
   0.49395115  0.62106035  0.46349346
   0.40842037  0.58484382  0.58519703
Direct configuration=     8
   0.55391806  0.37390758  0.53810571
   0.62583159  0.54557348  0.70355356
   0.63118375  0.48643303  0.56972424
   0.51868058  0.47303420  0.65904624
   0.36936609  0.40801047  0.49623126
   0.68874564  0.61235938  0.60032069
   0.59515163  0.47517853  0.43012696
   0.48317368  0.38628978  0.41386080
   0.36119622  0.43757320  0.36080839
   0.63363464  0.60318339  0.47632412
   0.48289991  0.48787764  0.52374816
   0.36803855  0.54692688  0.45316983
   0.54654483  0.60498910  0.59700338
   0.38852722  0.44512701  0.62644827
   0.47515325  0.51865286  0.36443799
   0.58467349  0.59892041  0.34889692
   0.49332939  0.62073525  0.46348033
   0.40944354  0.58382017  0.58508794
Direct configuration=     9
   0.55383606  0.37645935  0.53786936
   0.62833610  0.54689297  0.70415777
   0.63317132  0.48704068  0.56978317
   0.51777861  0.47099300  0.65857020
   0.36775475  0.40609449  0.49776156
   0.69084284  0.61288784  0.60209026
   0.59456655  0.47468355  0.42919413
   0.48479595  0.38430265  0.41167001
   0.36281741  0.43839500  0.36018134
   0.63296590  0.60220486  0.47784157
   0.48202934  0.48798482  0.52283401
   0.36626261  0.54870369  0.45252445
   0.54728859  0.60679292  0.59786476
   0.38614770  0.44773152  0.62485995
   0.47466969  0.51768630  0.36463922
   0.58265287  0.59788079  0.35020921
   0.49208586  0.62008504  0.46345406
   0.41148990  0.58177289  0.58486976
Direct configuration=    10
   0.55387777  0.37516141  0.53798958
   0.62706220  0.54622182  0.70385044
   0.63216036  0.48673160  0.56975320
   0.51823739  0.47203124  0.65881233
   0.36857435  0.40706904  0.49698318
   0.68977611  0.61261904  0.60119018
   0.59486414  0.47493532  0.42966861
   0.48397079  0.38531339  0.41278434
   0.36199280  0.43797699  0.36050028
   0.63330605  0.60270258  0.47706973
   0.48247215  0.48793031  0.52329899
   0.36716593  0.54779993  0.45285272
   0.54691028  0.60587542  0.59742662
   0.38735803  0.44640676  0.62566784
   0.47491565  0.51817794  0.36453687
   0.58368065  0.59840958  0.34954172
   0.49271837  0.62041576  0.46346742
   0.41044903  0.58281423  0.58498074
Direct configuration=    11
   0.55411799  0.37583645  0.53778671
   0.62702900  0.54618320  0.70341232
   0.63234010  0.48725548  0.56973857
   0.51888203  0.47206928  0.65835714
   0.36872740  0.40669015  0.49654146
   0.69029504  0.61267955  0.60163129
   0.59454661  0.47469238  0.42993520
   0.48420762  0.38489404  0.41268460
   0.36231240  0.43791334  0.36053025
   0.63299475  0.60221440  0.47795932
   0.48230272  0.48782408  0.52204420
   0.36685489  0.54796646  0.45284716
   0.54745752  0.60592481  0.59759344
   0.38646807  0.44757451  0.62539909
   0.47462780  0.51780532  0.36484033
   0.58319246  0.59828640  0.35001814
   0.49228411  0.61992088  0.46388733
   0.41085154  0.58286162  0.58516824
Direct configuration=    12
   0.55467065  0.37738941  0.53732000
   0.62695263  0.54609435  0.70240441
   0.63275361  0.48846070  0.56970491
   0.52036506  0.47215679  0.65730992
   0.36907950  0.40581849  0.49552524
   0.69148885  0.61281876  0.60264610
   0.59381612  0.47413347  0.43054852
   0.48475245  0.38392931  0.41245515
   0.36304764  0.43776690  0.36059920
   0.63227859  0.60109130  0.48000588
   0.48191294  0.48757971  0.51915748
   0.36613933  0.54834959  0.45283437
   0.54871648  0.60603844  0.59797721
   0.38442067  0.45026099  0.62478080
   0.47396559  0.51694811  0.36553847
   0.58206935  0.59800301  0.35111417
   0.49128505  0.61878238  0.46485334
   0.41177755  0.58297066  0.58559962
Direct configuration=    13
   0.55559262  0.37761011  0.53731798
   0.62658794  0.54572253  0.70229522
   0.63307649  0.48878012  0.56957851
   0.52018924  0.47224125  0.65561322
   0.36977415  0.40534252  0.49505945
   0.69274978  0.61326065  0.60303322
   0.59398791  0.47390549  0.43083043
   0.48477455  0.38302469  0.41252435
   0.36270996  0.43713035  0.36050352
   0.63180498  0.60067152  0.48050590
   0.48072488  0.48772267  0.51812169
   0.36554538  0.54815026  0.45314760
   0.54898307  0.60602150  0.59817675
   0.38386223  0.45206046  0.62414514
   0.47389194  0.51678537  0.36582148
   0.58163189  0.59800532  0.35223156
   0.49094709  0.61860315  0.46559173
   0.41265797  0.58355441  0.58587705
Direct configuration=    14
   0.55673936  0.37788461  0.53731547
   0.62613435  0.54526006  0.70215942
   0.63347808  0.48917742  0.56942129
   0.51997056  0.47234630  0.65350286
   0.37063815  0.40475052  0.49448009
   0.69431811  0.61381026  0.60351471
   0.59420158  0.47362193  0.43118106
   0.48480203  0.38189953  0.41261043
   0.36228995  0.43633860  0.36038451
   0.63121590  0.60014941  0.48112782
   0.47924717  0.48790049  0.51683339
   0.36480663  0.54790233  0.45353720
   0.54931465  0.60600042  0.59842494
   0.38316765  0.45429863  0.62335451
   0.47380035  0.51658296  0.36617350
   0.58108777  0.59800819  0.35362136
   0.49052672  0.61838022  0.46651013
   0.41375303  0.58428047  0.58622211
Direct configuration=    15
   0.55739593  0.37836361  0.53721255
   0.62579969  0.54475582  0.70213549
   0.63443417  0.48914997  0.56951082
   0.51862287  0.47235719  0.65140106
   0.37095882  0.40379357  0.49475342
   0.69489536  0.61377726  0.60351001
   0.59462259  0.47325088  0.43118361
   0.48482686  0.38117011  0.41271038
   0.36180351  0.43558062  0.36021317
   0.63160076  0.60066499  0.48152219
   0.47872497  0.48678746  0.51668836
   0.36405588  0.54734578  0.45395115
   0.54990670  0.60634612  0.59882402
   0.38278062  0.45527136  0.62249251
   0.47334990  0.51616465  0.36647812
   0.58103473  0.59843045  0.35437030
   0.49040986  0.61932871  0.46683058
   0.41426885  0.58605380  0.58658703
Direct configuration=    16
   0.55783832  0.37868636  0.53714321
   0.62557419  0.54441607  0.70211937
   0.63507837  0.48913147  0.56957114
   0.51771480  0.47236452  0.64998489
   0.37117489  0.40314879  0.49493760
   0.69528432  0.61375503  0.60350685
   0.59490627  0.47300086  0.43118532
   0.48484359  0.38067864  0.41277773
   0.36147574  0.43506990  0.36009773
   0.63186007  0.60101239  0.48178792
   0.47837311  0.48603751  0.51659063
   0.36355002  0.54697079  0.45423006
   0.55030562  0.60657904  0.59909292
   0.38251985  0.45592678  0.62191170
   0.47304639  0.51588279  0.36668338
   0.58099899  0.59871496  0.35487494
   0.49033112  0.61996780  0.46704650
   0.41461640  0.58724865  0.58683291
Direct configuration=    17
   0.55811871  0.37828201  0.53697080
   0.62515516  0.54386090  0.70175839
   0.63549388  0.48908271  0.56971205
   0.51816481  0.47285233  0.65077002
   0.37039254  0.40217270  0.49490871
   0.69470167  0.61318485  0.60365834
   0.59481346  0.47351318  0.43110710
   0.48490795  0.38085760  0.41266569
   0.36159780  0.43496153  0.36057920
   0.63227433  0.60143965  0.48157916
   0.47813728  0.48759113  0.51615920
   0.36410480  0.54652618  0.45469796
   0.55066261  0.60697529  0.59901772
   0.38168812  0.45581108  0.62171155
   0.47316571  0.51602683  0.36732641
   0.58070816  0.59853961  0.35473609
   0.49036084  0.61961647  0.46699661
   0.41504420  0.58729830  0.58601979
Direct configuration=    18
   0.55809771  0.37831228  0.53698371
   0.62518654  0.54390247  0.70178542
   0.63546277  0.48908636  0.56970150
   0.51813111  0.47281581  0.65071123
   0.37045112  0.40224579  0.49491088
   0.69474530  0.61322755  0.60364700
   0.59482041  0.47347482  0.43111296
   0.48490313  0.38084420  0.41267408
   0.36158866  0.43496965  0.36054314
   0.63224331  0.60140766  0.48159479
   0.47815494  0.48747479  0.51619151
   0.36406325  0.54655947  0.45466293
   0.55063588  0.60694562  0.59902335
   0.38175040  0.45581974  0.62172654
   0.47315678  0.51601604  0.36727826
   0.58072994  0.59855274  0.35474649
   0.49035862  0.61964278  0.46700035
   0.41501217  0.58729458  0.58608068
Direct configuration=    19
   0.55797740  0.37879323  0.53664263
   0.62503753  0.54332112  0.70186932
   0.63567640  0.48875294  0.56953659
   0.51777531  0.47314681  0.65087019
   0.37010551  0.40139468  0.49511360
   0.69444508  0.61279891  0.60384839
   0.59483748  0.47398012  0.43124321
   0.48492349  0.38112930  0.41282203
   0.36174505  0.43478418  0.36102290
   0.63265113  0.60185323  0.48124133
   0.47840939  0.48715582  0.51629295
   0.36415259  0.54610003  0.45509508
   0.55091283  0.60743824  0.59883638
   0.38127921  0.45588631  0.62126430
   0.47307170  0.51604021  0.36767647
   0.58058587  0.59854409  0.35452987
   0.49072670  0.61990642  0.46670951
   0.41517939  0.58756671  0.58576004
Direct configuration=    20
   0.55782515  0.37940184  0.53621101
   0.62484896  0.54258545  0.70197550
   0.63594674  0.48833102  0.56932789
   0.51732507  0.47356568  0.65107134
   0.36966815  0.40031766  0.49537013
   0.69406517  0.61225649  0.60410324
   0.59485908  0.47461955  0.43140802
   0.48494926  0.38149007  0.41300925
   0.36194294  0.43454949  0.36163000
   0.63316719  0.60241708  0.48079406
   0.47873139  0.48675219  0.51642133
   0.36426563  0.54551863  0.45564195
   0.55126330  0.60806161  0.59859979
   0.38068295  0.45597055  0.62067937
   0.47296403  0.51607080  0.36818038
   0.58040357  0.59853314  0.35425576
   0.49119248  0.62024004  0.46634148
   0.41539099  0.58791106  0.58535429
Direct configuration=    21
   0.55795258  0.37927902  0.53606610
   0.62480327  0.54198181  0.70207530
   0.63602132  0.48837332  0.56922464
   0.51667206  0.47396106  0.65093895
   0.36971749  0.39964446  0.49563257
   0.69402038  0.61193006  0.60426997
   0.59505183  0.47511563  0.43145807
   0.48493646  0.38160610  0.41312754
   0.36193630  0.43429207  0.36196498
   0.63354349  0.60274681  0.48061224
   0.47831374  0.48669951  0.51660869
   0.36425360  0.54507936  0.45616965
   0.55143637  0.60832405  0.59838475
   0.38039665  0.45630916  0.62017809
   0.47281905  0.51620291  0.36834125
   0.58037673  0.59863351  0.35395749
   0.49152247  0.62036934  0.46622441
   0.41571826  0.58804417  0.58514011
Direct configuration=    22
   0.55816434  0.37907492  0.53582529
   0.62472734  0.54097867  0.70224115
   0.63614525  0.48844363  0.56905304
   0.51558687  0.47461810  0.65071896
   0.36979949  0.39852573  0.49606869
   0.69394595  0.61138758  0.60454705
   0.59537216  0.47594004  0.43154123
   0.48491520  0.38179892  0.41332411
   0.36192527  0.43386427  0.36252167
   0.63416883  0.60329476  0.48031009
   0.47761968  0.48661196  0.51692005
   0.36423361  0.54434939  0.45704659
   0.55172398  0.60876016  0.59802738
   0.37992086  0.45687186  0.61934505
   0.47257812  0.51642244  0.36860860
   0.58033214  0.59880031  0.35346182
   0.49207085  0.62058422  0.46602987
   0.41626211  0.58826538  0.58478416
Direct configuration=    23
   0.55845275  0.37889595  0.53575735
   0.62466829  0.54020951  0.70204838
   0.63576465  0.48872543  0.56902935
   0.51500845  0.47532119  0.65049094
   0.37020657  0.39769571  0.49612647
   0.69426996  0.61117825  0.60481681
   0.59535236  0.47630829  0.43165480
   0.48501202  0.38182281  0.41343254
   0.36178174  0.43349382  0.36276339
   0.63449226  0.60362561  0.48024679
   0.47741178  0.48623186  0.51655715
   0.36388458  0.54396959  0.45765073
   0.55206303  0.60868573  0.59791677
   0.37929122  0.45759708  0.61905422
   0.47239226  0.51671325  0.36858495
   0.58041996  0.59898763  0.35324503
   0.49239836  0.62037921  0.46606770
   0.41662183  0.58875144  0.58493143
Direct configuration=    24
   0.55931796  0.37835904  0.53555352
   0.62449116  0.53790203  0.70147006
   0.63462284  0.48957082  0.56895827
   0.51327316  0.47743046  0.64980690
   0.37142779  0.39520567  0.49629980
   0.69524199  0.61055024  0.60562610
   0.59529295  0.47741304  0.43199551
   0.48530246  0.38189447  0.41375784
   0.36135116  0.43238245  0.36348857
   0.63546256  0.60461818  0.48005686
   0.47678810  0.48509153  0.51546844
   0.36283749  0.54283021  0.45946317
   0.55308016  0.60846244  0.59758492
   0.37740230  0.45977276  0.61818173
   0.47183467  0.51758567  0.36851401
   0.58068343  0.59954960  0.35259467
   0.49338089  0.61976415  0.46618119
   0.41770098  0.59020959  0.58537325
Direct configuration=    25
   0.55929223  0.37898864  0.53554513
   0.62508211  0.53828594  0.70179723
   0.63444199  0.48921745  0.56847152
   0.51247742  0.47740351  0.64983148
   0.37146639  0.39476197  0.49682580
   0.69561922  0.61062366  0.60560551
   0.59477167  0.47725441  0.43171152
   0.48569675  0.38170742  0.41291719
   0.36180791  0.43257395  0.36355641
   0.63551976  0.60473919  0.48023311
   0.47686835  0.48550563  0.51570008
   0.36286116  0.54267640  0.45954040
   0.55345747  0.60880738  0.59791914
   0.37687407  0.46036092  0.61748429
   0.47119475  0.51742650  0.36842509
   0.58072567  0.59935471  0.35333194
   0.49308055  0.61924320  0.46639813
   0.41825458  0.58966149  0.58508082
Direct configuration=    26
   0.55928923  0.37906200  0.53554415
   0.62515096  0.53833067  0.70183536
   0.63442092  0.48917628  0.56841481
   0.51238471  0.47740038  0.64983434
   0.37147088  0.39471027  0.49688709
   0.69566318  0.61063222  0.60560311
   0.59471093  0.47723592  0.43167843
   0.48574269  0.38168563  0.41281924
   0.36186113  0.43259626  0.36356431
   0.63552643  0.60475329  0.48025365
   0.47687770  0.48555388  0.51572707
   0.36286392  0.54265848  0.45954940
   0.55350143  0.60884757  0.59795808
   0.37681252  0.46042945  0.61740303
   0.47112019  0.51740795  0.36841473
   0.58073059  0.59933200  0.35341784
   0.49304556  0.61918250  0.46642341
   0.41831908  0.58959763  0.58504675
Direct configuration=    27
   0.55894656  0.37931583  0.53534205
   0.62535767  0.53846144  0.70158723
   0.63437550  0.48957923  0.56843236
   0.51226019  0.47788457  0.65032047
   0.37206143  0.39406242  0.49694047
   0.69605361  0.61044596  0.60552710
   0.59412188  0.47719535  0.43120817
   0.48601406  0.38155178  0.41215719
   0.36213943  0.43250922  0.36379372
   0.63556752  0.60478094  0.48070232
   0.47705196  0.48524606  0.51540009
   0.36264662  0.54238382  0.45966126
   0.55413390  0.60911562  0.59849266
   0.37573006  0.46107136  0.61678445
   0.47080167  0.51758041  0.36817257
   0.58055260  0.59896600  0.35412152
   0.49288969  0.61879847  0.46651981
   0.41878773  0.58964390  0.58521137
Direct configuration=    28
   0.55865981  0.37952824  0.53517294
   0.62553064  0.53857087  0.70137959
   0.63433750  0.48991642  0.56844706
   0.51215599  0.47828974  0.65072725
   0.37255560  0.39352030  0.49698513
   0.69638032  0.61029009  0.60546349
   0.59362896  0.47716140  0.43081466
   0.48624115  0.38143977  0.41160319
   0.36237230  0.43243638  0.36398568
   0.63560190  0.60480408  0.48107776
   0.47719777  0.48498848  0.51512647
   0.36246478  0.54215399  0.45975486
   0.55466314  0.60933992  0.59893999
   0.37482425  0.46160850  0.61626683
   0.47053514  0.51772472  0.36796994
   0.58040366  0.59865974  0.35471036
   0.49275927  0.61847712  0.46660048
   0.41917988  0.58968262  0.58534912
Direct configuration=    29
   0.55857344  0.37944308  0.53506501
   0.62564366  0.53854796  0.70133591
   0.63414608  0.49003023  0.56839219
   0.51185739  0.47876847  0.65084334
   0.37318725  0.39288468  0.49691683
   0.69692117  0.61024220  0.60548544
   0.59346345  0.47720948  0.43061770
   0.48636318  0.38130595  0.41121368
   0.36237211  0.43222201  0.36413074
   0.63556538  0.60479034  0.48127641
   0.47698347  0.48490130  0.51507555
   0.36237719  0.54188289  0.46000004
   0.55479313  0.60962082  0.59921670
   0.37421260  0.46210853  0.61576528
   0.47026131  0.51791944  0.36773454
   0.58038157  0.59856794  0.35493754
   0.49274299  0.61831264  0.46680389
   0.41964669  0.58983439  0.58556401
Direct configuration=    30
   0.55831431  0.37918761  0.53474125
   0.62598272  0.53847923  0.70120484
   0.63357185  0.49037165  0.56822760
   0.51096157  0.48020467  0.65119160
   0.37508220  0.39097782  0.49671193
   0.69854371  0.61009851  0.60555129
   0.59296692  0.47735371  0.43002685
   0.48672928  0.38090449  0.41004514
   0.36237151  0.43157893  0.36456590
   0.63545584  0.60474913  0.48187233
   0.47634056  0.48463976  0.51492279
   0.36211442  0.54106959  0.46073558
   0.55518308  0.61046353  0.60004684
   0.37237765  0.46360864  0.61426062
   0.46943981  0.51850359  0.36702833
   0.58031531  0.59829256  0.35561908
   0.49269417  0.61781921  0.46741414
   0.42104713  0.59028972  0.58620869
Direct configuration=    31
   0.55829047  0.37908943  0.53444840
   0.62610628  0.53834880  0.70120875
   0.63294979  0.49024545  0.56812276
   0.51013957  0.48099649  0.65085979
   0.37583504  0.38978329  0.49682302
   0.69899275  0.60981927  0.60563159
   0.59299798  0.47743108  0.43031318
   0.48697223  0.38088639  0.40978742
   0.36208566  0.43113990  0.36465820
   0.63543413  0.60481008  0.48199904
   0.47629534  0.48444707  0.51511327
   0.36209096  0.54067872  0.46132369
   0.55560423  0.61098988  0.60013774
   0.37203218  0.46401047  0.61341785
   0.46898351  0.51873357  0.36697618
   0.58048174  0.59862484  0.35527729
   0.49293324  0.61785825  0.46761356
   0.42126695  0.59069940  0.58666306
Direct configuration=    32
   0.55823004  0.37884067  0.53370642
   0.62641936  0.53801833  0.70121866
   0.63137364  0.48992568  0.56785713
   0.50805684  0.48300276  0.65001905
   0.37774255  0.38675662  0.49710447
   0.70013050  0.60911173  0.60583504
   0.59307669  0.47762709  0.43103868
   0.48758779  0.38084052  0.40913443
   0.36136138  0.43002750  0.36489205
   0.63537913  0.60496453  0.48232010
   0.47618075  0.48395883  0.51559590
   0.36203152  0.53968835  0.46281381
   0.55667130  0.61232350  0.60036807
   0.37115684  0.46502861  0.61128246
   0.46782736  0.51931628  0.36684405
   0.58090345  0.59946674  0.35441130
   0.49353899  0.61795716  0.46811883
   0.42182392  0.59173744  0.58781434
Direct configuration=    33
   0.55818706  0.37862767  0.53348024
   0.62637639  0.53787844  0.70113305
   0.63102446  0.48998460  0.56794625
   0.50769435  0.48360439  0.65002646
   0.37820118  0.38600460  0.49716726
   0.70026969  0.60881078  0.60585025
   0.59304763  0.47779992  0.43111040
   0.48770897  0.38091218  0.40897514
   0.36126684  0.42975380  0.36507053
   0.63541840  0.60503391  0.48228125
   0.47616894  0.48393644  0.51552757
   0.36203924  0.53941521  0.46320581
   0.55693132  0.61264054  0.60040877
   0.37089400  0.46519308  0.61074454
   0.46765627  0.51949576  0.36696644
   0.58091305  0.59956165  0.35429029
   0.49370417  0.61792250  0.46819591
   0.42199010  0.59201689  0.58799464
Direct configuration=    34
   0.55805811  0.37798865  0.53280169
   0.62624746  0.53745876  0.70087625
   0.62997691  0.49016137  0.56821358
   0.50660689  0.48540929  0.65004869
   0.37957709  0.38374854  0.49735561
   0.70068727  0.60790792  0.60589586
   0.59296046  0.47831840  0.43132555
   0.48807251  0.38112717  0.40849727
   0.36098321  0.42893268  0.36560598
   0.63553621  0.60524204  0.48216473
   0.47613350  0.48386928  0.51532256
   0.36206237  0.53859578  0.46438181
   0.55771138  0.61359167  0.60053089
   0.37010550  0.46568649  0.60913079
   0.46714300  0.52003419  0.36733361
   0.58094186  0.59984637  0.35392727
   0.49419969  0.61781853  0.46842713
   0.42248865  0.59285522  0.58853555
Direct configuration=    35
   0.55780020  0.37671061  0.53144460
   0.62598959  0.53661940  0.70036264
   0.62788181  0.49051490  0.56874824
   0.50443196  0.48901909  0.65009314
   0.38232891  0.37923641  0.49773230
   0.70152242  0.60610222  0.60598708
   0.59278612  0.47935536  0.43175587
   0.48879959  0.38155714  0.40754154
   0.36041595  0.42729043  0.36667687
   0.63577183  0.60565830  0.48193167
   0.47606262  0.48373495  0.51491254
   0.36210864  0.53695693  0.46673379
   0.55927150  0.61549394  0.60077511
   0.36852850  0.46667331  0.60590328
   0.46611647  0.52111105  0.36806795
   0.58099946  0.60041582  0.35320122
   0.49519074  0.61761059  0.46888958
   0.42348573  0.59453189  0.58961737
Direct configuration=    36
   0.55753379  0.37632649  0.53073462
   0.62561304  0.53626955  0.70041914
   0.62690750  0.49061037  0.56891119
   0.50377049  0.49050958  0.65083279
   0.38359264  0.37756113  0.49801734
   0.70175922  0.60515705  0.60579915
   0.59257996  0.47999438  0.43145647
   0.48904928  0.38196453  0.40690476
   0.36072056  0.42685029  0.36767420
   0.63621845  0.60596230  0.48161179
   0.47657109  0.48338405  0.51469543
   0.36170440  0.53642407  0.46744665
   0.55959828  0.61629020  0.60081123
   0.36775134  0.46702884  0.60450435
   0.46582882  0.52142516  0.36860725
   0.58071720  0.60023000  0.35337845
   0.49553638  0.61752796  0.46905198
   0.42403961  0.59507638  0.58951802
Direct configuration=    37
   0.55673453  0.37517413  0.52860466
   0.62448339  0.53522000  0.70058864
   0.62398457  0.49089679  0.56940003
   0.50178607  0.49498103  0.65305172
   0.38738384  0.37253531  0.49887246
   0.70246963  0.60232153  0.60523536
   0.59196149  0.48191145  0.43055828
   0.48979833  0.38318671  0.40499442
   0.36163441  0.42552985  0.37066616
   0.63755831  0.60687428  0.48065215
   0.47809647  0.48233136  0.51404409
   0.36049167  0.53482551  0.46958520
   0.56057863  0.61867901  0.60091959
   0.36541989  0.46809543  0.60030758
   0.46496590  0.52236748  0.37022514
   0.57987041  0.59967254  0.35391016
   0.49657330  0.61728008  0.46953917
   0.42570122  0.59670985  0.58921999
Direct configuration=    38
   0.55664721  0.37431723  0.52739112
   0.62416248  0.53515097  0.70120152
   0.62225253  0.49078562  0.56898643
   0.50039197  0.49665704  0.65420720
   0.38954745  0.37061615  0.49979832
   0.70263322  0.60080280  0.60483803
   0.59203004  0.48255747  0.42990244
   0.49051560  0.38359511  0.40362817
   0.36211376  0.42543120  0.37258584
   0.63853031  0.60735458  0.48055384
   0.47813746  0.48221631  0.51481371
   0.36008122  0.53431876  0.47027005
   0.56115224  0.61967941  0.60081373
   0.36483741  0.46870014  0.59846475
   0.46411401  0.52253028  0.37080925
   0.57941436  0.59957028  0.35400266
   0.49703795  0.61745922  0.46986968
   0.42589283  0.59684977  0.58823808
Direct configuration=    39
   0.55652426  0.37311057  0.52568225
   0.62371059  0.53505377  0.70206455
   0.61981353  0.49062908  0.56840401
   0.49842885  0.49901713  0.65583431
   0.39259418  0.36791366  0.50110208
   0.70286357  0.59866417  0.60427853
   0.59212657  0.48346718  0.42897890
   0.49152563  0.38417021  0.40170425
   0.36278877  0.42529229  0.37528907
   0.63989905  0.60803092  0.48041540
   0.47819517  0.48205431  0.51589746
   0.35950323  0.53360517  0.47123442
   0.56195997  0.62108814  0.60066467
   0.36401718  0.46955167  0.59586973
   0.46291440  0.52275953  0.37163178
   0.57877217  0.59942627  0.35413291
   0.49769227  0.61771149  0.47033510
   0.42616266  0.59704680  0.58685538
Direct configuration=    40
   0.55641951  0.37213221  0.52388029
   0.62343920  0.53548514  0.70212661
   0.61764107  0.49066718  0.56807136
   0.49725012  0.50023201  0.65710520
   0.39564074  0.36632481  0.50228561
   0.70287199  0.59694779  0.60417291
   0.59223267  0.48344113  0.42879835
   0.49281973  0.38422964  0.40039960
   0.36246787  0.42543049  0.37748433
   0.64054152  0.60822134  0.48036045
   0.47857397  0.48187880  0.51709963
   0.35922450  0.53417311  0.47066992
   0.56238818  0.62135957  0.60047744
   0.36346927  0.46950871  0.59586641
   0.46217214  0.52312522  0.37195038
   0.57825308  0.59997306  0.35382961
   0.49869919  0.61817063  0.47026270
   0.42538731  0.59729155  0.58553400
Direct configuration=    41
   0.55624911  0.37054069  0.52094901
   0.62299774  0.53618684  0.70222756
   0.61410708  0.49072915  0.56753025
   0.49533266  0.50220825  0.65917258
   0.40059663  0.36374020  0.50421087
   0.70288569  0.59415572  0.60400110
   0.59240525  0.48339874  0.42850463
   0.49492487  0.38432632  0.39827732
   0.36194585  0.42565530  0.38105538
   0.64158663  0.60853111  0.48027107
   0.47919017  0.48159329  0.51905521
   0.35877108  0.53509699  0.46975163
   0.56308475  0.62180110  0.60017286
   0.36257799  0.46943882  0.59586101
   0.46096470  0.52372010  0.37246865
   0.57740867  0.60086253  0.35333623
   0.50033717  0.61891751  0.47014494
   0.42412603  0.59768968  0.58338449
Direct configuration=    42
   0.55612114  0.36938218  0.51928746
   0.62222125  0.53672684  0.70162355
   0.61254591  0.49079316  0.56834766
   0.49438387  0.50334768  0.66002543
   0.40493849  0.36298717  0.50519735
   0.70319650  0.59234971  0.60391918
   0.59220468  0.48372757  0.42840042
   0.49478427  0.38450641  0.39669437
   0.36201582  0.42499307  0.38375051
   0.64152229  0.60802014  0.47964248
   0.47822530  0.48205648  0.51950943
   0.35947643  0.53691682  0.46955680
   0.56177573  0.62111044  0.59988648
   0.36263867  0.46869325  0.59681894
   0.46162375  0.52420734  0.37253944