   41   41 1000    2
  0.2693687E+03  0.2226949E-08  0.2226949E-08  0.2226949E-08  0.1000000E-15
  1.000000000000000E-004
  CAR 
 unknown system                          
    451      1    292
 
  0.0000000E+00  0.0000000E+00  0.0000000E+00  0.1000000E+01
    1       -9.666408     -9.652327
    2       -9.234463     -9.225244
    3       -9.112256     -9.105178
    4       -9.039421     -9.032045
    5       -9.028249     -9.020521
    6       -9.000488     -8.988436
    7       -8.960795     -8.950710
    8       -8.937747     -8.929496
    9       -8.914421     -8.905830
   10       -8.886677     -8.880058
   11       -8.874912     -8.867662
   12       -8.841801     -8.832533
   13       -8.820101     -8.810676
   14       -8.805060     -8.796463
   15       -8.785034     -8.776931
   16       -8.754877     -8.746657
   17       -8.730902     -8.722716
   18       -8.714121     -8.704992
   19       -8.694269     -8.685878
   20       -8.689829     -8.679370
   21       -8.677288     -8.667517
   22       -8.623503     -8.613433
   23       -8.620074     -8.610449
   24       -8.607016     -8.597009
   25       -8.577149     -8.569315
   26       -8.563933     -8.554580
   27       -8.537266     -8.526411
   28       -8.522117     -8.511873
   29       -8.512690     -8.501414
   30       -8.487701     -8.475432
   31       -8.475514     -8.468046
   32       -8.467016     -8.459264
   33       -8.429429     -8.419781
   34       -8.421412     -8.411901
   35       -8.407485     -8.399167
   36       -8.402792     -8.392353
   37       -8.355671     -8.347138
   38       -8.347936     -8.340749
   39       -8.331950     -8.323840
   40       -8.308215     -8.299878
   41       -8.302237     -8.294327
   42       -8.296022     -8.286949
   43       -8.277265     -8.268515
   44       -8.247135     -8.239569
   45       -8.233316     -8.225414
   46       -8.225690     -8.215462
   47       -8.211844     -8.201451
   48       -8.202354     -8.192769
   49       -8.185992     -8.178391
   50       -8.143571     -8.135817
   51       -8.130083     -8.119885
   52       -8.129322     -8.119690
   53       -8.102690     -8.093222
   54       -8.085345     -8.077707
   55       -8.069752     -8.060727
   56       -8.064647     -8.056314
   57       -8.040430     -8.032162
   58       -8.033847     -8.024214
   59       -8.023763     -8.013027
   60       -8.011392     -8.002740
   61       -7.981734     -7.974826
   62       -7.968341     -7.961007
   63       -7.954138     -7.943611
   64       -7.934502     -7.924414
   65       -7.917832     -7.909177
   66       -7.915095     -7.907588
   67       -7.904823     -7.895200
   68       -7.880028     -7.874469
   69       -7.873237     -7.863434
   70       -7.847997     -7.841765
   71       -7.823565     -7.813008
   72       -7.814719     -7.808686
   73       -7.810040     -7.801057
   74       -7.794567     -7.788316
   75       -7.764970     -7.758264
   76       -7.759811     -7.752702
   77       -7.751286     -7.744579
   78       -7.726420     -7.716659
   79       -7.705902     -7.699602
   80       -7.700816     -7.693954
   81       -7.696953     -7.689432
   82       -7.672884     -7.664033
   83       -7.668146     -7.661242
   84       -7.647722     -7.639269
   85       -7.625685     -7.618425
   86       -7.616587     -7.608202
   87       -7.589766     -7.581658
   88       -7.577948     -7.570390
   89       -7.565311     -7.556643
   90       -7.558464     -7.549243
   91       -7.549374     -7.540122
   92       -7.542790     -7.535585
   93       -7.516134     -7.508597
   94       -7.484331     -7.477503
   95       -7.477588     -7.469845
   96       -7.462355     -7.453516
   97       -7.447719     -7.440339
   98       -7.437557     -7.427710
   99       -7.427226     -7.418698
  100       -7.414108     -7.406145
  101       -7.405408     -7.397710
  102       -7.386133     -7.378098
  103       -7.375217     -7.366206
  104       -7.364815     -7.356631
  105       -7.346082     -7.338226
  106       -7.333655     -7.324226
  107       -7.317638     -7.310576
  108       -7.294059     -7.287472
  109       -7.281499     -7.275182
  110       -7.263416     -7.255914
  111       -7.250722     -7.242495
  112       -7.218535     -7.210224
  113       -7.205365     -7.197889
  114       -7.185601     -7.179506
  115       -7.177987     -7.171804
  116       -7.148024     -7.140503
  117       -7.142611     -7.135396
  118       -7.110515     -7.105376
  119       -7.107340     -7.098635
  120       -7.089152     -7.080413
  121       -7.077973     -7.070827
  122       -7.065901     -7.058157
  123       -7.044378     -7.038459
  124       -7.032168     -7.025626
  125       -7.014074     -7.007267
  126       -7.002768     -6.997048
  127       -6.996631     -6.989920
  128       -6.977357     -6.969914
  129       -6.973571     -6.966936
  130       -6.954975     -6.949739
  131       -6.944846     -6.936801
  132       -6.932065     -6.925546
  133       -6.926248     -6.919060
  134       -6.901144     -6.894623
  135       -6.889781     -6.884312
  136       -6.880348     -6.871118
  137       -6.865117     -6.858804
  138       -6.859442     -6.850993
  139       -6.854949     -6.846783
  140       -6.844591     -6.837625
  141       -6.830079     -6.823586
  142       -6.818875     -6.811028
  143       -6.806611     -6.799037
  144       -6.793421     -6.787735
  145       -6.783206     -6.775121
  146       -6.776878     -6.770777
  147       -6.769124     -6.761281
  148       -6.757968     -6.747906
  149       -6.740149     -6.734112
  150       -6.732755     -6.725896
  151       -6.726611     -6.719048
  152       -6.714894     -6.708643
  153       -6.705569     -6.698290
  154       -6.689456     -6.683991
  155       -6.688273     -6.683527
  156       -6.679282     -6.671705
  157       -6.672662     -6.667767
  158       -6.667654     -6.661609
  159       -6.651003     -6.644596
  160       -6.644126     -6.637430
  161       -6.639529     -6.633806
  162       -6.617515     -6.609998
  163       -6.611455     -6.604769
  164       -6.604508     -6.597552
  165       -6.590217     -6.585043
  166       -6.579286     -6.571990
  167       -6.571771     -6.565272
  168       -6.563355     -6.555664
  169       -6.555195     -6.547213
  170       -6.538825     -6.530881
  171       -6.531557     -6.524450
  172       -6.521103     -6.513873
  173       -6.513343     -6.508354
  174       -6.510988     -6.503129
  175       -6.490236     -6.484688
  176       -6.485582     -6.479717
  177       -6.479951     -6.472490
  178       -6.470197     -6.462529
  179       -6.458430     -6.452988
  180       -6.452496     -6.447179
  181       -6.450133     -6.443364
  182       -6.432422     -6.426414
  183       -6.414854     -6.409751
  184       -6.409314     -6.403872
  185       -6.402196     -6.396280
  186       -6.394221     -6.387656
  187       -6.385947     -6.379202
  188       -6.376155     -6.370021
  189       -6.374572     -6.367156
  190       -6.355984     -6.350120
  191       -6.348500     -6.343385
  192       -6.337715     -6.331267
  193       -6.314373     -6.307388
  194       -6.297166     -6.289702
  195       -6.290044     -6.283346
  196       -6.279289     -6.273742
  197       -6.272609     -6.265179
  198       -6.257923     -6.251507
  199       -6.247025     -6.239627
  200       -6.231528     -6.225111
  201       -6.224076     -6.217221
  202       -6.210842     -6.203584
  203       -6.186915     -6.179530
  204       -6.178037     -6.173393
  205       -6.164563     -6.158103
  206       -6.151170     -6.145049
  207       -6.105313     -6.100352
  208       -6.102651     -6.097196
  209       -6.086989     -6.081658
  210       -6.085836     -6.076336
  211       -5.943515     -5.929500
  212       -5.853529     -5.834967
  213       -5.688590     -5.680079
  214       -5.472176     -5.454357
  215       -5.093588     -5.077838
  216       -5.023922     -4.993610
  217       -4.774466     -4.755990
  218       -4.711651     -4.673722
  219       -4.430310     -4.410632
  220       -4.335356     -4.319042
  221       -4.085869     -4.071995
  222       -3.938327     -3.918776
  223       -3.659091     -3.639196
  224       -3.431245     -3.408867
  225       -3.385626     -3.367086
  226       -3.307567     -3.227547
  227       -3.104651     -3.079383
  228       -2.967952     -2.949487
  229       -2.872118     -2.852505
  230       -2.813732     -2.796100
  231       -2.594791     -2.575894
  232       -2.506837     -2.484954
  233       -2.251525     -2.226739
  234       -2.237416     -2.214041
  235       -2.089054     -2.064744
  236       -1.971698     -1.950946
  237       -1.933476     -1.906082
  238       -1.767036     -1.745718
  239       -1.706334     -1.681337
  240       -1.666521     -1.640785
  241       -1.575457     -1.537396
  242       -1.459472     -1.435896
  243       -1.376859     -1.343136
  244       -1.294095     -1.256964
  245       -1.251661     -1.216100
  246       -1.099667     -1.080118
  247       -1.003251     -0.985297
  248       -0.884374     -0.857669
  249       -0.756251     -0.735954
  250       -0.700806     -0.686009
  251       -0.611492     -0.591054
  252       -0.546032     -0.526600
  253       -0.372190     -0.352089
  254       -0.307019     -0.274082
  255       -0.252867     -0.230566
  256       -0.146354     -0.111094
  257       -0.092293     -0.061863
  258        0.046432      0.076354
  259        0.132621      0.150590
  260        0.245980      0.279340
  261        0.331493      0.346276
  262        0.372743      0.409312
  263        0.459369      0.477066
  264        0.531547      0.573339
  265        0.571983      0.595273
  266        0.646751      0.665176
  267        0.720386      0.732368
  268        0.734102      0.742357
  269        0.765073      0.786291
  270        0.825055      0.841344
  271        0.838815      0.849294
  272        0.848060      0.882311
  273        0.894722      0.919190
  274        0.957226      0.957763
  275        0.984936      0.995613
  276        0.988323      1.024709
  277        1.053584      1.052093
  278        1.060742      1.092301
  279        1.084619      1.104068
  280        1.143877      1.134945
  281        1.166835      1.166172
  282        1.168577      1.187470
  283        1.203618      1.190920
  284        1.232974      1.238636
  285        1.240101      1.270923
  286        1.268607      1.282506
  287        1.297114      1.315289
  288        1.302506      1.319609
  289        1.353074      1.377369
  290        1.392263      1.384670
  291        1.415278      1.433036
  292        1.437774      1.456802
