 running on   64 total cores
 distrk:  each k-point on   64 cores,    1 groups
 distr:  one band on   16 cores,    4 groups
 using from now: INCAR     
 vasp.5.3.5 31Mar14 (build Feb 01 2018 12:10:03) gamma-only                     
  
 POSCAR found type information on POSCAR  Ag
 POSCAR found :  1 types and      52 ions
 scaLAPACK will be used

 ----------------------------------------------------------------------------- 
|                                                                             |
|  ADVICE TO THIS USER RUNNING 'VASP/VAMP'   (HEAR YOUR MASTER'S VOICE ...):  |
|                                                                             |
|      You have a (more or less) 'large supercell' and for larger cells       |
|      it might be more efficient to use real space projection opertators     |
|      So try LREAL= Auto  in the INCAR   file.                               |
|      Mind: At the moment your POTCAR file does not contain real space       |
|       projectors, and has to be modified,  BUT if you                       |
|      want to do an extremely  accurate calculation you might also keep the  |
|      reciprocal projection scheme          (i.e. LREAL=.FALSE.)             |
|                                                                             |
 ----------------------------------------------------------------------------- 

 LDA part: xc-table for Pade appr. of Perdew
 POSCAR, INCAR and KPOINTS ok, starting setup
 WARNING: small aliasing (wrap around) errors must be expected
 FFT: planning ...
 WAVECAR not read
 entering main loop
       N       E                     dE             d eps       ncg     rms          rms(c)
DAV:   1     0.477197095027E+04    0.47720E+04   -0.12197E+05  1520   0.624E+02
DAV:   2     0.695975690156E+03   -0.40760E+04   -0.36798E+04  2368   0.174E+02
DAV:   3    -0.819323147165E+02   -0.77791E+03   -0.72054E+03  1840   0.808E+01
DAV:   4    -0.109519798693E+03   -0.27587E+02   -0.27366E+02  1640   0.163E+01
DAV:   5    -0.109928737375E+03   -0.40894E+00   -0.40842E+00  1672   0.228E+00    0.485E+01
DAV:   6    -0.463511878942E+02    0.63578E+02   -0.19434E+02  1508   0.168E+01    0.274E+01
DAV:   7    -0.378720313216E+02    0.84792E+01   -0.12318E+01  1560   0.631E+00    0.161E+01
DAV:   8    -0.272537929583E+02    0.10618E+02   -0.45956E+00  1600   0.381E+00    0.797E+00
DAV:   9    -0.329560178149E+02   -0.57022E+01   -0.10188E+00  1632   0.142E+00    0.548E+00
DAV:  10    -0.478642535585E+02   -0.14908E+02   -0.42046E+00  1544   0.245E+00    0.408E+00
DAV:  11    -0.710446863488E+02   -0.23180E+02   -0.11964E+01  1528   0.363E+00    0.368E+00
DAV:  12    -0.745917554355E+02   -0.35471E+01   -0.93210E-01  1704   0.121E+00    0.288E+00
DAV:  13    -0.849574538617E+02   -0.10366E+02   -0.45035E+00  1548   0.247E+00    0.242E+00
DAV:  14    -0.895600467783E+02   -0.46026E+01   -0.11354E+00  1592   0.154E+00    0.229E+00
DAV:  15    -0.919767539690E+02   -0.24167E+01   -0.37020E-01  1600   0.101E+00    0.178E+00
DAV:  16    -0.971837898061E+02   -0.52070E+01   -0.12177E+00  1520   0.105E+00    0.120E+00
DAV:  17    -0.101272539075E+03   -0.40887E+01   -0.70873E-01  1512   0.704E-01    0.847E-01
DAV:  18    -0.103576377732E+03   -0.23038E+01   -0.19142E-01  1552   0.409E-01    0.582E-01
DAV:  19    -0.105950634562E+03   -0.23743E+01   -0.16685E-01  1544   0.500E-01    0.289E-01
DAV:  20    -0.106602318654E+03   -0.65168E+00   -0.29536E-02  1576   0.349E-01    0.119E+00
DAV:  21    -0.106599805526E+03    0.25131E-02   -0.18350E-03  1640   0.783E-02    0.116E+00
DAV:  22    -0.106601713687E+03   -0.19082E-02   -0.37796E-05  1048   0.128E-02    0.115E+00
DAV:  23    -0.106608644845E+03   -0.69312E-02   -0.15205E-03  1560   0.108E-01    0.103E+00
DAV:  24    -0.106724160299E+03   -0.11552E+00   -0.16424E-02  1528   0.333E-01    0.707E-01
DAV:  25    -0.106867452073E+03   -0.14329E+00   -0.10737E-02  1552   0.216E-01    0.509E-01
DAV:  26    -0.106977838557E+03   -0.11039E+00   -0.32672E-03  1568   0.118E-01    0.367E-01
DAV:  27    -0.107037758169E+03   -0.59920E-01   -0.24459E-03  1580   0.932E-02    0.215E-01
DAV:  28    -0.107072581241E+03   -0.34823E-01   -0.11475E-03  1280   0.467E-02    0.998E-02
DAV:  29    -0.107092652649E+03   -0.20071E-01   -0.49539E-04  1080   0.371E-02    0.559E-02
DAV:  30    -0.107102548609E+03   -0.98960E-02   -0.37542E-04  1048   0.315E-02    0.212E-02
DAV:  31    -0.107110453077E+03   -0.79045E-02   -0.20747E-04  1056   0.161E-02    0.219E-02
DAV:  32    -0.107115251566E+03   -0.47985E-02   -0.15146E-04  1040   0.970E-03    0.256E-02
DAV:  33    -0.107117865746E+03   -0.26142E-02   -0.11308E-04  1024   0.757E-03    0.230E-02
DAV:  34    -0.107119615886E+03   -0.17501E-02   -0.14526E-04  1040   0.994E-03    0.182E-02
DAV:  35    -0.107120351466E+03   -0.73558E-03   -0.23809E-04  1008   0.137E-02    0.108E-02
DAV:  36    -0.107120633557E+03   -0.28209E-03   -0.19775E-04  1016   0.118E-02    0.609E-03
DAV:  37    -0.107120735714E+03   -0.10216E-03   -0.18400E-04  1032   0.770E-03    0.685E-03
DAV:  38    -0.107120782831E+03   -0.47117E-04   -0.14775E-04   992   0.840E-03
   1 F= -.10712078E+03 E0= -.10712078E+03  d E =-.107121E+03  mag=     0.0027
 curvature:   0.00 expect dE= 0.000E+00 dE for cont linesearch  0.000E+00
 trial: gam= 0.00000 g(F)=  0.103E+01 g(S)=  0.000E+00 ort = 0.000E+00 (trialstep = 0.100E+01)
 search vector abs. value=  0.103E+01
 bond charge predicted
       N       E                     dE             d eps       ncg     rms          rms(c)
DAV:   1    -0.108028893705E+03   -0.90816E+00   -0.70093E+01  1496   0.118E+01    0.120E+00
DAV:   2    -0.108060462019E+03   -0.31568E-01   -0.33214E-01  1536   0.112E+00    0.868E-01
DAV:   3    -0.108059157399E+03    0.13046E-02   -0.12801E-02  1560   0.225E-01    0.309E-01
DAV:   4    -0.108059145978E+03    0.11420E-04   -0.21699E-03  1576   0.154E-01    0.652E-02
DAV:   5    -0.108059089017E+03    0.56961E-04   -0.42901E-04  1064   0.691E-02
   2 F= -.10805909E+03 E0= -.10805909E+03  d E =-.938306E+00  mag=     0.0013
 ZBRENT: can't locate minimum, use default step
 trial-energy change:   -0.938306  1 .order   -0.940284   -1.032243   -0.848325
 step:   4.0000(harm=  5.6125)  dis= 0.10141  next Energy=  -110.017523 (dE=-0.290E+01)
 bond charge predicted
       N       E                     dE             d eps       ncg     rms          rms(c)
DAV:   1    -0.109624965379E+03   -0.15658E+01   -0.63669E+02  1488   0.358E+01    0.278E+00
DAV:   2    -0.109907832029E+03   -0.28287E+00   -0.29778E+00  1560   0.340E+00    0.223E+00
DAV:   3    -0.109898082851E+03    0.97492E-02   -0.72917E-02  1552   0.549E-01    0.120E+00
DAV:   4    -0.109896061455E+03    0.20214E-02   -0.29087E-02  1544   0.423E-01    0.225E-01
DAV:   5    -0.109895166545E+03    0.89491E-03   -0.58667E-03  1536   0.269E-01    0.996E-02
DAV:   6    -0.109894970099E+03    0.19645E-03   -0.12793E-03  1600   0.723E-02    0.533E-02
DAV:   7    -0.109895018695E+03   -0.48596E-04   -0.32071E-04  1152   0.277E-02
   3 F= -.10989502E+03 E0= -.10989502E+03  d E =-.277424E+01  mag=     0.0005
 curvature:  -2.46 expect dE=-0.599E+00 dE for cont linesearch -0.381E+00
 ZBRENT: increasing intervall
 opt :  10.0000  next Energy=  -109.597953 (dE=-0.248E+01)
 bond charge predicted
       N       E                     dE             d eps       ncg     rms          rms(c)
DAV:   1    -0.109151341652E+03    0.74363E+00   -0.26267E+03  1488   0.741E+01    0.379E+00
DAV:   2    -0.110384900064E+03   -0.12336E+01   -0.12919E+01  1536   0.731E+00    0.355E+00
DAV:   3    -0.110376175484E+03    0.87246E-02   -0.22694E-01  1576   0.950E-01    0.261E+00
DAV:   4    -0.110350158033E+03    0.26017E-01   -0.10625E-01  1560   0.706E-01    0.110E+00
DAV:   5    -0.110348053619E+03    0.21044E-02   -0.49693E-02  1552   0.692E-01    0.351E-01
DAV:   6    -0.110348082210E+03   -0.28591E-04   -0.54889E-03  1552   0.237E-01    0.196E-01
DAV:   7    -0.110347843049E+03    0.23916E-03   -0.18726E-03  1576   0.704E-02    0.899E-02
DAV:   8    -0.110347949081E+03   -0.10603E-03   -0.43303E-04  1064   0.644E-02    0.427E-02
DAV:   9    -0.110348094525E+03   -0.14544E-03   -0.95096E-05  1024   0.164E-02    0.178E-02
DAV:  10    -0.110348226605E+03   -0.13208E-03   -0.22830E-05  1016   0.885E-03    0.983E-03
DAV:  11    -0.110348384486E+03   -0.15788E-03   -0.17655E-05  1016   0.542E-03    0.505E-03
DAV:  12    -0.110348528555E+03   -0.14407E-03   -0.14784E-05  1024   0.415E-03    0.387E-03
DAV:  13    -0.110348708997E+03   -0.18044E-03   -0.31296E-05  1004   0.466E-03    0.317E-03
DAV:  14    -0.110348799393E+03   -0.90396E-04   -0.66754E-06  1040   0.215E-03
   4 F= -.11034880E+03 E0= -.11034880E+03  d E =-.322802E+01  mag=     0.0000
 curvature:   1.92 expect dE= 0.874E+00 dE for cont linesearch  0.805E-01
 ZBRENT: bracketing found
 ZBRENT: interpolating
 opt :   7.9461  next Energy=  -110.562302 (dE=-0.344E+01)
 bond charge predicted
       N       E                     dE             d eps       ncg     rms          rms(c)
DAV:   1    -0.110458520501E+03   -0.10981E+00   -0.29654E+02  1488   0.242E+01    0.142E+00
DAV:   2    -0.110596052066E+03   -0.13753E+00   -0.14725E+00  1544   0.236E+00    0.932E-01
DAV:   3    -0.110592692469E+03    0.33596E-02   -0.32331E-02  1568   0.369E-01    0.565E-01
DAV:   4    -0.110591448617E+03    0.12439E-02   -0.11010E-02  1552   0.241E-01    0.146E-01
DAV:   5    -0.110591363264E+03    0.85353E-04   -0.13996E-03  1552   0.143E-01    0.573E-02
DAV:   6    -0.110591321684E+03    0.41580E-04   -0.30224E-04  1160   0.373E-02
   5 F= -.11059132E+03 E0= -.11059132E+03  d E =-.347054E+01  mag=     0.0000
 curvature:  -5.10 expect dE=-0.137E+01 dE for cont linesearch -0.334E-02
 trial: gam= 0.28627 g(F)=  0.269E+00 g(S)=  0.000E+00 ort =-0.260E-01 (trialstep = 0.239E+01)
 search vector abs. value=  0.339E+00
 bond charge predicted
       N       E                     dE             d eps       ncg     rms          rms(c)
DAV:   1    -0.111082212259E+03   -0.49085E+00   -0.13038E+02  1488   0.161E+01    0.104E+00
DAV:   2    -0.111139128934E+03   -0.56917E-01   -0.57847E-01  1536   0.151E+00    0.759E-01
DAV:   3    -0.111136840094E+03    0.22888E-02   -0.12427E-02  1560   0.259E-01    0.448E-01
DAV:   4    -0.111136379373E+03    0.46072E-03   -0.70011E-03  1548   0.174E-01    0.923E-02
DAV:   5    -0.111136163154E+03    0.21622E-03   -0.79184E-04  1584   0.869E-02    0.431E-02
DAV:   6    -0.111136139778E+03    0.23375E-04   -0.20134E-04  1008   0.279E-02
   6 F= -.11113614E+03 E0= -.11113614E+03  d E =-.544818E+00  mag=     0.0000
 ZBRENT: can't locate minimum, use default step
 trial-energy change:   -0.544818  1 .order   -0.546136   -0.626077   -0.466195
 step:   9.5568(harm=  9.3558)  dis= 0.11782  next Energy=  -111.955067 (dE=-0.136E+01)
 bond charge predicted
       N       E                     dE             d eps       ncg     rms          rms(c)
DAV:   1    -0.111446144569E+03   -0.30998E+00   -0.11927E+03  1488   0.494E+01    0.246E+00
DAV:   2    -0.111972856683E+03   -0.52671E+00   -0.53458E+00  1524   0.467E+00    0.202E+00
DAV:   3    -0.111961626299E+03    0.11230E-01   -0.90179E-02  1556   0.675E-01    0.147E+00
DAV:   4    -0.111949528388E+03    0.12098E-01   -0.64993E-02  1560   0.436E-01    0.333E-01
DAV:   5    -0.111949148409E+03    0.37998E-03   -0.47388E-03  1560   0.245E-01    0.134E-01
DAV:   6    -0.111948894932E+03    0.25348E-03   -0.92380E-04  1552   0.738E-02    0.792E-02
DAV:   7    -0.111948938139E+03   -0.43207E-04   -0.43915E-04  1528   0.299E-02
   7 F= -.11194894E+03 E0= -.11194894E+03  d E =-.135762E+01  mag=     0.0000
 curvature:  -6.05 expect dE=-0.233E+00 dE for cont linesearch -0.301E-01
 ZBRENT: extrapolating
 opt :  11.4678  next Energy=  -111.988183 (dE=-0.140E+01)
 bond charge predicted
       N       E                     dE             d eps       ncg     rms          rms(c)
DAV:   1    -0.111963084841E+03   -0.14190E-01   -0.83324E+01  1488   0.129E+01    0.572E-01
DAV:   2    -0.111999796340E+03   -0.36711E-01   -0.37419E-01  1552   0.121E+00    0.434E-01
DAV:   3    -0.111998812216E+03    0.98412E-03   -0.63062E-03  1544   0.178E-01    0.305E-01
DAV:   4    -0.111998123302E+03    0.68891E-03   -0.43839E-03  1536   0.112E-01    0.675E-02
DAV:   5    -0.111998137803E+03   -0.14502E-04   -0.20890E-04   976   0.514E-02
   8 F= -.11199814E+03 E0= -.11199814E+03  d E =-.140682E+01  mag=     0.0000
 curvature:  -7.89 expect dE=-0.328E+00 dE for cont linesearch -0.281E-02
 ZBRENT: extrapolating
 opt :  12.2075  next Energy=  -112.001959 (dE=-0.141E+01)
 bond charge predicted
       N       E                     dE             d eps       ncg     rms          rms(c)
DAV:   1    -0.111995892756E+03    0.22305E-02   -0.12442E+01  1488   0.497E+00    0.217E-01
DAV:   2    -0.112001468980E+03   -0.55762E-02   -0.56965E-02  1576   0.471E-01    0.154E-01
DAV:   3    -0.112001369472E+03    0.99508E-04   -0.95659E-04  1544   0.697E-02
   9 F= -.11200137E+03 E0= -.11200137E+03  d E =-.141005E+01  mag=     0.0000
 curvature: -10.73 expect dE=-0.484E+00 dE for cont linesearch -0.198E-03
 trial: gam= 0.17784 g(F)=  0.451E-01 g(S)=  0.000E+00 ort =-0.250E-02 (trialstep = 0.435E+01)
 search vector abs. value=  0.549E-01
 bond charge predicted
       N       E                     dE             d eps       ncg     rms          rms(c)
DAV:   1    -0.112138991931E+03   -0.13752E+00   -0.69960E+01  1488   0.118E+01    0.512E-01
DAV:   2    -0.112170152520E+03   -0.31161E-01   -0.31847E-01  1560   0.112E+00    0.414E-01
DAV:   3    -0.112169497158E+03    0.65536E-03   -0.52813E-03  1616   0.147E-01    0.277E-01
DAV:   4    -0.112168883216E+03    0.61394E-03   -0.30425E-03  1584   0.859E-02    0.660E-02
DAV:   5    -0.112168904485E+03   -0.21269E-04   -0.10520E-04  1016   0.285E-02
  10 F= -.11216890E+03 E0= -.11216890E+03  d E =-.167535E+00  mag=     0.0000
 ZBRENT: can't locate minimum, use default step
 trial-energy change:   -0.167535  1 .order   -0.168092   -0.194202   -0.141981
 step:  17.4114(harm= 16.1875)  dis= 0.07836  next Energy=  -112.417003 (dE=-0.416E+00)
 bond charge predicted
       N       E                     dE             d eps       ncg     rms          rms(c)
DAV:   1    -0.112093174362E+03    0.75709E-01   -0.63466E+02  1488   0.358E+01    0.139E+00
DAV:   2    -0.112378544674E+03   -0.28537E+00   -0.29074E+00  1552   0.340E+00    0.117E+00
DAV:   3    -0.112374081109E+03    0.44636E-02   -0.45515E-02  1584   0.426E-01    0.837E-01
DAV:   4    -0.112366589456E+03    0.74917E-02   -0.22817E-02  1592   0.240E-01    0.287E-01
DAV:   5    -0.112366563561E+03    0.25895E-04   -0.26066E-03  1616   0.120E-01    0.993E-02
DAV:   6    -0.112366456707E+03    0.10685E-03   -0.30738E-04  1056   0.490E-02    0.643E-02
DAV:   7    -0.112366488712E+03   -0.32006E-04   -0.40934E-04  1432   0.334E-02
  11 F= -.11236649E+03 E0= -.11236649E+03  d E =-.365119E+00  mag=     0.0000
 curvature:  -9.85 expect dE=-0.163E+00 dE for cont linesearch -0.344E-03
 trial: gam= 0.39072 g(F)=  0.166E-01 g(S)=  0.000E+00 ort =-0.138E-02 (trialstep = 0.696E+01)
 search vector abs. value=  0.239E-01
 bond charge predicted
       N       E                     dE             d eps       ncg     rms          rms(c)
DAV:   1    -0.112430827632E+03   -0.64371E-01   -0.77412E+01  1496   0.124E+01    0.352E-01
DAV:   2    -0.112465146284E+03   -0.34319E-01   -0.34646E-01  1528   0.117E+00    0.325E-01
DAV:   3    -0.112464584304E+03    0.56198E-03   -0.56332E-03  1584   0.155E-01    0.236E-01
DAV:   4    -0.112463496049E+03    0.10883E-02   -0.19508E-03  1552   0.745E-02    0.127E-01
DAV:   5    -0.112463438448E+03    0.57601E-04   -0.15202E-03  1544   0.709E-02    0.431E-02
DAV:   6    -0.112463470489E+03   -0.32041E-04   -0.59970E-05   976   0.221E-02
  12 F= -.11246347E+03 E0= -.11246347E+03  d E =-.969818E-01  mag=    -0.0000
 trial-energy change:   -0.096982  1 .order   -0.096912   -0.111537   -0.082286
 step:  26.5567(harm= 26.5567)  dis= 0.08078  next Energy=  -112.579141 (dE=-0.213E+00)
 bond charge predicted
       N       E                     dE             d eps       ncg     rms          rms(c)
DAV:   1    -0.112303604580E+03    0.15983E+00   -0.61858E+02  1488   0.353E+01    0.111E+00
DAV:   2    -0.112583699136E+03   -0.28009E+00   -0.28329E+00  1528   0.335E+00    0.907E-01
DAV:   3    -0.112578699290E+03    0.49998E-02   -0.46749E-02  1576   0.450E-01    0.634E-01
DAV:   4    -0.112570975659E+03    0.77236E-02   -0.14502E-02  1552   0.212E-01    0.335E-01
DAV:   5    -0.112570234858E+03    0.74080E-03   -0.89999E-03  1544   0.185E-01    0.102E-01
DAV:   6    -0.112570248015E+03   -0.13156E-04   -0.49878E-04  1072   0.686E-02
  13 F= -.11257025E+03 E0= -.11257025E+03  d E =-.203759E+00  mag=     0.0000
 curvature: -19.78 expect dE=-0.350E+00 dE for cont linesearch -0.133E-03
 trial: gam= 1.05453 g(F)=  0.177E-01 g(S)=  0.000E+00 ort =-0.401E-03 (trialstep = 0.598E+01)
 search vector abs. value=  0.434E-01
 bond charge predicted
       N       E                     dE             d eps       ncg     rms          rms(c)
DAV:   1    -0.112618178908E+03   -0.47944E-01   -0.10362E+02  1488   0.144E+01    0.360E-01
DAV:   2    -0.112664165457E+03   -0.45987E-01   -0.46532E-01  1536   0.136E+00    0.333E-01
DAV:   3    -0.112663377261E+03    0.78820E-03   -0.79224E-03  1560   0.196E-01    0.243E-01
DAV:   4    -0.112662255120E+03    0.11221E-02   -0.13498E-03  1560   0.673E-02    0.159E-01
DAV:   5    -0.112661944230E+03    0.31089E-03   -0.33644E-03  1536   0.949E-02    0.430E-02
DAV:   6    -0.112662030882E+03   -0.86652E-04   -0.69869E-05   992   0.222E-02
  14 F= -.11266203E+03 E0= -.11266203E+03  d E =-.917829E-01  mag=     0.0000
 ZBRENT: can't locate minimum, use default step
 trial-energy change:   -0.091783  1 .order   -0.093009   -0.103426   -0.082593
 step:  23.9323(harm= 29.7035)  dis= 0.11416  next Energy=  -112.826981 (dE=-0.257E+00)
 bond charge predicted
       N       E                     dE             d eps       ncg     rms          rms(c)
DAV:   1    -0.112390744340E+03    0.27120E+00   -0.94613E+02  1488   0.438E+01    0.141E+00
DAV:   2    -0.112824766678E+03   -0.43402E+00   -0.44045E+00  1536   0.420E+00    0.102E+00
DAV:   3    -0.112815768108E+03    0.89986E-02   -0.75100E-02  1584   0.606E-01    0.695E-01
DAV:   4    -0.112805069595E+03    0.10699E-01   -0.16065E-02  1560   0.226E-01    0.398E-01
DAV:   5    -0.112802697187E+03    0.23724E-02   -0.15812E-02  1544   0.224E-01    0.104E-01
DAV:   6    -0.112802831350E+03   -0.13416E-03   -0.54626E-04  1240   0.739E-02    0.753E-02
DAV:   7    -0.112803123040E+03   -0.29169E-03   -0.23595E-04  1008   0.255E-02    0.224E-02
DAV:   8    -0.112803324132E+03   -0.20109E-03   -0.47871E-05  1032   0.122E-02    0.109E-02
DAV:   9    -0.112803511709E+03   -0.18758E-03   -0.20932E-05   968   0.562E-03    0.641E-03
DAV:  10    -0.112803734069E+03   -0.22236E-03   -0.24107E-05  1008   0.362E-03    0.425E-03
DAV:  11    -0.112803944847E+03   -0.21078E-03   -0.23643E-05   976   0.279E-03    0.356E-03
DAV:  12    -0.112804196964E+03   -0.25212E-03   -0.40143E-05  1000   0.328E-03    0.281E-03
DAV:  13    -0.112804439057E+03   -0.24209E-03   -0.48595E-05   984   0.333E-03    0.197E-03
DAV:  14    -0.112804529525E+03   -0.90468E-04   -0.91252E-06  1008   0.162E-03
  15 F= -.11280453E+03 E0= -.11280453E+03  d E =-.234282E+00  mag=    -0.0000
 curvature: -35.07 expect dE=-0.445E+00 dE for cont linesearch -0.279E-02
 trial: gam= 0.45699 g(F)=  0.127E-01 g(S)=  0.000E+00 ort = 0.186E-02 (trialstep = 0.957E+01)
 search vector abs. value=  0.234E-01
 bond charge predicted
       N       E                     dE             d eps       ncg     rms          rms(c)
DAV:   1    -0.112850895572E+03   -0.46457E-01   -0.14382E+02  1488   0.169E+01    0.527E-01
DAV:   2    -0.112914184001E+03   -0.63288E-01   -0.65877E-01  1552   0.162E+00    0.450E-01
DAV:   3    -0.112912784799E+03    0.13992E-02   -0.12195E-02  1532   0.260E-01    0.317E-01
DAV:   4    -0.112911073997E+03    0.17108E-02   -0.31184E-03  1568   0.105E-01    0.168E-01
DAV:   5    -0.112910840966E+03    0.23303E-03   -0.27721E-03  1544   0.102E-01    0.473E-02
DAV:   6    -0.112910842738E+03   -0.17711E-05   -0.81503E-05   936   0.283E-02
  16 F= -.11291084E+03 E0= -.11291084E+03  d E =-.106313E+00  mag=    -0.0000
 trial-energy change:   -0.106313  1 .order   -0.106966   -0.129447   -0.084484
 step:  36.4958(harm= 27.5604)  dis= 0.12683  next Energy=  -113.015133 (dE=-0.211E+00)
 bond charge predicted
       N       E                     dE             d eps       ncg     rms          rms(c)
DAV:   1    -0.112448846473E+03    0.46199E+00   -0.11557E+03  1488   0.485E+01    0.179E+00
DAV:   2    -0.112980440976E+03   -0.53159E+00   -0.54598E+00  1560   0.469E+00    0.127E+00
DAV:   3    -0.112970139603E+03    0.10301E-01   -0.94757E-02  1560   0.687E-01    0.847E-01
DAV:   4    -0.112957569140E+03    0.12570E-01   -0.26161E-02  1528   0.310E-01    0.419E-01
DAV:   5    -0.112956648430E+03    0.92071E-03   -0.12197E-02  1544   0.259E-01    0.121E-01
DAV:   6    -0.112956649701E+03   -0.12713E-05   -0.68106E-04  1568   0.961E-02
  17 F= -.11295665E+03 E0= -.11295665E+03  d E =-.152120E+00  mag=    -0.0000
 curvature: -17.99 expect dE=-0.427E+00 dE for cont linesearch -0.205E-01
 ZBRENT: interpolating
 opt :  26.5491  next Energy=  -112.982367 (dE=-0.178E+00)
 bond charge predicted
       N       E                     dE             d eps       ncg     rms          rms(c)
DAV:   1    -0.112919370880E+03    0.37278E-01   -0.15544E+02  1488   0.176E+01    0.527E-01
DAV:   2    -0.112987743239E+03   -0.68372E-01   -0.69605E-01  1560   0.166E+00    0.467E-01
DAV:   3    -0.112986416557E+03    0.13267E-02   -0.11431E-02  1544   0.236E-01    0.343E-01
DAV:   4    -0.112984430198E+03    0.19864E-02   -0.37008E-03  1552   0.108E-01    0.173E-01
DAV:   5    -0.112984284438E+03    0.14576E-03   -0.26541E-03  1560   0.104E-01    0.539E-02
DAV:   6    -0.112984276116E+03    0.83220E-05   -0.94431E-05   976   0.339E-02
  18 F= -.11298428E+03 E0= -.11298428E+03  d E =-.179747E+00  mag=    -0.0000
 curvature: -22.54 expect dE=-0.260E+00 dE for cont linesearch -0.550E-04
 trial: gam= 0.98688 g(F)=  0.116E-01 g(S)=  0.000E+00 ort =-0.239E-03 (trialstep = 0.896E+01)
 search vector abs. value=  0.339E-01
 bond charge predicted
       N       E                     dE             d eps       ncg     rms          rms(c)
DAV:   1    -0.112994116112E+03   -0.98317E-02   -0.18226E+02  1488   0.190E+01    0.520E-01
DAV:   2    -0.113075178638E+03   -0.81063E-01   -0.81899E-01  1528   0.180E+00    0.433E-01
DAV:   3    -0.113073637335E+03    0.15413E-02   -0.13372E-02  1564   0.252E-01    0.316E-01
DAV:   4    -0.113071435056E+03    0.22023E-02   -0.30992E-03  1560   0.982E-02    0.175E-01
DAV:   5    -0.113070988759E+03    0.44630E-03   -0.36976E-03  1516   0.108E-01    0.491E-02
DAV:   6    -0.113070991862E+03   -0.31032E-05   -0.88536E-05   888   0.329E-02
  19 F= -.11307099E+03 E0= -.11307099E+03  d E =-.867157E-01  mag=    -0.0000
 trial-energy change:   -0.086716  1 .order   -0.086821   -0.101423   -0.072218
 step:  31.1296(harm= 31.1296)  dis= 0.15610  next Energy=  -113.160386 (dE=-0.176E+00)
 bond charge predicted
       N       E                     dE             d eps       ncg     rms          rms(c)
DAV:   1    -0.112607834032E+03    0.46315E+00   -0.11368E+03  1488   0.480E+01    0.175E+00
DAV:   2    -0.113140048101E+03   -0.53221E+00   -0.53742E+00  1544   0.463E+00    0.110E+00
DAV:   3    -0.113129278711E+03    0.10769E-01   -0.88277E-02  1560   0.654E-01    0.735E-01
DAV:   4    -0.113117620118E+03    0.11659E-01   -0.20626E-02  1536   0.265E-01    0.380E-01
DAV:   5    -0.113116057017E+03    0.15631E-02   -0.12110E-02  1528   0.227E-01    0.103E-01
DAV:   6    -0.113116119245E+03   -0.62228E-04   -0.55019E-04  1544   0.938E-02
  20 F= -.11311612E+03 E0= -.11311612E+03  d E =-.131843E+00  mag=    -0.0000
 curvature: -46.64 expect dE=-0.594E+00 dE for cont linesearch -0.210E-01
 ZBRENT: interpolating
 opt :  23.8905  next Energy=  -113.130262 (dE=-0.146E+00)
 bond charge predicted
       N       E                     dE             d eps       ncg     rms          rms(c)
DAV:   1    -0.113082460144E+03    0.33597E-01   -0.11879E+02  1488   0.153E+01    0.376E-01
DAV:   2    -0.113134326318E+03   -0.51866E-01   -0.51949E-01  1560   0.143E+00    0.372E-01
DAV:   3    -0.113133546924E+03    0.77939E-03   -0.79425E-03  1568   0.179E-01    0.291E-01
DAV:   4    -0.113131918339E+03    0.16286E-02   -0.21124E-03  1552   0.745E-02    0.167E-01
DAV:   5    -0.113131621698E+03    0.29664E-03   -0.29424E-03  1560   0.897E-02    0.544E-02
DAV:   6    -0.113131628129E+03   -0.64302E-05   -0.56511E-05   992   0.266E-02
  21 F= -.11313163E+03 E0= -.11313163E+03  d E =-.147352E+00  mag=    -0.0000
 curvature: -31.40 expect dE=-0.254E+00 dE for cont linesearch -0.266E-04
 trial: gam= 0.41263 g(F)=  0.808E-02 g(S)=  0.000E+00 ort =-0.170E-03 (trialstep = 0.119E+02)
 search vector abs. value=  0.137E-01
 bond charge predicted
       N       E                     dE             d eps       ncg     rms          rms(c)
DAV:   1    -0.113145251105E+03   -0.13629E-01   -0.13112E+02  1488   0.162E+01    0.472E-01
DAV:   2    -0.113203287766E+03   -0.58037E-01   -0.58453E-01  1552   0.151E+00    0.413E-01
DAV:   3    -0.113202185764E+03    0.11020E-02   -0.86978E-03  1576   0.184E-01    0.302E-01
DAV:   4    -0.113200347131E+03    0.18386E-02   -0.40673E-03  1536   0.992E-02    0.128E-01
DAV:   5    -0.113200359836E+03   -0.12705E-04   -0.13094E-03  1584   0.636E-02    0.490E-02
DAV:   6    -0.113200323486E+03    0.36350E-04   -0.77148E-05   912   0.228E-02
  22 F= -.11320032E+03 E0= -.11320032E+03  d E =-.686954E-01  mag=    -0.0000
 trial-energy change:   -0.068695  1 .order   -0.068494   -0.095747   -0.041241
 step:  20.9902(harm= 20.9902)  dis= 0.05466  next Energy=  -113.215724 (dE=-0.841E-01)
 bond charge predicted
       N       E                     dE             d eps       ncg     rms          rms(c)
DAV:   1    -0.113182909735E+03    0.17450E-01   -0.74929E+01  1488   0.122E+01    0.358E-01
DAV:   2    -0.113216070973E+03   -0.33161E-01   -0.33424E-01  1536   0.114E+00    0.310E-01
DAV:   3    -0.113215462350E+03    0.60862E-03   -0.49549E-03  1576   0.139E-01    0.225E-01
DAV:   4    -0.113214470827E+03    0.99152E-03   -0.22912E-03  1536   0.747E-02    0.953E-02
DAV:   5    -0.113214492608E+03   -0.21782E-04   -0.72370E-04  1552   0.475E-02
  23 F= -.11321449E+03 E0= -.11321449E+03  d E =-.828645E-01  mag=    -0.0000
 curvature: -17.96 expect dE=-0.911E-01 dE for cont linesearch -0.295E-04
 trial: gam= 0.61085 g(F)=  0.507E-02 g(S)=  0.000E+00 ort =-0.150E-03 (trialstep = 0.138E+02)
 search vector abs. value=  0.100E-01
 bond charge predicted
       N       E                     dE             d eps       ncg     rms          rms(c)
DAV:   1    -0.113209384217E+03    0.50866E-02   -0.12662E+02  1488   0.159E+01    0.427E-01
DAV:   2    -0.113265501104E+03   -0.56117E-01   -0.56165E-01  1552   0.148E+00    0.401E-01
DAV:   3    -0.113264634584E+03    0.86652E-03   -0.85075E-03  1616   0.179E-01    0.305E-01
DAV:   4    -0.113262747806E+03    0.18868E-02   -0.33936E-03  1552   0.877E-02    0.146E-01
DAV:   5    -0.113262674103E+03    0.73703E-04   -0.19057E-03  1568   0.680E-02    0.554E-02
DAV:   6    -0.113262649320E+03    0.24783E-04   -0.67519E-05   912   0.156E-02
  24 F= -.11326265E+03 E0= -.11326265E+03  d E =-.481567E-01  mag=    -0.0000
 trial-energy change:   -0.048157  1 .order   -0.049086   -0.068533   -0.029639
 step:  28.7192(harm= 24.2414)  dis= 0.05433  next Energy=  -113.277571 (dE=-0.631E-01)
 bond charge predicted
       N       E                     dE             d eps       ncg     rms          rms(c)
DAV:   1    -0.113208774729E+03    0.53899E-01   -0.14981E+02  1488   0.173E+01    0.456E-01
DAV:   2    -0.113274968916E+03   -0.66194E-01   -0.66359E-01  1552   0.161E+00    0.432E-01
DAV:   3    -0.113273913906E+03    0.10550E-02   -0.99903E-03  1600   0.194E-01    0.329E-01
DAV:   4    -0.113271626035E+03    0.22879E-02   -0.39275E-03  1536   0.941E-02    0.161E-01
DAV:   5    -0.113271495582E+03    0.13045E-03   -0.23887E-03  1552   0.751E-02    0.604E-02
DAV:   6    -0.113271471805E+03    0.23777E-04   -0.78397E-05   944   0.150E-02
  25 F= -.11327147E+03 E0= -.11327147E+03  d E =-.569792E-01  mag=    -0.0000
 curvature: -19.91 expect dE=-0.109E+00 dE for cont linesearch -0.136E-02
 trial: gam= 1.17175 g(F)=  0.548E-02 g(S)=  0.000E+00 ort =-0.828E-03 (trialstep = 0.970E+01)
 search vector abs. value=  0.173E-01
 bond charge predicted
       N       E                     dE             d eps       ncg     rms          rms(c)
DAV:   1    -0.113259541189E+03    0.11954E-01   -0.10838E+02  1488   0.147E+01    0.364E-01
DAV:   2    -0.113307104603E+03   -0.47563E-01   -0.47575E-01  1552   0.137E+00    0.366E-01
DAV:   3    -0.113306322268E+03    0.78234E-03   -0.72902E-03  1584   0.173E-01    0.284E-01
DAV:   4    -0.113304612821E+03    0.17094E-02   -0.22072E-03  1536   0.758E-02    0.163E-01
DAV:   5    -0.113304305045E+03    0.30778E-03   -0.28901E-03  1536   0.880E-02    0.558E-02
DAV:   6    -0.113304301072E+03    0.39733E-05   -0.55052E-05   896   0.233E-02
  26 F= -.11330430E+03 E0= -.11330430E+03  d E =-.328293E-01  mag=    -0.0000
 trial-energy change:   -0.032829  1 .order   -0.033970   -0.043768   -0.024173
 step:  21.6632(harm= 21.6632)  dis= 0.05217  next Energy=  -113.320351 (dE=-0.489E-01)
 bond charge predicted
       N       E                     dE             d eps       ncg     rms          rms(c)
DAV:   1    -0.113247980006E+03    0.56325E-01   -0.16507E+02  1488   0.182E+01    0.445E-01
DAV:   2    -0.113320754482E+03   -0.72774E-01   -0.72649E-01  1536   0.170E+00    0.449E-01
DAV:   3    -0.113319658943E+03    0.10955E-02   -0.11142E-02  1568   0.214E-01    0.346E-01
DAV:   4    -0.113317157855E+03    0.25011E-02   -0.31020E-03  1552   0.895E-02    0.204E-01
DAV:   5    -0.113316639745E+03    0.51811E-03   -0.44032E-03  1520   0.106E-01    0.683E-02
DAV:   6    -0.113316637532E+03    0.22133E-05   -0.75276E-05   912   0.263E-02
  27 F= -.11331664E+03 E0= -.11331664E+03  d E =-.451657E-01  mag=    -0.0000
 curvature: -41.48 expect dE=-0.137E+00 dE for cont linesearch -0.798E-05
 trial: gam= 0.28990 g(F)=  0.330E-02 g(S)=  0.000E+00 ort =-0.577E-04 (trialstep = 0.121E+02)
 search vector abs. value=  0.472E-02
 bond charge predicted
       N       E                     dE             d eps       ncg     rms          rms(c)
DAV:   1    -0.113327016929E+03   -0.10377E-01   -0.46178E+01  1488   0.958E+00    0.264E-01
DAV:   2    -0.113347656042E+03   -0.20639E-01   -0.20843E-01  1568   0.902E-01    0.238E-01
DAV:   3    -0.113347337679E+03    0.31836E-03   -0.31237E-03  1584   0.110E-01    0.174E-01
DAV:   4    -0.113346741386E+03    0.59629E-03   -0.11777E-03  1552   0.528E-02    0.834E-02
DAV:   5    -0.113346746999E+03   -0.56133E-05   -0.62279E-04  1600   0.397E-02
  28 F= -.11334675E+03 E0= -.11334675E+03  d E =-.301095E-01  mag=    -0.0000
 trial-energy change:   -0.030109  1 .order   -0.030749   -0.039751   -0.021747
 step:  26.6969(harm= 26.6969)  dis= 0.03772  next Energy=  -113.360521 (dE=-0.439E-01)
 bond charge predicted
       N       E                     dE             d eps       ncg     rms          rms(c)
DAV:   1    -0.113329648144E+03    0.17093E-01   -0.67397E+01  1488   0.116E+01    0.331E-01
DAV:   2    -0.113359797359E+03   -0.30149E-01   -0.30517E-01  1552   0.109E+00    0.288E-01
DAV:   3    -0.113359316680E+03    0.48068E-03   -0.45839E-03  1568   0.133E-01    0.208E-01
DAV:   4    -0.113358471322E+03    0.84536E-03   -0.17847E-03  1536   0.644E-02    0.949E-02
DAV:   5    -0.113358486132E+03   -0.14810E-04   -0.76238E-04  1568   0.437E-02
  29 F= -.11335849E+03 E0= -.11335849E+03  d E =-.418486E-01  mag=    -0.0000
 curvature: -19.18 expect dE=-0.425E-01 dE for cont linesearch -0.183E-04
 trial: gam= 0.69326 g(F)=  0.222E-02 g(S)=  0.000E+00 ort =-0.672E-04 (trialstep = 0.150E+02)
 search vector abs. value=  0.439E-02
 bond charge predicted
       N       E                     dE             d eps       ncg     rms          rms(c)
DAV:   1    -0.113352350397E+03    0.61209E-02   -0.66242E+01  1488   0.115E+01    0.333E-01
DAV:   2    -0.113382330706E+03   -0.29980E-01   -0.30088E-01  1552   0.109E+00    0.288E-01
DAV:   3    -0.113381809175E+03    0.52153E-03   -0.45809E-03  1552   0.139E-01    0.207E-01
DAV:   4    -0.113380937213E+03    0.87196E-03   -0.17825E-03  1552   0.650E-02    0.972E-02
DAV:   5    -0.113380937553E+03   -0.33925E-06   -0.85357E-04  1552   0.497E-02
  30 F= -.11338094E+03 E0= -.11338094E+03  d E =-.224514E-01  mag=    -0.0000
 trial-energy change:   -0.022451  1 .order   -0.023142   -0.032593   -0.013691
 step:  25.8861(harm= 25.8861)  dis= 0.04936  next Energy=  -113.386586 (dE=-0.281E-01)
 bond charge predicted
       N       E                     dE             d eps       ncg     rms          rms(c)
DAV:   1    -0.113369965071E+03    0.10972E-01   -0.34714E+01  1488   0.830E+00    0.247E-01
DAV:   2    -0.113385629802E+03   -0.15665E-01   -0.15770E-01  1552   0.786E-01    0.212E-01
DAV:   3    -0.113385363488E+03    0.26631E-03   -0.23924E-03  1552   0.999E-02    0.151E-01
DAV:   4    -0.113384934866E+03    0.42862E-03   -0.96665E-04  1552   0.477E-02    0.687E-02
DAV:   5    -0.113384954305E+03   -0.19439E-04   -0.39578E-04  1536   0.338E-02
  31 F= -.11338495E+03 E0= -.11338495E+03  d E =-.264682E-01  mag=    -0.0000
 curvature: -26.20 expect dE=-0.427E-01 dE for cont linesearch -0.328E-04
 trial: gam= 0.70401 g(F)=  0.163E-02 g(S)=  0.000E+00 ort =-0.742E-04 (trialstep = 0.172E+02)
 search vector abs. value=  0.370E-02
 bond charge predicted
       N       E                     dE             d eps       ncg     rms          rms(c)
DAV:   1    -0.113372485617E+03    0.12449E-01   -0.72989E+01  1488   0.121E+01    0.305E-01
DAV:   2    -0.113404631407E+03   -0.32146E-01   -0.32201E-01  1568   0.112E+00    0.278E-01
DAV:   3    -0.113404048695E+03    0.58271E-03   -0.48867E-03  1584   0.135E-01    0.211E-01
DAV:   4    -0.113402965139E+03    0.10836E-02   -0.17579E-03  1568   0.625E-02    0.102E-01
DAV:   5    -0.113402889584E+03    0.75555E-04   -0.12290E-03  1568   0.530E-02    0.374E-02
DAV:   6    -0.113402884045E+03    0.55393E-05   -0.36928E-05   880   0.987E-03
  32 F= -.11340288E+03 E0= -.11340288E+03  d E =-.179297E-01  mag=    -0.0000
 trial-energy change:   -0.017930  1 .order   -0.018376   -0.027110   -0.009641
 step:  30.1581(harm= 26.6732)  dis= 0.05305  next Energy=  -113.406330 (dE=-0.214E-01)
 bond charge predicted
       N       E                     dE             d eps       ncg     rms          rms(c)
DAV:   1    -0.113387484021E+03    0.15406E-01   -0.41538E+01  1488   0.909E+00    0.228E-01
DAV:   2    -0.113405735952E+03   -0.18252E-01   -0.18261E-01  1568   0.845E-01    0.212E-01
DAV:   3    -0.113405377054E+03    0.35890E-03   -0.26214E-03  1552   0.998E-02    0.163E-01
DAV:   4    -0.113404728449E+03    0.64861E-03   -0.10829E-03  1584   0.488E-02    0.772E-02
DAV:   5    -0.113404690229E+03    0.38220E-04   -0.69939E-04  1552   0.401E-02
  33 F= -.11340469E+03 E0= -.11340469E+03  d E =-.197359E-01  mag=    -0.0000
 curvature: -27.08 expect dE=-0.478E-01 dE for cont linesearch -0.264E-03
 trial: gam= 1.11965 g(F)=  0.176E-02 g(S)=  0.000E+00 ort =-0.190E-03 (trialstep = 0.122E+02)
 search vector abs. value=  0.598E-02
 bond charge predicted
       N       E                     dE             d eps       ncg     rms          rms(c)
DAV:   1    -0.113393258447E+03    0.11470E-01   -0.59781E+01  1488   0.109E+01    0.251E-01
DAV:   2    -0.113419362959E+03   -0.26105E-01   -0.26046E-01  1568   0.101E+00    0.244E-01
DAV:   3    -0.113418908098E+03    0.45486E-03   -0.38485E-03  1584   0.119E-01    0.191E-01
DAV:   4    -0.113417980988E+03    0.92711E-03   -0.12304E-03  1552   0.532E-02    0.102E-01
DAV:   5    -0.113417838960E+03    0.14203E-03   -0.13744E-03  1552   0.566E-02    0.359E-02
DAV:   6    -0.113417839624E+03   -0.66461E-06   -0.23137E-05   928   0.108E-02
  34 F= -.11341784E+03 E0= -.11341784E+03  d E =-.131494E-01  mag=    -0.0000
 trial-energy change:   -0.013149  1 .order   -0.013979   -0.019006   -0.008952
 step:  23.1516(harm= 23.1516)  dis= 0.04603  next Energy=  -113.422654 (dE=-0.180E-01)
 bond charge predicted
       N       E                     dE             d eps       ncg     rms          rms(c)
DAV:   1    -0.113401903768E+03    0.15935E-01   -0.47380E+01  1488   0.971E+00    0.222E-01
DAV:   2    -0.113422503670E+03   -0.20600E-01   -0.20583E-01  1552   0.897E-01    0.218E-01
DAV:   3    -0.113422129154E+03    0.37452E-03   -0.30320E-03  1568   0.106E-01    0.172E-01
DAV:   4    -0.113421369100E+03    0.76005E-03   -0.10014E-03  1552   0.478E-02    0.914E-02
DAV:   5    -0.113421251012E+03    0.11809E-03   -0.11224E-03  1552   0.509E-02    0.325E-02
DAV:   6    -0.113421251744E+03   -0.73182E-06   -0.18861E-05   928   0.935E-03
  35 F= -.11342125E+03 E0= -.11342125E+03  d E =-.165615E-01  mag=     0.0000
 curvature: -44.62 expect dE=-0.740E-01 dE for cont linesearch -0.104E-05
 trial: gam= 0.69073 g(F)=  0.166E-02 g(S)=  0.000E+00 ort = 0.118E-04 (trialstep = 0.144E+02)
 search vector abs. value=  0.453E-02
 bond charge predicted
       N       E                     dE             d eps       ncg     rms          rms(c)
DAV:   1    -0.113414099957E+03    0.71511E-02   -0.62896E+01  1488   0.112E+01    0.247E-01
DAV:   2    -0.113441838042E+03   -0.27738E-01   -0.27714E-01  1528   0.104E+00    0.258E-01
DAV:   3    -0.113441407956E+03    0.43009E-03   -0.39303E-03  1576   0.121E-01    0.208E-01
DAV:   4    -0.113440428494E+03    0.97946E-03   -0.11056E-03  1568   0.507E-02    0.121E-01
DAV:   5    -0.113440186435E+03    0.24206E-03   -0.18278E-03  1520   0.646E-02    0.409E-02
DAV:   6    -0.113440193716E+03   -0.72808E-05   -0.21495E-05   944   0.111E-02
  36 F= -.11344019E+03 E0= -.11344019E+03  d E =-.189420E-01  mag=     0.0000
 trial-energy change:   -0.018942  1 .order   -0.019726   -0.024044   -0.015408
 step:  40.1720(harm= 40.1720)  dis= 0.06025  next Energy=  -113.454724 (dE=-0.335E-01)
 bond charge predicted
       N       E                     dE             d eps       ncg     rms          rms(c)
DAV:   1    -0.113367447813E+03    0.72739E-01   -0.20090E+02  1488   0.200E+01    0.450E-01
DAV:   2    -0.113456466692E+03   -0.89019E-01   -0.88843E-01  1528   0.187E+00    0.465E-01
DAV:   3    -0.113455106376E+03    0.13603E-02   -0.12638E-02  1560   0.218E-01    0.370E-01
DAV:   4    -0.113452087595E+03    0.30188E-02   -0.33164E-03  1584   0.880E-02    0.220E-01
DAV:   5    -0.113451245268E+03    0.84233E-03   -0.54212E-03  1544   0.111E-01    0.702E-02
DAV:   6    -0.113451283838E+03   -0.38570E-04   -0.59736E-05   960   0.180E-02
  37 F= -.11345128E+03 E0= -.11345128E+03  d E =-.300321E-01  mag=     0.0000
 curvature: -54.58 expect dE=-0.126E+00 dE for cont linesearch -0.910E-05
 trial: gam= 1.54643 g(F)=  0.232E-02 g(S)=  0.000E+00 ort =-0.275E-04 (trialstep = 0.679E+01)
 search vector abs. value=  0.131E-01
 bond charge predicted
       N       E                     dE             d eps       ncg     rms          rms(c)
DAV:   1    -0.113447206164E+03    0.40391E-02   -0.40075E+01  1488   0.890E+00    0.188E-01
DAV:   2    -0.113464937632E+03   -0.17731E-01   -0.17588E-01  1568   0.827E-01    0.202E-01
DAV:   3    -0.113464704434E+03    0.23320E-03   -0.25551E-03  1584   0.950E-02    0.165E-01
DAV:   4    -0.113464065759E+03    0.63868E-03   -0.70931E-04  1568   0.404E-02    0.980E-02
DAV:   5    -0.113463915724E+03    0.15004E-03   -0.12662E-03  1536   0.524E-02    0.361E-02
DAV:   6    -0.113463926210E+03   -0.10486E-04   -0.13912E-05   960   0.747E-03
  38 F= -.11346393E+03 E0= -.11346393E+03  d E =-.126424E-01  mag=    -0.0000
 ZBRENT: can't locate minimum, use default step
 trial-energy change:   -0.012642  1 .order   -0.013585   -0.015428   -0.011742
 step:  27.1529(harm= 28.4154)  dis= 0.07289  next Energy=  -113.483574 (dE=-0.323E-01)
 bond charge predicted
       N       E                     dE             d eps       ncg     rms          rms(c)
DAV:   1    -0.113330837809E+03    0.13308E+00   -0.36381E+02  1488   0.269E+01    0.607E-01
DAV:   2    -0.113493614538E+03   -0.16278E+00   -0.16115E+00  1552   0.252E+00    0.629E-01
DAV:   3    -0.113491165721E+03    0.24488E-02   -0.23705E-02  1584   0.292E-01    0.500E-01
DAV:   4    -0.113485544287E+03    0.56214E-02   -0.59516E-03  1552   0.118E-01    0.304E-01
DAV:   5    -0.113483843044E+03    0.17012E-02   -0.94937E-03  1544   0.144E-01    0.968E-02
DAV:   6    -0.113483936938E+03   -0.93893E-04   -0.10040E-04   992   0.207E-02
  39 F= -.11348394E+03 E0= -.11348394E+03  d E =-.326531E-01  mag=    -0.0000
 curvature: -81.36 expect dE=-0.200E+00 dE for cont linesearch -0.222E-02
 ZBRENT: increasing intervall
 opt :  67.8822  next Energy=  -113.462119 (dE=-0.108E-01)
 bond charge predicted
       N       E                     dE             d eps       ncg     rms          rms(c)
DAV:   1    -0.112769137960E+03    0.71471E+00   -0.14933E+03  1488   0.553E+01    0.164E+00
DAV:   2    -0.113464412346E+03   -0.69527E+00   -0.69320E+00  1584   0.529E+00    0.136E+00
DAV:   3    -0.113452303699E+03    0.12109E-01   -0.10558E-01  1600   0.639E-01    0.986E-01
DAV:   4    -0.113433807356E+03    0.18496E-01   -0.21281E-02  1552   0.227E-01    0.618E-01
DAV:   5    -0.113427975406E+03    0.58319E-02   -0.23609E-02  1552   0.230E-01    0.182E-01
DAV:   6    -0.113428300373E+03   -0.32497E-03   -0.53416E-04  1616   0.413E-02    0.102E-01
DAV:   7    -0.113428430926E+03   -0.13055E-03   -0.94107E-05   976   0.251E-02    0.281E-02
DAV:   8    -0.113428481876E+03   -0.50950E-04   -0.39179E-05   992   0.129E-02
  40 F= -.11342848E+03 E0= -.11342848E+03  d E =0.228020E-01  mag=    -0.0000
 curvature: 799.35 expect dE= 0.108E+02 dE for cont linesearch  0.596E+00
 ZBRENT: bracketing found
 ZBRENT: interpolating
 opt :  33.6943  next Energy=  -113.485890 (dE=-0.346E-01)
 bond charge predicted
       N       E                     dE             d eps       ncg     rms          rms(c)
DAV:   1    -0.113019463886E+03    0.40897E+00   -0.10419E+03  1488   0.459E+01    0.140E+00
DAV:   2    -0.113509998092E+03   -0.49053E+00   -0.48867E+00  1528   0.440E+00    0.103E+00
DAV:   3    -0.113500107244E+03    0.98908E-02   -0.74840E-02  1616   0.531E-01    0.742E-01
DAV:   4    -0.113486490035E+03    0.13617E-01   -0.19778E-02  1520   0.212E-01    0.387E-01
DAV:   5    -0.113484219842E+03    0.22702E-02   -0.12398E-02  1552   0.168E-01    0.104E-01
DAV:   6    -0.113484344722E+03   -0.12488E-03   -0.20223E-04  1120   0.295E-02    0.567E-02
DAV:   7    -0.113484405619E+03   -0.60896E-04   -0.62164E-05   960   0.159E-02
  41 F= -.11348441E+03 E0= -.11348441E+03  d E =-.331218E-01  mag=    -0.0000
 curvature:  -2.62 expect dE=-0.875E-02 dE for cont linesearch -0.337E-04
 trial: gam= 1.24328 g(F)=  0.334E-02 g(S)=  0.000E+00 ort =-0.410E-03 (trialstep = 0.706E+01)
 search vector abs. value=  0.225E-01
 bond charge predicted
       N       E                     dE             d eps       ncg     rms          rms(c)
DAV:   1    -0.113472665493E+03    0.11679E-01   -0.74866E+01  1488   0.122E+01    0.248E-01
DAV:   2    -0.113505678490E+03   -0.33013E-01   -0.32813E-01  1528   0.113E+00    0.266E-01
DAV:   3    -0.113505191766E+03    0.48672E-03   -0.47707E-03  1600   0.130E-01    0.219E-01
DAV:   4    -0.113504045044E+03    0.11467E-02   -0.11163E-03  1552   0.506E-02    0.133E-01
DAV:   5    -0.113503671864E+03    0.37318E-03   -0.24898E-03  1552   0.729E-02    0.436E-02
DAV:   6    -0.113503685646E+03   -0.13782E-04   -0.23200E-05   976   0.956E-03
  42 F= -.11350369E+03 E0= -.11350369E+03  d E =-.192800E-01  mag=    -0.0000
 ZBRENT: can't locate minimum, use default step
 trial-energy change:   -0.019280  1 .order   -0.018771   -0.019996   -0.017546
 step:  28.2421(harm= 57.6226)  dis= 0.11959  next Energy=  -113.566000 (dE=-0.816E-01)
 bond charge predicted
       N       E                     dE             d eps       ncg     rms          rms(c)
DAV:   1    -0.113232967218E+03    0.27070E+00   -0.68285E+02  1488   0.371E+01    0.958E-01
DAV:   2    -0.113542455766E+03   -0.30949E+00   -0.30783E+00  1520   0.349E+00    0.824E-01
DAV:   3    -0.113536394616E+03    0.60612E-02   -0.45884E-02  1592   0.412E-01    0.619E-01
DAV:   4    -0.113526808603E+03    0.95860E-02   -0.11938E-02  1552   0.166E-01    0.344E-01
DAV:   5    -0.113524539131E+03    0.22695E-02   -0.11467E-02  1520   0.160E-01    0.948E-02
DAV:   6    -0.113524654578E+03   -0.11545E-03   -0.14429E-04  1072   0.258E-02    0.569E-02
DAV:   7    -0.113524705602E+03   -0.51025E-04   -0.64275E-05   944   0.167E-02
  43 F= -.11352471E+03 E0= -.11352471E+03  d E =-.403000E-01  mag=    -0.0000
 curvature: ****** expect dE=-0.541E+00 dE for cont linesearch -0.445E-04
 trial: gam= 0.82461 g(F)=  0.357E-02 g(S)=  0.000E+00 ort =-0.812E-04 (trialstep = 0.113E+02)
 search vector abs. value=  0.187E-01
 bond charge predicted
       N       E                     dE             d eps       ncg     rms          rms(c)
DAV:   1    -0.113487673361E+03    0.36981E-01   -0.15993E+02  1488   0.178E+01    0.415E-01
DAV:   2    -0.113559373790E+03   -0.71700E-01   -0.71306E-01  1536   0.167E+00    0.408E-01
DAV:   3    -0.113558181576E+03    0.11922E-02   -0.10718E-02  1600   0.199E-01    0.319E-01
DAV:   4    -0.113555637409E+03    0.25442E-02   -0.30848E-03  1568   0.833E-02    0.178E-01
DAV:   5    -0.113555109399E+03    0.52801E-03   -0.39355E-03  1536   0.922E-02    0.587E-02
DAV:   6    -0.113555122480E+03   -0.13081E-04   -0.55483E-05   928   0.133E-02
  44 F= -.11355512E+03 E0= -.11355512E+03  d E =-.304169E-01  mag=    -0.0000
 trial-energy change:   -0.030417  1 .order   -0.032767   -0.039563   -0.025970
 step:  32.8817(harm= 32.8817)  dis= 0.12696  next Energy=  -113.582283 (dE=-0.576E-01)
 bond charge predicted
       N       E                     dE             d eps       ncg     rms          rms(c)
DAV:   1    -0.113319553132E+03    0.23556E+00   -0.59005E+02  1488   0.344E+01    0.956E-01
DAV:   2    -0.113589350046E+03   -0.26980E+00   -0.26874E+00  1536   0.326E+00    0.787E-01
DAV:   3    -0.113583881450E+03    0.54686E-02   -0.41258E-02  1616   0.397E-01    0.576E-01
DAV:   4    -0.113575330964E+03    0.85505E-02   -0.12327E-02  1520   0.167E-01    0.296E-01
DAV:   5    -0.113573981467E+03    0.13495E-02   -0.84936E-03  1552   0.139E-01    0.851E-02
DAV:   6    -0.113574040097E+03   -0.58630E-04   -0.14763E-04  1024   0.230E-02
  45 F= -.11357404E+03 E0= -.11357404E+03  d E =-.493345E-01  mag=    -0.0000
 curvature: -87.98 expect dE=-0.479E+00 dE for cont linesearch -0.549E-05
 trial: gam= 1.27878 g(F)=  0.545E-02 g(S)=  0.000E+00 ort =-0.342E-04 (trialstep = 0.813E+01)
 search vector abs. value=  0.360E-01
 bond charge predicted
       N       E                     dE             d eps       ncg     rms          rms(c)
DAV:   1    -0.113542546132E+03    0.31435E-01   -0.15910E+02  1488   0.178E+01    0.406E-01
DAV:   2    -0.113613416217E+03   -0.70870E-01   -0.70552E-01  1568   0.167E+00    0.405E-01
DAV:   3    -0.113612211822E+03    0.12044E-02   -0.10568E-02  1616   0.198E-01    0.317E-01
DAV:   4    -0.113609708569E+03    0.25033E-02   -0.28240E-03  1520   0.798E-02    0.185E-01
DAV:   5    -0.113609078604E+03    0.62996E-03   -0.41843E-03  1552   0.949E-02    0.593E-02
DAV:   6    -0.113609110809E+03   -0.32206E-04   -0.49275E-05   944   0.125E-02
  46 F= -.11360911E+03 E0= -.11360911E+03  d E =-.350707E-01  mag=    -0.0000
 trial-energy change:   -0.035071  1 .order   -0.038267   -0.043923   -0.032611
 step:  31.5544(harm= 31.5544)  dis= 0.13541  next Energy=  -113.659315 (dE=-0.853E-01)
 bond charge predicted
       N       E                     dE             d eps       ncg     rms          rms(c)
DAV:   1    -0.113028250451E+03    0.58083E+00   -0.13708E+03  1488   0.529E+01    0.181E+00
DAV:   2    -0.113680012993E+03   -0.65176E+00   -0.65317E+00  1584   0.512E+00    0.122E+00
DAV:   3    -0.113665612116E+03    0.14401E-01   -0.10408E-01  1584   0.646E-01    0.850E-01
DAV:   4    -0.113649132554E+03    0.16480E-01   -0.21651E-02  1584   0.228E-01    0.488E-01
DAV:   5    -0.113645059541E+03    0.40730E-02   -0.16598E-02  1536   0.195E-01    0.124E-01
DAV:   6    -0.113645259929E+03   -0.20039E-03   -0.27193E-04  1128   0.336E-02    0.640E-02
DAV:   7    -0.113645371426E+03   -0.11150E-03   -0.76311E-05   984   0.177E-02    0.190E-02
DAV:   8    -0.113645420857E+03   -0.49431E-04   -0.18915E-05   968   0.730E-03
  47 F= -.11364542E+03 E0= -.11364542E+03  d E =-.713808E-01  mag=    -0.0000
 curvature: ****** expect dE=-0.735E+00 dE for cont linesearch -0.849E-03
 trial: gam= 0.97344 g(F)=  0.699E-02 g(S)=  0.000E+00 ort =-0.539E-03 (trialstep = 0.115E+02)
 search vector abs. value=  0.401E-01
 bond charge predicted
       N       E                     dE             d eps       ncg     rms          rms(c)
DAV:   1    -0.113552913655E+03    0.92458E-01   -0.35866E+02  1488   0.267E+01    0.647E-01
DAV:   2    -0.113712356552E+03   -0.15944E+00   -0.15886E+00  1584   0.250E+00    0.637E-01
DAV:   3    -0.113709444659E+03    0.29119E-02   -0.23954E-02  1616   0.298E-01    0.494E-01
DAV:   4    -0.113703813635E+03    0.56310E-02   -0.62647E-03  1552   0.120E-01    0.296E-01
DAV:   5    -0.113702213485E+03    0.16002E-02   -0.82211E-03  1536   0.135E-01    0.895E-02
DAV:   6    -0.113702315093E+03   -0.10161E-03   -0.98375E-05  1008   0.187E-02    0.526E-02
DAV:   7    -0.113702328215E+03   -0.13123E-04   -0.83713E-05   976   0.142E-02
  48 F= -.11370233E+03 E0= -.11370233E+03  d E =-.569074E-01  mag=    -0.0000
 trial-energy change:   -0.056907  1 .order   -0.058691   -0.074468   -0.042914
 step:  27.1761(harm= 27.1761)  dis= 0.13567  next Energy=  -113.733293 (dE=-0.879E-01)
 bond charge predicted
       N       E                     dE             d eps       ncg     rms          rms(c)
DAV:   1    -0.113433376858E+03    0.26894E+00   -0.67109E+02  1488   0.367E+01    0.100E+00
DAV:   2    -0.113737334960E+03   -0.30396E+00   -0.30332E+00  1568   0.347E+00    0.889E-01
DAV:   3    -0.113731273285E+03    0.60617E-02   -0.46598E-02  1616   0.420E-01    0.662E-01
DAV:   4    -0.113721541818E+03    0.97315E-02   -0.11818E-02  1536   0.166E-01    0.389E-01
DAV:   5    -0.113719066736E+03    0.24751E-02   -0.11493E-02  1568   0.161E-01    0.113E-01
DAV:   6    -0.113719225023E+03   -0.15829E-03   -0.17597E-04  1056   0.249E-02    0.612E-02
DAV:   7    -0.113719260218E+03   -0.35196E-04   -0.73717E-05   976   0.147E-02
  49 F= -.11371926E+03 E0= -.11371926E+03  d E =-.738394E-01  mag=    -0.0000
 curvature: -84.18 expect dE=-0.687E+00 dE for cont linesearch -0.250E-02
 trial: gam= 0.83337 g(F)=  0.816E-02 g(S)=  0.000E+00 ort =-0.109E-02 (trialstep = 0.146E+02)
 search vector abs. value=  0.342E-01
 bond charge predicted
       N       E                     dE             d eps       ncg     rms          rms(c)
DAV:   1    -0.113578928863E+03    0.14030E+00   -0.49930E+02  1488   0.316E+01    0.825E-01
DAV:   2    -0.113800445860E+03   -0.22152E+00   -0.22086E+00  1552   0.296E+00    0.749E-01
DAV:   3    -0.113796044589E+03    0.44013E-02   -0.33215E-02  1600   0.352E-01    0.572E-01
DAV:   4    -0.113788819498E+03    0.72251E-02   -0.88129E-03  1568   0.142E-01    0.331E-01
DAV:   5    -0.113786965290E+03    0.18542E-02   -0.89379E-03  1520   0.142E-01    0.939E-02
DAV:   6    -0.113787100263E+03   -0.13497E-03   -0.14069E-04  1040   0.225E-02    0.527E-02
DAV:   7    -0.113787115552E+03   -0.15289E-04   -0.74704E-05   976   0.139E-02
  50 F= -.11378712E+03 E0= -.11378712E+03  d E =-.678553E-01  mag=    -0.0000
 trial-energy change:   -0.067855  1 .order   -0.072176   -0.106229   -0.038124
 step:  22.8468(harm= 22.8468)  dis= 0.12718  next Energy=  -113.802107 (dE=-0.828E-01)
 bond charge predicted
       N       E                     dE             d eps       ncg     rms          rms(c)
DAV:   1    -0.113731687393E+03    0.55413E-01   -0.15428E+02  1488   0.175E+01    0.398E-01
DAV:   2    -0.113798772048E+03   -0.67085E-01   -0.66828E-01  1536   0.162E+00    0.411E-01
DAV:   3    -0.113797637516E+03    0.11345E-02   -0.99122E-03  1600   0.191E-01    0.325E-01
DAV:   4    -0.113795226307E+03    0.24112E-02   -0.26850E-03  1552   0.778E-02    0.196E-01
DAV:   5    -0.113794564190E+03    0.66212E-03   -0.41570E-03  1528   0.951E-02    0.633E-02
DAV:   6    -0.113794604477E+03   -0.40286E-04   -0.47010E-05   960   0.127E-02
  51 F= -.11379460E+03 E0= -.11379460E+03  d E =-.753443E-01  mag=    -0.0000
 curvature: -53.82 expect dE=-0.365E+00 dE for cont linesearch -0.842E-04
 trial: gam= 0.43421 g(F)=  0.678E-02 g(S)=  0.000E+00 ort =-0.231E-03 (trialstep = 0.163E+02)
 search vector abs. value=  0.130E-01
 bond charge predicted
       N       E                     dE             d eps       ncg     rms          rms(c)
DAV:   1    -0.113782150426E+03    0.12414E-01   -0.23279E+02  1488   0.215E+01    0.558E-01
DAV:   2    -0.113884180464E+03   -0.10203E+00   -0.10204E+00  1544   0.201E+00    0.528E-01
DAV:   3    -0.113882283500E+03    0.18970E-02   -0.14724E-02  1600   0.237E-01    0.398E-01
DAV:   4    -0.113878775802E+03    0.35077E-02   -0.53359E-03  1552   0.109E-01    0.211E-01
DAV:   5    -0.113878337489E+03    0.43831E-03   -0.41377E-03  1568   0.975E-02    0.701E-02
DAV:   6    -0.113878336817E+03    0.67266E-06   -0.90863E-05   976   0.163E-02
  52 F= -.11387834E+03 E0= -.11387834E+03  d E =-.837323E-01  mag=    -0.0000
 trial-energy change:   -0.083732  1 .order   -0.085575   -0.108743   -0.062408
 step:  38.2243(harm= 38.2243)  dis= 0.14352  next Energy=  -113.922208 (dE=-0.128E+00)
 bond charge predicted
       N       E                     dE             d eps       ncg     rms          rms(c)
DAV:   1    -0.113732449621E+03    0.14589E+00   -0.42544E+02  1488   0.292E+01    0.813E-01
DAV:   2    -0.113921579061E+03   -0.18913E+00   -0.18966E+00  1552   0.275E+00    0.719E-01
DAV:   3    -0.113917788671E+03    0.37904E-02   -0.27808E-02  1584   0.331E-01    0.525E-01
DAV:   4    -0.113911757013E+03    0.60317E-02   -0.91048E-03  1568   0.142E-01    0.282E-01
DAV:   5    -0.113910884529E+03    0.87248E-03   -0.64782E-03  1536   0.122E-01    0.853E-02
DAV:   6    -0.113910912920E+03   -0.28391E-04   -0.13163E-04  1040   0.197E-02
  53 F= -.11391091E+03 E0= -.11391091E+03  d E =-.116308E+00  mag=    -0.0000
 curvature: -37.26 expect dE=-0.310E+00 dE for cont linesearch -0.864E-03
 trial: gam= 1.17056 g(F)=  0.833E-02 g(S)=  0.000E+00 ort =-0.549E-03 (trialstep = 0.108E+02)
 search vector abs. value=  0.249E-01
 bond charge predicted
       N       E                     dE             d eps       ncg     rms          rms(c)
DAV:   1    -0.113890853815E+03    0.20031E-01   -0.19524E+02  1488   0.197E+01    0.469E-01
DAV:   2    -0.113974801069E+03   -0.83947E-01   -0.83881E-01  1536   0.183E+00    0.461E-01
DAV:   3    -0.113973234265E+03    0.15668E-02   -0.12450E-02  1600   0.222E-01    0.353E-01
DAV:   4    -0.113970345603E+03    0.28887E-02   -0.34350E-03  1552   0.870E-02    0.205E-01
DAV:   5    -0.113969650929E+03    0.69467E-03   -0.47674E-03  1536   0.104E-01    0.632E-02
DAV:   6    -0.113969673011E+03   -0.22081E-04   -0.65453E-05   976   0.144E-02
  54 F= -.11396967E+03 E0= -.11396967E+03  d E =-.587601E-01  mag=    -0.0000
 trial-energy change:   -0.058760  1 .order   -0.061438   -0.083127   -0.039748
 step:  20.7313(harm= 20.7313)  dis= 0.11621  next Energy=  -113.990561 (dE=-0.796E-01)
 bond charge predicted
       N       E                     dE             d eps       ncg     rms          rms(c)
DAV:   1    -0.113919223016E+03    0.50428E-01   -0.16372E+02  1488   0.181E+01    0.429E-01
DAV:   2    -0.113989582092E+03   -0.70359E-01   -0.70279E-01  1520   0.167E+00    0.423E-01
DAV:   3    -0.113988284212E+03    0.12979E-02   -0.10410E-02  1600   0.204E-01    0.323E-01
DAV:   4    -0.113985838293E+03    0.24459E-02   -0.29606E-03  1552   0.806E-02    0.186E-01
DAV:   5    -0.113985278676E+03    0.55962E-03   -0.40266E-03  1504   0.952E-02    0.589E-02
DAV:   6    -0.113985289646E+03   -0.10970E-04   -0.60365E-05   960   0.136E-02
  55 F= -.11398529E+03 E0= -.11398529E+03  d E =-.743767E-01  mag=    -0.0000
 curvature: -33.56 expect dE=-0.177E+00 dE for cont linesearch -0.131E-05
 trial: gam= 0.28410 g(F)=  0.526E-02 g(S)=  0.000E+00 ort =-0.312E-04 (trialstep = 0.128E+02)
 search vector abs. value=  0.725E-02
 bond charge predicted
       N       E                     dE             d eps       ncg     rms          rms(c)
DAV:   1    -0.114005998329E+03   -0.20720E-01   -0.79434E+01  1488   0.126E+01    0.328E-01
DAV:   2    -0.114041006957E+03   -0.35009E-01   -0.35271E-01  1536   0.118E+00    0.308E-01
DAV:   3    -0.114040458506E+03    0.54845E-03   -0.55436E-03  1584   0.150E-01    0.229E-01
DAV:   4    -0.114039335623E+03    0.11229E-02   -0.17155E-03  1552   0.629E-02    0.123E-01
DAV:   5    -0.114039231616E+03    0.10401E-03   -0.15577E-03  1552   0.598E-02    0.436E-02
DAV:   6    -0.114039215352E+03    0.16263E-04   -0.55360E-05   944   0.115E-02
  56 F= -.11403922E+03 E0= -.11403922E+03  d E =-.539257E-01  mag=    -0.0000
 trial-energy change:   -0.053926  1 .order   -0.054459   -0.067260   -0.041658
 step:  33.6295(harm= 33.6295)  dis= 0.06754  next Energy=  -114.073639 (dE=-0.883E-01)
 bond charge predicted
       N       E                     dE             d eps       ncg     rms          rms(c)
DAV:   1    -0.113982860039E+03    0.56372E-01   -0.21078E+02  1488   0.205E+01    0.576E-01
DAV:   2    -0.114076038736E+03   -0.93179E-01   -0.94111E-01  1536   0.193E+00    0.504E-01
DAV:   3    -0.114074331638E+03    0.17071E-02   -0.14877E-02  1568   0.247E-01    0.365E-01
DAV:   4    -0.114071387103E+03    0.29445E-02   -0.50824E-03  1536   0.108E-01    0.180E-01
DAV:   5    -0.114071203347E+03    0.18376E-03   -0.30617E-03  1520   0.854E-02    0.628E-02
DAV:   6    -0.114071157192E+03    0.46154E-04   -0.14277E-04   960   0.185E-02
  57 F= -.11407116E+03 E0= -.11407116E+03  d E =-.858675E-01  mag=    -0.0000
 curvature: -23.21 expect dE=-0.101E+00 dE for cont linesearch -0.727E-04
 trial: gam= 0.85578 g(F)=  0.436E-02 g(S)=  0.000E+00 ort =-0.151E-03 (trialstep = 0.131E+02)
 search vector abs. value=  0.942E-02
 bond charge predicted
       N       E                     dE             d eps       ncg     rms          rms(c)
DAV:   1    -0.114065735613E+03    0.54677E-02   -0.10768E+02  1488   0.146E+01    0.395E-01
DAV:   2    -0.114114193458E+03   -0.48458E-01   -0.49113E-01  1552   0.140E+00    0.380E-01
DAV:   3    -0.114113420111E+03    0.77335E-03   -0.76285E-03  1568   0.179E-01    0.277E-01
DAV:   4    -0.114111817033E+03    0.16031E-02   -0.24439E-03  1568   0.742E-02    0.152E-01
DAV:   5    -0.114111666122E+03    0.15091E-03   -0.21751E-03  1536   0.700E-02    0.543E-02
DAV:   6    -0.114111641076E+03    0.25046E-04   -0.84659E-05   896   0.139E-02
  58 F= -.11411164E+03 E0= -.11411164E+03  d E =-.404839E-01  mag=    -0.0000
 trial-energy change:   -0.040484  1 .order   -0.040824   -0.055319   -0.026329
 step:  24.9418(harm= 24.9418)  dis= 0.06912  next Energy=  -114.123938 (dE=-0.528E-01)
 bond charge predicted
       N       E                     dE             d eps       ncg     rms          rms(c)
DAV:   1    -0.114084795455E+03    0.26871E-01   -0.88776E+01  1488   0.133E+01    0.363E-01
DAV:   2    -0.114124655081E+03   -0.39860E-01   -0.40439E-01  1552   0.127E+00    0.348E-01
DAV:   3    -0.114124003962E+03    0.65112E-03   -0.62747E-03  1568   0.162E-01    0.254E-01
DAV:   4    -0.114122667995E+03    0.13360E-02   -0.21187E-03  1536   0.689E-02    0.137E-01
DAV:   5    -0.114122565431E+03    0.10256E-03   -0.17251E-03  1552   0.627E-02    0.494E-02
DAV:   6    -0.114122542278E+03    0.23153E-04   -0.72958E-05   896   0.128E-02
  59 F= -.11412254E+03 E0= -.11412254E+03  d E =-.513851E-01  mag=    -0.0000
 curvature: -27.74 expect dE=-0.803E-01 dE for cont linesearch -0.436E-04
 trial: gam= 0.58822 g(F)=  0.289E-02 g(S)=  0.000E+00 ort =-0.122E-03 (trialstep = 0.154E+02)
 search vector abs. value=  0.601E-02
 bond charge predicted
       N       E                     dE             d eps       ncg     rms          rms(c)
DAV:   1    -0.114109434041E+03    0.13131E-01   -0.95926E+01  1488   0.138E+01    0.375E-01
DAV:   2    -0.114151879562E+03   -0.42446E-01   -0.42903E-01  1520   0.130E+00    0.343E-01
DAV:   3    -0.114151109749E+03    0.76981E-03   -0.68119E-03  1600   0.167E-01    0.253E-01
DAV:   4    -0.114149690738E+03    0.14190E-02   -0.23874E-03  1536   0.730E-02    0.126E-01
DAV:   5    -0.114149597831E+03    0.92907E-04   -0.16331E-03  1536   0.624E-02    0.454E-02
DAV:   6    -0.114149574135E+03    0.23696E-04   -0.70241E-05   928   0.134E-02
  60 F= -.11414957E+03 E0= -.11414957E+03  d E =-.270319E-01  mag=    -0.0000
 trial-energy change:   -0.027032  1 .order   -0.027348   -0.043607   -0.011089
 step:  20.7118(harm= 20.7118)  dis= 0.03525  next Energy=  -114.151781 (dE=-0.292E-01)
 bond charge predicted
       N       E                     dE             d eps       ncg     rms          rms(c)
DAV:   1    -0.114146622331E+03    0.29755E-02   -0.11130E+01  1488   0.470E+00    0.124E-01
DAV:   2    -0.114151532454E+03   -0.49101E-02   -0.49551E-02  1520   0.443E-01    0.117E-01
DAV:   3    -0.114151453919E+03    0.78534E-04   -0.77787E-04  1552   0.561E-02
  61 F= -.11415145E+03 E0= -.11415145E+03  d E =-.289116E-01  mag=    -0.0000
 curvature: -22.04 expect dE=-0.367E-01 dE for cont linesearch -0.255E-05
 trial: gam= 0.53746 g(F)=  0.166E-02 g(S)=  0.000E+00 ort =-0.264E-04 (trialstep = 0.165E+02)
 search vector abs. value=  0.337E-02
 bond charge predicted
       N       E                     dE             d eps       ncg     rms          rms(c)
DAV:   1    -0.114142341871E+03    0.91906E-02   -0.61396E+01  1488   0.111E+01    0.299E-01
DAV:   2    -0.114168970768E+03   -0.26629E-01   -0.26919E-01  1552   0.103E+00    0.289E-01
DAV:   3    -0.114168429339E+03    0.54143E-03   -0.39536E-03  1584   0.123E-01    0.221E-01
DAV:   4    -0.114167369791E+03    0.10595E-02   -0.19993E-03  1552   0.665E-02    0.103E-01
DAV:   5    -0.114167342164E+03    0.27627E-04   -0.10326E-03  1568   0.498E-02    0.409E-02
DAV:   6    -0.114167324037E+03    0.18127E-04   -0.47424E-05   896   0.108E-02
  62 F= -.11416732E+03 E0= -.11416732E+03  d E =-.158701E-01  mag=    -0.0000
 trial-energy change:   -0.015870  1 .order   -0.016428   -0.027221   -0.005634
 step:  21.9214(harm= 20.8045)  dis= 0.03207  next Energy=  -114.168230 (dE=-0.168E-01)
 bond charge predicted
       N       E                     dE             d eps       ncg     rms          rms(c)
DAV:   1    -0.114165205132E+03    0.21370E-02   -0.66161E+00  1488   0.363E+00    0.977E-02
DAV:   2    -0.114168119090E+03   -0.29140E-02   -0.29293E-02  1552   0.340E-01    0.901E-02
DAV:   3    -0.114168067390E+03    0.51700E-04   -0.42850E-04  1488   0.410E-02
  63 F= -.11416807E+03 E0= -.11416807E+03  d E =-.166135E-01  mag=     0.0000
 curvature: -19.83 expect dE=-0.207E-01 dE for cont linesearch -0.348E-04
 trial: gam= 0.66496 g(F)=  0.105E-02 g(S)=  0.000E+00 ort =-0.769E-04 (trialstep = 0.176E+02)
 search vector abs. value=  0.243E-02
 bond charge predicted
       N       E                     dE             d eps       ncg     rms          rms(c)
DAV:   1    -0.114158580842E+03    0.95382E-02   -0.50196E+01  1488   0.100E+01    0.251E-01
DAV:   2    -0.114180152418E+03   -0.21572E-01   -0.21596E-01  1536   0.923E-01    0.247E-01
DAV:   3    -0.114179704922E+03    0.44750E-03   -0.32215E-03  1584   0.110E-01    0.194E-01
DAV:   4    -0.114178796175E+03    0.90875E-03   -0.14910E-03  1552   0.573E-02    0.941E-02
DAV:   5    -0.114178731121E+03    0.65054E-04   -0.10064E-03  1536   0.493E-02    0.367E-02
DAV:   6    -0.114178725392E+03    0.57289E-05   -0.27646E-05   896   0.905E-03
  64 F= -.11417873E+03 E0= -.11417873E+03  d E =-.106580E-01  mag=     0.0000
 trial-energy change:   -0.010658  1 .order   -0.011182   -0.017489   -0.004874
 step:  29.1606(harm= 24.3771)  dis= 0.03492  next Energy=  -114.180181 (dE=-0.121E-01)
 bond charge predicted
       N       E                     dE             d eps       ncg     rms          rms(c)
DAV:   1    -0.114170086948E+03    0.86442E-02   -0.21728E+01  1488   0.658E+00    0.163E-01
DAV:   2    -0.114179552564E+03   -0.94656E-02   -0.94258E-02  1520   0.609E-01    0.156E-01
DAV:   3    -0.114179376157E+03    0.17641E-03   -0.14079E-03  1552   0.736E-02    0.121E-01
DAV:   4    -0.114179026706E+03    0.34945E-03   -0.55024E-04  1552   0.350E-02    0.598E-02
DAV:   5    -0.114178995261E+03    0.31445E-04   -0.41477E-04  1408   0.317E-02
  65 F= -.11417900E+03 E0= -.11417900E+03  d E =-.109279E-01  mag=     0.0000
 curvature: -15.04 expect dE=-0.167E-01 dE for cont linesearch -0.150E-03
 trial: gam= 1.16958 g(F)=  0.111E-02 g(S)=  0.000E+00 ort =-0.156E-03 (trialstep = 0.119E+02)
 search vector abs. value=  0.408E-02
 bond charge predicted
       N       E                     dE             d eps       ncg     rms          rms(c)
DAV:   1    -0.114170739936E+03    0.82868E-02   -0.38345E+01  1488   0.873E+00    0.194E-01
DAV:   2    -0.114187670021E+03   -0.16930E-01   -0.16840E-01  1536   0.816E-01    0.206E-01
DAV:   3    -0.114187449699E+03    0.22032E-03   -0.25198E-03  1568   0.975E-02    0.161E-01
DAV:   4    -0.114186879078E+03    0.57062E-03   -0.64682E-04  1536   0.388E-02    0.991E-02
DAV:   5    -0.114186743949E+03    0.13513E-03   -0.11538E-03  1520   0.504E-02    0.355E-02
DAV:   6    -0.114186747492E+03   -0.35428E-05   -0.14897E-05   896   0.666E-03
  66 F= -.11418675E+03 E0= -.11418675E+03  d E =-.775223E-02  mag=     0.0000
 trial-energy change:   -0.007752  1 .order   -0.008347   -0.011034   -0.005659
 step:  24.3972(harm= 24.3972)  dis= 0.03812  next Energy=  -114.190321 (dE=-0.113E-01)
 bond charge predicted
       N       E                     dE             d eps       ncg     rms          rms(c)
DAV:   1    -0.114171562802E+03    0.15181E-01   -0.42518E+01  1488   0.920E+00    0.202E-01
DAV:   2    -0.114190283759E+03   -0.18721E-01   -0.18630E-01  1536   0.859E-01    0.217E-01
DAV:   3    -0.114190029890E+03    0.25387E-03   -0.27769E-03  1568   0.102E-01    0.172E-01
DAV:   4    -0.114189370069E+03    0.65982E-03   -0.70974E-04  1536   0.406E-02    0.107E-01
DAV:   5    -0.114189194141E+03    0.17593E-03   -0.13626E-03  1520   0.547E-02    0.381E-02
DAV:   6    -0.114189198938E+03   -0.47978E-05   -0.16401E-05   880   0.706E-03
  67 F= -.11418920E+03 E0= -.11418920E+03  d E =-.102037E-01  mag=     0.0000
 curvature: -53.55 expect dE=-0.433E-01 dE for cont linesearch -0.218E-06
 trial: gam= 0.38550 g(F)=  0.808E-03 g(S)=  0.000E+00 ort = 0.407E-05 (trialstep = 0.144E+02)
 search vector abs. value=  0.142E-02
 bond charge predicted
       N       E                     dE             d eps       ncg     rms          rms(c)
DAV:   1    -0.114189312215E+03   -0.11807E-03   -0.19596E+01  1488   0.624E+00    0.166E-01
DAV:   2    -0.114198013197E+03   -0.87010E-02   -0.87385E-02  1536   0.585E-01    0.153E-01
DAV:   3    -0.114197871124E+03    0.14207E-03   -0.12718E-03  1552   0.693E-02    0.115E-01
DAV:   4    -0.114197597595E+03    0.27353E-03   -0.53412E-04  1536   0.344E-02    0.535E-02
DAV:   5    -0.114197596453E+03    0.11427E-05   -0.25160E-04   896   0.257E-02
  68 F= -.11419760E+03 E0= -.11419760E+03  d E =-.839751E-02  mag=     0.0000
 trial-energy change:   -0.008398  1 .order   -0.008933   -0.011646   -0.006221
 step:  30.8847(harm= 30.8847)  dis= 0.02569  next Energy=  -114.201699 (dE=-0.125E-01)
 bond charge predicted
       N       E                     dE             d eps       ncg     rms          rms(c)
DAV:   1    -0.114188832947E+03    0.87646E-02   -0.25766E+01  1488   0.716E+00    0.194E-01
DAV:   2    -0.114200312192E+03   -0.11479E-01   -0.11516E-01  1552   0.671E-01    0.174E-01
DAV:   3    -0.114200132009E+03    0.18018E-03   -0.16743E-03  1552   0.795E-02    0.128E-01
DAV:   4    -0.114199794742E+03    0.33727E-03   -0.68869E-04  1552   0.392E-02    0.587E-02
DAV:   5    -0.114199795948E+03   -0.12059E-05   -0.29616E-04   992   0.279E-02
  69 F= -.11419980E+03 E0= -.11419980E+03  d E =-.105970E-01  mag=     0.0000
 curvature: -27.03 expect dE=-0.153E-01 dE for cont linesearch -0.504E-04
 trial: gam= 0.79431 g(F)=  0.567E-03 g(S)=  0.000E+00 ort =-0.514E-04 (trialstep = 0.177E+02)
 search vector abs. value=  0.138E-02
 bond charge predicted
       N       E                     dE             d eps       ncg     rms          rms(c)
DAV:   1    -0.114193570823E+03    0.62239E-02   -0.28759E+01  1488   0.755E+00    0.190E-01
DAV:   2    -0.114206372978E+03   -0.12802E-01   -0.12707E-01  1536   0.704E-01    0.173E-01
DAV:   3    -0.114206163334E+03    0.20964E-03   -0.18837E-03  1568   0.843E-02    0.131E-01
DAV:   4    -0.114205759372E+03    0.40396E-03   -0.69550E-04  1536   0.394E-02    0.630E-02
DAV:   5    -0.114205743380E+03    0.15993E-04   -0.47501E-04  1520   0.331E-02
  70 F= -.11420574E+03 E0= -.11420574E+03  d E =-.594743E-02  mag=     0.0000
 trial-energy change:   -0.005947  1 .order   -0.006595   -0.009314   -0.003876
 step:  30.2923(harm= 30.2923)  dis= 0.02727  next Energy=  -114.207772 (dE=-0.798E-02)
 bond charge predicted
       N       E                     dE             d eps       ncg     rms          rms(c)
DAV:   1    -0.114200513916E+03    0.52455E-02   -0.14603E+01  1488   0.538E+00    0.137E-01
DAV:   2    -0.114207000567E+03   -0.64867E-02   -0.64699E-02  1520   0.502E-01    0.123E-01
DAV:   3    -0.114206898917E+03    0.10165E-03   -0.96285E-04  1568   0.605E-02    0.931E-02
DAV:   4    -0.114206707466E+03    0.19145E-03   -0.33835E-04  1312   0.280E-02    0.452E-02
DAV:   5    -0.114206706268E+03    0.11975E-05   -0.24653E-04   944   0.256E-02
  71 F= -.11420671E+03 E0= -.11420671E+03  d E =-.691032E-02  mag=     0.0000
 curvature: -39.68 expect dE=-0.216E-01 dE for cont linesearch -0.145E-04
 trial: gam= 0.72023 g(F)=  0.545E-03 g(S)=  0.000E+00 ort = 0.225E-04 (trialstep = 0.202E+02)
 search vector abs. value=  0.129E-02
 bond charge predicted
       N       E                     dE             d eps       ncg     rms          rms(c)
DAV:   1    -0.114198856424E+03    0.78510E-02   -0.35206E+01  1488   0.835E+00    0.211E-01
DAV:   2    -0.114214316202E+03   -0.15460E-01   -0.15430E-01  1520   0.773E-01    0.190E-01
DAV:   3    -0.114214029927E+03    0.28627E-03   -0.22661E-03  1584   0.913E-02    0.145E-01
DAV:   4    -0.114213512879E+03    0.51705E-03   -0.93529E-04  1536   0.452E-02    0.649E-02
DAV:   5    -0.114213494579E+03    0.18300E-04   -0.51136E-04  1552   0.346E-02
  72 F= -.11421349E+03 E0= -.11421349E+03  d E =-.678831E-02  mag=     0.0000
 trial-energy change:   -0.006788  1 .order   -0.007515   -0.011332   -0.003698
 step:  29.9945(harm= 29.9945)  dis= 0.03688  next Energy=  -114.215116 (dE=-0.841E-02)
 bond charge predicted
       N       E                     dE             d eps       ncg     rms          rms(c)
DAV:   1    -0.114210563549E+03    0.29493E-02   -0.82466E+00  1488   0.404E+00    0.105E-01
DAV:   2    -0.114214199063E+03   -0.36355E-02   -0.36411E-02  1536   0.375E-01    0.905E-02
DAV:   3    -0.114214140799E+03    0.58264E-04   -0.53692E-04  1568   0.446E-02
  73 F= -.11421414E+03 E0= -.11421414E+03  d E =-.743453E-02  mag=     0.0000
 curvature: -34.57 expect dE=-0.201E-01 dE for cont linesearch -0.157E-04
 trial: gam= 1.10347 g(F)=  0.581E-03 g(S)=  0.000E+00 ort =-0.242E-04 (trialstep = 0.136E+02)
 search vector abs. value=  0.210E-02
 bond charge predicted
       N       E                     dE             d eps       ncg     rms          rms(c)
DAV:   1    -0.114209173125E+03    0.50259E-02   -0.26059E+01  1488   0.715E+00    0.156E-01
DAV:   2    -0.114220417411E+03   -0.11244E-01   -0.11197E-01  1536   0.656E-01    0.165E-01
DAV:   3    -0.114220223672E+03    0.19374E-03   -0.15744E-03  1616   0.738E-02    0.135E-01
DAV:   4    -0.114219755249E+03    0.46842E-03   -0.63843E-04  1536   0.371E-02    0.721E-02
DAV:   5    -0.114219693772E+03    0.61477E-04   -0.72350E-04  1552   0.400E-02
  74 F= -.11421969E+03 E0= -.11421969E+03  d E =-.555297E-02  mag=     0.0000
 trial-energy change:   -0.005553  1 .order   -0.006196   -0.007556   -0.004836
 step:  37.8730(harm= 37.8730)  dis= 0.06510  next Energy=  -114.224635 (dE=-0.105E-01)
 bond charge predicted
       N       E                     dE             d eps       ncg     rms          rms(c)
DAV:   1    -0.114186941226E+03    0.32814E-01   -0.82444E+01  1488   0.127E+01    0.283E-01
DAV:   2    -0.114223326153E+03   -0.36385E-01   -0.36041E-01  1536   0.118E+00    0.274E-01
DAV:   3    -0.114222758002E+03    0.56815E-03   -0.51254E-03  1584   0.135E-01    0.216E-01
DAV:   4    -0.114221550674E+03    0.12073E-02   -0.15392E-03  1536   0.583E-02    0.118E-01
DAV:   5    -0.114221322179E+03    0.22849E-03   -0.17820E-03  1552   0.629E-02    0.394E-02
DAV:   6    -0.114221336246E+03   -0.14067E-04   -0.20908E-05   912   0.866E-03
  75 F= -.11422134E+03 E0= -.11422134E+03  d E =-.719545E-02  mag=     0.0000
 curvature: -71.81 expect dE=-0.830E-01 dE for cont linesearch -0.421E-03
 trial: gam= 2.00955 g(F)=  0.116E-02 g(S)=  0.000E+00 ort =-0.111E-03 (trialstep = 0.422E+01)
 search vector abs. value=  0.920E-02
 bond charge predicted
       N       E                     dE             d eps       ncg     rms          rms(c)
DAV:   1    -0.114220048544E+03    0.12736E-02   -0.10913E+01  1488   0.460E+00    0.949E-02
DAV:   2    -0.114224840021E+03   -0.47915E-02   -0.47494E-02  1552   0.426E-01    0.100E-01
DAV:   3    -0.114224767502E+03    0.72518E-04   -0.66673E-04  1584   0.488E-02
  76 F= -.11422477E+03 E0= -.11422477E+03  d E =-.343126E-02  mag=     0.0000
 ZBRENT: can't locate minimum, use default step
 trial-energy change:   -0.003431  1 .order   -0.003657   -0.003939   -0.003374
 step:  16.8936(harm= 29.4136)  dis= 0.06935  next Energy=  -114.235054 (dE=-0.137E-01)
 bond charge predicted
       N       E                     dE             d eps       ncg     rms          rms(c)
DAV:   1    -0.114190800615E+03    0.34039E-01   -0.98853E+01  1488   0.139E+01    0.308E-01
DAV:   2    -0.114233513120E+03   -0.42713E-01   -0.42607E-01  1536   0.128E+00    0.327E-01
DAV:   3    -0.114232718971E+03    0.79415E-03   -0.59873E-03  1584   0.145E-01    0.267E-01
DAV:   4    -0.114230866817E+03    0.18522E-02   -0.22372E-03  1536   0.694E-02    0.150E-01
DAV:   5    -0.114230469134E+03    0.39768E-03   -0.27873E-03  1552   0.778E-02    0.532E-02
DAV:   6    -0.114230499851E+03   -0.30716E-04   -0.28638E-05   912   0.100E-02
  77 F= -.11423050E+03 E0= -.11423050E+03  d E =-.916360E-02  mag=    -0.0000
 curvature: ****** expect dE=-0.114E+00 dE for cont linesearch -0.162E-02
 ZBRENT: increasing intervall
 opt :  42.2340  next Energy=  -114.228993 (dE=-0.766E-02)
 bond charge predicted
       N       E                     dE             d eps       ncg     rms          rms(c)
DAV:   1    -0.114050728674E+03    0.17974E+00   -0.40152E+02  1488   0.281E+01    0.714E-01
DAV:   2    -0.114232631640E+03   -0.18190E+00   -0.18047E+00  1536   0.264E+00    0.625E-01
DAV:   3    -0.114229392963E+03    0.32387E-02   -0.26267E-02  1584   0.311E-01    0.472E-01
DAV:   4    -0.114224070231E+03    0.53227E-02   -0.62494E-03  1552   0.120E-01    0.279E-01
DAV:   5    -0.114222581501E+03    0.14887E-02   -0.69709E-03  1552   0.124E-01    0.786E-02
DAV:   6    -0.114222690171E+03   -0.10867E-03   -0.99387E-05   992   0.192E-02    0.463E-02
DAV:   7    -0.114222725735E+03   -0.35565E-04   -0.39800E-05   928   0.117E-02
  78 F= -.11422273E+03 E0= -.11422273E+03  d E =-.138949E-02  mag=    -0.0000
 curvature: 101.41 expect dE= 0.360E+00 dE for cont linesearch  0.429E-02
 ZBRENT: bracketing found
 ZBRENT: interpolating
 opt :  26.3252  next Energy=  -114.232243 (dE=-0.109E-01)
 bond charge predicted
       N       E                     dE             d eps       ncg     rms          rms(c)
DAV:   1    -0.114163619923E+03    0.59070E-01   -0.15636E+02  1488   0.175E+01    0.399E-01
DAV:   2    -0.114234677277E+03   -0.71057E-01   -0.70185E-01  1536   0.164E+00    0.384E-01
DAV:   3    -0.114233635779E+03    0.10415E-02   -0.10128E-02  1648   0.193E-01    0.299E-01
DAV:   4    -0.114231483431E+03    0.21523E-02   -0.23177E-03  1520   0.718E-02    0.179E-01
DAV:   5    -0.114230832577E+03    0.65085E-03   -0.37839E-03  1536   0.903E-02    0.518E-02
DAV:   6    -0.114230868529E+03   -0.35952E-04   -0.36631E-05   960   0.114E-02
  79 F= -.11423087E+03 E0= -.11423087E+03  d E =-.953228E-02  mag=    -0.0000
 curvature: -41.23 expect dE=-0.658E-01 dE for cont linesearch -0.512E-03
 trial: gam= 0.00000 g(F)=  0.160E-02 g(S)=  0.000E+00 ort =-0.338E-03 (trialstep = 0.864E+01)
 search vector abs. value=  0.160E-02
 bond charge predicted
       N       E                     dE             d eps       ncg     rms          rms(c)
DAV:   1    -0.114238357434E+03   -0.75249E-02   -0.79953E+00  1488   0.398E+00    0.135E-01
DAV:   2    -0.114241877730E+03   -0.35203E-02   -0.36003E-02  1568   0.373E-01    0.109E-01
DAV:   3    -0.114241815915E+03    0.61815E-04   -0.56269E-04  1568   0.461E-02
  80 F= -.11424182E+03 E0= -.11424182E+03  d E =-.109474E-01  mag=    -0.0000
 trial-energy change:   -0.010947  1 .order   -0.010833   -0.013787   -0.007878
 step:  20.1662(harm= 20.1662)  dis= 0.01564  next Energy=  -114.246952 (dE=-0.161E-01)
 bond charge predicted
       N       E                     dE             d eps       ncg     rms          rms(c)
DAV:   1    -0.114241390940E+03    0.48679E-03   -0.14235E+01  1488   0.532E+00    0.198E-01
DAV:   2    -0.114247601238E+03   -0.62103E-02   -0.63819E-02  1552   0.495E-01    0.155E-01
DAV:   3    -0.114247473387E+03    0.12785E-03   -0.10105E-03  1568   0.608E-02    0.104E-01
DAV:   4    -0.114247359443E+03    0.11394E-03   -0.54039E-04  1536   0.370E-02    0.292E-02
DAV:   5    -0.114247370730E+03   -0.11287E-04   -0.28743E-05   880   0.131E-02
  81 F= -.11424737E+03 E0= -.11424737E+03  d E =-.165022E-01  mag=    -0.0000
 curvature: -10.08 expect dE=-0.774E-02 dE for cont linesearch -0.281E-04
 trial: gam= 0.43915 g(F)=  0.767E-03 g(S)=  0.000E+00 ort = 0.667E-04 (trialstep = 0.109E+02)
 search vector abs. value=  0.113E-02
 bond charge predicted
       N       E                     dE             d eps       ncg     rms          rms(c)
DAV:   1    -0.114249802014E+03   -0.24426E-02   -0.90935E+00  1488   0.424E+00    0.121E-01
DAV:   2    -0.114253824910E+03   -0.40229E-02   -0.40706E-02  1520   0.396E-01    0.103E-01
DAV:   3    -0.114253760553E+03    0.64357E-04   -0.63365E-04  1568   0.485E-02
  82 F= -.11425376E+03 E0= -.11425376E+03  d E =-.638982E-02  mag=    -0.0000
 trial-energy change:   -0.006390  1 .order   -0.006334   -0.008720   -0.003949
 step:  20.0081(harm= 20.0081)  dis= 0.01536  next Energy=  -114.255339 (dE=-0.797E-02)
 bond charge predicted
       N       E                     dE             d eps       ncg     rms          rms(c)
DAV:   1    -0.114252775064E+03    0.10498E-02   -0.62454E+00  1488   0.352E+00    0.117E-01
DAV:   2    -0.114255453722E+03   -0.26787E-02   -0.27347E-02  1536   0.325E-01    0.100E-01
[...]
 curvature: ****** expect dE=-0.130E+00 dE for cont linesearch -0.537E-03
 trial: gam= 0.33934 g(F)=  0.102E-02 g(S)=  0.000E+00 ort = 0.174E-03 (trialstep = 0.703E+01)
 search vector abs. value=  0.197E-02
 bond charge predicted
       N       E                     dE             d eps       ncg     rms          rms(c)
DAV:   1    -0.114282758836E+03   -0.36574E-02   -0.65036E+00  1488   0.357E+00    0.936E-02
DAV:   2    -0.114285622105E+03   -0.28633E-02   -0.28720E-02  1552   0.334E-01    0.883E-02
DAV:   3    -0.114285580502E+03    0.41603E-04   -0.43406E-04  1520   0.409E-02
  89 F= -.11428558E+03 E0= -.11428558E+03  d E =-.645964E-02  mag=     0.0000
 trial-energy change:   -0.006460  1 .order   -0.006512   -0.007569   -0.005454
 step:  25.1619(harm= 25.1619)  dis= 0.03439  next Energy=  -114.292663 (dE=-0.135E-01)
 bond charge predicted
       N       E                     dE             d eps       ncg     rms          rms(c)
DAV:   1    -0.114275444815E+03    0.10177E-01   -0.43381E+01  1488   0.924E+00    0.255E-01
DAV:   2    -0.114294343882E+03   -0.18899E-01   -0.19001E-01  1536   0.862E-01    0.246E-01
DAV:   3    -0.114294011350E+03    0.33253E-03   -0.29013E-03  1600   0.105E-01    0.185E-01
DAV:   4    -0.114293318321E+03    0.69303E-03   -0.13057E-03  1552   0.537E-02    0.899E-02
DAV:   5    -0.114293303201E+03    0.15120E-04   -0.70800E-04  1552   0.411E-02
  90 F= -.11429330E+03 E0= -.11429330E+03  d E =-.141823E-01  mag=     0.0000
 curvature: -23.04 expect dE=-0.181E-01 dE for cont linesearch -0.219E-03
 trial: gam= 0.67859 g(F)=  0.785E-03 g(S)=  0.000E+00 ort = 0.137E-03 (trialstep = 0.107E+02)
 search vector abs. value=  0.188E-02
 bond charge predicted
       N       E                     dE             d eps       ncg     rms          rms(c)
DAV:   1    -0.114294862569E+03   -0.15442E-02   -0.14224E+01  1488   0.528E+00    0.123E-01
DAV:   2    -0.114301188100E+03   -0.63255E-02   -0.62974E-02  1552   0.494E-01    0.125E-01
DAV:   3    -0.114301123597E+03    0.64503E-04   -0.94877E-04  1584   0.599E-02
  91 F= -.11430112E+03 E0= -.11430112E+03  d E =-.782040E-02  mag=     0.0000
 trial-energy change:   -0.007820  1 .order   -0.007946   -0.009357   -0.006535
 step:  35.3381(harm= 35.3381)  dis= 0.05742  next Energy=  -114.308815 (dE=-0.155E-01)
 bond charge predicted
       N       E                     dE             d eps       ncg     rms          rms(c)
DAV:   1    -0.114276593795E+03    0.24594E-01   -0.76600E+01  1488   0.123E+01    0.300E-01
DAV:   2    -0.114309829877E+03   -0.33236E-01   -0.33224E-01  1520   0.114E+00    0.321E-01
DAV:   3    -0.114309316664E+03    0.51321E-03   -0.49560E-03  1600   0.135E-01    0.254E-01
DAV:   4    -0.114307922719E+03    0.13939E-02   -0.18727E-03  1536   0.643E-02    0.148E-01
DAV:   5    -0.114307719411E+03    0.20331E-03   -0.21796E-03  1520   0.696E-02    0.562E-02
DAV:   6    -0.114307720250E+03   -0.83909E-06   -0.38532E-05   920   0.103E-02
  92 F= -.11430772E+03 E0= -.11430772E+03  d E =-.144170E-01  mag=     0.0000
 curvature: -37.81 expect dE=-0.288E-01 dE for cont linesearch -0.240E-07
 trial: gam= 1.07957 g(F)=  0.761E-03 g(S)=  0.000E+00 ort = 0.109E-05 (trialstep = 0.992E+01)
 search vector abs. value=  0.295E-02
 bond charge predicted
       N       E                     dE             d eps       ncg     rms          rms(c)
DAV:   1    -0.114305122130E+03    0.25973E-02   -0.19369E+01  1488   0.616E+00    0.141E-01
DAV:   2    -0.114313631467E+03   -0.85093E-02   -0.84768E-02  1536   0.572E-01    0.142E-01
DAV:   3    -0.114313508290E+03    0.12318E-03   -0.12457E-03  1584   0.678E-02    0.111E-01
DAV:   4    -0.114313223735E+03    0.28456E-03   -0.36185E-04  1456   0.284E-02    0.632E-02
DAV:   5    -0.114313179375E+03    0.44360E-04   -0.49730E-04  1536   0.334E-02
  93 F= -.11431318E+03 E0= -.11431318E+03  d E =-.545912E-02  mag=     0.0000
 trial-energy change:   -0.005459  1 .order   -0.005942   -0.007565   -0.004319
 step:  23.1166(harm= 23.1166)  dis= 0.04506  next Energy=  -114.316535 (dE=-0.882E-02)
 bond charge predicted
       N       E                     dE             d eps       ncg     rms          rms(c)
DAV:   1    -0.114300687221E+03    0.12537E-01   -0.34322E+01  1488   0.820E+00    0.193E-01
DAV:   2    -0.114315825583E+03   -0.15138E-01   -0.15074E-01  1536   0.762E-01    0.187E-01
DAV:   3    -0.114315618183E+03    0.20740E-03   -0.22301E-03  1584   0.908E-02    0.144E-01
DAV:   4    -0.114315140937E+03    0.47725E-03   -0.64218E-04  1552   0.378E-02    0.804E-02
DAV:   5    -0.114315070742E+03    0.70195E-04   -0.74859E-04  1520   0.406E-02
  94 F= -.11431507E+03 E0= -.11431507E+03  d E =-.735049E-02  mag=     0.0000
 curvature: -44.76 expect dE=-0.261E-01 dE for cont linesearch -0.929E-05
 trial: gam= 0.67375 g(F)=  0.583E-03 g(S)=  0.000E+00 ort =-0.248E-04 (trialstep = 0.126E+02)
 search vector abs. value=  0.189E-02
 bond charge predicted
       N       E                     dE             d eps       ncg     rms          rms(c)
DAV:   1    -0.114311449619E+03    0.36913E-02   -0.19882E+01  1488   0.625E+00    0.147E-01
DAV:   2    -0.114320240786E+03   -0.87912E-02   -0.88015E-02  1552   0.582E-01    0.134E-01
DAV:   3    -0.114320117541E+03    0.12324E-03   -0.13071E-03  1584   0.702E-02    0.102E-01
DAV:   4    -0.114319875838E+03    0.24170E-03   -0.32601E-04  1344   0.275E-02    0.554E-02
DAV:   5    -0.114319847253E+03    0.28585E-04   -0.42484E-04  1536   0.312E-02
  95 F= -.11431985E+03 E0= -.11431985E+03  d E =-.477651E-02  mag=     0.0000
 trial-energy change:   -0.004777  1 .order   -0.005333   -0.007115   -0.003551
 step:  25.0737(harm= 25.0737)  dis= 0.03039  next Energy=  -114.322173 (dE=-0.710E-02)
 bond charge predicted
       N       E                     dE             d eps       ncg     rms          rms(c)
DAV:   1    -0.114312712307E+03    0.71635E-02   -0.19744E+01  1488   0.623E+00    0.148E-01
DAV:   2    -0.114321418875E+03   -0.87066E-02   -0.87289E-02  1552   0.580E-01    0.134E-01
DAV:   3    -0.114321295219E+03    0.12366E-03   -0.12962E-03  1584   0.700E-02    0.103E-01
DAV:   4    -0.114321050309E+03    0.24491E-03   -0.33991E-04  1360   0.280E-02    0.546E-02
DAV:   5    -0.114321023479E+03    0.26830E-04   -0.40865E-04  1520   0.306E-02
  96 F= -.11432102E+03 E0= -.11432102E+03  d E =-.595274E-02  mag=     0.0000
 curvature: -41.83 expect dE=-0.215E-01 dE for cont linesearch -0.236E-05
 trial: gam= 0.74615 g(F)=  0.514E-03 g(S)=  0.000E+00 ort =-0.103E-04 (trialstep = 0.151E+02)
 search vector abs. value=  0.155E-02
 bond charge predicted
       N       E                     dE             d eps       ncg     rms          rms(c)
DAV:   1    -0.114315680304E+03    0.53700E-02   -0.23469E+01  1488   0.680E+00    0.173E-01
DAV:   2    -0.114326069490E+03   -0.10389E-01   -0.10406E-01  1520   0.635E-01    0.155E-01
DAV:   3    -0.114325910835E+03    0.15866E-03   -0.15567E-03  1568   0.773E-02    0.117E-01
DAV:   4    -0.114325603299E+03    0.30754E-03   -0.51099E-04  1520   0.339E-02    0.570E-02
DAV:   5    -0.114325586446E+03    0.16853E-04   -0.36637E-04  1424   0.290E-02
  97 F= -.11432559E+03 E0= -.11432559E+03  d E =-.456297E-02  mag=     0.0000
 trial-energy change:   -0.004563  1 .order   -0.005085   -0.007625   -0.002544
 step:  22.6043(harm= 22.6043)  dis= 0.02260  next Energy=  -114.326745 (dE=-0.572E-02)
 bond charge predicted
       N       E                     dE             d eps       ncg     rms          rms(c)
DAV:   1    -0.114323382798E+03    0.22205E-02   -0.58777E+00  1488   0.340E+00    0.886E-02
DAV:   2    -0.114325998843E+03   -0.26160E-02   -0.26223E-02  1520   0.318E-01    0.767E-02
DAV:   3    -0.114325965553E+03    0.33290E-04   -0.38477E-04  1376   0.389E-02
  98 F= -.11432597E+03 E0= -.11432597E+03  d E =-.494207E-02  mag=     0.0000
 curvature: -34.63 expect dE=-0.142E-01 dE for cont linesearch -0.136E-03
 trial: gam= 0.81017 g(F)=  0.410E-03 g(S)=  0.000E+00 ort =-0.780E-04 (trialstep = 0.166E+02)
 search vector abs. value=  0.130E-02
 bond charge predicted
       N       E                     dE             d eps       ncg     rms          rms(c)
DAV:   1    -0.114320188759E+03    0.58101E-02   -0.23843E+01  1488   0.686E+00    0.161E-01
DAV:   2    -0.114330576276E+03   -0.10388E-01   -0.10406E-01  1520   0.636E-01    0.163E-01
DAV:   3    -0.114330405900E+03    0.17038E-03   -0.15202E-03  1600   0.745E-02    0.129E-01
DAV:   4    -0.114330011129E+03    0.39477E-03   -0.56383E-04  1520   0.356E-02    0.681E-02
DAV:   5    -0.114329968450E+03    0.42680E-04   -0.57238E-04  1552   0.356E-02
  99 F= -.11432997E+03 E0= -.11432997E+03  d E =-.400290E-02  mag=     0.0000
 trial-energy change:   -0.004003  1 .order   -0.004232   -0.005745   -0.002718
 step:  31.4530(harm= 31.4530)  dis= 0.03080  next Energy=  -114.331418 (dE=-0.545E-02)
 bond charge predicted
       N       E                     dE             d eps       ncg     rms          rms(c)
DAV:   1    -0.114322058499E+03    0.79526E-02   -0.19199E+01  1488   0.615E+00    0.145E-01
DAV:   2    -0.114330610663E+03   -0.85522E-02   -0.85269E-02  1536   0.575E-01    0.137E-01
DAV:   3    -0.114330503601E+03    0.10706E-03   -0.12597E-03  1600   0.686E-02    0.104E-01
DAV:   4    -0.114330255745E+03    0.24786E-03   -0.34127E-04  1328   0.285E-02    0.574E-02
DAV:   5    -0.114330228334E+03    0.27410E-04   -0.42475E-04  1536   0.314E-02
 100 F= -.11433023E+03 E0= -.11433023E+03  d E =-.426278E-02  mag=     0.0000
 curvature: -59.04 expect dE=-0.286E-01 dE for cont linesearch -0.122E-03
 trial: gam= 1.27150 g(F)=  0.484E-03 g(S)=  0.000E+00 ort =-0.519E-04 (trialstep = 0.104E+02)
 search vector abs. value=  0.246E-02
 bond charge predicted
       N       E                     dE             d eps       ncg     rms          rms(c)
DAV:   1    -0.114325726888E+03    0.45289E-02   -0.17540E+01  1488   0.588E+00    0.128E-01
DAV:   2    -0.114333500360E+03   -0.77735E-02   -0.77276E-02  1536   0.546E-01    0.127E-01
DAV:   3    -0.114333403894E+03    0.96466E-04   -0.11059E-03  1600   0.635E-02    0.997E-02
DAV:   4    -0.114333166699E+03    0.23719E-03   -0.26612E-04   976   0.258E-02    0.587E-02
DAV:   5    -0.114333123646E+03    0.43053E-04   -0.51325E-04  1536   0.351E-02
 101 F= -.11433312E+03 E0= -.11433312E+03  d E =-.289531E-02  mag=     0.0000
 trial-energy change:   -0.002895  1 .order   -0.003432   -0.004328   -0.002536
 step:  25.0119(harm= 25.0119)  dis= 0.03450  next Energy=  -114.335454 (dE=-0.523E-02)
 bond charge predicted
       N       E                     dE             d eps       ncg     rms          rms(c)
DAV:   1    -0.114319044509E+03    0.14122E-01   -0.35119E+01  1488   0.832E+00    0.183E-01
DAV:   2    -0.114334583290E+03   -0.15539E-01   -0.15471E-01  1520   0.774E-01    0.180E-01
DAV:   3    -0.114334381286E+03    0.20200E-03   -0.22132E-03  1600   0.900E-02    0.141E-01
DAV:   4    -0.114333901774E+03    0.47951E-03   -0.58347E-04  1536   0.368E-02    0.804E-02
DAV:   5    -0.114333807913E+03    0.93861E-04   -0.83225E-04  1504   0.424E-02
 102 F= -.11433381E+03 E0= -.11433381E+03  d E =-.357958E-02  mag=     0.0000
 curvature: -73.51 expect dE=-0.214E-01 dE for cont linesearch -0.112E-04
 trial: gam= 0.41986 g(F)=  0.291E-03 g(S)=  0.000E+00 ort =-0.193E-04 (trialstep = 0.133E+02)
 search vector abs. value=  0.707E-03
 bond charge predicted
       N       E                     dE             d eps       ncg     rms          rms(c)
DAV:   1    -0.114332848367E+03    0.10534E-02   -0.83201E+00  1488   0.405E+00    0.939E-02
DAV:   2    -0.114336560774E+03   -0.37124E-02   -0.37120E-02  1520   0.377E-01    0.851E-02
DAV:   3    -0.114336519332E+03    0.41442E-04   -0.52817E-04  1520   0.431E-02
 103 F= -.11433652E+03 E0= -.11433652E+03  d E =-.271142E-02  mag=     0.0000
 trial-energy change:   -0.002711  1 .order   -0.002893   -0.003753   -0.002034
 step:  29.0021(harm= 29.0021)  dis= 0.02123  next Energy=  -114.337904 (dE=-0.410E-02)
 bond charge predicted
       N       E                     dE             d eps       ncg     rms          rms(c)
DAV:   1    -0.114332865438E+03    0.36953E-02   -0.11660E+01  1488   0.479E+00    0.119E-01
DAV:   2    -0.114337872393E+03   -0.50070E-02   -0.50439E-02  1520   0.441E-01    0.118E-01
DAV:   3    -0.114337778077E+03    0.94317E-04   -0.70659E-04  1600   0.489E-02
 104 F= -.11433778E+03 E0= -.11433778E+03  d E =-.397016E-02  mag=     0.0000
 curvature: -36.31 expect dE=-0.102E-01 dE for cont linesearch -0.850E-04
 trial: gam= 0.77155 g(F)=  0.281E-03 g(S)=  0.000E+00 ort = 0.407E-04 (trialstep = 0.152E+02)
 search vector abs. value=  0.764E-03
 bond charge predicted
       N       E                     dE             d eps       ncg     rms          rms(c)
DAV:   1    -0.114335990336E+03    0.18821E-02   -0.11783E+01  1488   0.483E+00    0.115E-01
DAV:   2    -0.114341034400E+03   -0.50441E-02   -0.50581E-02  1504   0.443E-01    0.117E-01
DAV:   3    -0.114340946542E+03    0.87859E-04   -0.71320E-04  1600   0.497E-02
 105 F= -.11434095E+03 E0= -.11434095E+03  d E =-.316847E-02  mag=     0.0000
 trial-energy change:   -0.003168  1 .order   -0.003708   -0.004744   -0.002673
 step:  34.8357(harm= 34.8357)  dis= 0.02268  next Energy=  -114.343213 (dE=-0.543E-02)
 bond charge predicted
       N       E                     dE             d eps       ncg     rms          rms(c)
DAV:   1    -0.114333815992E+03    0.72184E-02   -0.19649E+01  1488   0.623E+00    0.155E-01
DAV:   2    -0.114342200911E+03   -0.83849E-02   -0.84109E-02  1504   0.572E-01    0.156E-01
DAV:   3    -0.114342043272E+03    0.15764E-03   -0.11793E-03  1600   0.637E-02    0.126E-01
DAV:   4    -0.114341664252E+03    0.37902E-03   -0.75632E-04  1520   0.408E-02    0.563E-02
DAV:   5    -0.114341667258E+03   -0.30061E-05   -0.37213E-04  1440   0.296E-02
 106 F= -.11434167E+03 E0= -.11434167E+03  d E =-.388918E-02  mag=     0.0000
 curvature: -42.67 expect dE=-0.149E-01 dE for cont linesearch -0.188E-04
 trial: gam= 1.46406 g(F)=  0.348E-03 g(S)=  0.000E+00 ort =-0.183E-04 (trialstep = 0.756E+01)
 search vector abs. value=  0.193E-02
 bond charge predicted
       N       E                     dE             d eps       ncg     rms          rms(c)
DAV:   1    -0.114340339341E+03    0.13249E-02   -0.73532E+00  1488   0.380E+00    0.812E-02
DAV:   2    -0.114343636093E+03   -0.32968E-02   -0.32584E-02  1520   0.354E-01    0.774E-02
DAV:   3    -0.114343603535E+03    0.32558E-04   -0.45488E-04  1472   0.401E-02
 107 F= -.11434360E+03 E0= -.11434360E+03  d E =-.193628E-02  mag=     0.0000
 trial-energy change:   -0.001936  1 .order   -0.002082   -0.002431   -0.001732
 step:  26.2993(harm= 26.2993)  dis= 0.02779  next Energy=  -114.345893 (dE=-0.423E-02)
 bond charge predicted
       N       E                     dE             d eps       ncg     rms          rms(c)
DAV:   1    -0.114326747145E+03    0.16889E-01   -0.45210E+01  1488   0.944E+00    0.203E-01
DAV:   2    -0.114346511619E+03   -0.19764E-01   -0.19617E-01  1520   0.872E-01    0.215E-01
DAV:   3    -0.114346217721E+03    0.29390E-03   -0.27313E-03  1584   0.971E-02    0.177E-01
DAV:   4    -0.114345401278E+03    0.81644E-03   -0.11035E-03  1520   0.494E-02    0.934E-02
DAV:   5    -0.114345291234E+03    0.11004E-03   -0.11960E-03  1520   0.508E-02    0.368E-02
DAV:   6    -0.114345298619E+03   -0.73844E-05   -0.14691E-05   928   0.685E-03
 108 F= -.11434530E+03 E0= -.11434530E+03  d E =-.363136E-02  mag=     0.0000
 curvature: -79.09 expect dE=-0.250E-01 dE for cont linesearch -0.238E-04
 trial: gam= 0.51552 g(F)=  0.316E-03 g(S)=  0.000E+00 ort = 0.241E-04 (trialstep = 0.113E+02)
 search vector abs. value=  0.855E-03
 bond charge predicted
       N       E                     dE             d eps       ncg     rms          rms(c)
DAV:   1    -0.114345207888E+03    0.83346E-04   -0.72786E+00  1488   0.378E+00    0.835E-02
DAV:   2    -0.114348445973E+03   -0.32381E-02   -0.32167E-02  1520   0.352E-01    0.827E-02
DAV:   3    -0.114348403081E+03    0.42892E-04   -0.45271E-04  1488   0.400E-02
 109 F= -.11434840E+03 E0= -.11434840E+03  d E =-.310446E-02  mag=     0.0000
 trial-energy change:   -0.003104  1 .order   -0.003191   -0.003718   -0.002664
 step:  39.8885(harm= 39.8885)  dis= 0.03021  next Energy=  -114.351854 (dE=-0.656E-02)
 bond charge predicted
       N       E                     dE             d eps       ncg     rms          rms(c)
DAV:   1    -0.114331704127E+03    0.16742E-01   -0.46580E+01  1488   0.958E+00    0.227E-01
DAV:   2    -0.114352134334E+03   -0.20430E-01   -0.20368E-01  1520   0.886E-01    0.225E-01
DAV:   3    -0.114351777784E+03    0.35655E-03   -0.28681E-03  1584   0.997E-02    0.180E-01
DAV:   4    -0.114350955380E+03    0.82240E-03   -0.14351E-03  1504   0.560E-02    0.840E-02
DAV:   5    -0.114350921177E+03    0.34203E-04   -0.86443E-04  1568   0.442E-02
 110 F= -.11435092E+03 E0= -.11435092E+03  d E =-.562256E-02  mag=     0.0000
 curvature: -51.87 expect dE=-0.293E-01 dE for cont linesearch -0.408E-05
 trial: gam= 1.84886 g(F)=  0.564E-03 g(S)=  0.000E+00 ort = 0.820E-05 (trialstep = 0.414E+01)
 search vector abs. value=  0.352E-02
 bond charge predicted
       N       E                     dE             d eps       ncg     rms          rms(c)
DAV:   1    -0.114351073275E+03   -0.11790E-03   -0.40002E+00  1488   0.281E+00    0.650E-02
DAV:   2    -0.114352873784E+03   -0.18005E-02   -0.17838E-02  1568   0.261E-01    0.575E-02
DAV:   3    -0.114352856696E+03    0.17088E-04   -0.22900E-04   944   0.303E-02
 111 F= -.11435286E+03 E0= -.11435286E+03  d E =-.193552E-02  mag=     0.0000
 trial-energy change:   -0.001936  1 .order   -0.001591   -0.002398   -0.000784
 step:   6.1502(harm=  6.1502)  dis= 0.01042  next Energy=  -114.352703 (dE=-0.178E-02)
 bond charge predicted
       N       E                     dE             d eps       ncg     rms          rms(c)
DAV:   1    -0.114353246267E+03   -0.37248E-03   -0.95458E-01  1504   0.137E+00    0.368E-02
DAV:   2    -0.114353636010E+03   -0.38974E-03   -0.39539E-03  1600   0.124E-01    0.378E-02
DAV:   3    -0.114353626627E+03    0.93838E-05   -0.45612E-05   880   0.132E-02
 112 F= -.11435363E+03 E0= -.11435363E+03  d E =-.270545E-02  mag=     0.0000
 curvature: -18.67 expect dE=-0.670E-02 dE for cont linesearch -0.406E-03
 trial: gam=-0.11884 g(F)=  0.359E-03 g(S)=  0.000E+00 ort = 0.277E-03 (trialstep = 0.454E+01)
 search vector abs. value=  0.343E-03
 bond charge predicted
       N       E                     dE             d eps       ncg     rms          rms(c)
DAV:   1    -0.114354628108E+03   -0.99210E-03   -0.47583E-01  1488   0.972E-01    0.396E-02
DAV:   2    -0.114354838356E+03   -0.21025E-03   -0.21518E-03  1568   0.897E-02    0.283E-02
DAV:   3    -0.114354835304E+03    0.30524E-05   -0.31747E-05   880   0.107E-02
 113 F= -.11435484E+03 E0= -.11435484E+03  d E =-.120868E-02  mag=     0.0000
 trial-energy change:   -0.001209  1 .order   -0.001153   -0.001480   -0.000826
 step:  10.2740(harm= 10.2740)  dis= 0.00444  next Energy=  -114.355301 (dE=-0.167E-02)
 bond charge predicted
       N       E                     dE             d eps       ncg     rms          rms(c)
DAV:   1    -0.114355347350E+03   -0.50899E-03   -0.76191E-01  1504   0.123E+00    0.502E-02
DAV:   2    -0.114355674627E+03   -0.32728E-03   -0.34427E-03  1568   0.113E-01    0.352E-02
DAV:   3    -0.114355669135E+03    0.54923E-05   -0.48993E-05   896   0.132E-02
 114 F= -.11435567E+03 E0= -.11435567E+03  d E =-.204251E-02  mag=     0.0000
 curvature:  -5.40 expect dE=-0.425E-03 dE for cont linesearch -0.212E-04
 trial: gam= 0.01710 g(F)=  0.787E-04 g(S)=  0.000E+00 ort = 0.367E-04 (trialstep = 0.569E+01)
 search vector abs. value=  0.800E-04
 reached required accuracy - stopping structural energy minimisation
Application 91143649 resources: utime ~426097s, stime ~1992s, Rss ~79180, inblocks ~6581677, outblocks ~3072980
