<?xml version="1.0" encoding="ISO-8859-1"?>
<modeling>
 <generator>
  <i name="program" type="string">vasp </i>
  <i name="version" type="string">5.3.5  </i>
  <i name="subversion" type="string">31Mar14 (build Feb 01 2018 12:10:03) gamma-only                       parallel </i>
  <i name="platform" type="string">LinuxIFC </i>
  <i name="date" type="string">2019 03 22 </i>
  <i name="time" type="string">16:19:10 </i>
 </generator>
 <incar>
  <i type="string" name="PREC">normal</i>
  <i type="int" name="ISPIN">     2</i>
  <i type="int" name="IBRION">     2</i>
  <i type="int" name="NSW">  1000</i>
  <i type="int" name="ISIF">     2</i>
  <i name="POTIM">      0.10000000</i>
  <i type="logical" name="LPLANE"> T  </i>
  <i type="int" name="ISMEAR">     0</i>
  <i name="SIGMA">      0.00010000</i>
  <i type="logical" name="LWAVE"> F  </i>
  <i type="logical" name="LCHARG"> F  </i>
  <i type="logical" name="LVTOT"> F  </i>
  <i type="string" name="GGA"> PE</i>
 </incar>
 <kpoints>
  <varray name="kpointlist" >
   <v>       0.00000000       0.00000000       0.00000000 </v>
  </varray>
  <varray name="weights" >
   <v>       1.00000000 </v>
  </varray>
 </kpoints>
 <parameters>
  <separator name="general" >
   <i type="string" name="SYSTEM">unknown system</i>
   <i type="logical" name="LCOMPAT"> F  </i>
  </separator>
  <separator name="electronic" >
   <i type="string" name="PREC">normal</i>
   <i name="ENMAX">    249.84400000</i>
   <i name="ENAUG">    412.49600000</i>
   <i name="EDIFF">      0.00010000</i>
   <i type="int" name="IALGO">    38</i>
   <i type="int" name="IWAVPR">    11</i>
   <i type="int" name="NBANDS">   220</i>
   <i name="NELECT">    341.00000000</i>
   <i type="int" name="TURBO">     0</i>
   <i type="int" name="IRESTART">     0</i>
   <i type="int" name="NREBOOT">     0</i>
   <i type="int" name="NMIN">     0</i>
   <i name="EREF">      0.00000000</i>
   <separator name="electronic smearing" >
    <i type="int" name="ISMEAR">     0</i>
    <i name="SIGMA">      0.00010000</i>
    <i name="KSPACING">      0.50000000</i>
    <i type="logical" name="KGAMMA"> T  </i>
   </separator>
   <separator name="electronic projectors" >
    <i type="logical" name="LREAL"> F  </i>
    <v name="ROPT">      0.00000000</v>
    <i type="int" name="LMAXPAW">  -100</i>
    <i type="int" name="LMAXMIX">     2</i>
    <i type="logical" name="NLSPLINE"> F  </i>
   </separator>
   <separator name="electronic startup" >
    <i type="int" name="ISTART">     0</i>
    <i type="int" name="ICHARG">     2</i>
    <i type="int" name="INIWAV">     1</i>
   </separator>
   <separator name="electronic spin" >
    <i type="int" name="ISPIN">     2</i>
    <i type="logical" name="LNONCOLLINEAR"> F  </i>
    <v name="MAGMOM">      1.00000000      1.00000000      1.00000000      1.00000000      1.00000000      1.00000000      1.00000000      1.00000000      1.00000000      1.00000000      1.00000000      1.00000000      1.00000000      1.00000000      1.00000000      1.00000000      1.00000000      1.00000000      1.00000000      1.00000000
      1.00000000      1.00000000      1.00000000      1.00000000      1.00000000      1.00000000      1.00000000      1.00000000      1.00000000      1.00000000      1.00000000</v>
    <i name="NUPDOWN">     -1.00000000</i>
    <i type="logical" name="LSORBIT"> F  </i>
    <v name="SAXIS">      0.00000000      0.00000000      1.00000000</v>
    <i type="logical" name="LSPIRAL"> F  </i>
    <v name="QSPIRAL">      0.00000000      0.00000000      0.00000000</v>
    <i type="logical" name="LZEROZ"> F  </i>
   </separator>
   <separator name="electronic exchange-correlation" >
    <i type="logical" name="LASPH"> F  </i>
    <i type="logical" name="LMETAGGA"> F  </i>
   </separator>
   <separator name="electronic convergence" >
    <i type="int" name="NELM">    60</i>
    <i type="int" name="NELMDL">    -5</i>
    <i type="int" name="NELMIN">     2</i>
    <i name="ENINI">    249.84400000</i>
    <separator name="electronic convergence detail" >
     <i type="logical" name="LDIAG"> T  </i>
     <i type="logical" name="LSUBROT"> F  </i>
     <i name="WEIMIN">      0.00100000</i>
     <i name="EBREAK">      0.00000011</i>
     <i name="DEPER">      0.30000000</i>
     <i type="int" name="NRMM">     4</i>
     <i name="TIME">      0.40000000</i>
    </separator>
   </separator>
   <separator name="electronic mixer" >
    <i name="AMIX">      0.40000000</i>
    <i name="BMIX">      1.00000000</i>
    <i name="AMIN">      0.10000000</i>
    <i name="AMIX_MAG">      1.60000000</i>
    <i name="BMIX_MAG">      1.00000000</i>
    <separator name="electronic mixer details" >
     <i type="int" name="IMIX">     4</i>
     <i type="int" name="MAXMIX">   -45</i>
     <i name="WC">    100.00000000</i>
     <i type="int" name="INIMIX">     1</i>
     <i type="int" name="MIXPRE">     1</i>
     <i type="int" name="MREMOVE">     5</i>
    </separator>
   </separator>
   <separator name="electronic dipolcorrection" >
    <i type="logical" name="LDIPOL"> F  </i>
    <i type="logical" name="LMONO"> F  </i>
    <i type="int" name="IDIPOL">     0</i>
    <i name="EPSILON">      1.00000000</i>
    <v name="DIPOL">   -100.00000000   -100.00000000   -100.00000000</v>
    <i name="EFIELD">      0.00000000</i>
   </separator>
  </separator>
  <separator name="grids" >
   <i type="int" name="NGX">    90</i>
   <i type="int" name="NGY">    90</i>
   <i type="int" name="NGZ">    90</i>
   <i type="int" name="NGXF">   180</i>
   <i type="int" name="NGYF">   180</i>
   <i type="int" name="NGZF">   180</i>
   <i type="logical" name="ADDGRID"> F  </i>
  </separator>
  <separator name="ionic" >
   <i type="int" name="NSW">  1000</i>
   <i type="int" name="IBRION">     2</i>
   <i type="int" name="ISIF">     2</i>
   <i name="PSTRESS">      0.00000000</i>
   <i name="EDIFFG">      0.00100000</i>
   <i type="int" name="NFREE">     1</i>
   <i name="POTIM">      0.10000000</i>
   <i name="SMASS">     -3.00000000</i>
   <i name="SCALEE">      1.00000000</i>
  </separator>
  <separator name="ionic md" >
   <i name="TEBEG">      0.00010000</i>
   <i name="TEEND">      0.00010000</i>
   <i type="int" name="NBLOCK">     1</i>
   <i type="int" name="KBLOCK">  1000</i>
   <i type="int" name="NPACO">   256</i>
   <i name="APACO">     16.00000000</i>
  </separator>
  <separator name="symmetry" >
   <i type="int" name="ISYM">     2</i>
   <i name="SYMPREC">      0.00001000</i>
  </separator>
  <separator name="dos" >
   <i type="logical" name="LORBIT"> F  </i>
   <v name="RWIGS">     -1.00000000</v>
   <i type="int" name="NEDOS">   301</i>
   <i name="EMIN">     10.00000000</i>
   <i name="EMAX">    -10.00000000</i>
   <i name="EFERMI">      0.00000000</i>
  </separator>
  <separator name="writing" >
   <i type="int" name="NWRITE">     2</i>
   <i type="logical" name="LWAVE"> F  </i>
   <i type="logical" name="LCHARG"> F  </i>
   <i type="logical" name="LPARD"> F  </i>
   <i type="logical" name="LVTOT"> F  </i>
   <i type="logical" name="LVHAR"> F  </i>
   <i type="logical" name="LELF"> F  </i>
   <i type="logical" name="LOPTICS"> F  </i>
   <v name="STM">      0.00000000      0.00000000      0.00000000      0.00000000      0.00000000      0.00000000      0.00000000</v>
  </separator>
  <separator name="performance" >
   <i type="int" name="NPAR">     4</i>
   <i type="int" name="NSIM">     4</i>
   <i type="int" name="NBLK">    -1</i>
   <i type="logical" name="LPLANE"> T  </i>
   <i type="logical" name="LSCALAPACK"> T  </i>
   <i type="logical" name="LSCAAWARE"> F  </i>
   <i type="logical" name="LSCALU"> F  </i>
   <i type="logical" name="LASYNC"> F  </i>
   <i type="logical" name="LORBITALREAL"> F  </i>
  </separator>
  <separator name="miscellaneous" >
   <i type="int" name="IDIOT">     3</i>
   <i type="logical" name="LMUSIC"> F  </i>
   <v name="POMASS">    107.86800000</v>
   <v name="DARWINR">      0.00000000</v>
   <v name="DARWINV">      1.00000000</v>
   <i type="logical" name="LCORR"> T  </i>
  </separator>
  <i type="logical" name="GGA_COMPAT"> T  </i>
  <i type="logical" name="LBERRY"> F  </i>
  <i type="int" name="ICORELEVEL">     0</i>
  <i type="logical" name="LDAU"> F  </i>
  <i type="int" name="I_CONSTRAINED_M">     0</i>
  <separator name="electronic exchange-correlation" >
   <i type="string" name="GGA">PE</i>
   <i type="int" name="VOSKOWN">     0</i>
   <i type="logical" name="LHFCALC"> F  </i>
   <i type="string" name="PRECFOCK"></i>
   <i type="logical" name="LSYMGRAD"> F  </i>
   <i type="logical" name="LHFONE"> F  </i>
   <i type="logical" name="LRHFCALC"> F  </i>
   <i type="logical" name="LTHOMAS"> F  </i>
   <i type="logical" name="LMODELHF"> F  </i>
   <i name="ENCUT4O">     -1.00000000</i>
   <i type="int" name="EXXOEP">     0</i>
   <i type="int" name="FOURORBIT">     0</i>
   <i name="AEXX">      0.00000000</i>
   <i name="HFALPHA">      0.00000000</i>
   <i name="MCALPHA">      0.00000000</i>
   <i name="ALDAX">      1.00000000</i>
   <i name="AGGAX">      1.00000000</i>
   <i name="ALDAC">      1.00000000</i>
   <i name="AGGAC">      1.00000000</i>
   <i type="int" name="NKREDX">     1</i>
   <i type="int" name="NKREDY">     1</i>
   <i type="int" name="NKREDZ">     1</i>
   <i type="logical" name="SHIFTRED"> F  </i>
   <i type="logical" name="ODDONLY"> F  </i>
   <i type="logical" name="EVENONLY"> F  </i>
   <i type="int" name="LMAXFOCK">     0</i>
   <i type="int" name="NMAXFOCKAE">     0</i>
   <i type="logical" name="LFOCKAEDFT"> F  </i>
   <i name="HFSCREEN">      0.00000000</i>
   <i name="HFSCREENC">      0.00000000</i>
   <i type="int" name="NBANDSGWLOW">     0</i>
  </separator>
  <separator name="vdW DFT" >
   <i type="logical" name="LUSE_VDW"> F  </i>
   <i name="Zab_VDW">     -0.84910000</i>
   <i name="PARAM1">      0.12340000</i>
   <i name="PARAM2">      1.00000000</i>
   <i name="PARAM3">      0.00000000</i>
  </separator>
  <separator name="model GW" >
   <i type="int" name="MODEL_GW">     0</i>
   <i name="MODEL_EPS0">    218.12861695</i>
   <i name="MODEL_ALPHA">      1.00000000</i>
  </separator>
  <separator name="linear response parameters" >
   <i type="logical" name="LEPSILON"> F  </i>
   <i type="logical" name="LRPA"> F  </i>
   <i type="logical" name="LNABLA"> F  </i>
   <i type="logical" name="LVEL"> F  </i>
   <i type="int" name="KINTER">     0</i>
   <i name="CSHIFT">      0.10000000</i>
   <i name="OMEGAMAX">     -1.00000000</i>
   <i name="DEG_THRESHOLD">      0.00200000</i>
  </separator>
  <separator name="orbital magnetization" >
   <i type="logical" name="NUCIND"> F  </i>
   <v name="MAGPOS">      0.00000000      0.00000000      0.00000000</v>
   <i type="logical" name="LNICSALL"> T  </i>
   <i type="logical" name="ORBITALMAG"> F  </i>
   <i type="logical" name="LMAGBLOCH"> F  </i>
   <i type="logical" name="LCHIMAG"> F  </i>
   <i type="logical" name="LGAUGE"> T  </i>
   <i type="int" name="MAGATOM">     0</i>
   <v name="MAGDIPOL">      0.00000000      0.00000000      0.00000000</v>
   <v name="AVECCONST">      0.00000000      0.00000000      0.00000000</v>
  </separator>
  <separator name="response functions" >
   <i type="logical" name="LADDER"> F  </i>
   <i type="logical" name="LFXC"> F  </i>
   <i type="logical" name="LHARTREE"> T  </i>
   <i type="int" name="IBSE">     0</i>
   <i type="logical" name="LTCTE"> F  </i>
   <i type="logical" name="LTETE"> F  </i>
   <i type="logical" name="LTRIPLET"> F  </i>
   <i type="logical" name="LFXCEPS"> F  </i>
   <i type="logical" name="LFXHEG"> F  </i>
   <i type="logical" name="L2ORDER"> F  </i>
   <i type="logical" name="LUSEW"> F  </i>
   <i name="ENCUTGW">     -2.00000000</i>
   <i name="ENCUTGWSOFT">     -2.00000000</i>
   <i name="ENCUTLF">     -1.00000000</i>
   <i type="int" name="LMAXMP2">    -1</i>
   <i name="SCISSOR">      0.00000000</i>
   <i type="int" name="NOMEGA">     0</i>
   <i type="int" name="NOMEGAR">     0</i>
   <i type="int" name="NBANDSGW">    -1</i>
   <i type="int" name="NBANDSO">    -1</i>
   <i type="int" name="NBANDSV">    -1</i>
   <i type="int" name="NELM">     1</i>
   <i type="int" name="DIM">     3</i>
   <i type="int" name="ANTIRES">     0</i>
   <i name="OMEGAMAX">    -30.00000000</i>
   <i name="OMEGAMIN">    -30.00000000</i>
   <i name="OMEGATL">   -200.00000000</i>
   <i type="int" name="OMEGAGRID">     0</i>
   <i name="CSHIFT">     -0.10000000</i>
   <i type="logical" name="SELFENERGY"> F  </i>
   <i type="logical" name="LSPECTRAL"> F  </i>
   <i type="logical" name="ODDONLYGW"> F  </i>
   <i type="logical" name="EVENONLYGW"> F  </i>
   <i type="int" name="NKREDLFX">     1</i>
   <i type="int" name="NKREDLFY">     1</i>
   <i type="int" name="NKREDLFZ">     1</i>
   <i type="int" name="MAXMEM">  1800</i>
   <i type="int" name="TELESCOPE">     0</i>
   <i type="int" name="TAUPAR">     1</i>
  </separator>
  <separator name="External order field" >
   <i name="OFIELD_KAPPA">      0.00000000</i>
   <v name="OFIELD_K">      0.00000000      0.00000000      0.00000000</v>
   <i name="OFIELD_Q6_NEAR">      0.00000000</i>
   <i name="OFIELD_Q6_FAR">      0.00000000</i>
   <i name="OFIELD_A">      0.00000000</i>
  </separator>
 </parameters>
 <atominfo>
  <atoms>      31 </atoms>
  <types>       1 </types>
  <array name="atoms" >
   <dimension dim="1">ion</dimension>
   <field type="string">element</field>
   <field type="int">atomtype</field>
   <set>
    <rc><c>Ag</c><c>   1</c></rc>
    <rc><c>Ag</c><c>   1</c></rc>
    <rc><c>Ag</c><c>   1</c></rc>
    <rc><c>Ag</c><c>   1</c></rc>
    <rc><c>Ag</c><c>   1</c></rc>
    <rc><c>Ag</c><c>   1</c></rc>
    <rc><c>Ag</c><c>   1</c></rc>
    <rc><c>Ag</c><c>   1</c></rc>
    <rc><c>Ag</c><c>   1</c></rc>
    <rc><c>Ag</c><c>   1</c></rc>
    <rc><c>Ag</c><c>   1</c></rc>
    <rc><c>Ag</c><c>   1</c></rc>
    <rc><c>Ag</c><c>   1</c></rc>
    <rc><c>Ag</c><c>   1</c></rc>
    <rc><c>Ag</c><c>   1</c></rc>
    <rc><c>Ag</c><c>   1</c></rc>
    <rc><c>Ag</c><c>   1</c></rc>
    <rc><c>Ag</c><c>   1</c></rc>
    <rc><c>Ag</c><c>   1</c></rc>
    <rc><c>Ag</c><c>   1</c></rc>
    <rc><c>Ag</c><c>   1</c></rc>
    <rc><c>Ag</c><c>   1</c></rc>
    <rc><c>Ag</c><c>   1</c></rc>
    <rc><c>Ag</c><c>   1</c></rc>
    <rc><c>Ag</c><c>   1</c></rc>
    <rc><c>Ag</c><c>   1</c></rc>
    <rc><c>Ag</c><c>   1</c></rc>
    <rc><c>Ag</c><c>   1</c></rc>
    <rc><c>Ag</c><c>   1</c></rc>
    <rc><c>Ag</c><c>   1</c></rc>
    <rc><c>Ag</c><c>   1</c></rc>
   </set>
  </array>
  <array name="atomtypes" >
   <dimension dim="1">type</dimension>
   <field type="int">atomspertype</field>
   <field type="string">element</field>
   <field>mass</field>
   <field>valence</field>
   <field type="string">pseudopotential</field>
   <set>
    <rc><c>  31</c><c>Ag</c><c>    107.86800000</c><c>     11.00000000</c><c>  PAW_PBE Ag 02Apr2005                  </c></rc>
   </set>
  </array>
 </atominfo>
 <structure name="initialpos" >
  <crystal>
   <varray name="basis" >
    <v>      22.42027988       0.00000000       0.00000000 </v>
    <v>       0.00000000      22.42027988       0.00000000 </v>
    <v>       0.00000000       0.00000000      22.42027988 </v>
   </varray>
   <i name="volume">  11269.97854229 </i>
   <varray name="rec_basis" >
    <v>       0.04460248       0.00000000       0.00000000 </v>
    <v>       0.00000000       0.04460248       0.00000000 </v>
    <v>       0.00000000       0.00000000       0.04460248 </v>
   </varray>
  </crystal>
  <varray name="positions" >
   <v>       0.41269276       0.68375133       0.52756699 </v>
   <v>       0.45589109       0.40400029       0.44288753 </v>
   <v>       0.53278111       0.68378266       0.51682897 </v>
   <v>       0.52155614       0.42678567       0.34474413 </v>
   <v>       0.65424559       0.66849757       0.52898715 </v>
   <v>       0.39549142       0.58523624       0.59246597 </v>
   <v>       0.59657423       0.62729646       0.43110437 </v>
   <v>       0.61792108       0.49912096       0.63344460 </v>
   <v>       0.30192569       0.63866214       0.53724176 </v>
   <v>       0.58227093       0.56447869       0.72548579 </v>
   <v>       0.49847845       0.54634476       0.64172157 </v>
   <v>       0.64790632       0.42877894       0.54176518 </v>
   <v>       0.64134567       0.54541671       0.50953933 </v>
   <v>       0.45504292       0.29736668       0.49379955 </v>
   <v>       0.53882296       0.54889075       0.36001770 </v>
   <v>       0.52086873       0.43110057       0.60974156 </v>
   <v>       0.36737588       0.56414536       0.47068312 </v>
   <v>       0.60905812       0.48475304       0.28645684 </v>
   <v>       0.42896642       0.50416340       0.38716117 </v>
   <v>       0.57630522       0.46096153       0.44679619 </v>
   <v>       0.65645277       0.52781543       0.38836942 </v>
   <v>       0.47958249       0.60260499       0.44848347 </v>
   <v>       0.71832736       0.44062062       0.63283102 </v>
   <v>       0.49792209       0.30743927       0.60822314 </v>
   <v>       0.45951235       0.49975732       0.52308238 </v>
   <v>       0.39927370       0.47626532       0.64269377 </v>
   <v>       0.48309293       0.66893140       0.62609954 </v>
   <v>       0.60065105       0.61783307       0.62144840 </v>
   <v>       0.41713454       0.38884762       0.56410824 </v>
   <v>       0.55558290       0.36155937       0.51413202 </v>
   <v>       0.58363898       0.73597508       0.61500066 </v>
  </varray>
 </structure>
 <calculation>
  <scstep>
   <time name="dav">    4.91    4.92</time>
   <time name="total">    5.29    5.32</time>
   <energy>
    <i name="alphaZ">     72.52946589 </i>
    <i name="ewald">  68112.93272638 </i>
    <i name="hartreedc"> -98932.83252949 </i>
    <i name="XCdc">   -339.86940955 </i>
    <i name="pawpsdc">  31104.53752016 </i>
    <i name="pawaedc"> -29675.20287524 </i>
    <i name="eentropy">      0.00000000 </i>
    <i name="bandstr">    496.14498036 </i>
    <i name="atom">  32153.15753268 </i>
    <i name="e_fr_energy">   2991.39741119 </i>
    <i name="e_wo_entrp">   2991.39741119 </i>
    <i name="e_0_energy">   2991.39741119 </i>
   </energy>
  </scstep>
  <scstep>
   <time name="dav">    7.55    7.55</time>
   <time name="total">    7.55    7.56</time>
   <energy>
    <i name="e_fr_energy">    684.46937705 </i>
    <i name="e_wo_entrp">    684.46937705 </i>
    <i name="e_0_energy">    684.46937705 </i>
   </energy>
  </scstep>
  <scstep>
   <time name="dav">    6.07    6.08</time>
   <time name="total">    6.08    6.08</time>
   <energy>
    <i name="e_fr_energy">    -20.08794463 </i>
    <i name="e_wo_entrp">    -20.08794463 </i>
    <i name="e_0_energy">    -20.08794463 </i>
   </energy>
  </scstep>
  <scstep>
   <time name="dav">    5.34    5.34</time>
   <time name="total">    5.34    5.35</time>
   <energy>
    <i name="e_fr_energy">    -61.17729724 </i>
    <i name="e_wo_entrp">    -61.17729724 </i>
    <i name="e_0_energy">    -61.17729724 </i>
   </energy>
  </scstep>
  <scstep>
   <time name="dav">    5.34    5.34</time>
   <time name="total">    5.54    5.55</time>
   <energy>
    <i name="e_fr_energy">    -61.77750293 </i>
    <i name="e_wo_entrp">    -61.77750293 </i>
    <i name="e_0_energy">    -61.77750293 </i>
   </energy>
  </scstep>
  <scstep>
   <time name="dav">    4.96    4.97</time>
   <time name="total">    5.54    5.54</time>
   <energy>
    <i name="e_fr_energy">    -20.59083355 </i>
    <i name="e_wo_entrp">    -20.59083355 </i>
    <i name="e_0_energy">    -20.59083355 </i>
   </energy>
  </scstep>
  <scstep>
   <time name="dav">    5.10    5.11</time>
   <time name="total">    5.68    5.68</time>
   <energy>
    <i name="e_fr_energy">    -15.03653838 </i>
    <i name="e_wo_entrp">    -15.03653838 </i>
    <i name="e_0_energy">    -15.03653838 </i>
   </energy>
  </scstep>
  <scstep>
   <time name="dav">    5.19    5.19</time>
   <time name="total">    5.76    5.89</time>
   <energy>
    <i name="e_fr_energy">    -11.81960883 </i>
    <i name="e_wo_entrp">    -11.81960883 </i>
    <i name="e_0_energy">    -11.81960883 </i>
   </energy>
  </scstep>
  <scstep>
   <time name="dav">    5.24    5.25</time>
   <time name="total">    5.82    5.83</time>
   <energy>
    <i name="e_fr_energy">    -18.50011825 </i>
    <i name="e_wo_entrp">    -18.50011825 </i>
    <i name="e_0_energy">    -18.50011825 </i>
   </energy>
  </scstep>
  <scstep>
   <time name="dav">    5.28    5.28</time>
   <time name="total">    5.85    5.86</time>
   <energy>
    <i name="e_fr_energy">    -22.01590112 </i>
    <i name="e_wo_entrp">    -22.01590112 </i>
    <i name="e_0_energy">    -22.01590112 </i>
   </energy>
  </scstep>
  <scstep>
   <time name="dav">    5.08    5.08</time>
   <time name="total">    5.66    6.31</time>
   <energy>
    <i name="e_fr_energy">    -33.98369094 </i>
    <i name="e_wo_entrp">    -33.98369094 </i>
    <i name="e_0_energy">    -33.98369094 </i>
   </energy>
  </scstep>
  <scstep>
   <time name="dav">    5.19    5.19</time>
   <time name="total">    5.76    5.79</time>
   <energy>
    <i name="e_fr_energy">    -44.44895942 </i>
    <i name="e_wo_entrp">    -44.44895942 </i>
    <i name="e_0_energy">    -44.44895942 </i>
   </energy>
  </scstep>
  <scstep>
   <time name="dav">    4.98    4.99</time>
   <time name="total">    5.56    5.57</time>
   <energy>
    <i name="e_fr_energy">    -49.89015476 </i>
    <i name="e_wo_entrp">    -49.89015476 </i>
    <i name="e_0_energy">    -49.89015476 </i>
   </energy>
  </scstep>
  <scstep>
   <time name="dav">    5.70    5.71</time>
   <time name="total">    6.28    6.29</time>
   <energy>
    <i name="e_fr_energy">    -50.65521910 </i>
    <i name="e_wo_entrp">    -50.65521910 </i>
    <i name="e_0_energy">    -50.65521910 </i>
   </energy>
  </scstep>
  <scstep>
   <time name="dav">    5.06    5.06</time>
   <time name="total">    5.64    6.85</time>
   <energy>
    <i name="e_fr_energy">    -54.12318439 </i>
    <i name="e_wo_entrp">    -54.12318439 </i>
    <i name="e_0_energy">    -54.12318439 </i>
   </energy>
  </scstep>
  <scstep>
   <time name="dav">    5.34    5.34</time>
   <time name="total">    5.92    5.93</time>
   <energy>
    <i name="e_fr_energy">    -54.92066432 </i>
    <i name="e_wo_entrp">    -54.92066432 </i>
    <i name="e_0_energy">    -54.92066432 </i>
   </energy>
  </scstep>
  <scstep>
   <time name="dav">    5.00    5.00</time>
   <time name="total">    5.58    5.61</time>
   <energy>
    <i name="e_fr_energy">    -56.75727869 </i>
    <i name="e_wo_entrp">    -56.75727869 </i>
    <i name="e_0_energy">    -56.75727869 </i>
   </energy>
  </scstep>
  <scstep>
   <time name="dav">    5.06    5.07</time>
   <time name="total">    5.64    5.65</time>
   <energy>
    <i name="e_fr_energy">    -58.45554590 </i>
    <i name="e_wo_entrp">    -58.45554590 </i>
    <i name="e_0_energy">    -58.45554590 </i>
   </energy>
  </scstep>
  <scstep>
   <time name="dav">    5.11    5.11</time>
   <time name="total">    5.69    7.86</time>
   <energy>
    <i name="e_fr_energy">    -59.49468546 </i>
    <i name="e_wo_entrp">    -59.49468546 </i>
    <i name="e_0_energy">    -59.49468546 </i>
   </energy>
  </scstep>
  <scstep>
   <time name="dav">    5.07    5.07</time>
   <time name="total">    5.65    5.65</time>
   <energy>
    <i name="e_fr_energy">    -60.22828456 </i>
    <i name="e_wo_entrp">    -60.22828456 </i>
    <i name="e_0_energy">    -60.22828456 </i>
   </energy>
  </scstep>
  <scstep>
   <time name="dav">    5.17    5.18</time>
   <time name="total">    5.76    5.78</time>
   <energy>
    <i name="e_fr_energy">    -60.63648854 </i>
    <i name="e_wo_entrp">    -60.63648854 </i>
    <i name="e_0_energy">    -60.63648854 </i>
   </energy>
  </scstep>
  <scstep>
   <time name="dav">    4.74    4.74</time>
   <time name="total">    5.32    5.32</time>
   <energy>
    <i name="e_fr_energy">    -60.71796949 </i>
    <i name="e_wo_entrp">    -60.71796949 </i>
    <i name="e_0_energy">    -60.71796949 </i>
   </energy>
  </scstep>
  <scstep>
   <time name="dav">    4.40    4.41</time>
   <time name="total">    4.99    4.99</time>
   <energy>
    <i name="e_fr_energy">    -60.78285631 </i>
    <i name="e_wo_entrp">    -60.78285631 </i>
    <i name="e_0_energy">    -60.78285631 </i>
   </energy>
  </scstep>
  <scstep>
   <time name="dav">    4.14    4.14</time>
   <time name="total">    4.72    4.74</time>
   <energy>
    <i name="e_fr_energy">    -60.79325070 </i>
    <i name="e_wo_entrp">    -60.79325070 </i>
    <i name="e_0_energy">    -60.79325070 </i>
   </energy>
  </scstep>
  <scstep>
   <time name="dav">    3.87    3.87</time>
   <time name="total">    4.46    4.46</time>
   <energy>
    <i name="e_fr_energy">    -60.80038165 </i>
    <i name="e_wo_entrp">    -60.80038165 </i>
    <i name="e_0_energy">    -60.80038165 </i>
   </energy>
  </scstep>
  <scstep>
   <time name="dav">    3.94    3.94</time>
   <time name="total">    4.52    4.53</time>
   <energy>
    <i name="e_fr_energy">    -60.80589681 </i>
    <i name="e_wo_entrp">    -60.80589681 </i>
    <i name="e_0_energy">    -60.80589681 </i>
   </energy>
  </scstep>
  <scstep>
   <time name="dav">    4.00    4.01</time>
   <time name="total">    4.59    4.61</time>
   <energy>
    <i name="e_fr_energy">    -60.80876604 </i>
    <i name="e_wo_entrp">    -60.80876604 </i>
    <i name="e_0_energy">    -60.80876604 </i>
   </energy>
  </scstep>
  <scstep>
   <time name="dav">    3.78    3.79</time>
   <time name="total">    4.37    4.38</time>
   <energy>
    <i name="e_fr_energy">    -60.81087229 </i>
    <i name="e_wo_entrp">    -60.81087229 </i>
    <i name="e_0_energy">    -60.81087229 </i>
   </energy>
  </scstep>
  <scstep>
   <time name="dav">    3.85    3.85</time>
   <time name="total">    4.44    4.44</time>
   <energy>
    <i name="e_fr_energy">    -60.81141781 </i>
    <i name="e_wo_entrp">    -60.81141781 </i>
    <i name="e_0_energy">    -60.81141781 </i>
   </energy>
  </scstep>
  <scstep>
   <time name="dav">    3.80    3.80</time>
   <time name="total">    4.40    4.40</time>
   <energy>
    <i name="e_fr_energy">    -60.81152631 </i>
    <i name="e_wo_entrp">    -60.81152631 </i>
    <i name="e_0_energy">    -60.81152631 </i>
   </energy>
  </scstep>
  <scstep>
   <time name="dav">    3.84    3.84</time>
   <time name="total">    4.22    4.22</time>
   <energy>
    <i name="alphaZ">     72.52946589 </i>
    <i name="ewald">  68112.93272638 </i>
    <i name="hartreedc"> -98913.60295777 </i>
    <i name="XCdc">   -351.06499867 </i>
    <i name="pawpsdc">  33842.38834133 </i>
    <i name="pawaedc"> -32474.53926661 </i>
    <i name="eentropy">      0.00000000 </i>
    <i name="bandstr">  -2502.61239481 </i>
    <i name="atom">  32153.15753268 </i>
    <i name="e_fr_energy">    -60.81155157 </i>
    <i name="e_wo_entrp">    -60.81155157 </i>
    <i name="e_0_energy">    -60.81155157 </i>
   </energy>
  </scstep>
  <structure>
   <crystal>
    <varray name="basis" >
     <v>      22.42027988       0.00000000       0.00000000 </v>
     <v>       0.00000000      22.42027988       0.00000000 </v>
     <v>       0.00000000       0.00000000      22.42027988 </v>
    </varray>
    <i name="volume">  11269.97854229 </i>
    <varray name="rec_basis" >
     <v>       0.04460248       0.00000000       0.00000000 </v>
     <v>       0.00000000       0.04460248       0.00000000 </v>
     <v>       0.00000000       0.00000000       0.04460248 </v>
    </varray>
   </crystal>
   <varray name="positions" >
    <v>       0.41269276       0.68375133       0.52756699 </v>
    <v>       0.45589109       0.40400029       0.44288753 </v>
    <v>       0.53278111       0.68378266       0.51682897 </v>
    <v>       0.52155614       0.42678567       0.34474413 </v>
    <v>       0.65424559       0.66849757       0.52898715 </v>
    <v>       0.39549142       0.58523624       0.59246597 </v>
    <v>       0.59657423       0.62729646       0.43110437 </v>
    <v>       0.61792108       0.49912096       0.63344460 </v>
    <v>       0.30192569       0.63866214       0.53724176 </v>
    <v>       0.58227093       0.56447869       0.72548579 </v>
    <v>       0.49847845       0.54634476       0.64172157 </v>
    <v>       0.64790632       0.42877894       0.54176518 </v>
    <v>       0.64134567       0.54541671       0.50953933 </v>
    <v>       0.45504292       0.29736668       0.49379955 </v>
    <v>       0.53882296       0.54889075       0.36001770 </v>
    <v>       0.52086873       0.43110057       0.60974156 </v>
    <v>       0.36737588       0.56414536       0.47068312 </v>
    <v>       0.60905812       0.48475304       0.28645684 </v>
    <v>       0.42896642       0.50416340       0.38716117 </v>
    <v>       0.57630522       0.46096153       0.44679619 </v>
    <v>       0.65645277       0.52781543       0.38836942 </v>
    <v>       0.47958249       0.60260499       0.44848347 </v>
    <v>       0.71832736       0.44062062       0.63283102 </v>
    <v>       0.49792209       0.30743927       0.60822314 </v>
    <v>       0.45951235       0.49975732       0.52308238 </v>
    <v>       0.39927370       0.47626532       0.64269377 </v>
    <v>       0.48309293       0.66893140       0.62609954 </v>
    <v>       0.60065105       0.61783307       0.62144840 </v>
    <v>       0.41713454       0.38884762       0.56410824 </v>
    <v>       0.55558290       0.36155937       0.51413202 </v>
    <v>       0.58363898       0.73597508       0.61500066 </v>
   </varray>
  </structure>
  <varray name="forces" >
   <v>      -0.05154884       0.26537191      -0.50461115 </v>
   <v>       0.02396621      -0.29669197       0.15873507 </v>
   <v>       0.27425102       0.38178868       0.06465510 </v>
   <v>      -0.29616768      -0.20950924      -0.46039583 </v>
   <v>       0.34541541       0.31333373       0.02053064 </v>
   <v>      -0.12574477      -0.00309225       0.20326725 </v>
   <v>       0.23471068       0.32759488      -0.28768109 </v>
   <v>       0.07064683       0.23824740      -0.03693891 </v>
   <v>      -0.53350726       0.19140826       0.02476654 </v>
   <v>      -0.10452162       0.10695461       0.77944654 </v>
   <v>       0.07761746       0.21843637      -0.09430445 </v>
   <v>       0.13693233      -0.31163777      -0.25123576 </v>
   <v>       0.02946194       0.27906622       0.65979245 </v>
   <v>      -0.14281752      -0.65401273      -0.03824581 </v>
   <v>      -0.02206486      -0.08216647      -0.51177789 </v>
   <v>       0.10636621      -0.30306502       0.18490207 </v>
   <v>      -0.32948765       0.15097464       0.11962553 </v>
   <v>       0.30680419      -0.21528553      -0.49848327 </v>
   <v>       0.06040582       0.13950224      -0.16050611 </v>
   <v>      -0.39931589      -0.10912839       0.20181433 </v>
   <v>       0.53858440       0.06689939      -0.15609029 </v>
   <v>      -0.49411041       0.06973764       0.15272889 </v>
   <v>       0.74077220      -0.13779506       0.30680378 </v>
   <v>       0.19675905      -0.25250989       0.20682481 </v>
   <v>       0.06298085       0.13972967       0.10372032 </v>
   <v>      -0.00557992       0.03707773       0.16423479 </v>
   <v>      -0.14276865      -0.11549446       0.50530173 </v>
   <v>      -0.13442766      -0.05866971      -0.28603115 </v>
   <v>      -0.31167313      -0.23058696      -0.41461545 </v>
   <v>      -0.28585310      -0.39843825      -0.21738324 </v>
   <v>       0.17391433       0.45196031       0.06115055 </v>
  </varray>
  <varray name="stress" >
   <v>       0.12224235       0.08748867       0.11708390 </v>
   <v>       0.08748867       0.68431234       0.31887358 </v>
   <v>       0.11708390       0.31887357       0.15966555 </v>
  </varray>
  <energy>
   <i name="e_fr_energy">    -60.81155157 </i>
   <i name="e_wo_entrp">    -60.81155157 </i>
   <i name="e_0_energy">      0.00000000 </i>
  </energy>
  <time name="totalsc">  176.92  182.23</time>
 </calculation>
 <calculation>
  <scstep>
   <time name="dav">    5.08    5.08</time>
   <time name="total">    5.66    5.67</time>
   <energy>
    <i name="alphaZ">     72.52946589 </i>
    <i name="ewald">  67992.71202369 </i>
    <i name="hartreedc"> -98794.18166621 </i>
    <i name="XCdc">   -351.23588809 </i>
    <i name="pawpsdc">  33842.36692755 </i>
    <i name="pawaedc"> -32474.51753196 </i>
    <i name="eentropy">      0.00000000 </i>
    <i name="bandstr">  -2501.71165531 </i>
    <i name="atom">  32153.15753268 </i>
    <i name="e_fr_energy">    -60.88079176 </i>
    <i name="e_wo_entrp">    -60.88079176 </i>
    <i name="e_0_energy">    -60.88079176 </i>
   </energy>
  </scstep>
  <scstep>
   <time name="dav">    5.22    5.22</time>
   <time name="total">    5.79    5.80</time>
   <energy>
    <i name="e_fr_energy">    -60.88306441 </i>
    <i name="e_wo_entrp">    -60.88306441 </i>
    <i name="e_0_energy">    -60.88306441 </i>
   </energy>
  </scstep>
  <scstep>
   <time name="dav">    5.32    5.33</time>
   <time name="total">    5.70    6.14</time>
   <energy>
    <i name="alphaZ">     72.52946589 </i>
    <i name="ewald">  67992.71202369 </i>
    <i name="hartreedc"> -98795.05584724 </i>
    <i name="XCdc">   -351.21094948 </i>
    <i name="pawpsdc">  33826.18983090 </i>
    <i name="pawaedc"> -32458.08385852 </i>
    <i name="eentropy">      0.00000000 </i>
    <i name="bandstr">  -2501.12122325 </i>
    <i name="atom">  32153.15753268 </i>
    <i name="e_fr_energy">    -60.88302532 </i>
    <i name="e_wo_entrp">    -60.88302532 </i>
    <i name="e_0_energy">    -60.88302532 </i>
   </energy>
  </scstep>
  <structure>
   <crystal>
    <varray name="basis" >
     <v>      22.42027988       0.00000000       0.00000000 </v>
     <v>       0.00000000      22.42027988       0.00000000 </v>
     <v>       0.00000000       0.00000000      22.42027988 </v>
    </varray>
    <i name="volume">  11269.97854229 </i>
    <varray name="rec_basis" >
     <v>       0.04460248       0.00000000       0.00000000 </v>
     <v>       0.00000000       0.04460248       0.00000000 </v>
     <v>       0.00000000       0.00000000       0.04460248 </v>
    </varray>
   </crystal>
   <varray name="positions" >
    <v>       0.41267058       0.68386553       0.52734983 </v>
    <v>       0.45590141       0.40387261       0.44295584 </v>
    <v>       0.53289913       0.68394696       0.51685679 </v>
    <v>       0.52142869       0.42669551       0.34454600 </v>
    <v>       0.65439424       0.66863242       0.52899599 </v>
    <v>       0.39543730       0.58523491       0.59255345 </v>
    <v>       0.59667524       0.62743744       0.43098057 </v>
    <v>       0.61795148       0.49922349       0.63342870 </v>
    <v>       0.30169610       0.63874451       0.53725242 </v>
    <v>       0.58222595       0.56452472       0.72582123 </v>
    <v>       0.49851185       0.54643877       0.64168098 </v>
    <v>       0.64796525       0.42864482       0.54165706 </v>
    <v>       0.64135835       0.54553680       0.50982327 </v>
    <v>       0.45498146       0.29708522       0.49378309 </v>
    <v>       0.53881346       0.54885539       0.35979745 </v>
    <v>       0.52091450       0.43097015       0.60982113 </v>
    <v>       0.36723409       0.56421033       0.47073461 </v>
    <v>       0.60919015       0.48466039       0.28624232 </v>
    <v>       0.42899242       0.50422343       0.38709209 </v>
    <v>       0.57613338       0.46091456       0.44688304 </v>
    <v>       0.65668455       0.52784422       0.38830224 </v>
    <v>       0.47936985       0.60263500       0.44854919 </v>
    <v>       0.71864615       0.44056132       0.63296305 </v>
    <v>       0.49800676       0.30733060       0.60831214 </v>
    <v>       0.45953945       0.49981745       0.52312702 </v>
    <v>       0.39927130       0.47628128       0.64276445 </v>
    <v>       0.48303149       0.66888170       0.62631699 </v>
    <v>       0.60059320       0.61780782       0.62132530 </v>
    <v>       0.41700041       0.38874839       0.56392981 </v>
    <v>       0.55545988       0.36138790       0.51403847 </v>
    <v>       0.58371383       0.73616958       0.61502698 </v>
   </varray>
  </structure>
  <varray name="forces" >
   <v>      -0.04944177       0.23675656      -0.47241279 </v>
   <v>       0.02311387      -0.27709063       0.14110925 </v>
   <v>       0.25508953       0.36002681       0.06556404 </v>
   <v>      -0.28068140      -0.19060383      -0.43959613 </v>
   <v>       0.33102215       0.30811417       0.01819933 </v>
   <v>      -0.13429221       0.02457099       0.17985256 </v>
   <v>       0.20831761       0.29808509      -0.27421756 </v>
   <v>       0.09548876       0.21076565      -0.03224148 </v>
   <v>      -0.49761879       0.18859275       0.02731666 </v>
   <v>      -0.10436132       0.10364348       0.71122693 </v>
   <v>       0.08750190       0.19467228      -0.08283584 </v>
   <v>       0.14247630      -0.29387251      -0.20790949 </v>
   <v>       0.01558218       0.26326054       0.61651089 </v>
   <v>      -0.14036177      -0.63490969      -0.02926004 </v>
   <v>      -0.00257011      -0.07483274      -0.47417156 </v>
   <v>       0.09276614      -0.29260141       0.17266257 </v>
   <v>      -0.32181023       0.14021036       0.11689128 </v>
   <v>       0.29325055      -0.21015423      -0.46630984 </v>
   <v>       0.05932723       0.12581031      -0.13769396 </v>
   <v>      -0.37547224      -0.07729094       0.17629249 </v>
   <v>       0.48214245       0.05750535      -0.13161726 </v>
   <v>      -0.43174450       0.07723369       0.13507141 </v>
   <v>       0.67242098      -0.12342715       0.26859658 </v>
   <v>       0.18368541      -0.24094273       0.19002490 </v>
   <v>       0.05781957       0.12692802       0.10312386 </v>
   <v>       0.00644683       0.02195978       0.14770336 </v>
   <v>      -0.13262714      -0.09395554       0.46797121 </v>
   <v>      -0.13895368      -0.04709601      -0.26222997 </v>
   <v>      -0.28724644      -0.21562150      -0.38695253 </v>
   <v>      -0.27037884      -0.38658041      -0.20205974 </v>
   <v>       0.16110898       0.42084351       0.06139087 </v>
  </varray>
  <varray name="stress" >
   <v>       0.00203331       0.08490416       0.10778040 </v>
   <v>       0.08490416       0.58128062       0.30295770 </v>
   <v>       0.10778040       0.30295770       0.02568176 </v>
  </varray>
  <energy>
   <i name="e_fr_energy">    -60.88302532 </i>
   <i name="e_wo_entrp">    -60.88302532 </i>
   <i name="e_0_energy">      0.00000000 </i>
  </energy>
  <time name="totalsc">   26.43   26.93</time>
 </calculation>
 <calculation>
  <scstep>
   <time name="dav">    5.03    5.03</time>
   <time name="total">    5.60    5.61</time>
   <energy>
    <i name="alphaZ">     72.52946589 </i>
    <i name="ewald">  67633.56901299 </i>
    <i name="hartreedc"> -98438.68051501 </i>
    <i name="XCdc">   -351.70741146 </i>
    <i name="pawpsdc">  33817.41674259 </i>
    <i name="pawaedc"> -32449.16664025 </i>
    <i name="eentropy">      0.00000000 </i>
    <i name="bandstr">  -2498.16710971 </i>
    <i name="atom">  32153.15753268 </i>
    <i name="e_fr_energy">    -61.04892227 </i>
    <i name="e_wo_entrp">    -61.04892227 </i>
    <i name="e_0_energy">    -61.04892227 </i>
   </energy>
  </scstep>
  <scstep>
   <time name="dav">    5.23    5.23</time>
   <time name="total">    5.81    5.82</time>
   <energy>
    <i name="e_fr_energy">    -61.06909677 </i>
    <i name="e_wo_entrp">    -61.06909677 </i>
    <i name="e_0_energy">    -61.06909677 </i>
   </energy>
  </scstep>
  <scstep>
   <time name="dav">    5.18    5.18</time>
   <time name="total">    5.75    6.33</time>
   <energy>
    <i name="e_fr_energy">    -61.06870037 </i>
    <i name="e_wo_entrp">    -61.06870037 </i>
    <i name="e_0_energy">    -61.06870037 </i>
   </energy>
  </scstep>
  <scstep>
   <time name="dav">    5.28    5.28</time>
   <time name="total">    5.85    5.88</time>
   <energy>
    <i name="e_fr_energy">    -61.06842740 </i>
    <i name="e_wo_entrp">    -61.06842740 </i>
    <i name="e_0_energy">    -61.06842740 </i>
   </energy>
  </scstep>
  <scstep>
   <time name="dav">    3.67    3.67</time>
   <time name="total">    4.05    4.26</time>
   <energy>
    <i name="alphaZ">     72.52946589 </i>
    <i name="ewald">  67633.56901299 </i>
    <i name="hartreedc"> -98442.28411570 </i>
    <i name="XCdc">   -351.61107299 </i>
    <i name="pawpsdc">  33741.88139721 </i>
    <i name="pawaedc"> -32372.39249570 </i>
    <i name="eentropy">      0.00000000 </i>
    <i name="bandstr">  -2495.91815768 </i>
    <i name="atom">  32153.15753268 </i>
    <i name="e_fr_energy">    -61.06843331 </i>
    <i name="e_wo_entrp">    -61.06843331 </i>
    <i name="e_0_energy">    -61.06843331 </i>
   </energy>
  </scstep>
  <structure>
   <crystal>
    <varray name="basis" >
     <v>      22.42027988       0.00000000       0.00000000 </v>
     <v>       0.00000000      22.42027988       0.00000000 </v>
     <v>       0.00000000       0.00000000      22.42027988 </v>
    </varray>
    <i name="volume">  11269.97854229 </i>
    <varray name="rec_basis" >
     <v>       0.04460248       0.00000000       0.00000000 </v>
     <v>       0.00000000       0.04460248       0.00000000 </v>
     <v>       0.00000000       0.00000000       0.04460248 </v>
    </varray>
   </crystal>
   <varray name="positions" >
    <v>       0.41260403       0.68420814       0.52669835 </v>
    <v>       0.45593235       0.40348957       0.44316077 </v>
    <v>       0.53325320       0.68443987       0.51694026 </v>
    <v>       0.52104632       0.42642502       0.34395161 </v>
    <v>       0.65484018       0.66903694       0.52902249 </v>
    <v>       0.39527496       0.58523092       0.59281587 </v>
    <v>       0.59697826       0.62786038       0.43060916 </v>
    <v>       0.61804269       0.49953108       0.63338101 </v>
    <v>       0.30100732       0.63899163       0.53728440 </v>
    <v>       0.58209101       0.56466280       0.72682753 </v>
    <v>       0.49861206       0.54672078       0.64155923 </v>
    <v>       0.64814203       0.42824248       0.54133270 </v>
    <v>       0.64139638       0.54589709       0.51067509 </v>
    <v>       0.45479708       0.29624086       0.49373371 </v>
    <v>       0.53878498       0.54874930       0.35913672 </v>
    <v>       0.52105183       0.43057888       0.61005984 </v>
    <v>       0.36680871       0.56440525       0.47088905 </v>
    <v>       0.60958625       0.48438245       0.28559875 </v>
    <v>       0.42907040       0.50440354       0.38688487 </v>
    <v>       0.57561784       0.46077367       0.44714359 </v>
    <v>       0.65737988       0.52793059       0.38810072 </v>
    <v>       0.47873193       0.60272504       0.44874637 </v>
    <v>       0.71960252       0.44038342       0.63335915 </v>
    <v>       0.49826079       0.30700460       0.60857916 </v>
    <v>       0.45962077       0.49999785       0.52326093 </v>
    <v>       0.39926409       0.47632915       0.64297648 </v>
    <v>       0.48284717       0.66873259       0.62696936 </v>
    <v>       0.60041965       0.61773208       0.62095602 </v>
    <v>       0.41659803       0.38845069       0.56339452 </v>
    <v>       0.55509083       0.36087350       0.51375782 </v>
    <v>       0.58393836       0.73675308       0.61510593 </v>
   </varray>
  </structure>
  <varray name="forces" >
   <v>      -0.04450278       0.16086182      -0.39069935 </v>
   <v>       0.02101818      -0.22548062       0.09241187 </v>
   <v>       0.20336299       0.30262574       0.06606832 </v>
   <v>      -0.24036020      -0.13930290      -0.38709109 </v>
   <v>       0.29520657       0.29824457       0.01114251 </v>
   <v>      -0.15885543       0.10072555       0.11803534 </v>
   <v>       0.14188854       0.22590914      -0.24070799 </v>
   <v>       0.16309290       0.13548245      -0.01954715 </v>
   <v>      -0.40581049       0.18834817       0.03381345 </v>
   <v>      -0.10888510       0.09380188       0.54970716 </v>
   <v>       0.11562101       0.12899175      -0.05023873 </v>
   <v>       0.15828928      -0.24732325      -0.09386333 </v>
   <v>      -0.02184223       0.22195584       0.50589109 </v>
   <v>      -0.13668450      -0.59385417      -0.00662765 </v>
   <v>       0.05140934      -0.05709275      -0.37685162 </v>
   <v>       0.05698839      -0.26636849       0.14014500 </v>
   <v>      -0.30540318       0.11242572       0.11081495 </v>
   <v>       0.25649281      -0.19911300      -0.37997950 </v>
   <v>       0.05786259       0.09029338      -0.07899798 </v>
   <v>      -0.31846293       0.00492189       0.11105098 </v>
   <v>       0.33499565       0.03430119      -0.07121850 </v>
   <v>      -0.26547932       0.10020716       0.08882643 </v>
   <v>       0.49505301      -0.08568601       0.16705085 </v>
   <v>       0.15182092      -0.21356702       0.14495436 </v>
   <v>       0.04601235       0.09269102       0.10226087 </v>
   <v>       0.03970056      -0.01866006       0.10411248 </v>
   <v>      -0.10459506      -0.03614031       0.37125222 </v>
   <v>      -0.15103337      -0.01237981      -0.20370260 </v>
   <v>      -0.22821859      -0.17757775      -0.31695320 </v>
   <v>      -0.22812104      -0.35917712      -0.16066464 </v>
   <v>       0.12943911       0.33993598       0.05960544 </v>
  </varray>
  <varray name="stress" >
   <v>      -0.31118902       0.08007611       0.08674953 </v>
   <v>       0.08007612       0.31184191       0.25905654 </v>
   <v>       0.08674952       0.25905654      -0.31486967 </v>
  </varray>
  <energy>
   <i name="e_fr_energy">    -61.06843331 </i>
   <i name="e_wo_entrp">    -61.06843331 </i>
   <i name="e_0_energy">      0.00000000 </i>
  </energy>
  <time name="totalsc">   36.35   37.26</time>
 </calculation>
 <calculation>
  <scstep>
   <time name="dav">    4.98    4.98</time>
   <time name="total">    5.55    5.57</time>
   <energy>
    <i name="alphaZ">     72.52946589 </i>
    <i name="ewald">  66922.07165092 </i>
    <i name="hartreedc"> -97735.06181088 </i>
    <i name="XCdc">   -352.57151106 </i>
    <i name="pawpsdc">  33742.50708011 </i>
    <i name="pawaedc"> -32373.02575354 </i>
    <i name="eentropy">      0.00000000 </i>
    <i name="bandstr">  -2490.84910194 </i>
    <i name="atom">  32153.15753268 </i>
    <i name="e_fr_energy">    -61.24244781 </i>
    <i name="e_wo_entrp">    -61.24244781 </i>
    <i name="e_0_energy">    -61.24244781 </i>
   </energy>
  </scstep>
  <scstep>
   <time name="dav">    5.08    5.08</time>
   <time name="total">    5.65    5.66</time>
   <energy>
    <i name="e_fr_energy">    -61.32287258 </i>
    <i name="e_wo_entrp">    -61.32287258 </i>
    <i name="e_0_energy">    -61.32287258 </i>
   </energy>
  </scstep>
  <scstep>
   <time name="dav">    5.14    5.15</time>
   <time name="total">    5.72    6.41</time>
   <energy>
    <i name="e_fr_energy">    -61.32184006 </i>
    <i name="e_wo_entrp">    -61.32184006 </i>
    <i name="e_0_energy">    -61.32184006 </i>
   </energy>
  </scstep>
  <scstep>
   <time name="dav">    5.19    5.19</time>
   <time name="total">    5.76    5.91</time>
   <energy>
    <i name="e_fr_energy">    -61.32033888 </i>
    <i name="e_wo_entrp">    -61.32033888 </i>
    <i name="e_0_energy">    -61.32033888 </i>
   </energy>
  </scstep>
  <scstep>
   <time name="dav">    3.95    3.95</time>
   <time name="total">    4.32    4.33</time>
   <energy>
    <i name="alphaZ">     72.52946589 </i>
    <i name="ewald">  66922.07165092 </i>
    <i name="hartreedc"> -97742.20055891 </i>
    <i name="XCdc">   -352.38327394 </i>
    <i name="pawpsdc">  33605.46405846 </i>
    <i name="pawaedc"> -32233.68370195 </i>
    <i name="eentropy">     -0.00000000 </i>
    <i name="bandstr">  -2486.27558696 </i>
    <i name="atom">  32153.15753268 </i>
    <i name="e_fr_energy">    -61.32041381 </i>
    <i name="e_wo_entrp">    -61.32041381 </i>
    <i name="e_0_energy">    -61.32041381 </i>
   </energy>
  </scstep>
  <structure>
   <crystal>
    <varray name="basis" >
     <v>      22.42027988       0.00000000       0.00000000 </v>
     <v>       0.00000000      22.42027988       0.00000000 </v>
     <v>       0.00000000       0.00000000      22.42027988 </v>
    </varray>
    <i name="volume">  11269.97854229 </i>
    <varray name="rec_basis" >
     <v>       0.04460248       0.00000000       0.00000000 </v>
     <v>       0.00000000       0.04460248       0.00000000 </v>
     <v>       0.00000000       0.00000000       0.04460248 </v>
    </varray>
   </crystal>
   <varray name="positions" >
    <v>       0.41247092       0.68489335       0.52539540 </v>
    <v>       0.45599423       0.40272349       0.44357064 </v>
    <v>       0.53396134       0.68542568       0.51710721 </v>
    <v>       0.52028159       0.42588405       0.34276283 </v>
    <v>       0.65573208       0.66984600       0.52907550 </v>
    <v>       0.39495028       0.58522293       0.59334073 </v>
    <v>       0.59758430       0.62870626       0.42986634 </v>
    <v>       0.61822511       0.50014625       0.63328563 </v>
    <v>       0.29962975       0.63948586       0.53734835 </v>
    <v>       0.58182113       0.56493897       0.72884013 </v>
    <v>       0.49881248       0.54728480       0.64131573 </v>
    <v>       0.64849561       0.42743781       0.54068399 </v>
    <v>       0.64147246       0.54661766       0.51237874 </v>
    <v>       0.45442831       0.29455214       0.49363496 </v>
    <v>       0.53872800       0.54853714       0.35781527 </v>
    <v>       0.52132647       0.42979634       0.61053728 </v>
    <v>       0.36595794       0.56479508       0.47119793 </v>
    <v>       0.61037844       0.48382656       0.28431162 </v>
    <v>       0.42922638       0.50476374       0.38647043 </v>
    <v>       0.57458677       0.46049189       0.44766469 </v>
    <v>       0.65877056       0.52810333       0.38769768 </v>
    <v>       0.47745609       0.60290511       0.44914073 </v>
    <v>       0.72151526       0.44002762       0.63415135 </v>
    <v>       0.49876884       0.30635260       0.60911320 </v>
    <v>       0.45978339       0.50035865       0.52352874 </v>
    <v>       0.39924969       0.47642489       0.64340055 </v>
    <v>       0.48247852       0.66843438       0.62827410 </v>
    <v>       0.60007255       0.61758059       0.62021746 </v>
    <v>       0.41579326       0.38785529       0.56232395 </v>
    <v>       0.55435273       0.35984470       0.51319652 </v>
    <v>       0.58438742       0.73792008       0.61526382 </v>
   </varray>
  </structure>
  <varray name="forces" >
   <v>      -0.04013925       0.02653562      -0.23221428 </v>
   <v>       0.01544602      -0.12460872      -0.00915144 </v>
   <v>       0.10491842       0.18729788       0.06111693 </v>
   <v>      -0.16164846      -0.03716069      -0.28223241 </v>
   <v>       0.22029848       0.27344473      -0.00055724 </v>
   <v>      -0.20289783       0.23748484       0.00575365 </v>
   <v>       0.02798890       0.08077969      -0.17170804 </v>
   <v>       0.27469060      -0.01304864       0.01311435 </v>
   <v>      -0.23395734       0.17714795       0.04567868 </v>
   <v>      -0.11664496       0.07473906       0.24804927 </v>
   <v>       0.16355520      -0.00447663       0.01441057 </v>
   <v>       0.17467520      -0.15302193       0.10374458 </v>
   <v>      -0.08376737       0.14270219       0.29509758 </v>
   <v>      -0.12835487      -0.52882112       0.03675506 </v>
   <v>       0.15621532      -0.03618524      -0.19744459 </v>
   <v>      -0.00859880      -0.20866261       0.07350087 </v>
   <v>      -0.27645339       0.05993850       0.10222568 </v>
   <v>       0.18083130      -0.17136090      -0.21771588 </v>
   <v>       0.05428834       0.02395533       0.03150475 </v>
   <v>      -0.21940857       0.15165150      -0.00207408 </v>
   <v>       0.05963476      -0.00126066       0.02571210 </v>
   <v>       0.03922974       0.14359871       0.00628760 </v>
   <v>       0.18155352      -0.01296775      -0.00768796 </v>
   <v>       0.09065989      -0.15751771       0.05376575 </v>
   <v>       0.02184062       0.02516323       0.10046059 </v>
   <v>       0.10412462      -0.09154429       0.02204038 </v>
   <v>      -0.04918640       0.07440783       0.20167454 </v>
   <v>      -0.16600221       0.07599893      -0.09993546 </v>
   <v>      -0.11279635      -0.10927463      -0.19217394 </v>
   <v>      -0.14500966      -0.29808678      -0.08134516 </v>
   <v>       0.07491456       0.19315233       0.05334757 </v>
  </varray>
  <varray name="stress" >
   <v>      -0.90027861       0.06964655       0.04360405 </v>
   <v>       0.06964657      -0.18924393       0.17457860 </v>
   <v>       0.04360405       0.17457859      -0.94999642 </v>
  </varray>
  <energy>
   <i name="e_fr_energy">    -61.32041381 </i>
   <i name="e_wo_entrp">    -61.32041381 </i>
   <i name="e_0_energy">     -0.00000000 </i>
  </energy>
  <time name="totalsc">   36.32   37.24</time>
 </calculation>
 <calculation>
  <scstep>
   <time name="dav">    4.98    4.98</time>
   <time name="total">    5.55    5.57</time>
   <energy>
    <i name="alphaZ">     72.52946589 </i>
    <i name="ewald">  65525.83111532 </i>
    <i name="hartreedc"> -96353.06407439 </i>
    <i name="XCdc">   -354.13442562 </i>
    <i name="pawpsdc">  33606.42665700 </i>
    <i name="pawaedc"> -32234.65464742 </i>
    <i name="eentropy">      0.00000000 </i>
    <i name="bandstr">  -2477.19348814 </i>
    <i name="atom">  32153.15753268 </i>
    <i name="e_fr_energy">    -61.10186467 </i>
    <i name="e_wo_entrp">    -61.10186467 </i>
    <i name="e_0_energy">    -61.10186467 </i>
   </energy>
  </scstep>
  <scstep>
   <time name="dav">    5.06    5.07</time>
   <time name="total">    5.64    5.65</time>
   <energy>
    <i name="e_fr_energy">    -61.42864220 </i>
    <i name="e_wo_entrp">    -61.42864220 </i>
    <i name="e_0_energy">    -61.42864220 </i>
   </energy>
  </scstep>
  <scstep>
   <time name="dav">    5.18    5.18</time>
   <time name="total">    5.76    5.76</time>
   <energy>
    <i name="e_fr_energy">    -61.42792265 </i>
    <i name="e_wo_entrp">    -61.42792265 </i>
    <i name="e_0_energy">    -61.42792265 </i>
   </energy>
  </scstep>
  <scstep>
   <time name="dav">    5.09    5.09</time>
   <time name="total">    5.67    5.67</time>
   <energy>
    <i name="e_fr_energy">    -61.42037187 </i>
    <i name="e_wo_entrp">    -61.42037187 </i>
    <i name="e_0_energy">    -61.42037187 </i>
   </energy>
  </scstep>
  <scstep>
   <time name="dav">    5.32    5.32</time>
   <time name="total">    5.90    5.90</time>
   <energy>
    <i name="e_fr_energy">    -61.42068145 </i>
    <i name="e_wo_entrp">    -61.42068145 </i>
    <i name="e_0_energy">    -61.42068145 </i>
   </energy>
  </scstep>
  <scstep>
   <time name="dav">    5.25    5.25</time>
   <time name="total">    5.62    5.63</time>
   <energy>
    <i name="alphaZ">     72.52946589 </i>
    <i name="ewald">  65525.83111532 </i>
    <i name="hartreedc"> -96365.66341382 </i>
    <i name="XCdc">   -353.77416331 </i>
    <i name="pawpsdc">  33375.77130933 </i>
    <i name="pawaedc"> -31999.95312739 </i>
    <i name="eentropy">      0.00000000 </i>
    <i name="bandstr">  -2469.31935265 </i>
    <i name="atom">  32153.15753268 </i>
    <i name="e_fr_energy">    -61.42063394 </i>
    <i name="e_wo_entrp">    -61.42063394 </i>
    <i name="e_0_energy">    -61.42063394 </i>
   </energy>
  </scstep>
  <structure>
   <crystal>
    <varray name="basis" >
     <v>      22.42027988       0.00000000       0.00000000 </v>
     <v>       0.00000000      22.42027988       0.00000000 </v>
     <v>       0.00000000       0.00000000      22.42027988 </v>
    </varray>
    <i name="volume">  11269.97854229 </i>
    <varray name="rec_basis" >
     <v>       0.04460248       0.00000000       0.00000000 </v>
     <v>       0.00000000       0.04460248       0.00000000 </v>
     <v>       0.00000000       0.00000000       0.04460248 </v>
    </varray>
   </crystal>
   <varray name="positions" >
    <v>       0.41220472       0.68626378       0.52278950 </v>
    <v>       0.45611800       0.40119131       0.44439038 </v>
    <v>       0.53537763       0.68739731       0.51744110 </v>
    <v>       0.51875213       0.42480211       0.34038526 </v>
    <v>       0.65751587       0.67146411       0.52918153 </v>
    <v>       0.39430091       0.58520696       0.59439044 </v>
    <v>       0.59879639       0.63039802       0.42838070 </v>
    <v>       0.61858994       0.50137660       0.63309487 </v>
    <v>       0.29687462       0.64047433       0.53747624 </v>
    <v>       0.58128136       0.56549130       0.73286533 </v>
    <v>       0.49921331       0.54841285       0.64082872 </v>
    <v>       0.64920275       0.42582845       0.53938656 </v>
    <v>       0.64162460       0.54805881       0.51578602 </v>
    <v>       0.45369077       0.29117470       0.49343745 </v>
    <v>       0.53861406       0.54811282       0.35517235 </v>
    <v>       0.52187577       0.42823125       0.61149215 </v>
    <v>       0.36425641       0.56557474       0.47181570 </v>
    <v>       0.61196283       0.48271479       0.28173737 </v>
    <v>       0.42953832       0.50548416       0.38564155 </v>
    <v>       0.57252463       0.45992834       0.44870690 </v>
    <v>       0.66155190       0.52844881       0.38689160 </v>
    <v>       0.47490442       0.60326524       0.44992945 </v>
    <v>       0.72534075       0.43931602       0.63573574 </v>
    <v>       0.49978494       0.30504859       0.61018128 </v>
    <v>       0.46010863       0.50108024       0.52406437 </v>
    <v>       0.39922087       0.47661636       0.64424869 </v>
    <v>       0.48174124       0.66783794       0.63088356 </v>
    <v>       0.59937834       0.61727760       0.61874035 </v>
    <v>       0.41418373       0.38666450       0.56018280 </v>
    <v>       0.55287653       0.35778709       0.51207391 </v>
    <v>       0.58528555       0.74025409       0.61557961 </v>
   </varray>
  </structure>
  <varray name="forces" >
   <v>      -0.03747638      -0.16395311       0.05027629 </v>
   <v>      -0.00444180       0.04903965      -0.22153639 </v>
   <v>      -0.06739140      -0.02616157       0.03795046 </v>
   <v>      -0.04338777       0.13635180      -0.10566735 </v>
   <v>       0.07629102       0.23133198      -0.01769960 </v>
   <v>      -0.27952721       0.44907947      -0.18288561 </v>
   <v>      -0.13660001      -0.15529568      -0.03700978 </v>
   <v>       0.41364930      -0.30304712       0.10822530 </v>
   <v>       0.05712088       0.14676087       0.06437997 </v>
   <v>      -0.13965422       0.02679281      -0.25097526 </v>
   <v>       0.22276043      -0.27972001       0.14488956 </v>
   <v>       0.16529154       0.01771539       0.38163432 </v>
   <v>      -0.15353621       0.00494226      -0.07185979 </v>
   <v>      -0.10337145      -0.36509184       0.12047598 </v>
   <v>       0.33603430      -0.04117226       0.07646728 </v>
   <v>      -0.10942325      -0.10283122      -0.04679860 </v>
   <v>      -0.24536941      -0.02489702       0.10078800 </v>
   <v>       0.04446832      -0.13009230       0.05358140 </v>
   <v>       0.04303520      -0.08677013       0.21586684 </v>
   <v>      -0.07552725       0.35340241      -0.17171115 </v>
   <v>      -0.34398761      -0.03138393       0.13286553 </v>
   <v>       0.52872480       0.22228843      -0.12370420 </v>
   <v>      -0.28354462       0.08475883      -0.27226376 </v>
   <v>      -0.01012277      -0.06410811      -0.10512281 </v>
   <v>      -0.02832462      -0.09912269       0.09761107 </v>
   <v>       0.21631405      -0.20614670      -0.11757612 </v>
   <v>       0.05243503       0.27707657      -0.08388526 </v>
   <v>      -0.17595473       0.31468342       0.06959332 </v>
   <v>       0.08451188       0.00424408       0.02901282 </v>
   <v>       0.00972511      -0.18707014       0.07734807 </v>
   <v>      -0.01272117      -0.05160414       0.04772949 </v>
  </varray>
  <varray name="stress" >
   <v>      -1.83255031       0.04410689      -0.03934336 </v>
   <v>       0.04410688      -0.96551183       0.01878680 </v>
   <v>      -0.03934337       0.01878680      -1.95290050 </v>
  </varray>
  <energy>
   <i name="e_fr_energy">    -61.42063394 </i>
   <i name="e_wo_entrp">    -61.42063394 </i>
   <i name="e_0_energy">      0.00000000 </i>
  </energy>
  <time name="totalsc">   43.45   43.55</time>
 </calculation>
 <calculation>
  <scstep>
   <time name="dav">    5.02    5.02</time>
   <time name="total">    5.59    5.60</time>
   <energy>
    <i name="alphaZ">     72.52946589 </i>
    <i name="ewald">  65906.75546626 </i>
    <i name="hartreedc"> -96745.13620757 </i>
    <i name="XCdc">   -353.30232597 </i>
    <i name="pawpsdc">  33378.73118742 </i>
    <i name="pawaedc"> -32002.92415940 </i>
    <i name="eentropy">      0.00000000 </i>
    <i name="bandstr">  -2471.22745416 </i>
    <i name="atom">  32153.15753268 </i>
    <i name="e_fr_energy">    -61.41649485 </i>
    <i name="e_wo_entrp">    -61.41649485 </i>
    <i name="e_0_energy">    -61.41649485 </i>
   </energy>
  </scstep>
  <scstep>
   <time name="dav">    5.26    5.26</time>
   <time name="total">    5.83    6.84</time>
   <energy>
    <i name="e_fr_energy">    -61.44176936 </i>
    <i name="e_wo_entrp">    -61.44176936 </i>
    <i name="e_0_energy">    -61.44176936 </i>
   </energy>
  </scstep>
  <scstep>
   <time name="dav">    5.32    5.33</time>
   <time name="total">    5.90    6.02</time>
   <energy>
    <i name="e_fr_energy">    -61.44150793 </i>
    <i name="e_wo_entrp">    -61.44150793 </i>
    <i name="e_0_energy">    -61.44150793 </i>
   </energy>
  </scstep>
  <scstep>
   <time name="dav">    5.22    5.23</time>
   <time name="total">    5.80    5.83</time>
   <energy>
    <i name="e_fr_energy">    -61.44145462 </i>
    <i name="e_wo_entrp">    -61.44145462 </i>
    <i name="e_0_energy">    -61.44145462 </i>
   </energy>
  </scstep>
  <scstep>
   <time name="dav">    3.92    3.92</time>
   <time name="total">    4.50    4.51</time>
   <energy>
    <i name="e_fr_energy">    -61.44156819 </i>
    <i name="e_wo_entrp">    -61.44156819 </i>
    <i name="e_0_energy">    -61.44156819 </i>
   </energy>
  </scstep>
  <scstep>
   <time name="dav">    3.82    3.82</time>
   <time name="total">    4.19    4.20</time>
   <energy>
    <i name="alphaZ">     72.52946589 </i>
    <i name="ewald">  65906.75546626 </i>
    <i name="hartreedc"> -96742.53053669 </i>
    <i name="XCdc">   -353.40505144 </i>
    <i name="pawpsdc">  33437.34168757 </i>
    <i name="pawaedc"> -32062.56981300 </i>
    <i name="eentropy">      0.00000000 </i>
    <i name="bandstr">  -2472.72036475 </i>
    <i name="atom">  32153.15753268 </i>
    <i name="e_fr_energy">    -61.44161348 </i>
    <i name="e_wo_entrp">    -61.44161348 </i>
    <i name="e_0_energy">    -61.44161348 </i>
   </energy>
  </scstep>
  <structure>
   <crystal>
    <varray name="basis" >
     <v>      22.42027988       0.00000000       0.00000000 </v>
     <v>       0.00000000      22.42027988       0.00000000 </v>
     <v>       0.00000000       0.00000000      22.42027988 </v>
    </varray>
    <i name="volume">  11269.97854229 </i>
    <varray name="rec_basis" >
     <v>       0.04460248       0.00000000       0.00000000 </v>
     <v>       0.00000000       0.04460248       0.00000000 </v>
     <v>       0.00000000       0.00000000       0.04460248 </v>
    </varray>
   </crystal>
   <varray name="positions" >
    <v>       0.41227801       0.68588644       0.52350702 </v>
    <v>       0.45608392       0.40161319       0.44416467 </v>
    <v>       0.53498766       0.68685443       0.51734917 </v>
    <v>       0.51917326       0.42510001       0.34103991 </v>
    <v>       0.65702471       0.67101858       0.52915234 </v>
    <v>       0.39447971       0.58521136       0.59410141 </v>
    <v>       0.59846265       0.62993221       0.42878976 </v>
    <v>       0.61848949       0.50103784       0.63314740 </v>
    <v>       0.29763323       0.64020216       0.53744103 </v>
    <v>       0.58142998       0.56533922       0.73175702 </v>
    <v>       0.49910294       0.54810225       0.64096282 </v>
    <v>       0.64900804       0.42627158       0.53974380 </v>
    <v>       0.64158271       0.54766200       0.51484785 </v>
    <v>       0.45389385       0.29210466       0.49349183 </v>
    <v>       0.53864543       0.54822966       0.35590006 </v>
    <v>       0.52172452       0.42866219       0.61122923 </v>
    <v>       0.36472491       0.56536006       0.47164560 </v>
    <v>       0.61152658       0.48302091       0.28244617 </v>
    <v>       0.42945243       0.50528580       0.38586978 </v>
    <v>       0.57309243       0.46008351       0.44841994 </v>
    <v>       0.66078608       0.52835369       0.38711355 </v>
    <v>       0.47560701       0.60316608       0.44971228 </v>
    <v>       0.72428742       0.43951196       0.63529949 </v>
    <v>       0.49950516       0.30540764       0.60988719 </v>
    <v>       0.46001908       0.50088155       0.52391689 </v>
    <v>       0.39922881       0.47656364       0.64401516 </v>
    <v>       0.48194425       0.66800217       0.63016506 </v>
    <v>       0.59956948       0.61736103       0.61914706 </v>
    <v>       0.41462690       0.38699238       0.56077235 </v>
    <v>       0.55328300       0.35835364       0.51238301 </v>
    <v>       0.58503825       0.73961144       0.61549266 </v>
   </varray>
  </structure>
  <varray name="forces" >
   <v>      -0.03718344      -0.11952562      -0.02311639 </v>
   <v>       0.00198666       0.00624499      -0.16214794 </v>
   <v>      -0.02414735       0.02753796       0.04685606 </v>
   <v>      -0.07292806       0.09203760      -0.15115713 </v>
   <v>       0.11563054       0.24367907      -0.01176522 </v>
   <v>      -0.25995883       0.39907360      -0.13706617 </v>
   <v>      -0.10021939      -0.09611388      -0.07345791 </v>
   <v>       0.38489143      -0.22402698       0.07892847 </v>
   <v>      -0.01576154       0.15550673       0.06270564 </v>
   <v>      -0.13225000       0.04253196      -0.12883584 </v>
   <v>       0.21099547      -0.20293782       0.10863352 </v>
   <v>       0.17215605      -0.02725307       0.31786937 </v>
   <v>      -0.14169314       0.04153367       0.02700466 </v>
   <v>      -0.10914615      -0.41333416       0.10041009 </v>
   <v>       0.29084414      -0.03750658       0.01134075 </v>
   <v>      -0.08608985      -0.13078248      -0.01568283 </v>
   <v>      -0.25259589      -0.00338288       0.10127188 </v>
   <v>       0.08151237      -0.14586145      -0.01904181 </v>
   <v>       0.04675937      -0.05970167       0.17149542 </v>
   <v>      -0.10906756       0.30926847      -0.13313799 </v>
   <v>      -0.24868948      -0.02769120       0.11223001 </v>
   <v>       0.40881845       0.20238358      -0.09122622 </v>
   <v>      -0.17382874       0.06096951      -0.20998086 </v>
   <v>       0.01360343      -0.08690711      -0.06466875 </v>
   <v>      -0.01490040      -0.06590639       0.09952925 </v>
   <v>       0.18770260      -0.17844892      -0.08190344 </v>
   <v>       0.02645037       0.22203816      -0.01321893 </v>
   <v>      -0.17560017       0.24076862       0.02837396 </v>
   <v>       0.03554696      -0.02321271      -0.03232357 </v>
   <v>      -0.03224988      -0.21559120       0.03224778 </v>
   <v>       0.00941203       0.01461020       0.04983416 </v>
  </varray>
  <varray name="stress" >
   <v>      -1.58740453       0.05066634      -0.01912546 </v>
   <v>       0.05066633      -0.75590281       0.05589783 </v>
   <v>      -0.01912547       0.05589783      -1.69282328 </v>
  </varray>
  <energy>
   <i name="e_fr_energy">    -61.44161348 </i>
   <i name="e_wo_entrp">    -61.44161348 </i>
   <i name="e_0_energy">      0.00000000 </i>
  </energy>
  <time name="totalsc">   41.12   42.34</time>
 </calculation>
 <calculation>
  <scstep>
   <time name="dav">    4.98    4.98</time>
   <time name="total">    5.55    5.57</time>
   <energy>
    <i name="alphaZ">     72.52946589 </i>
    <i name="ewald">  65692.04088584 </i>
    <i name="hartreedc"> -96528.94896831 </i>
    <i name="XCdc">   -353.64181776 </i>
    <i name="pawpsdc">  33437.03737880 </i>
    <i name="pawaedc"> -32062.26467947 </i>
    <i name="eentropy">      0.00000000 </i>
    <i name="bandstr">  -2471.41536302 </i>
    <i name="atom">  32153.15753268 </i>
    <i name="e_fr_energy">    -61.50556536 </i>
    <i name="e_wo_entrp">    -61.50556536 </i>
    <i name="e_0_energy">    -61.50556536 </i>
   </energy>
  </scstep>
  <scstep>
   <time name="dav">    5.22    5.23</time>
   <time name="total">    5.80    5.80</time>
   <energy>
    <i name="e_fr_energy">    -61.52233295 </i>
    <i name="e_wo_entrp">    -61.52233295 </i>
    <i name="e_0_energy">    -61.52233295 </i>
   </energy>
  </scstep>
  <scstep>
   <time name="dav">    5.32    5.33</time>
   <time name="total">    5.90    5.93</time>
   <energy>
    <i name="e_fr_energy">    -61.52206055 </i>
    <i name="e_wo_entrp">    -61.52206055 </i>
    <i name="e_0_energy">    -61.52206055 </i>
   </energy>
  </scstep>
  <scstep>
   <time name="dav">    5.33    5.33</time>
   <time name="total">    5.90    6.72</time>
   <energy>
    <i name="e_fr_energy">    -61.52173006 </i>
    <i name="e_wo_entrp">    -61.52173006 </i>
    <i name="e_0_energy">    -61.52173006 </i>
   </energy>
  </scstep>
  <scstep>
   <time name="dav">    3.88    3.88</time>
   <time name="total">    4.26    4.26</time>
   <energy>
    <i name="alphaZ">     72.52946589 </i>
    <i name="ewald">  65692.04088584 </i>
    <i name="hartreedc"> -96530.98897185 </i>
    <i name="XCdc">   -353.59598189 </i>
    <i name="pawpsdc">  33403.15437533 </i>
    <i name="pawaedc"> -32027.82053211 </i>
    <i name="eentropy">      0.00000000 </i>
    <i name="bandstr">  -2469.99854311 </i>
    <i name="atom">  32153.15753268 </i>
    <i name="e_fr_energy">    -61.52176922 </i>
    <i name="e_wo_entrp">    -61.52176922 </i>
    <i name="e_0_energy">    -61.52176922 </i>
   </energy>
  </scstep>
  <structure>
   <crystal>
    <varray name="basis" >
     <v>      22.42027988       0.00000000       0.00000000 </v>
     <v>       0.00000000      22.42027988       0.00000000 </v>
     <v>       0.00000000       0.00000000      22.42027988 </v>
    </varray>
    <i name="volume">  11269.97854229 </i>
    <varray name="rec_basis" >
     <v>       0.04460248       0.00000000       0.00000000 </v>
     <v>       0.00000000       0.04460248       0.00000000 </v>
     <v>       0.00000000       0.00000000       0.04460248 </v>
    </varray>
   </crystal>
   <varray name="positions" >
    <v>       0.41217548       0.68580688       0.52316918 </v>
    <v>       0.45610170       0.40145330       0.44393999 </v>
    <v>       0.53509956       0.68712967       0.51747820 </v>
    <v>       0.51885902       0.42515828       0.34047760 </v>
    <v>       0.65745093       0.67167632       0.52914126 </v>
    <v>       0.39389896       0.58598913       0.59395155 </v>
    <v>       0.59840301       0.62993446       0.42847941 </v>
    <v>       0.61928232       0.50073840       0.63328015 </v>
    <v>       0.29729301       0.64061695       0.53757788 </v>
    <v>       0.58111102       0.56548433       0.73195743 </v>
    <v>       0.49956012       0.54783252       0.64112033 </v>
    <v>       0.64942376       0.42603759       0.54021902 </v>
    <v>       0.64132301       0.54790500       0.51528328 </v>
    <v>       0.45359781       0.29091791       0.49366579 </v>
    <v>       0.53920078       0.54810873       0.35562538 </v>
    <v>       0.52161805       0.42823094       0.61130584 </v>
    <v>       0.36404038       0.56544102       0.47191281 </v>
    <v>       0.61186376       0.48261111       0.28211985 </v>
    <v>       0.42957881       0.50525009       0.38611169 </v>
    <v>       0.57264777       0.46062435       0.44827691 </v>
    <v>       0.66061266       0.52833840       0.38724225 </v>
    <v>       0.47611902       0.60360187       0.44962266 </v>
    <v>       0.72437751       0.43955114       0.63506725 </v>
    <v>       0.49964585       0.30509142       0.60988083 </v>
    <v>       0.46002650       0.50083385       0.52417147 </v>
    <v>       0.39959223       0.47623656       0.64395043 </v>
    <v>       0.48191311       0.66836891       0.63043232 </v>
    <v>       0.59914849       0.61779732       0.61903659 </v>
    <v>       0.41451557       0.38681329       0.56046873 </v>
    <v>       0.55305420       0.35770140       0.51231992 </v>
    <v>       0.58515751       0.73990212       0.61562548 </v>
   </varray>
  </structure>
  <varray name="forces" >
   <v>      -0.01855421      -0.10090182      -0.02491785 </v>
   <v>       0.01500443      -0.06477568      -0.11585747 </v>
   <v>      -0.01021361       0.02127196       0.04550429 </v>
   <v>      -0.06055518       0.10159851      -0.13190889 </v>
   <v>       0.06286002       0.20074157      -0.01965555 </v>
   <v>      -0.14070902       0.25024713      -0.04364125 </v>
   <v>      -0.06741882      -0.06563669      -0.01812050 </v>
   <v>       0.26263134      -0.10835348       0.10681449 </v>
   <v>      -0.02940966       0.17344541       0.06057280 </v>
   <v>      -0.10488275       0.03386112      -0.15873951 </v>
   <v>       0.09781780      -0.15172869       0.04818338 </v>
   <v>       0.05357793      -0.03997753       0.20414759 </v>
   <v>      -0.14847322       0.04012700       0.00982363 </v>
   <v>      -0.09408689      -0.29858601       0.09358296 </v>
   <v>       0.24086853      -0.04616073       0.01177496 </v>
   <v>      -0.04783830      -0.10514963      -0.01993858 </v>
   <v>      -0.11253732       0.00055123       0.06458895 </v>
   <v>       0.07605719      -0.14738017      -0.00134371 </v>
   <v>       0.06972199      -0.01152019       0.19685337 </v>
   <v>      -0.10072413       0.23259708      -0.05179426 </v>
   <v>      -0.22862856      -0.03384282       0.10053782 </v>
   <v>       0.28324794       0.11130575      -0.08307824 </v>
   <v>      -0.10090995       0.03911002      -0.17049788 </v>
   <v>      -0.00099020      -0.09217246      -0.06431376 </v>
   <v>      -0.04347518      -0.03031429       0.07652563 </v>
   <v>       0.19475933      -0.09332815      -0.12145418 </v>
   <v>       0.01482483       0.17610680      -0.02781141 </v>
   <v>      -0.13154463       0.16103026       0.02459931 </v>
   <v>       0.05709868      -0.05155995      -0.04979883 </v>
   <v>       0.00601423      -0.12111168       0.00705274 </v>
   <v>       0.00646741       0.02050615       0.05230994 </v>
  </varray>
  <varray name="stress" >
   <v>      -1.72382807       0.02792003      -0.02457967 </v>
   <v>       0.02792002      -0.94794421       0.07808931 </v>
   <v>      -0.02457967       0.07808930      -1.79839851 </v>
  </varray>
  <energy>
   <i name="e_fr_energy">    -61.52176922 </i>
   <i name="e_wo_entrp">    -61.52176922 </i>
   <i name="e_0_energy">      0.00000000 </i>
  </energy>
  <time name="totalsc">   36.71   37.59</time>
 </calculation>
 <calculation>
  <scstep>
   <time name="dav">    4.99    4.99</time>
   <time name="total">    5.56    5.57</time>
   <energy>
    <i name="alphaZ">     72.52946589 </i>
    <i name="ewald">  65173.08594422 </i>
    <i name="hartreedc"> -96014.34584417 </i>
    <i name="XCdc">   -354.12665915 </i>
    <i name="pawpsdc">  33403.30169624 </i>
    <i name="pawaedc"> -32027.96847338 </i>
    <i name="eentropy">      0.00000000 </i>
    <i name="bandstr">  -2467.14359280 </i>
    <i name="atom">  32153.15753268 </i>
    <i name="e_fr_energy">    -61.50993048 </i>
    <i name="e_wo_entrp">    -61.50993048 </i>
    <i name="e_0_energy">    -61.50993048 </i>
   </energy>
  </scstep>
  <scstep>
   <time name="dav">    5.16    5.16</time>
   <time name="total">    5.73    5.74</time>
   <energy>
    <i name="e_fr_energy">    -61.60996296 </i>
    <i name="e_wo_entrp">    -61.60996296 </i>
    <i name="e_0_energy">    -61.60996296 </i>
   </energy>
  </scstep>
  <scstep>
   <time name="dav">    5.21    5.21</time>
   <time name="total">    5.78    5.78</time>
   <energy>
    <i name="e_fr_energy">    -61.60880026 </i>
    <i name="e_wo_entrp">    -61.60880026 </i>
    <i name="e_0_energy">    -61.60880026 </i>
   </energy>
  </scstep>
  <scstep>
   <time name="dav">    5.23    5.23</time>
   <time name="total">    5.80    5.82</time>
   <energy>
    <i name="e_fr_energy">    -61.60638287 </i>
    <i name="e_wo_entrp">    -61.60638287 </i>
    <i name="e_0_energy">    -61.60638287 </i>
   </energy>
  </scstep>
  <scstep>
   <time name="dav">    5.30    5.30</time>
   <time name="total">    5.87    5.89</time>
   <energy>
    <i name="e_fr_energy">    -61.60649544 </i>
    <i name="e_wo_entrp">    -61.60649544 </i>
    <i name="e_0_energy">    -61.60649544 </i>
   </energy>
  </scstep>
  <scstep>
   <time name="dav">    3.82    3.83</time>
   <time name="total">    4.20    4.21</time>
   <energy>
    <i name="alphaZ">     72.52946589 </i>
    <i name="ewald">  65173.08594422 </i>
    <i name="hartreedc"> -96018.80709781 </i>
    <i name="XCdc">   -354.02057877 </i>
    <i name="pawpsdc">  33333.82753137 </i>
    <i name="pawaedc"> -31957.25766730 </i>
    <i name="eentropy">      0.00000000 </i>
    <i name="bandstr">  -2464.12160074 </i>
    <i name="atom">  32153.15753268 </i>
    <i name="e_fr_energy">    -61.60647047 </i>
    <i name="e_wo_entrp">    -61.60647047 </i>
    <i name="e_0_energy">    -61.60647047 </i>
   </energy>
  </scstep>
  <structure>
   <crystal>
    <varray name="basis" >
     <v>      22.42027988       0.00000000       0.00000000 </v>
     <v>       0.00000000      22.42027988       0.00000000 </v>
     <v>       0.00000000       0.00000000      22.42027988 </v>
    </varray>
    <i name="volume">  11269.97854229 </i>
    <varray name="rec_basis" >
     <v>       0.04460248       0.00000000       0.00000000 </v>
     <v>       0.00000000       0.04460248       0.00000000 </v>
     <v>       0.00000000       0.00000000       0.04460248 </v>
    </varray>
   </crystal>
   <varray name="positions" >
    <v>       0.41192557       0.68561294       0.52234576 </v>
    <v>       0.45614504       0.40106361       0.44339237 </v>
    <v>       0.53537229       0.68780051       0.51779269 </v>
    <v>       0.51809311       0.42530031       0.33910706 </v>
    <v>       0.65848978       0.67327948       0.52911427 </v>
    <v>       0.39248349       0.58788482       0.59358631 </v>
    <v>       0.59825765       0.62993996       0.42772298 </v>
    <v>       0.62121473       0.50000857       0.63360373 </v>
    <v>       0.29646375       0.64162794       0.53791145 </v>
    <v>       0.58033359       0.56583804       0.73244590 </v>
    <v>       0.50067444       0.54717509       0.64150424 </v>
    <v>       0.65043701       0.42546728       0.54137729 </v>
    <v>       0.64069003       0.54849725       0.51634459 </v>
    <v>       0.45287624       0.28802538       0.49408980 </v>
    <v>       0.54055435       0.54781400       0.35495589 </v>
    <v>       0.52135852       0.42717982       0.61149256 </v>
    <v>       0.36237193       0.56563834       0.47256410 </v>
    <v>       0.61268558       0.48161229       0.28132449 </v>
    <v>       0.42988683       0.50516305       0.38670131 </v>
    <v>       0.57156397       0.46194256       0.44792832 </v>
    <v>       0.66018999       0.52830113       0.38755594 </v>
    <v>       0.47736697       0.60466405       0.44940423 </v>
    <v>       0.72459709       0.43964663       0.63450121 </v>
[...]
       <r>    -0.4117     0.0000   194.0000 </r>
       <r>    -0.3727     0.0000   195.0000 </r>
       <r>    -0.3337     0.0000   195.0000 </r>
       <r>    -0.2948     0.0000   197.0000 </r>
       <r>    -0.2558     0.0000   197.0000 </r>
       <r>    -0.2168     0.0000   197.0000 </r>
       <r>    -0.1778     0.0000   198.0000 </r>
       <r>    -0.1388     0.0000   198.0000 </r>
       <r>    -0.0998     0.0000   198.0000 </r>
       <r>    -0.0609     0.0000   199.0000 </r>
       <r>    -0.0219     0.0000   199.0000 </r>
       <r>     0.0171     0.0000   199.0000 </r>
       <r>     0.0561     0.0000   200.0000 </r>
       <r>     0.0951     0.0000   200.0000 </r>
       <r>     0.1340     0.0000   201.0000 </r>
       <r>     0.1730     0.0000   201.0000 </r>
       <r>     0.2120     0.0000   201.0000 </r>
       <r>     0.2510     0.0000   201.0000 </r>
       <r>     0.2900     0.0000   201.0000 </r>
       <r>     0.3290     0.0000   201.0000 </r>
       <r>     0.3679     0.0000   202.0000 </r>
       <r>     0.4069     0.0000   203.0000 </r>
       <r>     0.4459     0.0000   203.0000 </r>
       <r>     0.4849     0.0000   204.0000 </r>
       <r>     0.5239     0.0000   204.0000 </r>
       <r>     0.5628     0.0000   204.0000 </r>
       <r>     0.6018     0.0000   205.0000 </r>
       <r>     0.6408     0.0000   205.0000 </r>
       <r>     0.6798     0.0000   207.0000 </r>
       <r>     0.7188     0.0000   208.0000 </r>
       <r>     0.7578    25.6530   210.0000 </r>
       <r>     0.7967     0.0000   211.0000 </r>
       <r>     0.8357     0.0000   212.0000 </r>
       <r>     0.8747     0.0000   212.0000 </r>
       <r>     0.9137     0.0000   213.0000 </r>
       <r>     0.9527     0.0000   215.0000 </r>
       <r>     0.9916     0.0000   217.0000 </r>
       <r>     1.0306     0.0000   219.0000 </r>
       <r>     1.0696     0.0000   220.0000 </r>
       <r>     1.1086     0.0000   220.0000 </r>
       <r>     1.1476     0.0000   220.0000 </r>
       <r>     1.1866     0.0000   220.0000 </r>
       <r>     1.2255     0.0000   220.0000 </r>
       <r>     1.2645     0.0000   220.0000 </r>
       <r>     1.3035     0.0000   220.0000 </r>
       <r>     1.3425     0.0000   220.0000 </r>
       <r>     1.3815     0.0000   220.0000 </r>
       <r>     1.4204     0.0000   220.0000 </r>
       <r>     1.4594     0.0000   220.0000 </r>
       <r>     1.4984     0.0000   220.0000 </r>
       <r>     1.5374     0.0000   220.0000 </r>
       <r>     1.5764     0.0000   220.0000 </r>
      </set>
      <set comment="spin 2">
       <r>   -10.1182     0.0000     0.0000 </r>
       <r>   -10.0792     0.0000     0.0000 </r>
       <r>   -10.0402     0.0000     0.0000 </r>
       <r>   -10.0012     0.0000     0.0000 </r>
       <r>    -9.9623     0.0000     0.0000 </r>
       <r>    -9.9233     0.0000     0.0000 </r>
       <r>    -9.8843     0.0000     0.0000 </r>
       <r>    -9.8453     0.0000     0.0000 </r>
       <r>    -9.8063     0.0000     0.0000 </r>
       <r>    -9.7673     0.0000     0.0000 </r>
       <r>    -9.7284     0.0000     0.0000 </r>
       <r>    -9.6894     0.0000     0.0000 </r>
       <r>    -9.6504     0.0000     0.0000 </r>
       <r>    -9.6114     0.0000     0.0000 </r>
       <r>    -9.5724     0.0000     0.0000 </r>
       <r>    -9.5335     0.0000     1.0000 </r>
       <r>    -9.4945     0.0000     1.0000 </r>
       <r>    -9.4555     0.0000     1.0000 </r>
       <r>    -9.4165     0.0000     1.0000 </r>
       <r>    -9.3775     0.0000     1.0000 </r>
       <r>    -9.3385     0.0000     1.0000 </r>
       <r>    -9.2996     0.0000     1.0000 </r>
       <r>    -9.2606     0.0000     1.0000 </r>
       <r>    -9.2216     0.0000     1.0000 </r>
       <r>    -9.1826     0.0000     1.0000 </r>
       <r>    -9.1436     0.0000     2.0000 </r>
       <r>    -9.1047     0.0000     2.0000 </r>
       <r>    -9.0657     0.0000     4.0000 </r>
       <r>    -9.0267     0.0000     5.0000 </r>
       <r>    -8.9877     0.0000     6.0000 </r>
       <r>    -8.9487     0.0000     8.0000 </r>
       <r>    -8.9097     0.0000     9.0000 </r>
       <r>    -8.8708     0.0000    11.0000 </r>
       <r>    -8.8318     0.0000    12.0000 </r>
       <r>    -8.7928     0.0000    13.0000 </r>
       <r>    -8.7538     0.0000    14.0000 </r>
       <r>    -8.7148     0.0000    15.0000 </r>
       <r>    -8.6759     0.0000    17.0000 </r>
       <r>    -8.6369     0.0000    19.0000 </r>
       <r>    -8.5979     0.0000    20.0000 </r>
       <r>    -8.5589     0.0000    22.0000 </r>
       <r>    -8.5199    25.6529    24.0000 </r>
       <r>    -8.4809     0.0000    26.0000 </r>
       <r>    -8.4420     0.0000    28.0000 </r>
       <r>    -8.4030     0.0000    29.0000 </r>
       <r>    -8.3640     0.0000    31.0000 </r>
       <r>    -8.3250     0.0000    35.0000 </r>
       <r>    -8.2860     0.0000    36.0000 </r>
       <r>    -8.2471     0.0000    39.0000 </r>
       <r>    -8.2081     0.0000    40.0000 </r>
       <r>    -8.1691     0.0000    41.0000 </r>
       <r>    -8.1301     0.0000    44.0000 </r>
       <r>    -8.0911     0.0000    46.0000 </r>
       <r>    -8.0521     0.0000    46.0000 </r>
       <r>    -8.0132     0.0000    49.0000 </r>
       <r>    -7.9742     0.0000    50.0000 </r>
       <r>    -7.9352     0.0000    53.0000 </r>
       <r>    -7.8962     0.0000    55.0000 </r>
       <r>    -7.8572     0.0000    57.0000 </r>
       <r>    -7.8183     0.0000    58.0000 </r>
       <r>    -7.7793     0.0000    60.0000 </r>
       <r>    -7.7403    25.6530    62.0000 </r>
       <r>    -7.7013     0.0000    63.0000 </r>
       <r>    -7.6623     0.0000    65.0000 </r>
       <r>    -7.6233     0.0000    66.0000 </r>
       <r>    -7.5844     0.0000    69.0000 </r>
       <r>    -7.5454    25.6530    71.0000 </r>
       <r>    -7.5064     0.0000    73.0000 </r>
       <r>    -7.4674     0.0000    74.0000 </r>
       <r>    -7.4284    25.6530    77.0000 </r>
       <r>    -7.3895     0.0000    77.0000 </r>
       <r>    -7.3505     0.0000    79.0000 </r>
       <r>    -7.3115     0.0000    82.0000 </r>
       <r>    -7.2725     0.0000    84.0000 </r>
       <r>    -7.2335     0.0000    85.0000 </r>
       <r>    -7.1945     0.0000    88.0000 </r>
       <r>    -7.1556     0.0000    90.0000 </r>
       <r>    -7.1166     0.0000    92.0000 </r>
       <r>    -7.0776     0.0000    95.0000 </r>
       <r>    -7.0386     0.0000    98.0000 </r>
       <r>    -6.9996     0.0000   102.0000 </r>
       <r>    -6.9607     0.0000   104.0000 </r>
       <r>    -6.9217     0.0000   107.0000 </r>
       <r>    -6.8827     0.0000   111.0000 </r>
       <r>    -6.8437    25.6530   116.0000 </r>
       <r>    -6.8047     0.0000   118.0000 </r>
       <r>    -6.7657     0.0000   121.0000 </r>
       <r>    -6.7268     0.0000   125.0000 </r>
       <r>    -6.6878     0.0000   127.0000 </r>
       <r>    -6.6488    23.6096   129.9203 </r>
       <r>    -6.6098     0.0000   133.0000 </r>
       <r>    -6.5708     0.0000   135.0000 </r>
       <r>    -6.5319     0.0000   138.0000 </r>
       <r>    -6.4929     0.0000   141.0000 </r>
       <r>    -6.4539     0.0000   144.0000 </r>
       <r>    -6.4149     0.0000   148.0000 </r>
       <r>    -6.3759     0.0000   150.0000 </r>
       <r>    -6.3369     0.0000   152.0000 </r>
       <r>    -6.2980     0.0000   154.0000 </r>
       <r>    -6.2590     0.0000   156.0000 </r>
       <r>    -6.2200     0.0000   157.0000 </r>
       <r>    -6.1810     0.0000   158.0000 </r>
       <r>    -6.1420     0.0000   159.0000 </r>
       <r>    -6.1031     0.0000   159.0000 </r>
       <r>    -6.0641     0.0000   159.0000 </r>
       <r>    -6.0251     0.0000   159.0000 </r>
       <r>    -5.9861     0.0000   160.0000 </r>
       <r>    -5.9471     0.0000   160.0000 </r>
       <r>    -5.9081     0.0000   160.0000 </r>
       <r>    -5.8692     0.0000   160.0000 </r>
       <r>    -5.8302     0.0000   160.0000 </r>
       <r>    -5.7912     0.0000   160.0000 </r>
       <r>    -5.7522     0.0000   160.0000 </r>
       <r>    -5.7132    25.6530   161.0000 </r>
       <r>    -5.6743     0.0000   161.0000 </r>
       <r>    -5.6353     0.0000   162.0000 </r>
       <r>    -5.5963     0.0000   162.0000 </r>
       <r>    -5.5573     0.0000   162.0000 </r>
       <r>    -5.5183     0.0000   162.0000 </r>
       <r>    -5.4793     0.0000   162.0000 </r>
       <r>    -5.4404     0.0000   162.0000 </r>
       <r>    -5.4014     0.0000   162.0000 </r>
       <r>    -5.3624     0.0000   162.0000 </r>
       <r>    -5.3234     0.0000   162.0000 </r>
       <r>    -5.2844     0.0000   162.0000 </r>
       <r>    -5.2455     0.0000   162.0000 </r>
       <r>    -5.2065     0.0000   162.0000 </r>
       <r>    -5.1675     0.0000   162.0000 </r>
       <r>    -5.1285     0.0000   162.0000 </r>
       <r>    -5.0895     0.0000   163.0000 </r>
       <r>    -5.0505     0.0000   163.0000 </r>
       <r>    -5.0116     0.0000   163.0000 </r>
       <r>    -4.9726     0.0000   163.0000 </r>
       <r>    -4.9336     0.0000   163.0000 </r>
       <r>    -4.8946     0.0000   163.0000 </r>
       <r>    -4.8556     0.0000   163.0000 </r>
       <r>    -4.8167     0.0000   163.0000 </r>
       <r>    -4.7777     0.0000   164.0000 </r>
       <r>    -4.7387     0.0000   164.0000 </r>
       <r>    -4.6997     0.0000   165.0000 </r>
       <r>    -4.6607     0.0000   165.0000 </r>
       <r>    -4.6217     0.0000   165.0000 </r>
       <r>    -4.5828     0.0000   165.0000 </r>
       <r>    -4.5438     0.0000   165.0000 </r>
       <r>    -4.5048     0.0000   165.0000 </r>
       <r>    -4.4658     0.0000   165.0000 </r>
       <r>    -4.4268     0.0000   165.0000 </r>
       <r>    -4.3879     0.0000   165.0000 </r>
       <r>    -4.3489     0.0000   166.0000 </r>
       <r>    -4.3099     0.0000   166.0000 </r>
       <r>    -4.2709     0.0000   166.0000 </r>
       <r>    -4.2319     0.0000   166.0000 </r>
       <r>    -4.1929     0.0000   167.0000 </r>
       <r>    -4.1540     0.0000   167.0000 </r>
       <r>    -4.1150     0.0000   167.0000 </r>
       <r>    -4.0760     0.0000   167.0000 </r>
       <r>    -4.0370     0.0000   168.0000 </r>
       <r>    -3.9980     0.0000   168.0000 </r>
       <r>    -3.9591     0.0000   169.0000 </r>
       <r>    -3.9201     0.0000   169.0000 </r>
       <r>    -3.8811     0.0000   169.0000 </r>
       <r>    -3.8421     0.0000   169.0000 </r>
       <r>    -3.8031     0.0000   169.0000 </r>
       <r>    -3.7641     0.0000   169.0000 </r>
       <r>    -3.7252     0.0000   170.0000 </r>
       <r>    -3.6862     0.0000   170.0000 </r>
       <r>    -3.6472     0.0000   170.0000 </r>
       <r>    -3.6082     0.0000   170.0000 </r>
       <r>    -3.5692     0.0000   170.0000 </r>
       <r>    -3.5303     0.0000   170.0000 </r>
       <r>    -3.4913     0.0000   170.0000 </r>
       <r>    -3.4523     0.0000   170.0000 </r>
       <r>    -3.4133     0.0000   171.0000 </r>
       <r>    -3.3743     0.0000   171.0000 </r>
       <r>    -3.3353     0.0000   171.0000 </r>
       <r>    -3.2964     0.0000   171.0000 </r>
       <r>    -3.2574     0.0000   171.0000 </r>
       <r>    -3.2184     0.0000   171.0000 </r>
       <r>    -3.1794     0.0000   171.0000 </r>
       <r>    -3.1404     0.0000   171.0000 </r>
       <r>    -3.1015     0.0000   171.0000 </r>
       <r>    -3.0625     0.0000   172.0000 </r>
       <r>    -3.0235     0.0000   172.0000 </r>
       <r>    -2.9845     0.0000   172.0000 </r>
       <r>    -2.9455     0.0000   172.0000 </r>
       <r>    -2.9065     0.0000   173.0000 </r>
       <r>    -2.8676     0.0000   173.0000 </r>
       <r>    -2.8286     0.0000   173.0000 </r>
       <r>    -2.7896     0.0000   174.0000 </r>
       <r>    -2.7506     0.0000   174.0000 </r>
       <r>    -2.7116     0.0000   174.0000 </r>
       <r>    -2.6727     0.0000   174.0000 </r>
       <r>    -2.6337     0.0000   175.0000 </r>
       <r>    -2.5947     0.0000   175.0000 </r>
       <r>    -2.5557     0.0000   175.0000 </r>
       <r>    -2.5167     0.0000   175.0000 </r>
       <r>    -2.4777     0.0000   176.0000 </r>
       <r>    -2.4388     0.0000   176.0000 </r>
       <r>    -2.3998     0.0000   176.0000 </r>
       <r>    -2.3608     0.0000   177.0000 </r>
       <r>    -2.3218     0.0000   177.0000 </r>
       <r>    -2.2828     0.0000   177.0000 </r>
       <r>    -2.2439     0.0000   179.0000 </r>
       <r>    -2.2049     0.0000   179.0000 </r>
       <r>    -2.1659     0.0000   179.0000 </r>
       <r>    -2.1269     0.0000   179.0000 </r>
       <r>    -2.0879     0.0000   180.0000 </r>
       <r>    -2.0489     0.0000   180.0000 </r>
       <r>    -2.0100     0.0000   180.0000 </r>
       <r>    -1.9710     0.0000   180.0000 </r>
       <r>    -1.9320     0.0000   180.0000 </r>
       <r>    -1.8930     0.0000   180.0000 </r>
       <r>    -1.8540     0.0000   180.0000 </r>
       <r>    -1.8151     0.0000   181.0000 </r>
       <r>    -1.7761     0.0000   182.0000 </r>
       <r>    -1.7371     0.0000   182.0000 </r>
       <r>    -1.6981     0.0000   182.0000 </r>
       <r>    -1.6591     0.0000   182.0000 </r>
       <r>    -1.6201     0.0000   182.0000 </r>
       <r>    -1.5812     0.0000   182.0000 </r>
       <r>    -1.5422     0.0000   183.0000 </r>
       <r>    -1.5032     0.0000   184.0000 </r>
       <r>    -1.4642     0.0000   184.0000 </r>
       <r>    -1.4252     0.0000   184.0000 </r>
       <r>    -1.3862     0.0000   184.0000 </r>
       <r>    -1.3473     0.0000   184.0000 </r>
       <r>    -1.3083     0.0000   184.0000 </r>
       <r>    -1.2693     0.0000   184.0000 </r>
       <r>    -1.2303     0.0000   185.0000 </r>
       <r>    -1.1913     0.0000   186.0000 </r>
       <r>    -1.1524     0.0000   186.0000 </r>
       <r>    -1.1134     0.0000   186.0000 </r>
       <r>    -1.0744     0.0000   186.0000 </r>
       <r>    -1.0354     0.0000   186.0000 </r>
       <r>    -0.9964     0.0000   186.0000 </r>
       <r>    -0.9574     0.0000   186.0000 </r>
       <r>    -0.9185     0.0000   187.0000 </r>
       <r>    -0.8795     0.0000   187.0000 </r>
       <r>    -0.8405     0.0000   188.0000 </r>
       <r>    -0.8015     0.0000   189.0000 </r>
       <r>    -0.7625     0.0000   189.0000 </r>
       <r>    -0.7236     0.0000   190.0000 </r>
       <r>    -0.6846     0.0000   191.0000 </r>
       <r>    -0.6456     0.0000   191.0000 </r>
       <r>    -0.6066     0.0000   192.0000 </r>
       <r>    -0.5676     0.0000   192.0000 </r>
       <r>    -0.5286     0.0000   193.0000 </r>
       <r>    -0.4897     0.0000   194.0000 </r>
       <r>    -0.4507     0.0000   194.0000 </r>
       <r>    -0.4117     0.0000   194.0000 </r>
       <r>    -0.3727     0.0000   194.0000 </r>
       <r>    -0.3337     0.0000   195.0000 </r>
       <r>    -0.2948     0.0000   195.0000 </r>
       <r>    -0.2558     0.0000   197.0000 </r>
       <r>    -0.2168     0.0000   197.0000 </r>
       <r>    -0.1778     0.0000   197.0000 </r>
       <r>    -0.1388     0.0000   198.0000 </r>
       <r>    -0.0998     0.0000   198.0000 </r>
       <r>    -0.0609     0.0000   199.0000 </r>
       <r>    -0.0219     0.0000   199.0000 </r>
       <r>     0.0171     0.0000   199.0000 </r>
       <r>     0.0561     0.0000   200.0000 </r>
       <r>     0.0951     0.0000   200.0000 </r>
       <r>     0.1340     0.0000   200.0000 </r>
       <r>     0.1730     0.0000   201.0000 </r>
       <r>     0.2120     0.0000   201.0000 </r>
       <r>     0.2510     0.0000   201.0000 </r>
       <r>     0.2900     0.0000   201.0000 </r>
       <r>     0.3290     0.0000   201.0000 </r>
       <r>     0.3679     0.0000   202.0000 </r>
       <r>     0.4069     0.0000   202.0000 </r>
       <r>     0.4459     0.0000   203.0000 </r>
       <r>     0.4849     0.0000   204.0000 </r>
       <r>     0.5239     0.0000   204.0000 </r>
       <r>     0.5628     0.0000   204.0000 </r>
       <r>     0.6018     0.0000   204.0000 </r>
       <r>     0.6408     0.0000   205.0000 </r>
       <r>     0.6798    25.6530   207.0000 </r>
       <r>     0.7188     0.0000   208.0000 </r>
       <r>     0.7578     0.0000   209.0000 </r>
       <r>     0.7967     0.0000   210.0000 </r>
       <r>     0.8357     0.0000   212.0000 </r>
       <r>     0.8747     0.0000   212.0000 </r>
       <r>     0.9137     0.0000   213.0000 </r>
       <r>     0.9527     0.0000   214.0000 </r>
       <r>     0.9916     0.0000   217.0000 </r>
       <r>     1.0306     0.0000   219.0000 </r>
       <r>     1.0696     0.0000   220.0000 </r>
       <r>     1.1086     0.0000   220.0000 </r>
       <r>     1.1476     0.0000   220.0000 </r>
       <r>     1.1866     0.0000   220.0000 </r>
       <r>     1.2255     0.0000   220.0000 </r>
       <r>     1.2645     0.0000   220.0000 </r>
       <r>     1.3035     0.0000   220.0000 </r>
       <r>     1.3425     0.0000   220.0000 </r>
       <r>     1.3815     0.0000   220.0000 </r>
       <r>     1.4204     0.0000   220.0000 </r>
       <r>     1.4594     0.0000   220.0000 </r>
       <r>     1.4984     0.0000   220.0000 </r>
       <r>     1.5374     0.0000   220.0000 </r>
       <r>     1.5764     0.0000   220.0000 </r>
      </set>
     </set>
    </array>
   </total>
  </dos>
 </calculation>
 <structure name="finalpos" >
  <crystal>
   <varray name="basis" >
    <v>      22.42027988       0.00000000       0.00000000 </v>
    <v>       0.00000000      22.42027988       0.00000000 </v>
    <v>       0.00000000       0.00000000      22.42027988 </v>
   </varray>
   <i name="volume">  11269.97854229 </i>
   <varray name="rec_basis" >
    <v>       0.04460248       0.00000000       0.00000000 </v>
    <v>       0.00000000       0.04460248       0.00000000 </v>
    <v>       0.00000000       0.00000000       0.04460248 </v>
   </varray>
  </crystal>
  <varray name="positions" >
   <v>       0.42624961       0.69018828       0.52151429 </v>
   <v>       0.43400633       0.38601629       0.44505824 </v>
   <v>       0.54653093       0.70050766       0.50489806 </v>
   <v>       0.50926787       0.42006040       0.34872921 </v>
   <v>       0.64571384       0.62851541       0.54323056 </v>
   <v>       0.40534465       0.58974477       0.60102138 </v>
   <v>       0.61024538       0.63582198       0.42346437 </v>
   <v>       0.62831525       0.51407204       0.59590857 </v>
   <v>       0.31333854       0.65861561       0.55604990 </v>
   <v>       0.50417597       0.63308232       0.73289878 </v>
   <v>       0.51205290       0.54716493       0.64602682 </v>
   <v>       0.63915273       0.40500350       0.52222444 </v>
   <v>       0.53156241       0.56854488       0.51992590 </v>
   <v>       0.45713199       0.27248834       0.49172306 </v>
   <v>       0.56093608       0.53275259       0.37441241 </v>
   <v>       0.53113055       0.43695027       0.59601173 </v>
   <v>       0.37552579       0.58714917       0.47650952 </v>
   <v>       0.63117824       0.42389396       0.39149289 </v>
   <v>       0.44127048       0.50909339       0.40582381 </v>
   <v>       0.53730908       0.45070760       0.46889890 </v>
   <v>       0.64670487       0.52343687       0.46791581 </v>
   <v>       0.48138610       0.62878890       0.42125793 </v>
   <v>       0.73436156       0.47917353       0.54246475 </v>
   <v>       0.55009893       0.32537817       0.55052287 </v>
   <v>       0.43022171       0.48681126       0.52848696 </v>
   <v>       0.41688929       0.46727279       0.64761934 </v>
   <v>       0.50101683       0.67384866       0.61857289 </v>
   <v>       0.60909422       0.61986615       0.66380220 </v>
   <v>       0.43003957       0.36570924       0.57115111 </v>
   <v>       0.55369849       0.33096540       0.42783787 </v>
   <v>       0.61274168       0.72955891       0.60745692 </v>
  </varray>
 </structure>
</modeling>
