 vasp.5.3.5 31Mar14 (build Feb 01 2018 12:10:03) gamma-only                     
  
 executed on             LinuxIFC date 2019.03.23  23:57:07
 running on   64 total cores
 distrk:  each k-point on   64 cores,    1 groups
 distr:  one band on NCORES_PER_BAND=  16 cores,    4 groups


--------------------------------------------------------------------------------------------------------


 INCAR:
 POTCAR:    PAW_PBE Ag 02Apr2005                  
 POTCAR:    PAW_PBE Ag 02Apr2005                  
   VRHFIN =Ag : s1 d10                                                          
   LEXCH  = PE                                                                  
   EATOM  =  1037.2675 eV,   76.2370 Ry                                         
                                                                                
   TITEL  = PAW_PBE Ag 02Apr2005                                                
   LULTRA =        F    use ultrasoft PP ?                                      
   IUNSCR =        1    unscreen: 0-lin 1-nonlin 2-no                           
   RPACOR =    2.000    partial core radius                                     
   POMASS =  107.868; ZVAL   =   11.000    mass and valenz                      
   RCORE  =    2.500    outmost cutoff radius                                   
   RWIGS  =    2.840; RWIGS  =    1.503    wigner-seitz radius (au A)           
   ENMAX  =  249.844; ENMIN  =  187.383 eV                                      
   ICORE  =        3    local potential                                         
   LCOR   =        T    correct aug charges                                     
   LPAW   =        T    paw PP                                                  
   EAUG   =  412.496                                                            
   DEXC   =    0.000                                                            
   RMAX   =    2.560    core radius for proj-oper                               
   RAUG   =    1.300    factor for augmentation sphere                          
   RDEP   =    2.576    radius for radial grids                                 
   RDEPT  =    2.072    core radius for aug-charge                              
                                                                                
   Atomic configuration                                                         
   12 entries                                                                   
     n  l   j            E        occ.                                          
     1  0  0.50    -25324.9161   2.0000                                         
     2  0  0.50     -3728.5341   2.0000                                         
     2  1  1.50     -3344.0404   6.0000                                         
     3  0  0.50      -683.5581   2.0000                                         
     3  1  1.50      -557.3225   6.0000                                         
     3  2  2.50      -358.3853  10.0000                                         
     4  0  0.50       -95.0341   2.0000                                         
     4  1  1.50       -58.5511   6.0000                                         
     4  2  2.50        -7.4440  10.0000                                         
     5  0  0.50        -4.4045   1.0000                                         
     5  1  0.50        -1.3606   0.0000                                         
     4  3  2.50        -1.3606   0.0000                                         
   Description                                                                  
     l       E           TYP  RCUT    TYP  RCUT                                 
     2     -7.4439781     23  2.400                                             
     2     -8.8045607     23  2.400                                             
     0     -4.4044681     23  2.400                                             
     0      1.9520038     23  2.400                                             
     1     -1.3605826     23  2.500                                             
     1     27.2116520     23  2.500                                             
     3     -4.0817478     23  2.400                                             
  local pseudopotential read in
  partial core-charges read in
  partial kinetic energy density read in
  atomic valenz-charges read in
  non local Contribution for L=           2  read in
    real space projection operators read in
  non local Contribution for L=           2  read in
    real space projection operators read in
  non local Contribution for L=           0  read in
    real space projection operators read in
  non local Contribution for L=           0  read in
    real space projection operators read in
  non local Contribution for L=           1  read in
    real space projection operators read in
  non local Contribution for L=           1  read in
    real space projection operators read in
    PAW grid and wavefunctions read in
 
   number of l-projection  operators is LMAX  =           6
   number of lm-projection operators is LMMAX =          18
 

 ----------------------------------------------------------------------------- 
|                                                                             |
|  ADVICE TO THIS USER RUNNING 'VASP/VAMP'   (HEAR YOUR MASTER'S VOICE ...):  |
|                                                                             |
|      You have a (more or less) 'large supercell' and for larger cells       |
|      it might be more efficient to use real space projection opertators     |
|      So try LREAL= Auto  in the INCAR   file.                               |
|      Mind: At the moment your POTCAR file does not contain real space       |
|       projectors, and has to be modified,  BUT if you                       |
|      want to do an extremely  accurate calculation you might also keep the  |
|      reciprocal projection scheme          (i.e. LREAL=.FALSE.)             |
|                                                                             |
 ----------------------------------------------------------------------------- 

  PAW_PBE Ag 02Apr2005                  :
 energy of atom  1       EATOM=-1037.2675
 kinetic energy error for atom=    0.0689 (will be added to EATOM!!)
 
 
 POSCAR: Al44, -139.42452286 <s> Ag </s>         
  positions in direct lattice
  No initial velocities read in
 exchange correlation table for  LEXCH =        8
   RHO(1)=    0.500       N(1)  =     2000
   RHO(2)=  100.500       N(2)  =     4000
 


--------------------------------------------------------------------------------------------------------


 ion  position               nearest neighbor table
   1  0.470  0.282  0.565-   2 2.74   4 2.78   8 2.79   6 2.81   3 2.84
   2  0.365  0.327  0.582-   1 2.74   8 2.75   3 2.75   5 2.83   7 2.84
   3  0.427  0.367  0.492-  10 2.69   2 2.75   9 2.78  17 2.83   1 2.84   4 2.89   5 2.90  16 2.94
                             8 3.07
   4  0.540  0.323  0.480-  13 2.75   1 2.78  16 2.83  10 2.86   3 2.89  12 2.95   6 3.03
   5  0.314  0.410  0.512-   9 2.74  11 2.76   2 2.83   3 2.90  17 2.90  19 2.95   7 3.05
   6  0.568  0.339  0.604-  12 2.70  14 2.76   1 2.81   8 2.87   4 3.03  16 3.03
   7  0.341  0.432  0.636-  11 2.81  15 2.82   2 2.84  21 2.88  17 2.93   8 2.97   5 3.05
   8  0.458  0.388  0.617-  14 2.72   2 2.75  15 2.76   1 2.79  17 2.84   6 2.87  16 2.88   7 2.97
                             3 3.07
   9  0.379  0.450  0.425-  18 2.70   5 2.74   3 2.78  19 2.83  10 2.88  17 2.99  30 3.10  27 3.19

  10  0.491  0.406  0.406-   3 2.69  20 2.74  18 2.82  13 2.82   4 2.86   9 2.88  27 2.96  16 3.03
                            24 3.53
  11  0.255  0.488  0.577-  21 2.75   5 2.76  19 2.77   7 2.81
  12  0.640  0.382  0.527-   6 2.70  22 2.77  28 2.81  16 2.93  13 2.95   4 2.95  24 3.18
  13  0.608  0.382  0.406-  36 2.72   4 2.75  10 2.82  24 2.85  20 2.93  12 2.95  22 3.46
  14  0.552  0.444  0.653-  26 2.69   8 2.72   6 2.76  28 2.77  15 2.89  23 3.01  16 3.05
  15  0.440  0.491  0.670-   8 2.76  26 2.77   7 2.82  32 2.83  14 2.89  21 2.97  17 3.05  23 3.09

  16  0.527  0.432  0.527-  23 2.76  24 2.79   4 2.83  17 2.87   8 2.88  12 2.93  27 2.94   3 2.94
                            10 3.03  28 3.03   6 3.03  14 3.05
  17  0.414  0.474  0.544-   3 2.83   8 2.84  25 2.84  21 2.85  16 2.87   5 2.90  19 2.93   7 2.93
                            23 2.96   9 2.99  15 3.05  27 3.10
  18  0.441  0.489  0.337-   9 2.70  29 2.74  20 2.77  10 2.82  30 2.92  27 3.01
  19  0.320  0.533  0.489-  11 2.77   9 2.83  30 2.84  25 2.87  17 2.93   5 2.95  21 2.96
  20  0.558  0.477  0.344-  10 2.74  18 2.77  34 2.79  29 2.81  36 2.82  24 2.89  13 2.93  27 3.15

  21  0.348  0.551  0.610-  32 2.75  11 2.75  25 2.82  17 2.85   7 2.88  19 2.96  15 2.97
  22  0.716  0.454  0.474-  12 2.77  38 2.78  36 2.84  24 2.85  28 3.28  13 3.46
  23  0.517  0.538  0.575-  16 2.76  31 2.79  37 2.87  32 2.87  25 2.88  28 2.92  26 2.94  17 2.96
                            14 3.01  27 3.05  15 3.09  33 3.13
  24  0.602  0.491  0.457-  33 2.72  27 2.77  16 2.79  13 2.85  22 2.85  20 2.89  36 2.90  28 2.91
                            38 2.91  34 2.97  12 3.18  10 3.53
  25  0.420  0.592  0.524-  37 2.73  21 2.82  39 2.83  17 2.84  19 2.87  23 2.88  30 2.88  32 2.90
                            27 2.91
  26  0.539  0.548  0.697-  14 2.69  35 2.76  15 2.77  23 2.94  32 2.94  31 3.14
  27  0.490  0.523  0.450-  24 2.77  30 2.86  33 2.90  25 2.91  29 2.93  16 2.94  10 2.96  18 3.01
                            23 3.05  39 3.09  17 3.10  20 3.15   9 3.19
  28  0.630  0.489  0.578-  31 2.75  14 2.77  12 2.81  38 2.90  24 2.91  23 2.92  16 3.03  22 3.28

  29  0.507  0.585  0.343-  41 2.67  18 2.74  20 2.81  39 2.86  27 2.93  34 2.93  30 3.08
  30  0.392  0.580  0.406-  39 2.77  19 2.84  27 2.86  25 2.88  18 2.92  29 3.08   9 3.10
  31  0.613  0.602  0.601-  28 2.75  23 2.79  35 2.81  40 2.81  37 2.99  42 3.00  33 3.02  38 3.08
                            26 3.14
  32  0.443  0.607  0.643-  35 2.73  21 2.75  15 2.83  37 2.84  23 2.87  25 2.90  26 2.94
  33  0.579  0.602  0.477-  24 2.72  38 2.82  37 2.82  39 2.83  44 2.84  27 2.90  43 2.90  31 3.02
                            34 3.04  23 3.13  41 3.19  40 3.23
  34  0.628  0.570  0.363-  44 2.70  36 2.71  20 2.79  41 2.84  29 2.93  24 2.97  33 3.04  38 3.60

  35  0.540  0.662  0.674-  32 2.73  42 2.74  26 2.76  31 2.81  37 2.88
  36  0.675  0.465  0.362-  34 2.71  13 2.72  20 2.82  22 2.84  24 2.90
  37  0.509  0.658  0.556-  25 2.73  42 2.79  33 2.82  32 2.84  39 2.86  23 2.87  35 2.88  43 2.95
                            31 2.99
  38  0.690  0.566  0.502-  40 2.75  22 2.78  33 2.82  44 2.89  28 2.90  24 2.91  31 3.08  34 3.60

  39  0.478  0.653  0.439-  30 2.77  25 2.83  33 2.83  29 2.86  37 2.86  41 2.87  43 2.93  27 3.09

  40  0.679  0.677  0.535-  44 2.69  42 2.71  38 2.75  31 2.81  43 3.11  33 3.23
  41  0.571  0.676  0.364-  29 2.67  44 2.79  43 2.81  34 2.84  39 2.87  33 3.19
  42  0.596  0.728  0.596-  40 2.71  35 2.74  37 2.79  43 2.96  31 3.00
  43  0.573  0.725  0.472-  41 2.81  33 2.90  39 2.93  37 2.95  42 2.96  44 3.05  40 3.11
  44  0.672  0.657  0.423-  40 2.69  34 2.70  41 2.79  33 2.84  38 2.89  43 3.05
 
  LATTYP: Found a simple cubic cell.
 ALAT       =    23.6010813389
  
  Lattice vectors:
  
 A1 = (  23.6010813389,   0.0000000000,   0.0000000000)
 A2 = (   0.0000000000,  23.6010813389,   0.0000000000)
 A3 = (   0.0000000000,   0.0000000000,  23.6010813389)


Analysis of symmetry for initial positions (statically):
=====================================================================
 Subroutine PRICEL returns:
 Original cell was already a primitive cell.
 

 Routine SETGRP: Setting up the symmetry group for a 
 simple cubic supercell.


 Subroutine GETGRP returns: Found  1 space group operations
 (whereof  1 operations were pure point group operations)
 out of a pool of 48 trial point group operations.


The static configuration has the point symmetry C_1 .


Analysis of symmetry for dynamics (positions and initial velocities):
=====================================================================
 Subroutine PRICEL returns:
 Original cell was already a primitive cell.
 

 Routine SETGRP: Setting up the symmetry group for a 
 simple cubic supercell.


 Subroutine GETGRP returns: Found  1 space group operations
 (whereof  1 operations were pure point group operations)
 out of a pool of 48 trial point group operations.


The dynamic configuration has the point symmetry C_1 .


Analysis of magnetic symmetry:
=====================================================================
 Subroutine PRICEL returns:
 Original cell was already a primitive cell.
 

 Subroutine MAGSYM returns: Found  1 space group operations
 (whereof  1 operations were pure point group operations)
 out of a pool of  1 trial space group operations
 (whereof  1 operations were pure point group operations)
 and found also     1 'primitive' translations


The magnetic configuration has the point symmetry C_1 .
 
 
 KPOINTS: Gamma-point only                        
  k-points in reciprocal lattice
Space group operators:
 irot       det(A)        alpha          n_x          n_y          n_z        tau_x        tau_y        tau_z
    1     1.000000     0.000000     1.000000     0.000000     0.000000     0.000000     0.000000     0.000000


--------------------------------------------------------------------------------------------------------




 Dimension of arrays:
   k-points           NKPTS =      1   k-points in BZ     NKDIM =      1   number of bands    NBANDS=    312
   number of dos      NEDOS =    301   number of ions     NIONS =     44
   non local maximal  LDIM  =      6   non local SUM 2l+1 LMDIM =     18
   total plane-waves  NPLWV = 884736
   max r-space proj   IRMAX =      1   max aug-charges    IRDMAX=   3508
   dimension x,y,z NGX =    96 NGY =   96 NGZ =   96
   dimension x,y,z NGXF=   192 NGYF=  192 NGZF=  192
   support grid    NGXF=   192 NGYF=  192 NGZF=  192
   ions per type =              44
 NGX,Y,Z   is equivalent  to a cutoff of   6.76,  6.76,  6.76 a.u.
 NGXF,Y,Z  is equivalent  to a cutoff of  13.52, 13.52, 13.52 a.u.


 I would recommend the setting:
   dimension x,y,z NGX =    91 NGY =   91 NGZ =   91
 SYSTEM =  unknown system                          
 POSCAR =  Al44, -139.42452286 <s> Ag </s>         

 Startparameter for this run:
   NWRITE =      2    write-flag & timer
   PREC   = normal    normal or accurate (medium, high low for compatibility)
   ISTART =      0    job   : 0-new  1-cont  2-samecut
   ICHARG =      2    charge: 1-file 2-atom 10-const
   ISPIN  =      2    spin polarized calculation?
   LNONCOLLINEAR =      F non collinear calculations
   LSORBIT =      F    spin-orbit coupling
   INIWAV =      1    electr: 0-lowe 1-rand  2-diag
   LASPH  =      F    aspherical Exc in radial PAW
   METAGGA=      F    non-selfconsistent MetaGGA calc.

 Electronic Relaxation 1
   ENCUT  =  249.8 eV  18.36 Ry    4.29 a.u.  30.42 30.42 30.42*2*pi/ulx,y,z
   ENINI  =  249.8     initial cutoff
   ENAUG  =  412.5 eV  augmentation charge cutoff
   NELM   =     60;   NELMIN=  2; NELMDL= -5     # of ELM steps 
   EDIFF  = 0.1E-03   stopping-criterion for ELM
   LREAL  =      F    real-space projection
   NLSPLINE    = F    spline interpolate recip. space projectors
   LCOMPAT=      F    compatible to vasp.4.4
   GGA_COMPAT  = T    GGA compatible to vasp.4.4-vasp.4.6
   LMAXPAW     = -100 max onsite density
   LMAXMIX     =    2 max onsite mixed and CHGCAR
   VOSKOWN=      0    Vosko Wilk Nusair interpolation
   ROPT   =    0.00000
 Ionic relaxation
   EDIFFG = 0.1E-02   stopping-criterion for IOM
   NSW    =   1000    number of steps for IOM
   NBLOCK =      1;   KBLOCK =   1000    inner block; outer block 
   IBRION =      2    ionic relax: 0-MD 1-quasi-New 2-CG
   NFREE  =      1    steps in history (QN), initial steepest desc. (CG)
   ISIF   =      2    stress and relaxation
   IWAVPR =     11    prediction:  0-non 1-charg 2-wave 3-comb
   ISYM   =      2    0-nonsym 1-usesym 2-fastsym
   LCORR  =      T    Harris-Foulkes like correction to forces

   POTIM  = 0.1000    time-step for ionic-motion
   TEIN   =    0.0    initial temperature
   TEBEG  =    0.0;   TEEND  =   0.0 temperature during run
   SMASS  =  -3.00    Nose mass-parameter (am)
   estimated Nose-frequenzy (Omega)   =  0.10E-29 period in steps =****** mass=  -0.127E-25a.u.
   SCALEE = 1.0000    scale energy and forces
   NPACO  =    256;   APACO  = 16.0  distance and # of slots for P.C.
   PSTRESS=    0.0 pullay stress

  Mass of Ions in am
   POMASS = 107.87
  Ionic Valenz
   ZVAL   =  11.00
  Atomic Wigner-Seitz radii
   RWIGS  =  -1.00
  virtual crystal weights 
   VCA    =   1.00
   NELECT =     484.0000    total number of electrons
   NUPDOWN=      -1.0000    fix difference up-down

 DOS related values:
   EMIN   =  10.00;   EMAX   =-10.00  energy-range for DOS
   EFERMI =   0.00
   ISMEAR =     0;   SIGMA  =   0.00  broadening in eV -4-tet -1-fermi 0-gaus

 Electronic relaxation 2 (details)
   IALGO  =     38    algorithm
   LDIAG  =      T    sub-space diagonalisation (order eigenvalues)
   LSUBROT=      F    optimize rotation matrix (better conditioning)
   TURBO    =      0    0=normal 1=particle mesh
   IRESTART =      0    0=no restart 2=restart with 2 vectors
   NREBOOT  =      0    no. of reboots
   NMIN     =      0    reboot dimension
   EREF     =   0.00    reference energy to select bands
   IMIX   =      4    mixing-type and parameters
     AMIX     =   0.40;   BMIX     =  1.00
     AMIX_MAG =   1.60;   BMIX_MAG =  1.00
     AMIN     =   0.10
     WC   =   100.;   INIMIX=   1;  MIXPRE=   1;  MAXMIX= -45

 Intra band minimization:
   WEIMIN = 0.0010     energy-eigenvalue tresh-hold
   EBREAK =  0.80E-07  absolut break condition
   DEPER  =   0.30     relativ break condition  

   TIME   =   0.40     timestep for ELM

  volume/ion in A,a.u.               =     298.77      2016.23
  Fermi-wavevector in a.u.,A,eV,Ry     =   0.544617  1.029177  4.035596  0.296608
  Thomas-Fermi vector in A             =   1.573619
 
 Write flags
   LWAVE  =      F    write WAVECAR
   LCHARG =      F    write CHGCAR
   LVTOT  =      F    write LOCPOT, total local potential
   LVHAR  =      F    write LOCPOT, Hartree potential only
   LELF   =      F    write electronic localiz. function (ELF)
   LORBIT =      0    0 simple, 1 ext, 2 COOP (PROOUT)


 Dipole corrections
   LMONO  =      F    monopole corrections only (constant potential shift)
   LDIPOL =      F    correct potential (dipole corrections)
   IDIPOL =      0    1-x, 2-y, 3-z, 4-all directions 
   EPSILON=  1.0000000 bulk dielectric constant

 Exchange correlation treatment:
   GGA     =    PE    GGA type
   LEXCH   =     8    internal setting for exchange type
   VOSKOWN=      0    Vosko Wilk Nusair interpolation
   LHFCALC =     F    Hartree Fock is set to
   LHFONE  =     F    Hartree Fock one center treatment
   AEXX    =    0.0000 exact exchange contribution

 Linear response parameters
   LEPSILON=     F    determine dielectric tensor
   LRPA    =     F    only Hartree local field effects (RPA)
   LNABLA  =     F    use nabla operator in PAW spheres
   LVEL    =     F    velocity operator in full k-point grid
   LINTERFAST=   F  fast interpolation
   KINTER  =     0    interpolate to denser k-point grid
   CSHIFT  =0.1000    complex shift for real part using Kramers Kronig
   OMEGAMAX=  -1.0    maximum frequency
   DEG_THRESHOLD= 0.2000000E-02 threshold for treating states as degnerate
   RTIME   =    0.100 relaxation time in fs

 Orbital magnetization related:
   ORBITALMAG=     F  switch on orbital magnetization
   LCHIMAG   =     F  perturbation theory with respect to B field
   DQ        =  0.001000  dq finite difference perturbation B field



--------------------------------------------------------------------------------------------------------


 conjugate gradient relaxation of ions
 charge density and potential will be updated during run
 spin polarized calculation
 Variant of blocked Davidson
 Davidson routine will perform the subspace rotation
 perform sub-space diagonalisation
    after iterative eigenvector-optimisation
 modified Broyden-mixing scheme, WC =      100.0
 initial mixing is a Kerker type mixing with AMIX =  0.4000 and BMIX =      1.0000
 Hartree-type preconditioning will be used
 using additional bands           70
 reciprocal scheme for non local part
 use partial core corrections
 calculate Harris-corrections to forces 
   (improved forces if not selfconsistent)
 use gradient corrections 
 use of overlap-Matrix (Vanderbilt PP)
 Gauss-broadening in eV      SIGMA  =   0.00


--------------------------------------------------------------------------------------------------------


  energy-cutoff  :      249.84
  volume of cell :    13146.06
      direct lattice vectors                 reciprocal lattice vectors
    23.601081339  0.000000000  0.000000000     0.042370940  0.000000000  0.000000000
     0.000000000 23.601081339  0.000000000     0.000000000  0.042370940  0.000000000
     0.000000000  0.000000000 23.601081339     0.000000000  0.000000000  0.042370940

  length of vectors
    23.601081339 23.601081339 23.601081339     0.042370940  0.042370940  0.042370940


 
 k-points in units of 2pi/SCALE and weight: Gamma-point only                        
   0.00000000  0.00000000  0.00000000       1.000
 
 k-points in reciprocal lattice and weights: Gamma-point only                        
   0.00000000  0.00000000  0.00000000       1.000
 
 position of ions in fractional coordinates (direct lattice) 
   0.47038261  0.28214910  0.56549418
   0.36451432  0.32697116  0.58221307
   0.42673297  0.36650168  0.49188830
   0.54036401  0.32283779  0.47971122
   0.31371526  0.41005566  0.51226036
   0.56812123  0.33853673  0.60398668
   0.34124742  0.43192576  0.63644117
   0.45759856  0.38806286  0.61654632
   0.37858731  0.45039617  0.42482676
   0.49073128  0.40553691  0.40629433
   0.25508361  0.48813309  0.57651067
   0.64010165  0.38197447  0.52664310
   0.60801458  0.38212399  0.40597923
   0.55205027  0.44360120  0.65269971
   0.44011243  0.49053264  0.66977927
   0.52678843  0.43241975  0.52654165
   0.41381802  0.47364782  0.54449792
   0.44085135  0.48900486  0.33702143
   0.31961282  0.53259016  0.48898012
   0.55757219  0.47710925  0.34420087
   0.34754602  0.55069191  0.60974959
   0.71612578  0.45412780  0.47422181
   0.51660952  0.53842610  0.57510405
   0.60239779  0.49108150  0.45734661
   0.41973032  0.59197392  0.52399688
   0.53879786  0.54781690  0.69711993
   0.48971446  0.52319399  0.44962011
   0.63002740  0.48919209  0.57763381
   0.50660305  0.58474201  0.34319942
   0.39218875  0.57964516  0.40558796
   0.61277872  0.60220425  0.60101032
   0.44338977  0.60744938  0.64349421
   0.57924622  0.60234594  0.47734839
   0.62840069  0.56982827  0.36282107
   0.54031460  0.66247184  0.67390233
   0.67496769  0.46510382  0.36174750
   0.50868089  0.65827283  0.55607077
   0.68999900  0.56564061  0.50213912
   0.47754778  0.65331203  0.43892036
   0.67863283  0.67662609  0.53511233
   0.57083402  0.67569000  0.36394246
   0.59550529  0.72787446  0.59552643
   0.57311999  0.72491051  0.47235452
   0.67151742  0.65700172  0.42293069
 
 position of ions in cartesian coordinates  (Angst):
  11.10153829  6.65902384 13.34627405
   8.60293206  7.71687298 13.74085806
  10.07135963  8.64983586 11.60909570
  12.75317506  7.61932092 11.32170351
   7.40401946  9.67775704 12.08989838
  13.40827532  7.98983288 14.25473882
   8.05380822 10.19391509 15.02069988
  10.79982091  9.15870306 14.55115977
   8.93506998 10.62983672 10.02637093
  11.58178888  9.57110949  9.58898545
   6.02024895 11.52046880 13.60627528
  15.10709103  9.01501049 12.42934665
  14.34980151  9.01853936  9.58154876
  13.02898323 10.46946796 15.40441889
  10.38712923 11.57710074 15.80751514
  12.43277661 10.20557380 12.42695229
   9.76655275 11.17860072 12.85073978
  10.40456868 11.54104345  7.95407012
   7.54320805 12.56970368 11.54045955
  13.15930657 11.26029424  8.12351269
   8.20246198 12.99692463 14.39074973
  16.90134288 10.71790713 11.19214743
  12.19254331 12.70743812 13.57307740
  14.21723922 11.59005449 10.79387448
   9.90608944 13.97122463 12.36689310
  12.71621210 12.92907132 16.45278406
  11.55779078 12.34794389 10.61152086
  14.86932780 11.54546240 13.63278255
  11.95637980 13.80054382  8.09987734
   9.25607860 13.68025256  9.57231432
  14.46224053 14.21267146 14.18449352
  10.46447805 14.33646227 15.18715916
  13.67083704 14.21601541 11.26593827
  14.83093580 13.44856345  8.56296947
  12.75200884 15.63505175 15.90482363
  15.92996727 10.97695320  8.53763226
  12.00541901 15.53595050 13.12387151
  16.28472247 13.34973013 11.85102621
  11.27064388 15.41887034 10.35899512
  16.01646856 15.96910747 12.62922952
  13.47230022 15.94701470  8.58943560
  14.05456883 17.17862429 14.05506765
  13.52625151 17.10867202 11.14807749
  15.84853735 15.50595111  9.98162153
 


--------------------------------------------------------------------------------------------------------


 use parallel FFT for wavefunctions z direction half grid
 k-point  1 :   0.0000 0.0000 0.0000  plane waves:   58893

 maximum and minimum number of plane-waves per node :      3689     3675

 maximum number of plane-waves:     58893
 maximum index in each direction: 
   IXMAX=   30   IYMAX=   30   IZMAX=   30
   IXMIN=  -30   IYMIN=  -30   IZMIN=    0

 WARNING: aliasing errors must be expected set NGX to 122 to avoid them
 WARNING: aliasing errors must be expected set NGY to 122 to avoid them
 WARNING: aliasing errors must be expected set NGZ to 122 to avoid them
 aliasing errors are usually negligible using standard VASP settings
 and one can safely disregard these warnings

 parallel 3D FFT for wavefunctions:
    minimum data exchange during FFTs selected (reduces bandwidth)
 parallel 3D FFT for charge:
    minimum data exchange during FFTs selected (reduces bandwidth)


 total amount of memory used by VASP on root node    59883. kBytes
========================================================================

   base      :      30000. kBytes
   nonl-proj :       3127. kBytes
   fftplans  :       4966. kBytes
   grid      :      12469. kBytes
   one-center:         46. kBytes
   wavefun   :       9275. kBytes
 
     INWAV:  cpu time    0.00: real time    0.00
 Broyden mixing: mesh for mixing (old mesh)
   NGX = 61   NGY = 61   NGZ = 61
  (NGX  =192   NGY  =192   NGZ  =192)
  gives a total of 226981 points

 initial charge density was supplied:
 charge density of overlapping atoms calculated
 number of electron     484.0000000 magnetization      44.0000000
 keeping initial charge density in first step


--------------------------------------------------------------------------------------------------------


 Maximum index for augmentation-charges          258 (set IRDMAX)


--------------------------------------------------------------------------------------------------------


 First call to EWALD:  gamma=   0.075
 Maximum number of real-space cells 3x 3x 3
 Maximum number of reciprocal cells 3x 3x 3

 FEWALD executed in parallel
    FEWALD:  cpu time    0.00: real time    0.00


----------------------------------------- Iteration    1(   1)  ---------------------------------------


    POTLOK:  cpu time    0.24: real time    0.25
    SETDIJ:  cpu time    0.01: real time    0.01
     EDDAV:  cpu time    5.13: real time    5.14
       DOS:  cpu time    0.00: real time    0.00
    --------------------------------------------
      LOOP:  cpu time    5.38: real time    5.41

 eigenvalue-minimisations  :  1248
 total energy-change (2. order) : 0.4165689E+04  (-0.9542971E+04)
 number of electron     484.0000000 magnetization      44.0000000
 augmentation part      484.0000000 magnetization      44.0000000

 Free energy of the ion-electron system (eV)
  ---------------------------------------------------
  alpha Z        PSCENC =       125.26329425
  Ewald energy   TEWEN  =    127662.67553246
  -Hartree energ DENC   =   -171492.23153107
  -exchange      EXHF   =         0.00000000
  -V(xc)+E(xc)   XCENC  =      -479.38454846
  PAW double counting   =     44148.37583506   -42119.64279067
  entropy T*S    EENTRO =         0.00000000
  eigenvalues    EBANDS =       683.89331518
  atomic energy  EATOM  =     45636.73972380
  ---------------------------------------------------
  free energy    TOTEN  =      4165.68883056 eV

  energy without entropy =     4165.68883056  energy(sigma->0) =     4165.68883056


--------------------------------------------------------------------------------------------------------




----------------------------------------- Iteration    1(   2)  ---------------------------------------


     EDDAV:  cpu time    7.77: real time    7.77
       DOS:  cpu time    0.00: real time    0.00
    --------------------------------------------
      LOOP:  cpu time    7.77: real time    7.78

 eigenvalue-minimisations  :  2088
 total energy-change (2. order) :-0.3407763E+04  (-0.3067704E+04)
 number of electron     484.0000000 magnetization      44.0000000
 augmentation part      484.0000000 magnetization      44.0000000

 Free energy of the ion-electron system (eV)
  ---------------------------------------------------
  alpha Z        PSCENC =       125.26329425
  Ewald energy   TEWEN  =    127662.67553246
  -Hartree energ DENC   =   -171492.23153107
  -exchange      EXHF   =         0.00000000
  -V(xc)+E(xc)   XCENC  =      -479.38454846
  PAW double counting   =     44148.37583506   -42119.64279067
  entropy T*S    EENTRO =         0.00000000
  eigenvalues    EBANDS =     -2723.86976730
  atomic energy  EATOM  =     45636.73972380
  ---------------------------------------------------
  free energy    TOTEN  =       757.92574808 eV

  energy without entropy =      757.92574808  energy(sigma->0) =      757.92574808


--------------------------------------------------------------------------------------------------------




----------------------------------------- Iteration    1(   3)  ---------------------------------------


     EDDAV:  cpu time    6.13: real time    6.14
       DOS:  cpu time    0.00: real time    0.00
    --------------------------------------------
      LOOP:  cpu time    6.14: real time    6.14

 eigenvalue-minimisations  :  1568
 total energy-change (2. order) :-0.8153141E+03  (-0.7453125E+03)
 number of electron     484.0000000 magnetization      44.0000000
 augmentation part      484.0000000 magnetization      44.0000000

 Free energy of the ion-electron system (eV)
  ---------------------------------------------------
  alpha Z        PSCENC =       125.26329425
  Ewald energy   TEWEN  =    127662.67553246
  -Hartree energ DENC   =   -171492.23153107
  -exchange      EXHF   =         0.00000000
  -V(xc)+E(xc)   XCENC  =      -479.38454846
  PAW double counting   =     44148.37583506   -42119.64279067
  entropy T*S    EENTRO =        -0.00000000
  eigenvalues    EBANDS =     -3539.18383250
  atomic energy  EATOM  =     45636.73972380
  ---------------------------------------------------
  free energy    TOTEN  =       -57.38831712 eV

  energy without entropy =      -57.38831712  energy(sigma->0) =      -57.38831712


--------------------------------------------------------------------------------------------------------




----------------------------------------- Iteration    1(   4)  ---------------------------------------


     EDDAV:  cpu time    5.52: real time    5.53
       DOS:  cpu time    0.00: real time    0.00
    --------------------------------------------
      LOOP:  cpu time    5.52: real time    5.53

 eigenvalue-minimisations  :  1368
 total energy-change (2. order) :-0.3732623E+02  (-0.3690575E+02)
 number of electron     484.0000000 magnetization      44.0000000
 augmentation part      484.0000000 magnetization      44.0000000

 Free energy of the ion-electron system (eV)
  ---------------------------------------------------
  alpha Z        PSCENC =       125.26329425
  Ewald energy   TEWEN  =    127662.67553246
  -Hartree energ DENC   =   -171492.23153107
  -exchange      EXHF   =         0.00000000
  -V(xc)+E(xc)   XCENC  =      -479.38454846
  PAW double counting   =     44148.37583506   -42119.64279067
  entropy T*S    EENTRO =         0.00000000
  eigenvalues    EBANDS =     -3576.51006452
  atomic energy  EATOM  =     45636.73972380
  ---------------------------------------------------
  free energy    TOTEN  =       -94.71454914 eV

  energy without entropy =      -94.71454914  energy(sigma->0) =      -94.71454914


--------------------------------------------------------------------------------------------------------




----------------------------------------- Iteration    1(   5)  ---------------------------------------


     EDDAV:  cpu time    5.63: real time    5.64
       DOS:  cpu time    0.00: real time    0.00
    CHARGE:  cpu time    0.14: real time    0.14
    MIXING:  cpu time    0.01: real time    0.01
    --------------------------------------------
      LOOP:  cpu time    5.78: real time    6.16

 eigenvalue-minimisations  :  1400
 total energy-change (2. order) :-0.5541845E+00  (-0.5532955E+00)
 number of electron     483.9999631 magnetization      39.7641854
 augmentation part      226.8213652 magnetization      36.9614763

 Broyden mixing:
  rms(total) = 0.38036E+01    rms(broyden)= 0.38030E+01
  rms(prec ) = 0.38607E+01
  weight for this iteration     100.00

 Free energy of the ion-electron system (eV)
  ---------------------------------------------------
  alpha Z        PSCENC =       125.26329425
  Ewald energy   TEWEN  =    127662.67553246
  -Hartree energ DENC   =   -171492.23153107
  -exchange      EXHF   =         0.00000000
  -V(xc)+E(xc)   XCENC  =      -479.38454846
  PAW double counting   =     44148.37583506   -42119.64279067
  entropy T*S    EENTRO =         0.00000000
  eigenvalues    EBANDS =     -3577.06424904
  atomic energy  EATOM  =     45636.73972380
  ---------------------------------------------------
  free energy    TOTEN  =       -95.26873366 eV

  energy without entropy =      -95.26873366  energy(sigma->0) =      -95.26873366


--------------------------------------------------------------------------------------------------------




----------------------------------------- Iteration    1(   6)  ---------------------------------------


    POTLOK:  cpu time    0.24: real time    0.24
    SETDIJ:  cpu time    0.01: real time    0.01
     EDDAV:  cpu time    5.26: real time    5.26
       DOS:  cpu time    0.00: real time    0.00
    CHARGE:  cpu time    0.14: real time    0.14
    MIXING:  cpu time    0.00: real time    0.01
    --------------------------------------------
      LOOP:  cpu time    5.65: real time    5.98

 eigenvalue-minimisations  :  1280
 total energy-change (2. order) : 0.4981613E+02  (-0.1563243E+02)
 number of electron     483.9999619 magnetization      36.8282478
 augmentation part      232.4479383 magnetization      23.6473261

 Broyden mixing:
  rms(total) = 0.20532E+01    rms(broyden)= 0.20530E+01
  rms(prec ) = 0.20744E+01
  weight for this iteration     100.00

 eigenvalues of (default mixing * dielectric matrix)
  average eigenvalue GAMMA=   0.8528
  0.8528

 Free energy of the ion-electron system (eV)
  ---------------------------------------------------
  alpha Z        PSCENC =       125.26329425
  Ewald energy   TEWEN  =    127662.67553246
  -Hartree energ DENC   =   -171293.97263699
  -exchange      EXHF   =         0.00000000
  -V(xc)+E(xc)   XCENC  =      -458.89837084
  PAW double counting   =     45622.04996920   -43626.57613221
  entropy T*S    EENTRO =         0.00000000
  eigenvalues    EBANDS =     -3712.73398732
  atomic energy  EATOM  =     45636.73972380
  ---------------------------------------------------
  free energy    TOTEN  =       -45.45260764 eV

  energy without entropy =      -45.45260764  energy(sigma->0) =      -45.45260764


--------------------------------------------------------------------------------------------------------




----------------------------------------- Iteration    1(   7)  ---------------------------------------


    POTLOK:  cpu time    0.24: real time    0.24
    SETDIJ:  cpu time    0.01: real time    0.01
     EDDAV:  cpu time    5.38: real time    5.39
       DOS:  cpu time    0.00: real time    0.00
    CHARGE:  cpu time    0.14: real time    0.14
    MIXING:  cpu time    0.00: real time    0.01
    --------------------------------------------
      LOOP:  cpu time    5.78: real time    5.79

 eigenvalue-minimisations  :  1320
 total energy-change (2. order) : 0.1116057E+02  (-0.9571845E+00)
 number of electron     483.9999618 magnetization      32.1150941
 augmentation part      232.4342465 magnetization      19.3066037

 Broyden mixing:
  rms(total) = 0.12662E+01    rms(broyden)= 0.12662E+01
  rms(prec ) = 0.12765E+01
  weight for this iteration     100.00

 eigenvalues of (default mixing * dielectric matrix)
  average eigenvalue GAMMA=   1.0054
  0.7595  1.2513

 Free energy of the ion-electron system (eV)
  ---------------------------------------------------
  alpha Z        PSCENC =       125.26329425
  Ewald energy   TEWEN  =    127662.67553246
  -Hartree energ DENC   =   -171396.52323042
  -exchange      EXHF   =         0.00000000
  -V(xc)+E(xc)   XCENC  =      -449.80411903
  PAW double counting   =     46505.67526519   -44531.06931207
  entropy T*S    EENTRO =         0.00000000
  eigenvalues    EBANDS =     -3587.24918758
  atomic energy  EATOM  =     45636.73972380
  ---------------------------------------------------
  free energy    TOTEN  =       -34.29203341 eV

  energy without entropy =      -34.29203341  energy(sigma->0) =      -34.29203341


--------------------------------------------------------------------------------------------------------




----------------------------------------- Iteration    1(   8)  ---------------------------------------


    POTLOK:  cpu time    0.24: real time    0.24
    SETDIJ:  cpu time    0.01: real time    0.01
     EDDAV:  cpu time    5.44: real time    5.45
       DOS:  cpu time    0.00: real time    0.00
    CHARGE:  cpu time    0.14: real time    0.14
    MIXING:  cpu time    0.01: real time    0.01
    --------------------------------------------
      LOOP:  cpu time    5.84: real time    5.87

 eigenvalue-minimisations  :  1336
 total energy-change (2. order) : 0.2609344E+01  (-0.2444130E+00)
 number of electron     483.9999618 magnetization      28.6664336
 augmentation part      232.2706690 magnetization      16.0781116

 Broyden mixing:
  rms(total) = 0.72203E+00    rms(broyden)= 0.72202E+00
  rms(prec ) = 0.72503E+00
  weight for this iteration     100.00

 eigenvalues of (default mixing * dielectric matrix)
  average eigenvalue GAMMA=   1.2796
  2.3264  0.9016  0.6107

 Free energy of the ion-electron system (eV)
  ---------------------------------------------------
  alpha Z        PSCENC =       125.26329425
  Ewald energy   TEWEN  =    127662.67553246
  -Hartree energ DENC   =   -171514.08704983
  -exchange      EXHF   =         0.00000000
  -V(xc)+E(xc)   XCENC  =      -447.50692650
  PAW double counting   =     47574.50060874   -45622.30750340
  entropy T*S    EENTRO =         0.00000000
  eigenvalues    EBANDS =     -3446.96036892
  atomic energy  EATOM  =     45636.73972380
  ---------------------------------------------------
  free energy    TOTEN  =       -31.68268940 eV

  energy without entropy =      -31.68268940  energy(sigma->0) =      -31.68268940


--------------------------------------------------------------------------------------------------------




----------------------------------------- Iteration    1(   9)  ---------------------------------------


    POTLOK:  cpu time    0.24: real time    0.24
    SETDIJ:  cpu time    0.01: real time    0.01
     EDDAV:  cpu time    5.50: real time    5.50
       DOS:  cpu time    0.00: real time    0.00
    CHARGE:  cpu time    0.14: real time    0.14
    MIXING:  cpu time    0.00: real time    0.01
    --------------------------------------------
      LOOP:  cpu time    5.89: real time    5.91

 eigenvalue-minimisations  :  1352
 total energy-change (2. order) :-0.3222476E+01  (-0.7920490E-01)
 number of electron     483.9999618 magnetization      25.0634113
 augmentation part      232.1768057 magnetization      12.7078396

 Broyden mixing:
  rms(total) = 0.45029E+00    rms(broyden)= 0.45029E+00
  rms(prec ) = 0.45289E+00
  weight for this iteration     100.00

 eigenvalues of (default mixing * dielectric matrix)
  average eigenvalue GAMMA=   1.2525
  2.3584  0.6168  0.8160  1.2188

 Free energy of the ion-electron system (eV)
  ---------------------------------------------------
  alpha Z        PSCENC =       125.26329425
  Ewald energy   TEWEN  =    127662.67553246
  -Hartree energ DENC   =   -171563.18875514
  -exchange      EXHF   =         0.00000000
  -V(xc)+E(xc)   XCENC  =      -449.57933539
  PAW double counting   =     48006.01486766   -46062.62251962
  entropy T*S    EENTRO =         0.00000000
  eigenvalues    EBANDS =     -3390.20797332
  atomic energy  EATOM  =     45636.73972380
  ---------------------------------------------------
  free energy    TOTEN  =       -34.90516529 eV

  energy without entropy =      -34.90516529  energy(sigma->0) =      -34.90516529


--------------------------------------------------------------------------------------------------------




----------------------------------------- Iteration    1(  10)  ---------------------------------------


    POTLOK:  cpu time    0.24: real time    0.24
    SETDIJ:  cpu time    0.01: real time    0.01
     EDDAV:  cpu time    5.30: real time    5.30
       DOS:  cpu time    0.00: real time    0.00
    CHARGE:  cpu time    0.14: real time    0.14
    MIXING:  cpu time    0.00: real time    0.01
    --------------------------------------------
      LOOP:  cpu time    5.69: real time    5.70

 eigenvalue-minimisations  :  1288
 total energy-change (2. order) :-0.1177231E+02  (-0.3223081E+00)
 number of electron     483.9999619 magnetization      18.9816153
 augmentation part      232.1234129 magnetization       7.1908796

 Broyden mixing:
  rms(total) = 0.33442E+00    rms(broyden)= 0.33441E+00
  rms(prec ) = 0.33588E+00
  weight for this iteration     100.00

 eigenvalues of (default mixing * dielectric matrix)
  average eigenvalue GAMMA=   1.5630
  3.1425  2.2173  0.9119  0.9119  0.6313

 Free energy of the ion-electron system (eV)
  ---------------------------------------------------
  alpha Z        PSCENC =       125.26329425
  Ewald energy   TEWEN  =    127662.67553246
  -Hartree energ DENC   =   -171570.36066354
  -exchange      EXHF   =         0.00000000
  -V(xc)+E(xc)   XCENC  =      -458.32186245
  PAW double counting   =     48013.04818121   -46069.82161724
  entropy T*S    EENTRO =         0.00000000
  eigenvalues    EBANDS =     -3385.90006687
  atomic energy  EATOM  =     45636.73972380
  ---------------------------------------------------
  free energy    TOTEN  =       -46.67747837 eV

  energy without entropy =      -46.67747837  energy(sigma->0) =      -46.67747837


--------------------------------------------------------------------------------------------------------




----------------------------------------- Iteration    1(  11)  ---------------------------------------


    POTLOK:  cpu time    0.24: real time    0.24
    SETDIJ:  cpu time    0.01: real time    0.01
     EDDAV:  cpu time    5.35: real time    5.36
       DOS:  cpu time    0.00: real time    0.00
    CHARGE:  cpu time    0.14: real time    0.14
    MIXING:  cpu time    0.00: real time    0.01
    --------------------------------------------
      LOOP:  cpu time    5.75: real time    5.87

 eigenvalue-minimisations  :  1304
 total energy-change (2. order) :-0.2058945E+02  (-0.1081471E+01)
 number of electron     483.9999618 magnetization      18.1460931
 augmentation part      232.0796929 magnetization      11.0235333

 Broyden mixing:
  rms(total) = 0.31633E+00    rms(broyden)= 0.31619E+00
  rms(prec ) = 0.32410E+00
  weight for this iteration     100.00

 eigenvalues of (default mixing * dielectric matrix)
  average eigenvalue GAMMA=   1.3679
  3.3568  2.2016  0.6298  0.9425  0.8794  0.1971

 Free energy of the ion-electron system (eV)
  ---------------------------------------------------
  alpha Z        PSCENC =       125.26329425
  Ewald energy   TEWEN  =    127662.67553246
  -Hartree energ DENC   =   -171570.10171540
  -exchange      EXHF   =         0.00000000
  -V(xc)+E(xc)   XCENC  =      -473.84490607
  PAW double counting   =     47952.79057046   -46009.07508306
  entropy T*S    EENTRO =         0.00000000
  eigenvalues    EBANDS =     -3391.71434601
  atomic energy  EATOM  =     45636.73972380
  ---------------------------------------------------
  free energy    TOTEN  =       -67.26692957 eV

  energy without entropy =      -67.26692957  energy(sigma->0) =      -67.26692957


--------------------------------------------------------------------------------------------------------




----------------------------------------- Iteration    1(  12)  ---------------------------------------


    POTLOK:  cpu time    0.24: real time    0.24
    SETDIJ:  cpu time    0.01: real time    0.01
     EDDAV:  cpu time    6.03: real time    6.04
       DOS:  cpu time    0.00: real time    0.00
    CHARGE:  cpu time    0.14: real time    0.14
    MIXING:  cpu time    0.01: real time    0.01
    --------------------------------------------
      LOOP:  cpu time    6.43: real time    6.44

 eigenvalue-minimisations  :  1520
 total energy-change (2. order) :-0.1128305E+01  (-0.2850822E-01)
 number of electron     483.9999618 magnetization      15.4765905
 augmentation part      232.0316907 magnetization       8.5056833

 Broyden mixing:
  rms(total) = 0.27956E+00    rms(broyden)= 0.27955E+00
  rms(prec ) = 0.28633E+00
  weight for this iteration     100.00

 eigenvalues of (default mixing * dielectric matrix)
  average eigenvalue GAMMA=   1.3004
  3.5050  2.2551  0.9504  0.8977  0.6286  0.4332  0.4332

 Free energy of the ion-electron system (eV)
  ---------------------------------------------------
  alpha Z        PSCENC =       125.26329425
  Ewald energy   TEWEN  =    127662.67553246
  -Hartree energ DENC   =   -171570.97531947
  -exchange      EXHF   =         0.00000000
  -V(xc)+E(xc)   XCENC  =      -474.59139356
  PAW double counting   =     47952.14126991   -46008.57414954
  entropy T*S    EENTRO =         0.00000000
  eigenvalues    EBANDS =     -3391.07419267
  atomic energy  EATOM  =     45636.73972380
  ---------------------------------------------------
  free energy    TOTEN  =       -68.39523482 eV

  energy without entropy =      -68.39523482  energy(sigma->0) =      -68.39523482


--------------------------------------------------------------------------------------------------------




----------------------------------------- Iteration    1(  13)  ---------------------------------------


    POTLOK:  cpu time    0.24: real time    0.24
    SETDIJ:  cpu time    0.01: real time    0.01
     EDDAV:  cpu time    5.28: real time    5.29
       DOS:  cpu time    0.00: real time    0.00
    CHARGE:  cpu time    0.14: real time    0.14
    MIXING:  cpu time    0.01: real time    0.01
    --------------------------------------------
      LOOP:  cpu time    5.68: real time    5.72

 eigenvalue-minimisations  :  1280
 total energy-change (2. order) :-0.5652233E+01  (-0.1685600E+00)
 number of electron     483.9999618 magnetization      10.6851668
 augmentation part      232.0506110 magnetization       4.0267336

 Broyden mixing:
  rms(total) = 0.20820E+00    rms(broyden)= 0.20819E+00
  rms(prec ) = 0.21165E+00
  weight for this iteration     100.00

 eigenvalues of (default mixing * dielectric matrix)
  average eigenvalue GAMMA=   1.5708
  5.2826  2.3335  1.5162  0.9377  0.6729  0.6729  0.6479  0.5029

 Free energy of the ion-electron system (eV)
  ---------------------------------------------------
  alpha Z        PSCENC =       125.26329425
  Ewald energy   TEWEN  =    127662.67553246
  -Hartree energ DENC   =   -171559.12259200
  -exchange      EXHF   =         0.00000000
  -V(xc)+E(xc)   XCENC  =      -478.99964559
  PAW double counting   =     47854.09798585   -45910.14809151
  entropy T*S    EENTRO =         0.00000000
  eigenvalues    EBANDS =     -3404.55367545
  atomic energy  EATOM  =     45636.73972380
  ---------------------------------------------------
  free energy    TOTEN  =       -74.04746819 eV

  energy without entropy =      -74.04746819  energy(sigma->0) =      -74.04746819


--------------------------------------------------------------------------------------------------------




----------------------------------------- Iteration    1(  14)  ---------------------------------------


    POTLOK:  cpu time    0.24: real time    0.24
    SETDIJ:  cpu time    0.01: real time    0.01
     EDDAV:  cpu time    5.29: real time    5.29
       DOS:  cpu time    0.00: real time    0.00
    CHARGE:  cpu time    0.14: real time    0.14
    MIXING:  cpu time    0.00: real time    0.01
    --------------------------------------------
      LOOP:  cpu time    5.69: real time    5.70

 eigenvalue-minimisations  :  1280
 total energy-change (2. order) :-0.8945071E+01  (-0.3608582E+00)
 number of electron     483.9999620 magnetization       9.1351151
 augmentation part      232.0826016 magnetization       6.7420287

 Broyden mixing:
  rms(total) = 0.23402E+00    rms(broyden)= 0.23387E+00
  rms(prec ) = 0.24531E+00
  weight for this iteration     100.00

 eigenvalues of (default mixing * dielectric matrix)
  average eigenvalue GAMMA=   1.4892
  5.8494  2.2990  1.5971  0.9339  0.6715  0.6715  0.6476  0.4405  0.2924

 Free energy of the ion-electron system (eV)
  ---------------------------------------------------
  alpha Z        PSCENC =       125.26329425
  Ewald energy   TEWEN  =    127662.67553246
  -Hartree energ DENC   =   -171533.22112827
  -exchange      EXHF   =         0.00000000
  -V(xc)+E(xc)   XCENC  =      -486.45163521
  PAW double counting   =     47723.43795906   -45779.44113221
  entropy T*S    EENTRO =         0.00000000
  eigenvalues    EBANDS =     -3431.99515354
  atomic energy  EATOM  =     45636.73972380
  ---------------------------------------------------
  free energy    TOTEN  =       -82.99253966 eV

  energy without entropy =      -82.99253966  energy(sigma->0) =      -82.99253966


--------------------------------------------------------------------------------------------------------




----------------------------------------- Iteration    1(  15)  ---------------------------------------


    POTLOK:  cpu time    0.24: real time    0.24
    SETDIJ:  cpu time    0.01: real time    0.01
     EDDAV:  cpu time    5.62: real time    5.62
       DOS:  cpu time    0.00: real time    0.00
    CHARGE:  cpu time    0.14: real time    0.14
    MIXING:  cpu time    0.01: real time    0.01
    --------------------------------------------
      LOOP:  cpu time    6.02: real time    6.04

 eigenvalue-minimisations  :  1384
 total energy-change (2. order) :-0.1172255E+01  (-0.2078002E-01)
 number of electron     483.9999620 magnetization       7.0472020
 augmentation part      232.0843064 magnetization       4.7950802

 Broyden mixing:
  rms(total) = 0.18293E+00    rms(broyden)= 0.18292E+00
  rms(prec ) = 0.19390E+00
  weight for this iteration     100.00

 eigenvalues of (default mixing * dielectric matrix)
  average eigenvalue GAMMA=   1.6021
  7.2512  2.1487  1.8119  0.7105  0.7105  0.9396  0.8173  0.6193  0.5058  0.5058

 Free energy of the ion-electron system (eV)
  ---------------------------------------------------
  alpha Z        PSCENC =       125.26329425
  Ewald energy   TEWEN  =    127662.67553246
  -Hartree energ DENC   =   -171529.59283418
  -exchange      EXHF   =         0.00000000
  -V(xc)+E(xc)   XCENC  =      -487.46999714
  PAW double counting   =     47710.33149072   -45766.54349501
  entropy T*S    EENTRO =         0.00000000
  eigenvalues    EBANDS =     -3435.56850907
  atomic energy  EATOM  =     45636.73972380
  ---------------------------------------------------
  free energy    TOTEN  =       -84.16479416 eV

  energy without entropy =      -84.16479416  energy(sigma->0) =      -84.16479416


--------------------------------------------------------------------------------------------------------




----------------------------------------- Iteration    1(  16)  ---------------------------------------


    POTLOK:  cpu time    0.24: real time    0.24
    SETDIJ:  cpu time    0.01: real time    0.01
     EDDAV:  cpu time    5.34: real time    5.35
       DOS:  cpu time    0.00: real time    0.00
    CHARGE:  cpu time    0.14: real time    0.14
    MIXING:  cpu time    0.01: real time    0.01
    --------------------------------------------
      LOOP:  cpu time    5.74: real time    6.25

 eigenvalue-minimisations  :  1296
 total energy-change (2. order) :-0.2297033E+01  (-0.3753549E-01)
 number of electron     483.9999620 magnetization       4.6181053
 augmentation part      232.0455326 magnetization       2.4910244

 Broyden mixing:
  rms(total) = 0.12977E+00    rms(broyden)= 0.12977E+00
  rms(prec ) = 0.13843E+00
  weight for this iteration     100.00

 eigenvalues of (default mixing * dielectric matrix)
  average eigenvalue GAMMA=   1.7399
  8.7993  2.3706  1.3476  1.3476  1.1181  1.1181  0.8039  0.6239  0.6111  0.4992
  0.4992

 Free energy of the ion-electron system (eV)
  ---------------------------------------------------
  alpha Z        PSCENC =       125.26329425
  Ewald energy   TEWEN  =    127662.67553246
  -Hartree energ DENC   =   -171524.57604851
  -exchange      EXHF   =         0.00000000
  -V(xc)+E(xc)   XCENC  =      -489.45749077
  PAW double counting   =     47711.86384454   -45768.21635661
  entropy T*S    EENTRO =         0.00000000
  eigenvalues    EBANDS =     -3440.75432599
  atomic energy  EATOM  =     45636.73972380
  ---------------------------------------------------
  free energy    TOTEN  =       -86.46182683 eV

  energy without entropy =      -86.46182683  energy(sigma->0) =      -86.46182683


--------------------------------------------------------------------------------------------------------




----------------------------------------- Iteration    1(  17)  ---------------------------------------


    POTLOK:  cpu time    0.24: real time    0.24
    SETDIJ:  cpu time    0.01: real time    0.01
     EDDAV:  cpu time    5.27: real time    5.28
       DOS:  cpu time    0.00: real time    0.00
    CHARGE:  cpu time    0.14: real time    0.14
    MIXING:  cpu time    0.01: real time    0.01
    --------------------------------------------
      LOOP:  cpu time    5.68: real time    5.68

 eigenvalue-minimisations  :  1272
 total energy-change (2. order) :-0.3128599E+01  (-0.5829782E-01)
 number of electron     483.9999620 magnetization       3.5335196
 augmentation part      231.9975447 magnetization       1.5025061

 Broyden mixing:
  rms(total) = 0.67724E-01    rms(broyden)= 0.67708E-01
  rms(prec ) = 0.74141E-01
  weight for this iteration     100.00

 eigenvalues of (default mixing * dielectric matrix)
  average eigenvalue GAMMA=   1.8428
 10.1947  2.6873  1.5243  1.5243  1.4741  0.9616  0.6905  0.6905  0.7210  0.6338
  0.5059  0.5059

 Free energy of the ion-electron system (eV)
  ---------------------------------------------------
  alpha Z        PSCENC =       125.26329425
  Ewald energy   TEWEN  =    127662.67553246
  -Hartree energ DENC   =   -171503.08725195
  -exchange      EXHF   =         0.00000000
  -V(xc)+E(xc)   XCENC  =      -492.43783585
  PAW double counting   =     47715.28546501   -45770.98152680
  entropy T*S    EENTRO =         0.00000000
  eigenvalues    EBANDS =     -3463.04782652
  atomic energy  EATOM  =     45636.73972380
  ---------------------------------------------------
  free energy    TOTEN  =       -89.59042559 eV

  energy without entropy =      -89.59042559  energy(sigma->0) =      -89.59042559


--------------------------------------------------------------------------------------------------------




----------------------------------------- Iteration    1(  18)  ---------------------------------------


    POTLOK:  cpu time    0.24: real time    0.24
    SETDIJ:  cpu time    0.01: real time    0.01
     EDDAV:  cpu time    5.36: real time    5.36
       DOS:  cpu time    0.00: real time    0.00
    CHARGE:  cpu time    0.14: real time    0.14
    MIXING:  cpu time    0.01: real time    0.01
    --------------------------------------------
      LOOP:  cpu time    5.75: real time    5.77

 eigenvalue-minimisations  :  1296
 total energy-change (2. order) :-0.1591696E+01  (-0.1284983E-01)
 number of electron     483.9999620 magnetization       2.8876518
 augmentation part      232.0122617 magnetization       0.8881367

 Broyden mixing:
  rms(total) = 0.49794E-01    rms(broyden)= 0.49781E-01
  rms(prec ) = 0.55025E-01
  weight for this iteration     100.00

 eigenvalues of (default mixing * dielectric matrix)
  average eigenvalue GAMMA=   1.8813
 10.6192  2.7847  2.4001  1.4388  1.4388  1.0357  0.8222  0.8222  0.8525  0.6272
  0.6116  0.5020  0.5020

 Free energy of the ion-electron system (eV)
  ---------------------------------------------------
  alpha Z        PSCENC =       125.26329425
  Ewald energy   TEWEN  =    127662.67553246
  -Hartree energ DENC   =   -171480.48222828
  -exchange      EXHF   =         0.00000000
  -V(xc)+E(xc)   XCENC  =      -494.14197180
  PAW double counting   =     47723.07701528   -45778.40872607
  entropy T*S    EENTRO =         0.00000000
  eigenvalues    EBANDS =     -3485.90476151
  atomic energy  EATOM  =     45636.73972380
  ---------------------------------------------------
  free energy    TOTEN  =       -91.18212186 eV

  energy without entropy =      -91.18212186  energy(sigma->0) =      -91.18212186


--------------------------------------------------------------------------------------------------------




----------------------------------------- Iteration    1(  19)  ---------------------------------------


    POTLOK:  cpu time    0.24: real time    0.24
    SETDIJ:  cpu time    0.01: real time    0.01
     EDDAV:  cpu time    5.44: real time    5.44
       DOS:  cpu time    0.00: real time    0.00
    CHARGE:  cpu time    0.14: real time    0.14
    MIXING:  cpu time    0.01: real time    0.01
    --------------------------------------------
      LOOP:  cpu time    5.84: real time    5.97

 eigenvalue-minimisations  :  1320
 total energy-change (2. order) :-0.1463761E+01  (-0.7116406E-02)
 number of electron     483.9999620 magnetization       2.3248148
 augmentation part      232.0169527 magnetization       0.3134321

 Broyden mixing:
  rms(total) = 0.31080E-01    rms(broyden)= 0.31066E-01
  rms(prec ) = 0.34727E-01
  weight for this iteration     100.00

 eigenvalues of (default mixing * dielectric matrix)
  average eigenvalue GAMMA=   1.9975
 11.4508  4.0964  2.4124  1.6888  1.6888  1.1710  0.8034  0.8034  0.8521  0.5026
  0.5026  0.7563  0.6255  0.6105

 Free energy of the ion-electron system (eV)
  ---------------------------------------------------
  alpha Z        PSCENC =       125.26329425
  Ewald energy   TEWEN  =    127662.67553246
  -Hartree energ DENC   =   -171451.61187108
  -exchange      EXHF   =         0.00000000
  -V(xc)+E(xc)   XCENC  =      -495.78467922
  PAW double counting   =     47745.82270317   -45801.17465347
  entropy T*S    EENTRO =         0.00000000
  eigenvalues    EBANDS =     -3514.57593316
  atomic energy  EATOM  =     45636.73972380
  ---------------------------------------------------
  free energy    TOTEN  =       -92.64588325 eV

  energy without entropy =      -92.64588325  energy(sigma->0) =      -92.64588325


--------------------------------------------------------------------------------------------------------




----------------------------------------- Iteration    1(  20)  ---------------------------------------


    POTLOK:  cpu time    0.24: real time    0.24
    SETDIJ:  cpu time    0.01: real time    0.01
     EDDAV:  cpu time    5.36: real time    5.36
       DOS:  cpu time    0.00: real time    0.00
    CHARGE:  cpu time    0.14: real time    0.14
    MIXING:  cpu time    0.01: real time    0.01
    --------------------------------------------
      LOOP:  cpu time    5.76: real time    5.77

 eigenvalue-minimisations  :  1296
 total energy-change (2. order) :-0.7186058E+00  (-0.2997173E-02)
 number of electron     483.9999620 magnetization       2.3271452
 augmentation part      232.0494885 magnetization       0.3276883

 Broyden mixing:
  rms(total) = 0.18941E-01    rms(broyden)= 0.18932E-01
  rms(prec ) = 0.21166E-01
  weight for this iteration     100.00

 eigenvalues of (default mixing * dielectric matrix)
  average eigenvalue GAMMA=   1.9737
 11.6211  4.5003  2.4655  1.8028  1.8028  1.1259  0.8446  0.8446  0.9282  0.5021
  0.5021  0.7245  0.7245  0.6338  0.5833

 Free energy of the ion-electron system (eV)
  ---------------------------------------------------
  alpha Z        PSCENC =       125.26329425
  Ewald energy   TEWEN  =    127662.67553246
  -Hartree energ DENC   =   -171428.20982553
  -exchange      EXHF   =         0.00000000
  -V(xc)+E(xc)   XCENC  =      -496.66725333
  PAW double counting   =     47734.31085832   -45789.50766622
  entropy T*S    EENTRO =         0.00000000
  eigenvalues    EBANDS =     -3537.96915279
  atomic energy  EATOM  =     45636.73972380
  ---------------------------------------------------
  free energy    TOTEN  =       -93.36448905 eV

  energy without entropy =      -93.36448905  energy(sigma->0) =      -93.36448905


--------------------------------------------------------------------------------------------------------




----------------------------------------- Iteration    1(  21)  ---------------------------------------


    POTLOK:  cpu time    0.24: real time    0.24
    SETDIJ:  cpu time    0.01: real time    0.01
     EDDAV:  cpu time    5.61: real time    5.62
       DOS:  cpu time    0.00: real time    0.00
    CHARGE:  cpu time    0.14: real time    0.14
    MIXING:  cpu time    0.01: real time    0.01
    --------------------------------------------
      LOOP:  cpu time    6.01: real time    6.02

 eigenvalue-minimisations  :  1376
 total energy-change (2. order) :-0.1059290E+00  (-0.2557660E-03)
 number of electron     483.9999620 magnetization       2.2848943
 augmentation part      232.0425730 magnetization       0.2779193

 Broyden mixing:
  rms(total) = 0.12274E-01    rms(broyden)= 0.12273E-01
  rms(prec ) = 0.14309E-01
  weight for this iteration     100.00

 eigenvalues of (default mixing * dielectric matrix)
  average eigenvalue GAMMA=   1.9804
 11.6362  5.0461  2.3376  1.7800  1.7800  1.6712  1.1940  0.8321  0.8321  0.8450
  0.8450  0.5022  0.5022  0.6673  0.6196  0.5956

 Free energy of the ion-electron system (eV)
  ---------------------------------------------------
  alpha Z        PSCENC =       125.26329425
  Ewald energy   TEWEN  =    127662.67553246
  -Hartree energ DENC   =   -171424.03050096
  -exchange      EXHF   =         0.00000000
  -V(xc)+E(xc)   XCENC  =      -496.77958774
  PAW double counting   =     47739.15615603   -45794.44622262
  entropy T*S    EENTRO =         0.00000000
  eigenvalues    EBANDS =     -3542.04881331
  atomic energy  EATOM  =     45636.73972380
  ---------------------------------------------------
  free energy    TOTEN  =       -93.47041809 eV

  energy without entropy =      -93.47041809  energy(sigma->0) =      -93.47041809


--------------------------------------------------------------------------------------------------------




----------------------------------------- Iteration    1(  22)  ---------------------------------------


    POTLOK:  cpu time    0.24: real time    0.24
    SETDIJ:  cpu time    0.01: real time    0.01
     EDDAV:  cpu time    5.44: real time    5.44
       DOS:  cpu time    0.00: real time    0.00
    CHARGE:  cpu time    0.14: real time    0.14
    MIXING:  cpu time    0.01: real time    0.01
    --------------------------------------------
      LOOP:  cpu time    5.84: real time    5.85

 eigenvalue-minimisations  :  1320
 total energy-change (2. order) :-0.1703998E+00  (-0.5183869E-03)
 number of electron     483.9999620 magnetization       2.2136120
 augmentation part      232.0484393 magnetization       0.1976045

 Broyden mixing:
  rms(total) = 0.57002E-02    rms(broyden)= 0.56981E-02
  rms(prec ) = 0.71249E-02
  weight for this iteration     100.00

 eigenvalues of (default mixing * dielectric matrix)
  average eigenvalue GAMMA=   1.9964
 11.6743  5.5728  2.4569  2.4569  1.7727  1.7727  1.0180  1.0180  0.9360  0.8139
  0.8139  0.5022  0.5022  0.7344  0.6678  0.6333  0.5930

 Free energy of the ion-electron system (eV)
  ---------------------------------------------------
  alpha Z        PSCENC =       125.26329425
  Ewald energy   TEWEN  =    127662.67553246
  -Hartree energ DENC   =   -171414.45821572
  -exchange      EXHF   =         0.00000000
  -V(xc)+E(xc)   XCENC  =      -496.98669893
  PAW double counting   =     47741.70625792   -45796.94292254
  entropy T*S    EENTRO =         0.00000000
  eigenvalues    EBANDS =     -3551.63778915
  atomic energy  EATOM  =     45636.73972380
  ---------------------------------------------------
  free energy    TOTEN  =       -93.64081791 eV

  energy without entropy =      -93.64081791  energy(sigma->0) =      -93.64081791


--------------------------------------------------------------------------------------------------------




----------------------------------------- Iteration    1(  23)  ---------------------------------------


    POTLOK:  cpu time    0.24: real time    0.24
    SETDIJ:  cpu time    0.01: real time    0.01
     EDDAV:  cpu time    4.20: real time    4.20
       DOS:  cpu time    0.00: real time    0.00
    CHARGE:  cpu time    0.14: real time    0.14
    MIXING:  cpu time    0.01: real time    0.01
    --------------------------------------------
      LOOP:  cpu time    4.60: real time    4.62

 eigenvalue-minimisations  :   920
 total energy-change (2. order) :-0.4062672E-01  (-0.7712500E-04)
 number of electron     483.9999620 magnetization       2.1368539
 augmentation part      232.0493104 magnetization       0.1200971

 Broyden mixing:
  rms(total) = 0.50437E-02    rms(broyden)= 0.50431E-02
  rms(prec ) = 0.59062E-02
  weight for this iteration     100.00

 eigenvalues of (default mixing * dielectric matrix)
  average eigenvalue GAMMA=   1.9744
 11.7839  5.6984  2.5483  2.5483  1.8344  1.8344  1.1833  1.1833  0.8200  0.8200
  0.8872  0.8872  0.5023  0.5023  0.6437  0.6437  0.6424  0.5761

 Free energy of the ion-electron system (eV)
  ---------------------------------------------------
  alpha Z        PSCENC =       125.26329425
  Ewald energy   TEWEN  =    127662.67553246
  -Hartree energ DENC   =   -171409.66173943
  -exchange      EXHF   =         0.00000000
  -V(xc)+E(xc)   XCENC  =      -497.04514275
  PAW double counting   =     47744.02625458   -45799.27083772
  entropy T*S    EENTRO =         0.00000000
  eigenvalues    EBANDS =     -3556.40852983
  atomic energy  EATOM  =     45636.73972380
  ---------------------------------------------------
  free energy    TOTEN  =       -93.68144463 eV

  energy without entropy =      -93.68144463  energy(sigma->0) =      -93.68144463


--------------------------------------------------------------------------------------------------------




----------------------------------------- Iteration    1(  24)  ---------------------------------------


    POTLOK:  cpu time    0.24: real time    0.24
    SETDIJ:  cpu time    0.01: real time    0.01
     EDDAV:  cpu time    4.02: real time    4.03
       DOS:  cpu time    0.00: real time    0.00
    CHARGE:  cpu time    0.14: real time    0.14
    MIXING:  cpu time    0.01: real time    0.01
    --------------------------------------------
      LOOP:  cpu time    4.43: real time    4.47

 eigenvalue-minimisations  :   864
 total energy-change (2. order) :-0.1075053E-01  (-0.3075109E-04)
 number of electron     483.9999620 magnetization       2.0761313
 augmentation part      232.0506842 magnetization       0.0614789

 Broyden mixing:
  rms(total) = 0.28988E-02    rms(broyden)= 0.28985E-02
  rms(prec ) = 0.36336E-02
  weight for this iteration     100.00

 eigenvalues of (default mixing * dielectric matrix)
  average eigenvalue GAMMA=   1.9782
 11.8342  5.9041  3.1318  2.4684  1.7584  1.7584  1.7066  1.0424  1.0424  0.9713
  0.8284  0.8284  0.5022  0.5022  0.7329  0.7329  0.6280  0.6280  0.5846

 Free energy of the ion-electron system (eV)
  ---------------------------------------------------
  alpha Z        PSCENC =       125.26329425
  Ewald energy   TEWEN  =    127662.67553246
  -Hartree energ DENC   =   -171406.71561239
  -exchange      EXHF   =         0.00000000
  -V(xc)+E(xc)   XCENC  =      -497.06724739
  PAW double counting   =     47744.32014386   -45799.57012418
  entropy T*S    EENTRO =         0.00000000
  eigenvalues    EBANDS =     -3559.33790556
  atomic energy  EATOM  =     45636.73972380
  ---------------------------------------------------
  free energy    TOTEN  =       -93.69219516 eV

  energy without entropy =      -93.69219516  energy(sigma->0) =      -93.69219516


--------------------------------------------------------------------------------------------------------




----------------------------------------- Iteration    1(  25)  ---------------------------------------


    POTLOK:  cpu time    0.24: real time    0.24
    SETDIJ:  cpu time    0.01: real time    0.01
     EDDAV:  cpu time    4.06: real time    4.06
       DOS:  cpu time    0.00: real time    0.00
    CHARGE:  cpu time    0.14: real time    0.14
    MIXING:  cpu time    0.01: real time    0.01
    --------------------------------------------
      LOOP:  cpu time    4.46: real time    4.48

 eigenvalue-minimisations  :   872
 total energy-change (2. order) :-0.8998479E-02  (-0.2293592E-04)
 number of electron     483.9999620 magnetization       2.0557894
 augmentation part      232.0508867 magnetization       0.0437500

 Broyden mixing:
  rms(total) = 0.17777E-02    rms(broyden)= 0.17775E-02
  rms(prec ) = 0.22867E-02
  weight for this iteration     100.00

 eigenvalues of (default mixing * dielectric matrix)
  average eigenvalue GAMMA=   1.9517
 11.8555  6.0007  3.4369  2.3322  1.7568  1.7568  1.7421  1.1887  1.1887  0.8255
  0.8255  0.9096  0.9096  0.5022  0.5022  0.7859  0.6455  0.6455  0.6416  0.5829

 Free energy of the ion-electron system (eV)
  ---------------------------------------------------
  alpha Z        PSCENC =       125.26329425
  Ewald energy   TEWEN  =    127662.67553246
  -Hartree energ DENC   =   -171404.32933081
  -exchange      EXHF   =         0.00000000
  -V(xc)+E(xc)   XCENC  =      -497.08458970
  PAW double counting   =     47744.26807493   -45799.53282604
  entropy T*S    EENTRO =         0.00000000
  eigenvalues    EBANDS =     -3561.70107253
  atomic energy  EATOM  =     45636.73972380
  ---------------------------------------------------
  free energy    TOTEN  =       -93.70119364 eV

  energy without entropy =      -93.70119364  energy(sigma->0) =      -93.70119364


--------------------------------------------------------------------------------------------------------




----------------------------------------- Iteration    1(  26)  ---------------------------------------


    POTLOK:  cpu time    0.24: real time    0.24
    SETDIJ:  cpu time    0.00: real time    0.01
     EDDAV:  cpu time    4.02: real time    4.03
       DOS:  cpu time    0.00: real time    0.00
    CHARGE:  cpu time    0.14: real time    0.14
    MIXING:  cpu time    0.01: real time    0.01
    --------------------------------------------
      LOOP:  cpu time    4.43: real time    4.47

 eigenvalue-minimisations  :   864
 total energy-change (2. order) :-0.4979492E-02  (-0.5134728E-05)
 number of electron     483.9999620 magnetization       2.0339663
 augmentation part      232.0507243 magnetization       0.0221215

 Broyden mixing:
  rms(total) = 0.13244E-02    rms(broyden)= 0.13243E-02
  rms(prec ) = 0.17169E-02
  weight for this iteration     100.00

 eigenvalues of (default mixing * dielectric matrix)
  average eigenvalue GAMMA=   1.9489
 11.8380  6.1365  3.6709  2.1376  2.1376  1.7282  1.7282  1.7550  1.0402  1.0402
  1.0018  0.8255  0.8255  0.5022  0.5022  0.7790  0.7790  0.6411  0.6411  0.6365
  0.5816

 Free energy of the ion-electron system (eV)
  ---------------------------------------------------
  alpha Z        PSCENC =       125.26329425
  Ewald energy   TEWEN  =    127662.67553246
  -Hartree energ DENC   =   -171403.17432686
  -exchange      EXHF   =         0.00000000
  -V(xc)+E(xc)   XCENC  =      -497.09259225
  PAW double counting   =     47744.64074784   -45799.91552349
  entropy T*S    EENTRO =         0.00000000
  eigenvalues    EBANDS =     -3562.84302889
  atomic energy  EATOM  =     45636.73972380
  ---------------------------------------------------
  free energy    TOTEN  =       -93.70617313 eV

  energy without entropy =      -93.70617313  energy(sigma->0) =      -93.70617313


--------------------------------------------------------------------------------------------------------




----------------------------------------- Iteration    1(  27)  ---------------------------------------


    POTLOK:  cpu time    0.24: real time    0.24
    SETDIJ:  cpu time    0.01: real time    0.01
     EDDAV:  cpu time    4.04: real time    4.04
       DOS:  cpu time    0.00: real time    0.00
    CHARGE:  cpu time    0.14: real time    0.14
    MIXING:  cpu time    0.01: real time    0.01
    --------------------------------------------
      LOOP:  cpu time    4.44: real time    4.86

 eigenvalue-minimisations  :   864
 total energy-change (2. order) :-0.6901440E-02  (-0.9069461E-05)
 number of electron     483.9999620 magnetization       2.0121524
 augmentation part      232.0502735 magnetization       0.0005587

 Broyden mixing:
  rms(total) = 0.72543E-03    rms(broyden)= 0.72528E-03
  rms(prec ) = 0.94661E-03
  weight for this iteration     100.00

 eigenvalues of (default mixing * dielectric matrix)
  average eigenvalue GAMMA=   2.0089
 11.8663  6.3780  4.8742  2.6262  2.4138  1.7107  1.7107  1.5864  1.2355  1.2355
  0.9812  0.9812  0.8234  0.8234  0.5022  0.5022  0.7433  0.7184  0.5814  0.6500
  0.6262  0.6262

 Free energy of the ion-electron system (eV)
  ---------------------------------------------------
  alpha Z        PSCENC =       125.26329425
  Ewald energy   TEWEN  =    127662.67553246
  -Hartree energ DENC   =   -171401.51587032
  -exchange      EXHF   =         0.00000000
  -V(xc)+E(xc)   XCENC  =      -497.10281834
  PAW double counting   =     47745.30246148   -45800.57953183
  entropy T*S    EENTRO =        -0.00000000
  eigenvalues    EBANDS =     -3564.49586608
  atomic energy  EATOM  =     45636.73972380
  ---------------------------------------------------
  free energy    TOTEN  =       -93.71307457 eV

  energy without entropy =      -93.71307457  energy(sigma->0) =      -93.71307457


--------------------------------------------------------------------------------------------------------




----------------------------------------- Iteration    1(  28)  ---------------------------------------


    POTLOK:  cpu time    0.24: real time    0.24
    SETDIJ:  cpu time    0.01: real time    0.01
     EDDAV:  cpu time    4.06: real time    4.06
       DOS:  cpu time    0.00: real time    0.00
    CHARGE:  cpu time    0.14: real time    0.14
    MIXING:  cpu time    0.01: real time    0.01
    --------------------------------------------
      LOOP:  cpu time    4.46: real time    4.47

 eigenvalue-minimisations  :   872
 total energy-change (2. order) :-0.3295974E-02  (-0.4728148E-05)
 number of electron     483.9999620 magnetization       2.0109748
 augmentation part      232.0507119 magnetization      -0.0000128

 Broyden mixing:
  rms(total) = 0.49502E-03    rms(broyden)= 0.49489E-03
  rms(prec ) = 0.60440E-03
  weight for this iteration     100.00

 eigenvalues of (default mixing * dielectric matrix)
  average eigenvalue GAMMA=   2.0230
 11.8259  6.9512  5.2391  2.6346  2.6346  1.9358  1.7402  1.7402  1.1741  1.1741
  0.9811  0.9811  0.8241  0.8241  0.9311  0.5022  0.5022  0.7532  0.6932  0.6525
  0.6274  0.6274  0.5810

 Free energy of the ion-electron system (eV)
  ---------------------------------------------------
  alpha Z        PSCENC =       125.26329425
  Ewald energy   TEWEN  =    127662.67553246
  -Hartree energ DENC   =   -171400.43981246
  -exchange      EXHF   =         0.00000000
  -V(xc)+E(xc)   XCENC  =      -497.10954755
  PAW double counting   =     47745.20628613   -45800.47726925
  entropy T*S    EENTRO =         0.00000000
  eigenvalues    EBANDS =     -3565.57457793
  atomic energy  EATOM  =     45636.73972380
  ---------------------------------------------------
  free energy    TOTEN  =       -93.71637055 eV

  energy without entropy =      -93.71637055  energy(sigma->0) =      -93.71637055


--------------------------------------------------------------------------------------------------------




----------------------------------------- Iteration    1(  29)  ---------------------------------------


    POTLOK:  cpu time    0.24: real time    0.24
    SETDIJ:  cpu time    0.01: real time    0.01
     EDDAV:  cpu time    3.96: real time    3.96
       DOS:  cpu time    0.00: real time    0.00
    CHARGE:  cpu time    0.14: real time    0.14
    MIXING:  cpu time    0.02: real time    0.01
    --------------------------------------------
      LOOP:  cpu time    4.36: real time    4.39

 eigenvalue-minimisations  :   840
 total energy-change (2. order) :-0.1407779E-02  (-0.7999430E-06)
 number of electron     483.9999620 magnetization       2.0045590
 augmentation part      232.0503824 magnetization      -0.0067076

 Broyden mixing:
  rms(total) = 0.34184E-03    rms(broyden)= 0.34178E-03
  rms(prec ) = 0.42281E-03
  weight for this iteration     100.00

 eigenvalues of (default mixing * dielectric matrix)
  average eigenvalue GAMMA=   2.0681
 11.8407  7.6446  5.6653  3.2433  2.2970  1.9881  1.9881  1.6896  1.6896  1.1298
  1.1298  1.0744  0.8238  0.8238  0.5022  0.5022  0.8626  0.8626  0.7058  0.7058
  0.5796  0.6247  0.6247  0.6372

 Free energy of the ion-electron system (eV)
  ---------------------------------------------------
  alpha Z        PSCENC =       125.26329425
  Ewald energy   TEWEN  =    127662.67553246
  -Hartree energ DENC   =   -171400.11877555
  -exchange      EXHF   =         0.00000000
  -V(xc)+E(xc)   XCENC  =      -497.11125039
  PAW double counting   =     47745.58619370   -45800.86046293
  entropy T*S    EENTRO =         0.00000000
  eigenvalues    EBANDS =     -3565.89203366
  atomic energy  EATOM  =     45636.73972380
  ---------------------------------------------------
  free energy    TOTEN  =       -93.71777833 eV

  energy without entropy =      -93.71777833  energy(sigma->0) =      -93.71777833


--------------------------------------------------------------------------------------------------------




----------------------------------------- Iteration    1(  30)  ---------------------------------------


    POTLOK:  cpu time    0.24: real time    0.24
    SETDIJ:  cpu time    0.01: real time    0.01
     EDDAV:  cpu time    3.88: real time    3.88
[...]
 -0.002  -0.001  -0.001   0.001 -10.199  -0.002  -0.001  -0.001
  0.001  -0.001  -0.002  -0.001   0.001   0.001  -0.001  -0.002
  0.001  -0.001  -0.003  -0.001   0.002   0.001  -0.001  -0.003
  0.001   0.004   0.015   0.000   0.026   0.001   0.004   0.014
  0.000  -0.026   0.004   0.001   0.000   0.000  -0.025   0.004
 -0.026   0.000  -0.000   0.004   0.001  -0.025   0.000  -0.000
  0.001   0.005   0.018   0.000   0.031   0.001   0.004   0.017
  0.000  -0.031   0.005   0.002   0.000   0.000  -0.030   0.005
 -0.031   0.000  -0.001   0.005   0.001  -0.030   0.000  -0.001
 total augmentation occupancy for first ion, spin component:           1
  2.936  -0.068   0.091  -0.003   0.004  -0.914   0.038  -0.086  -0.002  -0.025   0.046   0.002   0.019   0.024  -0.217  -0.002
 -0.068   2.671  -0.077   0.024   0.009   0.038  -0.686   0.104  -0.021  -0.001   0.046  -0.017  -0.002  -0.134   0.023   0.002
  0.091  -0.077   2.552   0.012   0.015  -0.086   0.104  -0.497   0.017   0.016   0.256  -0.064   0.057   0.041  -0.032   0.004
 -0.003   0.024   0.012   2.424  -0.019  -0.002  -0.022   0.017  -0.461   0.053   0.134  -0.014   0.007  -0.012   0.005  -0.001
  0.004   0.009   0.015  -0.019   2.587  -0.025  -0.001   0.016   0.053  -0.641  -0.121  -0.024   0.058   0.007  -0.019   0.011
 -0.914   0.038  -0.086  -0.002  -0.025   0.871  -0.015   0.082   0.005   0.041  -0.053   0.006  -0.020  -0.016   0.239   0.001
  0.038  -0.686   0.104  -0.022  -0.001  -0.015   0.670  -0.125   0.018  -0.004  -0.036   0.012   0.000   0.167  -0.015   0.000
 -0.086   0.104  -0.497   0.017   0.016   0.082  -0.125   0.420  -0.040  -0.041  -0.230   0.058  -0.070  -0.052   0.030   0.005
 -0.002  -0.021   0.017  -0.461   0.053   0.005   0.018  -0.040   0.461  -0.081  -0.128   0.021  -0.002   0.022  -0.006   0.000
 -0.025  -0.001   0.016   0.053  -0.641   0.041  -0.004  -0.041  -0.081   0.657   0.118   0.012  -0.085  -0.006   0.022   0.005
  0.046   0.046   0.256   0.134  -0.121  -0.053  -0.036  -0.230  -0.128   0.118   1.865  -0.227   0.226  -0.034   0.013  -0.021
  0.002  -0.017  -0.064  -0.014  -0.024   0.006   0.012   0.058   0.021   0.012  -0.227   0.049  -0.049   0.007  -0.004   0.004
  0.019  -0.002   0.057   0.007   0.058  -0.020   0.000  -0.070  -0.002  -0.085   0.226  -0.049   0.061   0.000  -0.005  -0.005
  0.024  -0.134   0.041  -0.012   0.007  -0.016   0.167  -0.052   0.022  -0.006  -0.034   0.007   0.000   0.057  -0.014   0.000
 -0.217   0.023  -0.032   0.005  -0.019   0.239  -0.015   0.030  -0.006   0.022   0.013  -0.004  -0.005  -0.014   0.094   0.000
 -0.002   0.002   0.004  -0.001   0.011   0.001   0.000   0.005   0.000   0.005  -0.021   0.004  -0.005   0.000   0.000   0.001
 -0.001  -0.008   0.001   0.001  -0.000   0.001  -0.010   0.003  -0.002   0.000   0.003  -0.001   0.000  -0.003   0.001  -0.000
 -0.004  -0.001   0.001   0.002   0.002  -0.014   0.001  -0.001   0.001  -0.002  -0.001   0.000   0.000   0.001  -0.005  -0.000
 total augmentation occupancy for first ion, spin component:           2
  0.000   0.000  -0.000   0.000   0.000  -0.000  -0.000   0.000  -0.000   0.000   0.000  -0.000  -0.000  -0.000  -0.000   0.000
  0.000   0.000  -0.000  -0.000   0.000  -0.000  -0.000   0.000   0.000  -0.000  -0.000   0.000   0.000  -0.000  -0.000  -0.000
 -0.000  -0.000  -0.000   0.000   0.000   0.000   0.000   0.000  -0.000  -0.000  -0.000   0.000  -0.000  -0.000  -0.000   0.000
  0.000  -0.000   0.000   0.000  -0.000  -0.000  -0.000  -0.000  -0.000   0.000  -0.000   0.000  -0.000  -0.000   0.000   0.000
  0.000   0.000   0.000  -0.000  -0.000   0.000  -0.000  -0.000   0.000   0.000  -0.000   0.000  -0.000  -0.000   0.000   0.000
 -0.000  -0.000   0.000  -0.000   0.000   0.000   0.000  -0.000  -0.000  -0.000  -0.000   0.000   0.000   0.000   0.000  -0.000
 -0.000  -0.000   0.000  -0.000  -0.000   0.000   0.000  -0.000  -0.000   0.000   0.000  -0.000   0.000   0.000   0.000  -0.000
  0.000   0.000   0.000  -0.000  -0.000  -0.000  -0.000  -0.000  -0.000  -0.000   0.000  -0.000  -0.000   0.000   0.000   0.000
 -0.000   0.000  -0.000  -0.000   0.000  -0.000  -0.000  -0.000   0.000  -0.000   0.000  -0.000   0.000  -0.000  -0.000  -0.000
  0.000  -0.000  -0.000   0.000   0.000  -0.000   0.000  -0.000  -0.000  -0.000  -0.000  -0.000  -0.000   0.000  -0.000   0.000
  0.000  -0.000  -0.000  -0.000  -0.000  -0.000   0.000   0.000   0.000  -0.000   0.000   0.000  -0.000  -0.000  -0.000  -0.000
 -0.000   0.000   0.000   0.000   0.000   0.000  -0.000  -0.000  -0.000  -0.000   0.000  -0.000  -0.000  -0.000  -0.000   0.000
 -0.000   0.000  -0.000  -0.000  -0.000   0.000   0.000  -0.000   0.000  -0.000  -0.000  -0.000   0.000   0.000  -0.000  -0.000
 -0.000  -0.000  -0.000  -0.000  -0.000   0.000   0.000   0.000  -0.000   0.000  -0.000  -0.000   0.000   0.000   0.000  -0.000
 -0.000  -0.000  -0.000   0.000   0.000   0.000   0.000   0.000  -0.000  -0.000  -0.000  -0.000  -0.000   0.000   0.000   0.000
  0.000  -0.000   0.000   0.000   0.000  -0.000  -0.000   0.000  -0.000   0.000  -0.000   0.000  -0.000  -0.000   0.000   0.000
  0.000  -0.000   0.000   0.000   0.000  -0.000   0.000  -0.000  -0.000  -0.000  -0.000   0.000  -0.000   0.000  -0.000   0.000
  0.000   0.000   0.000  -0.000  -0.000  -0.000  -0.000  -0.000   0.000   0.000   0.000   0.000   0.000  -0.000  -0.000  -0.000


------------------------ aborting loop because EDIFF is reached ----------------------------------------


    CHARGE:  cpu time    0.14: real time    0.14
    FORLOC:  cpu time    0.02: real time    0.02
    FORNL :  cpu time    3.92: real time    3.93
    STRESS:  cpu time    4.76: real time    4.76
    FORCOR:  cpu time    0.24: real time    0.24
    FORHAR:  cpu time    0.04: real time    0.04
    MIXING:  cpu time    0.00: real time    0.01
    OFIELD:  cpu time    0.00: real time    0.00

  FORCE on cell =-STRESS in cart. coord.  units (eV):
  Direction    XX          YY          ZZ          XY          YZ          ZX
  --------------------------------------------------------------------------------------
  Alpha Z   125.26329   125.26329   125.26329
  Ewald   47400.54507 53052.16940 25891.66466 11465.03439 -1939.39721 -6897.69739
  Hartree 61707.17838 67132.22880 41272.58345 10714.02625 -1825.05520 -6370.56650
  E(xc)   -2551.28864 -2551.20845 -2553.05372     1.17416    -0.16046    -1.01224
  Local  ************************-74364.25760-22176.54551  3763.62034 13264.12252
  n-local  -453.27258  -452.91652  -457.55476     2.47041    -0.08182    -1.23937
  augment  4043.17166  4042.67457  4044.44361    -1.89407     0.37009     1.97628
  Kinetic  6022.54840  6020.97249  6024.54284    -4.22069     0.89984     4.34925
  Fock        0.00000     0.00000     0.00000     0.00000     0.00000     0.00000
  -------------------------------------------------------------------------------------
  Total     -16.26883   -16.36243   -16.36824     0.04494     0.19559    -0.06744
  in kB      -1.98276    -1.99417    -1.99488     0.00548     0.02384    -0.00822
  external pressure =       -1.99 kB  Pullay stress =        0.00 kB


 VOLUME and BASIS-vectors are now :
 -----------------------------------------------------------------------------
  energy-cutoff  :      249.84
  volume of cell :    13146.06
      direct lattice vectors                 reciprocal lattice vectors
    23.601081339  0.000000000  0.000000000     0.042370940  0.000000000  0.000000000
     0.000000000 23.601081339  0.000000000     0.000000000  0.042370940  0.000000000
     0.000000000  0.000000000 23.601081339     0.000000000  0.000000000  0.042370940

  length of vectors
    23.601081339 23.601081339 23.601081339     0.042370940  0.042370940  0.042370940


 FORCES acting on ions
    electron-ion (+dipol)            ewald-force                    non-local-force                 convergence-correction
 -----------------------------------------------------------------------------------------------
   0.219E+03 0.158E+04 -.301E+03   -.218E+03 -.158E+04 0.301E+03   -.244E+00 -.479E+01 0.798E+00   0.103E-01 -.236E-02 0.687E-03
   0.103E+04 0.120E+04 -.509E+03   -.102E+04 -.120E+04 0.507E+03   -.400E+01 -.334E+01 0.141E+01   0.325E-02 -.649E-02 0.176E-02
   0.735E+03 0.121E+04 0.515E+03   -.735E+03 -.121E+04 -.516E+03   -.212E+00 -.161E+01 0.104E+00   0.173E-01 0.731E-02 0.153E-02
   -.296E+03 0.159E+04 0.546E+03   0.295E+03 -.159E+04 -.545E+03   0.931E+00 -.380E+01 -.167E+01   0.167E-01 0.227E-01 0.114E-01
   0.147E+04 0.677E+03 0.283E+03   -.146E+04 -.676E+03 -.282E+03   -.285E+01 -.343E+00 -.744E+00   -.226E-02 -.724E-02 0.219E-02
   -.639E+03 0.137E+04 -.814E+03   0.638E+03 -.137E+04 0.811E+03   0.137E+01 -.374E+01 0.243E+01   0.122E-02 -.137E-02 0.119E-01
   0.104E+04 0.440E+03 -.121E+04   -.104E+04 -.440E+03 0.121E+04   -.262E+01 0.505E-01 0.250E+01   -.109E-02 -.485E-02 -.115E-01
   0.240E+03 0.943E+03 -.117E+04   -.241E+03 -.942E+03 0.117E+04   0.773E+00 -.152E+01 0.612E-01   -.270E-03 -.375E-02 0.117E-02
   0.119E+04 0.472E+03 0.106E+04   -.119E+04 -.471E+03 -.106E+04   -.707E+00 -.938E+00 -.203E+01   0.206E-01 0.317E-02 -.146E-01
   0.240E+03 0.109E+04 0.126E+04   -.239E+03 -.109E+04 -.126E+04   -.646E+00 -.150E+01 -.177E+01   0.600E-02 0.158E-01 0.187E-01
   0.151E+04 -.993E+02 -.441E+03   -.150E+04 0.987E+02 0.440E+03   -.526E+01 0.673E+00 0.124E+01   -.743E-03 -.117E-01 -.564E-02
   -.125E+04 0.108E+04 -.440E+03   0.125E+04 -.108E+04 0.440E+03   0.254E+01 -.130E+01 0.387E+00   -.584E-04 -.123E-01 0.783E-02
   -.878E+03 0.121E+04 0.855E+03   0.876E+03 -.121E+04 -.854E+03   0.223E+01 -.129E+01 -.155E+01   0.917E-03 -.775E-03 0.322E-02
   -.605E+03 0.645E+03 -.142E+04   0.604E+03 -.645E+03 0.141E+04   0.793E+00 -.694E+00 0.215E+01   0.128E-02 0.114E-01 0.148E-01
   0.354E+03 0.124E+03 -.159E+04   -.355E+03 -.124E+03 0.159E+04   0.198E+00 -.255E+00 0.295E+01   0.880E-02 0.505E-02 -.397E-02
   -.178E+03 0.755E+03 -.706E+02   0.177E+03 -.754E+03 0.700E+02   0.685E+00 -.130E+01 0.577E+00   -.163E-02 -.137E-01 0.370E-02
   0.689E+03 0.156E+03 -.214E+03   -.688E+03 -.156E+03 0.214E+03   -.537E+00 0.940E-01 0.292E-01   -.626E-02 0.430E-02 0.423E-02
   0.654E+03 0.226E+03 0.169E+04   -.652E+03 -.226E+03 -.168E+04   -.196E+01 0.158E+00 -.542E+01   0.594E-02 0.265E-02 0.289E-01
   0.153E+04 -.509E+03 0.395E+03   -.152E+04 0.509E+03 -.394E+03   -.391E+01 0.477E+00 -.781E+00   -.754E-02 -.135E-03 -.444E-03
   -.381E+03 0.437E+03 0.160E+04   0.381E+03 -.436E+03 -.160E+04   -.335E+00 -.836E+00 -.174E+01   -.242E-01 0.328E-02 -.607E-02
   0.117E+04 -.674E+03 -.971E+03   -.117E+04 0.672E+03 0.968E+03   -.240E+01 0.147E+01 0.265E+01   -.864E-02 -.326E-02 0.153E-02
   -.168E+04 0.492E+03 -.518E+02   0.167E+04 -.490E+03 0.512E+02   0.523E+01 -.192E+01 0.635E+00   -.464E-02 -.934E-02 -.786E-02
   -.712E+02 -.209E+03 -.524E+03   0.716E+02 0.209E+03 0.523E+03   -.372E+00 0.504E+00 0.136E+01   0.170E-01 0.193E-01 0.384E-01
   -.788E+03 0.227E+03 0.299E+03   0.788E+03 -.227E+03 -.298E+03   0.696E+00 -.147E+00 -.462E+00   0.162E-01 0.253E-01 0.979E-02
   0.102E+04 -.106E+04 -.976E+02   -.102E+04 0.106E+04 0.980E+02   0.372E+00 -.488E+00 -.297E+00   -.188E-01 0.216E-02 -.144E-01
   -.497E+03 -.144E+03 -.166E+04   0.495E+03 0.143E+03 0.166E+04   0.184E+01 0.866E+00 0.405E+01   -.847E-02 -.470E-02 -.190E-01
   0.281E+03 -.351E+02 0.630E+03   -.279E+03 0.345E+02 -.628E+03   -.111E+01 0.551E+00 -.150E+01   -.220E-01 0.121E-01 -.498E-01
   -.131E+04 0.155E+03 -.102E+04   0.130E+04 -.155E+03 0.102E+04   0.164E+01 -.202E+00 0.131E+01   -.634E-02 0.396E-03 -.210E-02
   0.274E+03 -.602E+03 0.155E+04   -.274E+03 0.602E+03 -.155E+04   -.380E+00 0.373E+00 -.245E+01   -.173E-01 -.289E-02 -.227E-02
   0.119E+04 -.710E+03 0.103E+04   -.119E+04 0.709E+03 -.103E+04   -.229E+01 0.111E+01 -.279E+01   0.691E-02 -.956E-02 0.766E-02
   -.876E+03 -.602E+03 -.845E+03   0.876E+03 0.601E+03 0.845E+03   0.416E-01 0.106E+01 0.756E+00   -.121E-02 -.151E-01 0.193E-02
   0.661E+03 -.848E+03 -.124E+04   -.660E+03 0.847E+03 0.124E+04   -.989E+00 0.138E+01 0.258E+01   -.830E-03 -.163E-01 0.778E-02
   -.246E+03 -.676E+03 0.330E+03   0.246E+03 0.676E+03 -.329E+03   -.413E-01 0.234E+00 -.188E+01   0.231E-01 -.106E-02 -.854E-02
   -.884E+03 -.325E+03 0.136E+04   0.882E+03 0.325E+03 -.136E+04   0.218E+01 0.290E+00 -.142E+01   -.981E-02 0.991E-02 -.246E-01
   -.596E+02 -.953E+03 -.139E+04   0.597E+02 0.951E+03 0.139E+04   -.109E+00 0.175E+01 0.441E+01   -.850E-02 -.412E-02 -.377E-02
   -.132E+04 0.452E+03 0.110E+04   0.131E+04 -.451E+03 -.109E+04   0.424E+01 -.115E+01 -.306E+01   0.147E-01 0.153E-01 -.681E-02
   0.487E+03 -.139E+04 -.410E+03   -.487E+03 0.139E+04 0.409E+03   0.745E-01 0.196E+01 0.123E+01   0.652E-02 0.247E-02 -.553E-02
   -.153E+04 -.300E+03 0.311E+02   0.153E+04 0.301E+03 -.311E+02   0.142E+01 -.424E+00 -.745E-01   0.253E-02 -.228E-01 0.916E-02
   0.776E+03 -.139E+04 0.632E+03   -.776E+03 0.139E+04 -.631E+03   -.620E+00 0.361E+01 -.150E+01   -.115E-01 -.217E-02 0.154E-03
   -.130E+04 -.943E+03 -.308E+03   0.130E+04 0.942E+03 0.307E+03   0.383E+01 0.129E+01 0.187E+01   0.380E-02 -.846E-03 0.659E-02
   -.122E+03 -.122E+04 0.124E+04   0.123E+03 0.122E+04 -.123E+04   -.143E+01 0.322E+01 -.361E+01   -.323E-02 0.729E-02 -.503E-02
   -.446E+03 -.138E+04 -.747E+03   0.446E+03 0.137E+04 0.745E+03   0.235E+00 0.466E+01 0.242E+01   -.530E-03 -.308E-02 -.458E-02
   -.222E+03 -.158E+04 0.244E+03   0.222E+03 0.157E+04 -.243E+03   0.315E+00 0.269E+01 -.547E+00   -.150E-02 0.148E-01 0.888E-02
   -.118E+04 -.909E+03 0.795E+03   0.117E+04 0.907E+03 -.792E+03   0.270E+01 0.187E+01 -.249E+01   -.109E-01 -.138E-01 -.640E-02
 -----------------------------------------------------------------------------------------------
   -.141E+01 0.124E+01 -.139E+00   -.682E-12 0.364E-11 -.455E-12   0.133E+01 -.125E+01 0.102E+00   0.486E-02 0.108E-01 0.896E-03
 
 
 POSITION                                       TOTAL-FORCE (eV/Angst)
 -----------------------------------------------------------------------------------
     10.65855      6.23130     13.24035        -0.007366      0.000327     -0.000141
      8.21773      7.48940     13.79847        -0.003447      0.005118      0.000173
      9.74619      8.34682     11.60531        -0.007112     -0.003067     -0.004016
     12.40331      7.20629     11.20443        -0.013480     -0.009242     -0.008392
      7.29396      9.64911     12.19651        -0.001600      0.006239      0.003345
     13.07378      7.57143     13.88687        -0.001608      0.000460     -0.013238
      8.16670     10.10665     14.85642        -0.001161      0.003636      0.007101
     10.60354      8.77944     14.51079        -0.001066      0.001927     -0.001493
      8.92163     10.60686     10.07730        -0.002953      0.002293     -0.002368
     11.45959      9.28378      9.49528        -0.006249     -0.004596     -0.009112
      5.91854     11.50553     13.80578         0.002849      0.008240      0.005471
     15.01336      9.23802     12.83939         0.001719      0.004511     -0.005294
     14.26257      9.02750     10.09868        -0.005812     -0.008802     -0.001285
     13.19982     10.22853     14.88711        -0.002626      0.000511     -0.007261
     10.69853     11.45711     15.37870        -0.000387      0.003896      0.001052
     12.30110      9.80331     12.21134        -0.001153     -0.010553     -0.005836
      9.83813     11.14174     12.72534        -0.002458     -0.006388      0.001195
     10.49633     11.46010      7.94757         0.002033     -0.000586     -0.000027
      7.53841     12.51909     11.68901         0.004731      0.004533      0.000750
     13.29317     11.19864      8.39412         0.001490     -0.002139      0.002485
      8.30405     12.90237     14.38407         0.004962      0.001913     -0.000615
     16.91001     10.98587     11.75336         0.002200      0.012014      0.003775
     12.38204     12.59629     13.15679        -0.002971     -0.004573      0.006299
     14.27145     11.67621     11.17712         0.002187     -0.005997      0.000704
      9.72367     14.23668     12.35708         0.008077     -0.002064     -0.000181
     13.21520     12.94998     15.75775         0.001786      0.000867     -0.003480
     11.50255     11.98696     10.55241        -0.004023     -0.005124     -0.004771
     15.22849     11.94341     13.86450         0.000181      0.004715      0.000025
     11.91480     13.83630      8.42459         0.007127     -0.008477      0.004291
      9.31464     13.50047      9.69299         0.006452      0.000006     -0.001618
     14.46642     14.64462     13.72636        -0.000275      0.003117     -0.000203
     10.72540     14.20527     14.96918         0.004964      0.003775      0.002197
     13.28598     14.33946     11.08139        -0.008525     -0.005197      0.005952
     14.76860     13.58778      8.77144         0.009564     -0.002494      0.021577
     12.84468     15.77698     15.80188         0.005909      0.002091      0.003877
     16.02642     11.09745      9.11415        -0.000932     -0.012486      0.004398
     11.91273     15.94343     13.09615        -0.000778      0.003469      0.003698
     16.20294     13.70882     11.61936        -0.006617      0.006858     -0.007193
     11.00612     15.74882     10.38907         0.003939      0.001763     -0.001520
     16.43987     16.39799     12.55276         0.000288      0.005646      0.000707
     13.44841     16.12055      8.82324         0.005563     -0.005362      0.001115
     14.34831     17.38495     14.13673         0.000550      0.003626     -0.000080
     13.92356     17.05232     11.41078        -0.001853     -0.006970     -0.000180
     16.00505     15.87484      9.87907         0.007884      0.012566     -0.001883
 -----------------------------------------------------------------------------------
    total drift:                               -0.069634      0.009869     -0.035236


--------------------------------------------------------------------------------------------------------



  FREE ENERGIE OF THE ION-ELECTRON SYSTEM (eV)
  ---------------------------------------------------
  free  energy   TOTEN  =       -95.21649286 eV

  energy  without entropy=      -95.21649286  energy(sigma->0) =      -95.21649286
 
 d Force = 0.7082097E-04[-0.162E-03, 0.304E-03]  d Energy = 0.2921045E-04 0.416E-04
 d Force =-0.1150857E+01[-0.116E+01,-0.115E+01]  d Ewald  =-0.1150858E+01 0.108E-05


--------------------------------------------------------------------------------------------------------


    POTLOK:  cpu time    0.26: real time    0.25


--------------------------------------------------------------------------------------------------------




--------------------------------------------------------------------------------------------------------


  
 reached required accuracy - stopping structural energy minimisation
     LOOP+:  cpu time   24.81: real time   24.87
    4ORBIT:  cpu time    0.00: real time    0.00

 total amount of memory used by VASP on root node    59883. kBytes
========================================================================

   base      :      30000. kBytes
   nonl-proj :       3127. kBytes
   fftplans  :       4966. kBytes
   grid      :      12469. kBytes
   one-center:         46. kBytes
   wavefun   :       9275. kBytes
 
  
  
 General timing and accounting informations for this job:
 ========================================================
  
                  Total CPU time used (sec):     2585.670
                            User time (sec):     2572.581
                          System time (sec):       13.089
                         Elapsed time (sec):     2869.931
  
                   Maximum memory used (kb):       76740.
                   Average memory used (kb):           0.
  
                          Minor page faults:      1011866
                          Major page faults:            0
                 Voluntary context switches:        28815
