 running on   64 total cores
 distrk:  each k-point on   64 cores,    1 groups
 distr:  one band on   16 cores,    4 groups
 using from now: INCAR     
 vasp.5.3.5 31Mar14 (build Feb 01 2018 12:10:03) gamma-only                     
  
 POSCAR found type information on POSCAR  Ag
 POSCAR found :  1 types and      47 ions
 scaLAPACK will be used

 ----------------------------------------------------------------------------- 
|                                                                             |
|  ADVICE TO THIS USER RUNNING 'VASP/VAMP'   (HEAR YOUR MASTER'S VOICE ...):  |
|                                                                             |
|      You have a (more or less) 'large supercell' and for larger cells       |
|      it might be more efficient to use real space projection opertators     |
|      So try LREAL= Auto  in the INCAR   file.                               |
|      Mind: At the moment your POTCAR file does not contain real space       |
|       projectors, and has to be modified,  BUT if you                       |
|      want to do an extremely  accurate calculation you might also keep the  |
|      reciprocal projection scheme          (i.e. LREAL=.FALSE.)             |
|                                                                             |
 ----------------------------------------------------------------------------- 

 LDA part: xc-table for Pade appr. of Perdew
 POSCAR, INCAR and KPOINTS ok, starting setup
 WARNING: small aliasing (wrap around) errors must be expected
 FFT: planning ...
 WAVECAR not read
 entering main loop
       N       E                     dE             d eps       ncg     rms          rms(c)
DAV:   1     0.443642626376E+04    0.44364E+04   -0.10475E+05  1376   0.612E+02
DAV:   2     0.748521712155E+03   -0.36879E+04   -0.33181E+04  2200   0.164E+02
DAV:   3    -0.662720430096E+02   -0.81479E+03   -0.74687E+03  1688   0.840E+01
DAV:   4    -0.994876083106E+02   -0.33216E+02   -0.32921E+02  1464   0.184E+01
DAV:   5    -0.999715298372E+02   -0.48392E+00   -0.48318E+00  1520   0.255E+00    0.456E+01
DAV:   6    -0.425660946564E+02    0.57405E+02   -0.17116E+02  1352   0.166E+01    0.259E+01
DAV:   7    -0.289563887511E+02    0.13610E+02   -0.13069E+01  1424   0.533E+00    0.152E+01
DAV:   8    -0.250776313525E+02    0.38788E+01   -0.30566E+00  1448   0.276E+00    0.766E+00
DAV:   9    -0.295821610379E+02   -0.45045E+01   -0.78313E-01  1464   0.119E+00    0.505E+00
DAV:  10    -0.436240385352E+02   -0.14042E+02   -0.40399E+00  1376   0.242E+00    0.433E+00
DAV:  11    -0.553648220058E+02   -0.11741E+02   -0.45237E+00  1424   0.267E+00    0.313E+00
DAV:  12    -0.702322729587E+02   -0.14867E+02   -0.69596E+00  1392   0.257E+00    0.249E+00
DAV:  13    -0.764759090210E+02   -0.62436E+01   -0.19500E+00  1448   0.160E+00    0.238E+00
DAV:  14    -0.791748280298E+02   -0.26989E+01   -0.46409E-01  1472   0.940E-01    0.192E+00
DAV:  15    -0.864823901739E+02   -0.73076E+01   -0.22828E+00  1392   0.147E+00    0.124E+00
DAV:  16    -0.909105010739E+02   -0.44281E+01   -0.75962E-01  1400   0.764E-01    0.874E-01
DAV:  17    -0.936192706981E+02   -0.27088E+01   -0.30971E-01  1392   0.539E-01    0.617E-01
DAV:  18    -0.958890769200E+02   -0.22698E+01   -0.16841E-01  1416   0.465E-01    0.125E+00
DAV:  19    -0.959399734062E+02   -0.50896E-01   -0.40939E-03  1520   0.123E-01    0.117E+00
DAV:  20    -0.960383009919E+02   -0.98328E-01   -0.27780E-03  1440   0.138E-01    0.105E+00
DAV:  21    -0.964639983197E+02   -0.42570E+00   -0.28672E-02  1392   0.475E-01    0.579E-01
DAV:  22    -0.969806200127E+02   -0.51662E+00   -0.38687E-02  1392   0.451E-01    0.196E-01
DAV:  23    -0.971839267275E+02   -0.20331E+00   -0.56694E-03  1432   0.125E-01    0.143E-01
DAV:  24    -0.972779494653E+02   -0.94023E-01   -0.91314E-04  1072   0.483E-02    0.942E-02
DAV:  25    -0.973578550718E+02   -0.79906E-01   -0.14959E-03  1112   0.458E-02    0.502E-02
DAV:  26    -0.973788147264E+02   -0.20960E-01   -0.41181E-04   984   0.232E-02    0.352E-02
DAV:  27    -0.973946405572E+02   -0.15826E-01   -0.39583E-04   960   0.279E-02    0.212E-02
DAV:  28    -0.974096672841E+02   -0.15027E-01   -0.42722E-04   960   0.165E-02    0.175E-02
DAV:  29    -0.974143438595E+02   -0.46766E-02   -0.81230E-05   976   0.100E-02    0.106E-02
DAV:  30    -0.974184317854E+02   -0.40879E-02   -0.37515E-05   928   0.671E-03    0.603E-03
DAV:  31    -0.974208814066E+02   -0.24496E-02   -0.15429E-05   912   0.419E-03    0.485E-03
DAV:  32    -0.974217306098E+02   -0.84920E-03   -0.54388E-06   880   0.286E-03    0.250E-03
DAV:  33    -0.974221155503E+02   -0.38494E-03   -0.29311E-06   872   0.235E-03    0.138E-03
DAV:  34    -0.974222969295E+02   -0.18138E-03   -0.11611E-06   888   0.132E-03    0.933E-04
DAV:  35    -0.974224445075E+02   -0.14758E-03   -0.66445E-07   848   0.976E-04    0.665E-04
DAV:  36    -0.974225340447E+02   -0.89537E-04   -0.36979E-07   864   0.661E-04
   1 F= -.97422534E+02 E0= -.97422534E+02  d E =-.974225E+02  mag=     1.0001
 curvature:   0.00 expect dE= 0.000E+00 dE for cont linesearch  0.000E+00
 trial: gam= 0.00000 g(F)=  0.754E+00 g(S)=  0.000E+00 ort = 0.000E+00 (trialstep = 0.100E+01)
 search vector abs. value=  0.754E+00
 bond charge predicted
       N       E                     dE             d eps       ncg     rms          rms(c)
DAV:   1    -0.980980502433E+02   -0.67561E+00   -0.51230E+01  1344   0.106E+01    0.997E-01
DAV:   2    -0.981211572284E+02   -0.23107E-01   -0.24426E-01  1408   0.102E+00    0.733E-01
DAV:   3    -0.981199784882E+02    0.11787E-02   -0.85574E-03  1384   0.205E-01    0.278E-01
DAV:   4    -0.981198314846E+02    0.14700E-03   -0.11760E-03  1440   0.118E-01    0.434E-02
DAV:   5    -0.981197558236E+02    0.75661E-04   -0.19637E-04   936   0.334E-02
   2 F= -.98119756E+02 E0= -.98119756E+02  d E =-.697222E+00  mag=     1.0001
 ZBRENT: can't locate minimum, use default step
 trial-energy change:   -0.697222  1 .order   -0.698596   -0.754125   -0.643067
 step:   4.0000(harm=  6.7903)  dis= 0.07547  next Energy=   -99.982915 (dE=-0.256E+01)
 bond charge predicted
       N       E                     dE             d eps       ncg     rms          rms(c)
DAV:   1    -0.994052916282E+02   -0.12855E+01   -0.46414E+02  1344   0.321E+01    0.245E+00
DAV:   2    -0.996112916892E+02   -0.20600E+00   -0.21558E+00  1416   0.306E+00    0.196E+00
DAV:   3    -0.996033014296E+02    0.79903E-02   -0.51346E-02  1400   0.484E-01    0.101E+00
DAV:   4    -0.996014510263E+02    0.18504E-02   -0.15498E-02  1408   0.293E-01    0.132E-01
DAV:   5    -0.996009631387E+02    0.48789E-03   -0.14629E-03  1416   0.105E-01    0.790E-02
DAV:   6    -0.996009058854E+02    0.57253E-04   -0.80132E-04  1424   0.421E-02
   3 F= -.99600906E+02 E0= -.99600906E+02  d E =-.217837E+01  mag=     1.0000
 curvature:  -2.61 expect dE=-0.538E+00 dE for cont linesearch -0.438E+00
 ZBRENT: increasing intervall
 opt :  10.0000  next Energy=  -100.012103 (dE=-0.259E+01)
 bond charge predicted
       N       E                     dE             d eps       ncg     rms          rms(c)
DAV:   1    -0.996051287613E+02   -0.41656E-02   -0.18992E+03  1344   0.660E+01    0.335E+00
DAV:   2    -0.100473233875E+03   -0.86811E+00   -0.89791E+00  1392   0.641E+00    0.319E+00
DAV:   3    -0.100465380411E+03    0.78535E-02   -0.14293E-01  1424   0.765E-01    0.234E+00
DAV:   4    -0.100441570136E+03    0.23810E-01   -0.75934E-02  1416   0.508E-01    0.870E-01
DAV:   5    -0.100442193971E+03   -0.62384E-03   -0.73811E-03  1424   0.231E-01    0.218E-01
DAV:   6    -0.100441801585E+03    0.39239E-03   -0.13891E-03  1424   0.624E-02    0.120E-01
DAV:   7    -0.100442149531E+03   -0.34795E-03   -0.52409E-04  1416   0.390E-02    0.468E-02
DAV:   8    -0.100442516438E+03   -0.36691E-03   -0.32782E-05   944   0.106E-02    0.197E-02
DAV:   9    -0.100442867913E+03   -0.35148E-03   -0.13545E-05   920   0.554E-03    0.720E-03
DAV:  10    -0.100443143103E+03   -0.27519E-03   -0.52987E-06   920   0.316E-03    0.402E-03
DAV:  11    -0.100443504345E+03   -0.36124E-03   -0.99256E-06   920   0.291E-03    0.301E-03
DAV:  12    -0.100443787334E+03   -0.28299E-03   -0.85724E-06   936   0.212E-03    0.240E-03
DAV:  13    -0.100443901983E+03   -0.11465E-03   -0.14920E-06   904   0.127E-03    0.165E-03
DAV:  14    -0.100444038318E+03   -0.13634E-03   -0.13734E-06   880   0.983E-04    0.762E-04
DAV:  15    -0.100444104088E+03   -0.65770E-04   -0.40792E-07   880   0.560E-04
   4 F= -.10044410E+03 E0= -.10044410E+03  d E =-.302157E+01  mag=     1.0000
 curvature:  -2.45 expect dE=-0.492E+00 dE for cont linesearch -0.737E-02
 ZBRENT: bracketing found
 ZBRENT: interpolating
 opt :   9.2918  next Energy=  -100.460967 (dE=-0.304E+01)
 bond charge predicted
       N       E                     dE             d eps       ncg     rms          rms(c)
DAV:   1    -0.100452633675E+03   -0.85954E-02   -0.25664E+01  1344   0.747E+00    0.395E-01
DAV:   2    -0.100464405426E+03   -0.11772E-01   -0.12467E-01  1408   0.727E-01    0.288E-01
DAV:   3    -0.100464119789E+03    0.28564E-03   -0.24463E-03  1400   0.102E-01    0.171E-01
DAV:   4    -0.100464002761E+03    0.11703E-03   -0.94406E-04  1408   0.599E-02    0.378E-02
DAV:   5    -0.100464009249E+03   -0.64882E-05   -0.43415E-05   912   0.199E-02
   5 F= -.10046401E+03 E0= -.10046401E+03  d E =-.304148E+01  mag=     1.0000
 curvature:  -5.61 expect dE=-0.967E+00 dE for cont linesearch -0.554E-03
 trial: gam= 0.24020 g(F)=  0.173E+00 g(S)=  0.000E+00 ort =-0.863E-02 (trialstep = 0.266E+01)
 search vector abs. value=  0.212E+00
 bond charge predicted
       N       E                     dE             d eps       ncg     rms          rms(c)
DAV:   1    -0.100805187575E+03   -0.34118E+00   -0.10079E+02  1344   0.149E+01    0.910E-01
DAV:   2    -0.100848093916E+03   -0.42906E-01   -0.44170E-01  1384   0.139E+00    0.638E-01
DAV:   3    -0.100846075799E+03    0.20181E-02   -0.95877E-03  1400   0.246E-01    0.391E-01
DAV:   4    -0.100845495666E+03    0.58013E-03   -0.54124E-03  1416   0.134E-01    0.770E-02
DAV:   5    -0.100845491698E+03    0.39677E-05   -0.37942E-04  1136   0.379E-02
   6 F= -.10084549E+03 E0= -.10084549E+03  d E =-.381482E+00  mag=     1.0000
 trial-energy change:   -0.381482  1 .order   -0.383868   -0.453082   -0.314653
 step:   8.7008(harm=  8.7008)  dis= 0.15322  next Energy=  -101.205483 (dE=-0.741E+00)
 bond charge predicted
       N       E                     dE             d eps       ncg     rms          rms(c)
DAV:   1    -0.101054233429E+03   -0.20874E+00   -0.52608E+02  1344   0.343E+01    0.161E+00
DAV:   2    -0.101284428682E+03   -0.23020E+00   -0.23454E+00  1376   0.323E+00    0.124E+00
DAV:   3    -0.101278608847E+03    0.58198E-02   -0.42099E-02  1408   0.507E-01    0.887E-01
DAV:   4    -0.101273413255E+03    0.51956E-02   -0.28640E-02  1416   0.269E-01    0.166E-01
DAV:   5    -0.101273412145E+03    0.11093E-05   -0.84369E-04  1424   0.681E-02
   7 F= -.10127341E+03 E0= -.10127341E+03  d E =-.809403E+00  mag=     1.0000
 curvature:  -5.41 expect dE=-0.150E+00 dE for cont linesearch -0.214E-01
 ZBRENT: extrapolating
 opt :  10.6600  next Energy=  -101.301800 (dE=-0.838E+00)
 bond charge predicted
       N       E                     dE             d eps       ncg     rms          rms(c)
DAV:   1    -0.101284245798E+03   -0.10833E-01   -0.54548E+01  1344   0.110E+01    0.451E-01
DAV:   2    -0.101308274213E+03   -0.24028E-01   -0.24400E-01  1440   0.103E+00    0.340E-01
DAV:   3    -0.101307804996E+03    0.46922E-03   -0.43478E-03  1448   0.156E-01    0.238E-01
DAV:   4    -0.101307432027E+03    0.37297E-03   -0.24001E-03  1416   0.789E-02    0.525E-02
DAV:   5    -0.101307518575E+03   -0.86548E-04   -0.70480E-05   936   0.205E-02
   8 F= -.10130752E+03 E0= -.10130752E+03  d E =-.843509E+00  mag=     1.0000
 curvature:  -7.16 expect dE=-0.226E+00 dE for cont linesearch -0.137E-02
 ZBRENT: extrapolating
 opt :  11.2431  next Energy=  -101.309270 (dE=-0.845E+00)
 bond charge predicted
       N       E                     dE             d eps       ncg     rms          rms(c)
DAV:   1    -0.101307114797E+03    0.31723E-03   -0.48210E+00  1376   0.325E+00    0.131E-01
DAV:   2    -0.101309288987E+03   -0.21742E-02   -0.21647E-02  1456   0.306E-01    0.956E-02
DAV:   3    -0.101309278531E+03    0.10456E-04   -0.35921E-04  1160   0.458E-02
   9 F= -.10130928E+03 E0= -.10130928E+03  d E =-.845269E+00  mag=     1.0000
 curvature:  -9.15 expect dE=-0.312E+00 dE for cont linesearch -0.178E-03
 trial: gam= 0.22372 g(F)=  0.341E-01 g(S)=  0.000E+00 ort =-0.203E-02 (trialstep = 0.438E+01)
 search vector abs. value=  0.438E-01
 bond charge predicted
       N       E                     dE             d eps       ncg     rms          rms(c)
DAV:   1    -0.101411951027E+03   -0.10266E+00   -0.56336E+01  1344   0.111E+01    0.481E-01
DAV:   2    -0.101436785011E+03   -0.24834E-01   -0.25425E-01  1432   0.105E+00    0.381E-01
DAV:   3    -0.101436118893E+03    0.66612E-03   -0.43471E-03  1440   0.147E-01    0.249E-01
DAV:   4    -0.101435558633E+03    0.56026E-03   -0.25243E-03  1400   0.854E-02    0.593E-02
DAV:   5    -0.101435617365E+03   -0.58733E-04   -0.77530E-05   936   0.258E-02
  10 F= -.10143562E+03 E0= -.10143562E+03  d E =-.126339E+00  mag=     1.0000
 trial-energy change:   -0.126339  1 .order   -0.126381   -0.147065   -0.105697
 step:  15.5541(harm= 15.5541)  dis= 0.10401  next Energy=  -101.570686 (dE=-0.261E+00)
 bond charge predicted
       N       E                     dE             d eps       ncg     rms          rms(c)
DAV:   1    -0.101415968154E+03    0.19590E-01   -0.37017E+02  1344   0.287E+01    0.109E+00
DAV:   2    -0.101580627363E+03   -0.16466E+00   -0.16803E+00  1416   0.272E+00    0.900E-01
DAV:   3    -0.101577149247E+03    0.34781E-02   -0.26901E-02  1472   0.360E-01    0.634E-01
DAV:   4    -0.101572349219E+03    0.48000E-02   -0.13839E-02  1432   0.198E-01    0.208E-01
DAV:   5    -0.101572472504E+03   -0.12328E-03   -0.12655E-03  1472   0.791E-02    0.717E-02
DAV:   6    -0.101572584602E+03   -0.11210E-03   -0.16433E-04   952   0.230E-02    0.434E-02
DAV:   7    -0.101572812230E+03   -0.22763E-03   -0.14991E-04   936   0.195E-02    0.129E-02
DAV:   8    -0.101573043770E+03   -0.23154E-03   -0.27598E-05   920   0.992E-03    0.551E-03
DAV:   9    -0.101573209995E+03   -0.16623E-03   -0.71989E-06   920   0.480E-03    0.396E-03
DAV:  10    -0.101573392947E+03   -0.18295E-03   -0.35842E-06   896   0.219E-03    0.229E-03
DAV:  11    -0.101573649986E+03   -0.25704E-03   -0.65604E-06   936   0.236E-03    0.203E-03
DAV:  12    -0.101573776773E+03   -0.12679E-03   -0.19994E-06   912   0.133E-03    0.123E-03
DAV:  13    -0.101573894635E+03   -0.11786E-03   -0.15490E-06   896   0.105E-03    0.772E-04
DAV:  14    -0.101573984564E+03   -0.89928E-04   -0.70512E-07   896   0.675E-04
  11 F= -.10157398E+03 E0= -.10157398E+03  d E =-.264706E+00  mag=     1.0000
 curvature: -10.13 expect dE=-0.100E+00 dE for cont linesearch -0.404E-03
 trial: gam= 0.25026 g(F)=  0.991E-02 g(S)=  0.000E+00 ort = 0.132E-02 (trialstep = 0.661E+01)
 search vector abs. value=  0.133E-01
 bond charge predicted
       N       E                     dE             d eps       ncg     rms          rms(c)
DAV:   1    -0.101618268338E+03   -0.44374E-01   -0.38932E+01  1344   0.927E+00    0.251E-01
DAV:   2    -0.101635636577E+03   -0.17368E-01   -0.17357E-01  1408   0.866E-01    0.227E-01
DAV:   3    -0.101635308537E+03    0.32804E-03   -0.25542E-03  1456   0.103E-01    0.169E-01
DAV:   4    -0.101634700153E+03    0.60838E-03   -0.13177E-03  1400   0.575E-02    0.704E-02
DAV:   5    -0.101634700825E+03   -0.67255E-06   -0.40833E-04  1392   0.340E-02
  12 F= -.10163470E+03 E0= -.10163470E+03  d E =-.607163E-01  mag=     1.0000
 ZBRENT: can't locate minimum, use default step
 trial-energy change:   -0.060716  1 .order   -0.061000   -0.067708   -0.054292
 step:  26.4443(harm= 33.3652)  dis= 0.05865  next Energy=  -101.744841 (dE=-0.171E+00)
 bond charge predicted
       N       E                     dE             d eps       ncg     rms          rms(c)
DAV:   1    -0.101582048189E+03    0.52652E-01   -0.35257E+02  1344   0.280E+01    0.811E-01
DAV:   2    -0.101742170105E+03   -0.16012E+00   -0.15953E+00  1384   0.263E+00    0.672E-01
DAV:   3    -0.101739205473E+03    0.29646E-02   -0.25068E-02  1448   0.321E-01    0.489E-01
DAV:   4    -0.101734222001E+03    0.49835E-02   -0.10869E-02  1400   0.167E-01    0.201E-01
DAV:   5    -0.101734170160E+03    0.51841E-04   -0.29157E-03  1464   0.925E-02    0.738E-02
DAV:   6    -0.101734139454E+03    0.30705E-04   -0.17234E-04   928   0.227E-02
  13 F= -.10173414E+03 E0= -.10173414E+03  d E =-.160155E+00  mag=     1.0000
 curvature: -20.24 expect dE=-0.157E+00 dE for cont linesearch -0.624E-02
 ZBRENT: extrapolating
 opt :  32.9404  next Energy=  -101.740721 (dE=-0.167E+00)
 bond charge predicted
       N       E                     dE             d eps       ncg     rms          rms(c)
DAV:   1    -0.101724342941E+03    0.98272E-02   -0.37562E+01  1344   0.910E+00    0.248E-01
DAV:   2    -0.101741219145E+03   -0.16876E-01   -0.16784E-01  1416   0.852E-01    0.222E-01
DAV:   3    -0.101740917556E+03    0.30159E-03   -0.24541E-03  1424   0.100E-01    0.164E-01
DAV:   4    -0.101740374346E+03    0.54321E-03   -0.12839E-03  1432   0.568E-02    0.682E-02
DAV:   5    -0.101740417948E+03   -0.43602E-04   -0.36884E-04  1280   0.327E-02
  14 F= -.10174042E+03 E0= -.10174042E+03  d E =-.166433E+00  mag=     1.0000
 curvature: -21.34 expect dE=-0.248E+00 dE for cont linesearch -0.948E-05
 trial: gam= 1.24500 g(F)=  0.116E-01 g(S)=  0.000E+00 ort = 0.769E-04 (trialstep = 0.487E+01)
 search vector abs. value=  0.324E-01
 bond charge predicted
       N       E                     dE             d eps       ncg     rms          rms(c)
DAV:   1    -0.101771416829E+03   -0.31042E-01   -0.51381E+01  1344   0.106E+01    0.227E-01
DAV:   2    -0.101794399412E+03   -0.22983E-01   -0.22845E-01  1360   0.100E+00    0.237E-01
DAV:   3    -0.101794105525E+03    0.29389E-03   -0.35842E-03  1464   0.126E-01    0.181E-01
DAV:   4    -0.101793363700E+03    0.74182E-03   -0.73900E-04  1424   0.439E-02    0.115E-01
DAV:   5    -0.101793113551E+03    0.25015E-03   -0.16275E-03  1416   0.624E-02    0.392E-02
DAV:   6    -0.101793152587E+03   -0.39036E-04   -0.20378E-05   864   0.839E-03
  15 F= -.10179315E+03 E0= -.10179315E+03  d E =-.527346E-01  mag=     1.0000
 ZBRENT: can't locate minimum, use default step
 trial-energy change:   -0.052735  1 .order   -0.053541   -0.057099   -0.049982
 step:  19.4915(harm= 39.0957)  dis= 0.07145  next Energy=  -101.969474 (dE=-0.229E+00)
 bond charge predicted
       N       E                     dE             d eps       ncg     rms          rms(c)
DAV:   1    -0.101708657904E+03    0.84456E-01   -0.46585E+02  1344   0.322E+01    0.788E-01
DAV:   2    -0.101919565478E+03   -0.21091E+00   -0.20993E+00  1400   0.305E+00    0.724E-01
DAV:   3    -0.101915969037E+03    0.35964E-02   -0.33173E-02  1472   0.386E-01    0.532E-01
DAV:   4    -0.101909119574E+03    0.68495E-02   -0.80904E-03  1424   0.144E-01    0.312E-01
DAV:   5    -0.101907361535E+03    0.17580E-02   -0.97955E-03  1432   0.155E-01    0.955E-02
DAV:   6    -0.101907510963E+03   -0.14943E-03   -0.13789E-04   936   0.220E-02    0.591E-02
DAV:   7    -0.101907711573E+03   -0.20061E-03   -0.89077E-05   928   0.152E-02    0.224E-02
DAV:   8    -0.101907881716E+03   -0.17014E-03   -0.27587E-05   936   0.903E-03    0.705E-03
DAV:   9    -0.101908050051E+03   -0.16833E-03   -0.77481E-06   896   0.441E-03    0.318E-03
DAV:  10    -0.101908201553E+03   -0.15150E-03   -0.35768E-06   920   0.215E-03    0.189E-03
DAV:  11    -0.101908328376E+03   -0.12682E-03   -0.23017E-06   912   0.125E-03    0.134E-03
DAV:  12    -0.101908508642E+03   -0.18027E-03   -0.46209E-06   920   0.143E-03    0.928E-04
DAV:  13    -0.101908586181E+03   -0.77539E-04   -0.12871E-06   920   0.843E-04
  16 F= -.10190859E+03 E0= -.10190859E+03  d E =-.168168E+00  mag=     1.0000
 curvature: -36.37 expect dE=-0.236E+00 dE for cont linesearch -0.353E-01
 ZBRENT: increasing intervall
 opt :  48.7287  next Energy=  -101.936662 (dE=-0.196E+00)
 bond charge predicted
       N       E                     dE             d eps       ncg     rms          rms(c)
DAV:   1    -0.101068763760E+03    0.83974E+00   -0.19084E+03  1344   0.663E+01    0.225E+00
DAV:   2    -0.101970920218E+03   -0.90216E+00   -0.90319E+00  1432   0.641E+00    0.154E+00
DAV:   3    -0.101953568320E+03    0.17352E-01   -0.14602E-01  1472   0.837E-01    0.102E+00
DAV:   4    -0.101930558642E+03    0.23010E-01   -0.32311E-02  1424   0.294E-01    0.589E-01
DAV:   5    -0.101925663746E+03    0.48949E-02   -0.22676E-02  1424   0.241E-01    0.163E-01
DAV:   6    -0.101926025364E+03   -0.36162E-03   -0.39548E-04  1088   0.396E-02    0.938E-02
DAV:   7    -0.101926382997E+03   -0.35763E-03   -0.10165E-04   912   0.201E-02    0.358E-02
DAV:   8    -0.101926607080E+03   -0.22408E-03   -0.25293E-05   944   0.847E-03    0.136E-02
DAV:   9    -0.101926844799E+03   -0.23772E-03   -0.10253E-05   920   0.454E-03    0.498E-03
DAV:  10    -0.101927060158E+03   -0.21536E-03   -0.69237E-06   944   0.281E-03    0.265E-03
DAV:  11    -0.101927192346E+03   -0.13219E-03   -0.26493E-06   928   0.165E-03    0.187E-03
DAV:  12    -0.101927428936E+03   -0.23659E-03   -0.80804E-06   904   0.189E-03    0.161E-03
DAV:  13    -0.101927525506E+03   -0.96570E-04   -0.20401E-06   928   0.113E-03
  17 F= -.10192753E+03 E0= -.10192753E+03  d E =-.187108E+00  mag=     1.0000
 curvature: -28.96 expect dE=-0.562E+00 dE for cont linesearch -0.189E-01
 ZBRENT: bracketing found
 ZBRENT: interpolating
 opt :  35.5434  next Energy=  -101.957898 (dE=-0.217E+00)
 bond charge predicted
       N       E                     dE             d eps       ncg     rms          rms(c)
DAV:   1    -0.101797176846E+03    0.13025E+00   -0.37851E+02  1344   0.290E+01    0.649E-01
DAV:   2    -0.101965911383E+03   -0.16873E+00   -0.16798E+00  1384   0.273E+00    0.671E-01
DAV:   3    -0.101963466610E+03    0.24448E-02   -0.26093E-02  1496   0.335E-01    0.517E-01
DAV:   4    -0.101957738819E+03    0.57278E-02   -0.60474E-03  1424   0.124E-01    0.324E-01
DAV:   5    -0.101955942022E+03    0.17968E-02   -0.10393E-02  1440   0.157E-01    0.106E-01
DAV:   6    -0.101956020811E+03   -0.78789E-04   -0.11990E-04   928   0.209E-02
  18 F= -.10195602E+03 E0= -.10195602E+03  d E =-.215603E+00  mag=     1.0000
 curvature: -46.43 expect dE=-0.484E+00 dE for cont linesearch -0.852E-04
 trial: gam= 0.74389 g(F)=  0.104E-01 g(S)=  0.000E+00 ort =-0.244E-03 (trialstep = 0.110E+02)
 search vector abs. value=  0.280E-01
 bond charge predicted
       N       E                     dE             d eps       ncg     rms          rms(c)
DAV:   1    -0.101955659080E+03    0.28294E-03   -0.22764E+02  1344   0.224E+01    0.554E-01
DAV:   2    -0.102057563130E+03   -0.10190E+00   -0.10234E+00  1408   0.214E+00    0.564E-01
DAV:   3    -0.102056016220E+03    0.15469E-02   -0.16016E-02  1480   0.270E-01    0.421E-01
DAV:   4    -0.102052300678E+03    0.37155E-02   -0.48218E-03  1408   0.110E-01    0.247E-01
DAV:   5    -0.102051537508E+03    0.76317E-03   -0.55354E-03  1416   0.116E-01    0.862E-02
DAV:   6    -0.102051548731E+03   -0.11222E-04   -0.13299E-04   928   0.196E-02
  19 F= -.10205155E+03 E0= -.10205155E+03  d E =-.955279E-01  mag=     1.0000
 trial-energy change:   -0.095528  1 .order   -0.094453   -0.112830   -0.076077
 step:  26.9459(harm= 33.7912)  dis= 0.07145  next Energy=  -102.109894 (dE=-0.154E+00)
 bond charge predicted
       N       E                     dE             d eps       ncg     rms          rms(c)
DAV:   1    -0.101907581912E+03    0.14396E+00   -0.47915E+02  1344   0.326E+01    0.867E-01
DAV:   2    -0.102123416269E+03   -0.21583E+00   -0.21772E+00  1408   0.312E+00    0.818E-01
DAV:   3    -0.102119710937E+03    0.37053E-02   -0.34072E-02  1456   0.395E-01    0.589E-01
DAV:   4    -0.102112265771E+03    0.74452E-02   -0.10576E-02  1424   0.163E-01    0.332E-01
DAV:   5    -0.102111130693E+03    0.11351E-02   -0.87401E-03  1432   0.147E-01    0.112E-01
DAV:   6    -0.102111209788E+03   -0.79095E-04   -0.23029E-04   960   0.255E-02
  20 F= -.10211121E+03 E0= -.10211121E+03  d E =-.155189E+00  mag=     1.0000
 curvature: -42.02 expect dE=-0.240E+00 dE for cont linesearch -0.199E-02
 ZBRENT: extrapolating
 opt :  30.1341  next Energy=  -102.113046 (dE=-0.157E+00)
 bond charge predicted
       N       E                     dE             d eps       ncg     rms          rms(c)
DAV:   1    -0.102104162447E+03    0.69682E-02   -0.18988E+01  1376   0.646E+00    0.160E-01
DAV:   2    -0.102112684832E+03   -0.85224E-02   -0.85012E-02  1432   0.613E-01    0.162E-01
DAV:   3    -0.102112590736E+03    0.94096E-04   -0.13327E-03  1472   0.772E-02    0.120E-01
DAV:   4    -0.102112353036E+03    0.23770E-03   -0.43523E-04  1424   0.329E-02    0.687E-02
DAV:   5    -0.102112415764E+03   -0.62728E-04   -0.44385E-04  1424   0.331E-02
  21 F= -.10211242E+03 E0= -.10211242E+03  d E =-.156395E+00  mag=     1.0000
 curvature: -38.78 expect dE=-0.267E+00 dE for cont linesearch -0.486E-04
 trial: gam= 0.62531 g(F)=  0.688E-02 g(S)=  0.000E+00 ort =-0.187E-03 (trialstep = 0.148E+02)
 search vector abs. value=  0.176E-01
 bond charge predicted
       N       E                     dE             d eps       ncg     rms          rms(c)
DAV:   1    -0.102077227942E+03    0.35125E-01   -0.25969E+02  1344   0.240E+01    0.591E-01
DAV:   2    -0.102193614289E+03   -0.11639E+00   -0.11581E+00  1400   0.225E+00    0.539E-01
DAV:   3    -0.102191664709E+03    0.19496E-02   -0.18050E-02  1456   0.278E-01    0.401E-01
DAV:   4    -0.102187762560E+03    0.39021E-02   -0.54954E-03  1408   0.117E-01    0.215E-01
DAV:   5    -0.102187170817E+03    0.59174E-03   -0.47781E-03  1416   0.108E-01    0.717E-02
DAV:   6    -0.102187230950E+03   -0.60134E-04   -0.11045E-04   896   0.180E-02
  22 F= -.10218723E+03 E0= -.10218723E+03  d E =-.748152E-01  mag=     1.0000
 trial-energy change:   -0.074815  1 .order   -0.076769   -0.100349   -0.053189
 step:  31.5610(harm= 31.5610)  dis= 0.08688  next Energy=  -102.219179 (dE=-0.107E+00)
 bond charge predicted
       N       E                     dE             d eps       ncg     rms          rms(c)
DAV:   1    -0.102070442641E+03    0.11673E+00   -0.33078E+02  1344   0.271E+01    0.695E-01
DAV:   2    -0.102219240134E+03   -0.14880E+00   -0.14789E+00  1416   0.255E+00    0.610E-01
DAV:   3    -0.102216593368E+03    0.26468E-02   -0.23055E-02  1440   0.315E-01    0.447E-01
DAV:   4    -0.102211706730E+03    0.48866E-02   -0.75183E-03  1408   0.136E-01    0.230E-01
DAV:   5    -0.102211160827E+03    0.54590E-03   -0.52108E-03  1400   0.114E-01    0.766E-02
DAV:   6    -0.102211232266E+03   -0.71440E-04   -0.13796E-04   928   0.199E-02
  23 F= -.10221123E+03 E0= -.10221123E+03  d E =-.988165E-01  mag=     1.0000
 curvature: -41.07 expect dE=-0.241E+00 dE for cont linesearch -0.341E-03
 trial: gam= 0.78385 g(F)=  0.586E-02 g(S)=  0.000E+00 ort =-0.382E-03 (trialstep = 0.182E+02)
 search vector abs. value=  0.161E-01
 bond charge predicted
       N       E                     dE             d eps       ncg     rms          rms(c)
DAV:   1    -0.102124651703E+03    0.86509E-01   -0.35708E+02  1344   0.281E+01    0.680E-01
DAV:   2    -0.102287711219E+03   -0.16306E+00   -0.16113E+00  1400   0.266E+00    0.646E-01
DAV:   3    -0.102285446123E+03    0.22651E-02   -0.24162E-02  1440   0.323E-01    0.481E-01
DAV:   4    -0.102280348064E+03    0.50981E-02   -0.66905E-03  1384   0.129E-01    0.279E-01
DAV:   5    -0.102279363522E+03    0.98454E-03   -0.73167E-03  1408   0.133E-01    0.906E-02
DAV:   6    -0.102279444314E+03   -0.80791E-04   -0.11312E-04   920   0.189E-02
  24 F= -.10227944E+03 E0= -.10227944E+03  d E =-.682120E-01  mag=     1.0000
 trial-energy change:   -0.068212  1 .order   -0.071085   -0.101141   -0.041030
 step:  30.5859(harm= 30.5859)  dis= 0.08336  next Energy=  -102.296320 (dE=-0.851E-01)
 bond charge predicted
       N       E                     dE             d eps       ncg     rms          rms(c)
DAV:   1    -0.102216381846E+03    0.62982E-01   -0.16565E+02  1344   0.191E+01    0.444E-01
DAV:   2    -0.102291265228E+03   -0.74883E-01   -0.74144E-01  1392   0.180E+00    0.438E-01
DAV:   3    -0.102290318088E+03    0.94714E-03   -0.11525E-02  1464   0.222E-01    0.330E-01
DAV:   4    -0.102287909758E+03    0.24083E-02   -0.30975E-03  1392   0.877E-02    0.194E-01
DAV:   5    -0.102287481702E+03    0.42806E-03   -0.38809E-03  1400   0.970E-02    0.668E-02
DAV:   6    -0.102287525963E+03   -0.44261E-04   -0.63951E-05   888   0.139E-02
  25 F= -.10228753E+03 E0= -.10228753E+03  d E =-.762937E-01  mag=     1.0000
 curvature: -44.20 expect dE=-0.206E+00 dE for cont linesearch -0.940E-03
 trial: gam= 0.65109 g(F)=  0.467E-02 g(S)=  0.000E+00 ort =-0.585E-03 (trialstep = 0.207E+02)
 search vector abs. value=  0.107E-01
 bond charge predicted
       N       E                     dE             d eps       ncg     rms          rms(c)
DAV:   1    -0.102212213034E+03    0.75269E-01   -0.30681E+02  1344   0.260E+01    0.604E-01
DAV:   2    -0.102349550883E+03   -0.13734E+00   -0.13617E+00  1392   0.245E+00    0.609E-01
DAV:   3    -0.102347815715E+03    0.17352E-02   -0.21013E-02  1480   0.297E-01    0.465E-01
DAV:   4    -0.102343288792E+03    0.45269E-02   -0.56857E-03  1408   0.119E-01    0.276E-01
DAV:   5    -0.102342357530E+03    0.93126E-03   -0.71246E-03  1416   0.132E-01    0.940E-02
DAV:   6    -0.102342392102E+03   -0.34572E-04   -0.10137E-04   944   0.183E-02
  26 F= -.10234239E+03 E0= -.10234239E+03  d E =-.548661E-01  mag=     1.0000
 trial-energy change:   -0.054866  1 .order   -0.057744   -0.088606   -0.026881
 step:  40.6984(harm= 29.6572)  dis= 0.08192  next Energy=  -102.352803 (dE=-0.653E-01)
 bond charge predicted
       N       E                     dE             d eps       ncg     rms          rms(c)
DAV:   1    -0.102210149512E+03    0.13221E+00   -0.28854E+02  1344   0.252E+01    0.585E-01
DAV:   2    -0.102339487869E+03   -0.12934E+00   -0.12826E+00  1408   0.237E+00    0.582E-01
DAV:   3    -0.102337817284E+03    0.16706E-02   -0.19760E-02  1456   0.289E-01    0.442E-01
DAV:   4    -0.102333633594E+03    0.41837E-02   -0.52654E-03  1416   0.115E-01    0.262E-01
DAV:   5    -0.102332754912E+03    0.87868E-03   -0.65610E-03  1416   0.126E-01    0.889E-02
DAV:   6    -0.102332787322E+03   -0.32410E-04   -0.93986E-05   896   0.177E-02
  27 F= -.10233279E+03 E0= -.10233279E+03  d E =-.452614E-01  mag=     1.0000
 curvature:  18.76 expect dE= 0.112E+00 dE for cont linesearch  0.627E-02
 ZBRENT: interpolating
 opt :  28.8216  next Energy=  -102.347702 (dE=-0.602E-01)
 bond charge predicted
       N       E                     dE             d eps       ncg     rms          rms(c)
DAV:   1    -0.102303465355E+03    0.29290E-01   -0.10115E+02  1344   0.149E+01    0.345E-01
DAV:   2    -0.102348748716E+03   -0.45283E-01   -0.45017E-01  1408   0.140E+00    0.336E-01
DAV:   3    -0.102348103924E+03    0.64479E-03   -0.70098E-03  1480   0.173E-01    0.256E-01
DAV:   4    -0.102346650184E+03    0.14537E-02   -0.20252E-03  1408   0.705E-02    0.144E-01
DAV:   5    -0.102346487208E+03    0.16298E-03   -0.23548E-03  1416   0.756E-02    0.495E-02
DAV:   6    -0.102346512544E+03   -0.25337E-04   -0.50121E-05   904   0.121E-02
  28 F= -.10234651E+03 E0= -.10234651E+03  d E =-.589866E-01  mag=     1.0000
 curvature: -15.89 expect dE=-0.519E-01 dE for cont linesearch -0.962E-04
 trial: gam= 0.50183 g(F)=  0.327E-02 g(S)=  0.000E+00 ort =-0.255E-03 (trialstep = 0.223E+02)
 search vector abs. value=  0.571E-02
 bond charge predicted
       N       E                     dE             d eps       ncg     rms          rms(c)
DAV:   1    -0.102306697368E+03    0.39790E-01   -0.19005E+02  1344   0.205E+01    0.503E-01
DAV:   2    -0.102392699670E+03   -0.86002E-01   -0.85412E-01  1384   0.192E+00    0.463E-01
DAV:   3    -0.102391463560E+03    0.12361E-02   -0.12809E-02  1448   0.229E-01    0.347E-01
DAV:   4    -0.102388697011E+03    0.27665E-02   -0.44882E-03  1400   0.106E-01    0.176E-01
DAV:   5    -0.102388431028E+03    0.26598E-03   -0.30441E-03  1432   0.872E-02    0.633E-02
DAV:   6    -0.102388402086E+03    0.28942E-04   -0.85393E-05   856   0.157E-02
  29 F= -.10238840E+03 E0= -.10238840E+03  d E =-.418895E-01  mag=     1.0000
 trial-energy change:   -0.041890  1 .order   -0.042380   -0.069987   -0.014773
 step:  28.6955(harm= 28.2565)  dis= 0.04295  next Energy=  -102.390512 (dE=-0.440E-01)
 bond charge predicted
       N       E                     dE             d eps       ncg     rms          rms(c)
DAV:   1    -0.102383171294E+03    0.52597E-02   -0.15615E+01  1344   0.585E+00    0.140E-01
DAV:   2    -0.102390205672E+03   -0.70344E-02   -0.70034E-02  1408   0.549E-01    0.132E-01
DAV:   3    -0.102390117514E+03    0.88158E-04   -0.10175E-03  1424   0.648E-02    0.990E-02
DAV:   4    -0.102389910711E+03    0.20680E-03   -0.34182E-04  1112   0.301E-02    0.526E-02
DAV:   5    -0.102389913268E+03   -0.25562E-05   -0.31337E-04   984   0.301E-02
  30 F= -.10238991E+03 E0= -.10238991E+03  d E =-.434007E-01  mag=     1.0000
 curvature: -25.57 expect dE=-0.593E-01 dE for cont linesearch -0.247E-05
 trial: gam= 0.69802 g(F)=  0.232E-02 g(S)=  0.000E+00 ort =-0.235E-04 (trialstep = 0.236E+02)
 search vector abs. value=  0.507E-02
 bond charge predicted
       N       E                     dE             d eps       ncg     rms          rms(c)
DAV:   1    -0.102338697999E+03    0.51213E-01   -0.18855E+02  1344   0.203E+01    0.489E-01
DAV:   2    -0.102425004423E+03   -0.86306E-01   -0.85454E-01  1400   0.192E+00    0.449E-01
DAV:   3    -0.102423820329E+03    0.11841E-02   -0.12592E-02  1424   0.230E-01    0.338E-01
DAV:   4    -0.102421257316E+03    0.25630E-02   -0.38757E-03  1408   0.993E-02    0.181E-01
DAV:   5    -0.102420970143E+03    0.28717E-03   -0.34760E-03  1408   0.923E-02    0.624E-02
DAV:   6    -0.102420956866E+03    0.13276E-04   -0.88345E-05   864   0.159E-02
  31 F= -.10242096E+03 E0= -.10242096E+03  d E =-.310436E-01  mag=     1.0000
 trial-energy change:   -0.031044  1 .order   -0.032590   -0.054283   -0.010896
 step:  31.9039(harm= 29.4930)  dis= 0.04600  next Energy=  -102.422814 (dE=-0.329E-01)
 bond charge predicted
       N       E                     dE             d eps       ncg     rms          rms(c)
DAV:   1    -0.102411274850E+03    0.96953E-02   -0.23464E+01  1344   0.716E+00    0.167E-01
DAV:   2    -0.102421936498E+03   -0.10662E-01   -0.10589E-01  1400   0.675E-01    0.158E-01
DAV:   3    -0.102421804193E+03    0.13230E-03   -0.15483E-03  1432   0.807E-02    0.120E-01
DAV:   4    -0.102421500971E+03    0.30322E-03   -0.48249E-04  1376   0.352E-02    0.650E-02
DAV:   5    -0.102421488757E+03    0.12214E-04   -0.48841E-04  1392   0.350E-02
  32 F= -.10242149E+03 E0= -.10242149E+03  d E =-.315755E-01  mag=     1.0000
 curvature: -27.08 expect dE=-0.452E-01 dE for cont linesearch -0.230E-03
 trial: gam= 0.75660 g(F)=  0.167E-02 g(S)=  0.000E+00 ort =-0.207E-03 (trialstep = 0.252E+02)
 search vector abs. value=  0.426E-02
 bond charge predicted
       N       E                     dE             d eps       ncg     rms          rms(c)
DAV:   1    -0.102357843279E+03    0.63658E-01   -0.18168E+02  1344   0.199E+01    0.476E-01
DAV:   2    -0.102441690985E+03   -0.83848E-01   -0.83127E-01  1384   0.189E+00    0.427E-01
DAV:   3    -0.102440649294E+03    0.10417E-02   -0.12828E-02  1448   0.232E-01    0.318E-01
DAV:   4    -0.102438342415E+03    0.23069E-02   -0.31757E-03  1400   0.902E-02    0.176E-01
DAV:   5    -0.102437949995E+03    0.39242E-03   -0.35003E-03  1424   0.915E-02    0.567E-02
DAV:   6    -0.102437948773E+03    0.12224E-05   -0.77025E-05   856   0.149E-02
  33 F= -.10243795E+03 E0= -.10243795E+03  d E =-.164600E-01  mag=     1.0000
 trial-energy change:   -0.016460  1 .order   -0.017933   -0.038170    0.002305
 step:  23.4363(harm= 23.8017)  dis= 0.03647  next Energy=  -102.438032 (dE=-0.165E-01)
 bond charge predicted
       N       E                     dE             d eps       ncg     rms          rms(c)
DAV:   1    -0.102437775885E+03    0.17411E-03   -0.92762E-01  1392   0.142E+00    0.303E-02
DAV:   2    -0.102438216273E+03   -0.44039E-03   -0.41300E-03  1440   0.133E-01    0.320E-02
DAV:   3    -0.102438219149E+03   -0.28763E-05   -0.55357E-05   848   0.161E-02
  34 F= -.10243822E+03 E0= -.10243822E+03  d E =-.167304E-01  mag=     1.0000
 curvature: -31.34 expect dE=-0.248E-01 dE for cont linesearch -0.580E-04
 trial: gam= 0.26845 g(F)=  0.790E-03 g(S)=  0.000E+00 ort = 0.888E-04 (trialstep = 0.249E+02)
 search vector abs. value=  0.114E-02
 bond charge predicted
       N       E                     dE             d eps       ncg     rms          rms(c)
DAV:   1    -0.102429907097E+03    0.83092E-02   -0.47386E+01  1344   0.101E+01    0.255E-01
DAV:   2    -0.102451737601E+03   -0.21831E-01   -0.21651E-01  1376   0.967E-01    0.240E-01
DAV:   3    -0.102451513737E+03    0.22386E-03   -0.34249E-03  1456   0.121E-01    0.177E-01
DAV:   4    -0.102450881628E+03    0.63211E-03   -0.10049E-03  1408   0.507E-02    0.967E-02
DAV:   5    -0.102450830080E+03    0.51548E-04   -0.87753E-04  1416   0.467E-02
  35 F= -.10245083E+03 E0= -.10245083E+03  d E =-.126109E-01  mag=     1.0000
 trial-energy change:   -0.012611  1 .order   -0.013558   -0.020255   -0.006862
 step:  37.6247(harm= 37.6247)  dis= 0.03062  next Energy=  -102.453535 (dE=-0.153E-01)
 bond charge predicted
       N       E                     dE             d eps       ncg     rms          rms(c)
DAV:   1    -0.102446428017E+03    0.44536E-02   -0.12417E+01  1344   0.519E+00    0.135E-01
DAV:   2    -0.102452152939E+03   -0.57249E-02   -0.57124E-02  1384   0.495E-01    0.122E-01
DAV:   3    -0.102452108123E+03    0.44816E-04   -0.90180E-04  1456   0.619E-02
  36 F= -.10245211E+03 E0= -.10245211E+03  d E =-.138890E-01  mag=     1.0000
 curvature: -26.45 expect dE=-0.182E-01 dE for cont linesearch -0.585E-04
 trial: gam= 0.93723 g(F)=  0.689E-03 g(S)=  0.000E+00 ort =-0.503E-04 (trialstep = 0.196E+02)
 search vector abs. value=  0.160E-02
 bond charge predicted
       N       E                     dE             d eps       ncg     rms          rms(c)
DAV:   1    -0.102442693867E+03    0.94591E-02   -0.41181E+01  1344   0.947E+00    0.215E-01
DAV:   2    -0.102461166312E+03   -0.18472E-01   -0.18361E-01  1384   0.889E-01    0.223E-01
DAV:   3    -0.102460941457E+03    0.22486E-03   -0.27705E-03  1464   0.105E-01    0.176E-01
DAV:   4    -0.102460257499E+03    0.68396E-03   -0.96128E-04  1400   0.497E-02    0.100E-01
DAV:   5    -0.102460167843E+03    0.89656E-04   -0.11178E-03  1448   0.520E-02    0.381E-02
DAV:   6    -0.102460169850E+03   -0.20071E-05   -0.22835E-05   848   0.799E-03
  37 F= -.10246017E+03 E0= -.10246017E+03  d E =-.806173E-02  mag=     1.0000
 trial-energy change:   -0.008062  1 .order   -0.008564   -0.012592   -0.004537
 step:  30.6754(harm= 30.6754)  dis= 0.03254  next Energy=  -102.461950 (dE=-0.984E-02)
 bond charge predicted
       N       E                     dE             d eps       ncg     rms          rms(c)
DAV:   1    -0.102455551470E+03    0.46164E-02   -0.13034E+01  1344   0.532E+00    0.120E-01
DAV:   2    -0.102461477160E+03   -0.59257E-02   -0.58779E-02  1392   0.502E-01    0.118E-01
DAV:   3    -0.102461412822E+03    0.64338E-04   -0.89001E-04  1440   0.606E-02
  38 F= -.10246141E+03 E0= -.10246141E+03  d E =-.930470E-02  mag=     1.0000
 curvature: -38.25 expect dE=-0.189E-01 dE for cont linesearch -0.119E-08
 trial: gam= 0.60183 g(F)=  0.495E-03 g(S)=  0.000E+00 ort = 0.223E-06 (trialstep = 0.218E+02)
 search vector abs. value=  0.108E-02
 bond charge predicted
       N       E                     dE             d eps       ncg     rms          rms(c)
DAV:   1    -0.102453648327E+03    0.78288E-02   -0.34221E+01  1344   0.865E+00    0.207E-01
DAV:   2    -0.102468559269E+03   -0.14911E-01   -0.14949E-01  1376   0.801E-01    0.204E-01
DAV:   3    -0.102468285266E+03    0.27400E-03   -0.22243E-03  1472   0.930E-02    0.160E-01
DAV:   4    -0.102467660565E+03    0.62470E-03   -0.11347E-03  1424   0.527E-02    0.757E-02
DAV:   5    -0.102467636685E+03    0.23880E-04   -0.63213E-04  1440   0.403E-02
  39 F= -.10246764E+03 E0= -.10246764E+03  d E =-.622386E-02  mag=     1.0000
 trial-energy change:   -0.006224  1 .order   -0.007092   -0.010815   -0.003369
 step:  31.7127(harm= 31.7127)  dis= 0.03154  next Energy=  -102.469267 (dE=-0.785E-02)
 bond charge predicted
       N       E                     dE             d eps       ncg     rms          rms(c)
DAV:   1    -0.102464986048E+03    0.26745E-02   -0.69857E+00  1352   0.390E+00    0.979E-02
DAV:   2    -0.102468160368E+03   -0.31743E-02   -0.31440E-02  1400   0.366E-01    0.841E-02
DAV:   3    -0.102468133259E+03    0.27109E-04   -0.47420E-04  1400   0.439E-02
  40 F= -.10246813E+03 E0= -.10246813E+03  d E =-.672044E-02  mag=     1.0000
 curvature: -34.41 expect dE=-0.120E-01 dE for cont linesearch -0.287E-04
 trial: gam= 0.77444 g(F)=  0.348E-03 g(S)=  0.000E+00 ort =-0.299E-04 (trialstep = 0.238E+02)
 search vector abs. value=  0.946E-03
 bond charge predicted
       N       E                     dE             d eps       ncg     rms          rms(c)
DAV:   1    -0.102457651813E+03    0.10509E-01   -0.35821E+01  1344   0.884E+00    0.192E-01
DAV:   2    -0.102473479914E+03   -0.15828E-01   -0.15786E-01  1384   0.827E-01    0.200E-01
DAV:   3    -0.102473260767E+03    0.21915E-03   -0.24104E-03  1480   0.100E-01    0.157E-01
DAV:   4    -0.102472700631E+03    0.56014E-03   -0.66608E-04  1392   0.409E-02    0.931E-02
DAV:   5    -0.102472577005E+03    0.12363E-03   -0.10722E-03  1432   0.507E-02    0.329E-02
DAV:   6    -0.102472593703E+03   -0.16698E-04   -0.15656E-05   872   0.697E-03
  41 F= -.10247259E+03 E0= -.10247259E+03  d E =-.446044E-02  mag=     1.0000
 trial-energy change:   -0.004460  1 .order   -0.004886   -0.007726   -0.002046
 step:  32.3882(harm= 32.3882)  dis= 0.03476  next Energy=  -102.473388 (dE=-0.525E-02)
 bond charge predicted
       N       E                     dE             d eps       ncg     rms          rms(c)
DAV:   1    -0.102470805275E+03    0.17717E-02   -0.46375E+00  1360   0.318E+00    0.696E-02
DAV:   2    -0.102472896356E+03   -0.20911E-02   -0.20733E-02  1416   0.299E-01    0.686E-02
DAV:   3    -0.102472875006E+03    0.21351E-04   -0.29435E-04  1008   0.369E-02
  42 F= -.10247288E+03 E0= -.10247288E+03  d E =-.474175E-02  mag=     1.0000
 curvature: -47.22 expect dE=-0.121E-01 dE for cont linesearch -0.716E-03
 trial: gam= 0.00000 g(F)=  0.257E-03 g(S)=  0.000E+00 ort =-0.120E-03 (trialstep = 0.255E+02)
 search vector abs. value=  0.257E-03
 bond charge predicted
       N       E                     dE             d eps       ncg     rms          rms(c)
DAV:   1    -0.102469949509E+03    0.29468E-02   -0.11229E+01  1344   0.497E+00    0.156E-01
DAV:   2    -0.102474894221E+03   -0.49447E-02   -0.50488E-02  1384   0.463E-01    0.127E-01
DAV:   3    -0.102474826548E+03    0.67673E-04   -0.83977E-04  1480   0.571E-02
  43 F= -.10247483E+03 E0= -.10247483E+03  d E =-.195154E-02  mag=     1.0000
 trial-energy change:   -0.001952  1 .order   -0.002012   -0.006553    0.002529
 step:  18.4164(harm= 18.4164)  dis= 0.00534  next Energy=  -102.475239 (dE=-0.236E-02)
 bond charge predicted
       N       E                     dE             d eps       ncg     rms          rms(c)
DAV:   1    -0.102474678839E+03    0.21538E-03   -0.86496E-01  1384   0.138E+00    0.347E-02
DAV:   2    -0.102475086383E+03   -0.40754E-03   -0.39960E-03  1440   0.132E-01    0.243E-02
DAV:   3    -0.102475088196E+03   -0.18132E-05   -0.62915E-05   856   0.178E-02
  44 F= -.10247509E+03 E0= -.10247509E+03  d E =-.221319E-02  mag=     1.0000
 curvature:  -9.21 expect dE=-0.105E-02 dE for cont linesearch -0.467E-04
 trial: gam= 0.30286 g(F)=  0.114E-03 g(S)=  0.000E+00 ort = 0.361E-04 (trialstep = 0.241E+02)
 search vector abs. value=  0.159E-03
 bond charge predicted
       N       E                     dE             d eps       ncg     rms          rms(c)
DAV:   1    -0.102473946823E+03    0.11396E-02   -0.61766E+00  1344   0.369E+00    0.946E-02
DAV:   2    -0.102476727126E+03   -0.27803E-02   -0.27838E-02  1408   0.349E-01    0.898E-02
DAV:   3    -0.102476693962E+03    0.33164E-04   -0.43310E-04  1400   0.445E-02
  45 F= -.10247669E+03 E0= -.10247669E+03  d E =-.160577E-02  mag=     1.0000
 trial-energy change:   -0.001606  1 .order   -0.001647   -0.003007   -0.000288
 step:  26.6574(harm= 26.6574)  dis= 0.00748  next Energy=  -102.476751 (dE=-0.166E-02)
 bond charge predicted
       N       E                     dE             d eps       ncg     rms          rms(c)
DAV:   1    -0.102476624594E+03    0.10253E-03   -0.70937E-02  1392   0.397E-01    0.404E-02
DAV:   2    -0.102476637191E+03   -0.12597E-04   -0.23001E-04   848   0.346E-02
  46 F= -.10247664E+03 E0= -.10247664E+03  d E =-.154899E-02  mag=     1.0000
 curvature: -17.01 expect dE=-0.131E-02 dE for cont linesearch -0.167E-04
 trial: gam= 0.71258 g(F)=  0.769E-04 g(S)=  0.000E+00 ort =-0.125E-04 (trialstep = 0.246E+02)
 search vector abs. value=  0.140E-03
 bond charge predicted
       N       E                     dE             d eps       ncg     rms          rms(c)
DAV:   1    -0.102475649859E+03    0.97473E-03   -0.56583E+00  1352   0.352E+00    0.762E-02
DAV:   2    -0.102478204014E+03   -0.25542E-02   -0.25263E-02  1400   0.334E-01    0.813E-02
DAV:   3    -0.102478178150E+03    0.25865E-04   -0.39003E-04  1232   0.421E-02
  47 F= -.10247818E+03 E0= -.10247818E+03  d E =-.154096E-02  mag=     1.0000
 trial-energy change:   -0.001541  1 .order   -0.001150   -0.001673   -0.000626
 step:  39.3531(harm= 39.3531)  dis= 0.01451  next Energy=  -102.477974 (dE=-0.134E-02)
 bond charge predicted
       N       E                     dE             d eps       ncg     rms          rms(c)
DAV:   1    -0.102477747106E+03    0.45691E-03   -0.20354E+00  1344   0.211E+00    0.646E-02
DAV:   2    -0.102478568263E+03   -0.82116E-03   -0.85658E-03  1424   0.196E-01    0.670E-02
DAV:   3    -0.102478541721E+03    0.26542E-04   -0.11433E-04   864   0.226E-02
  48 F= -.10247854E+03 E0= -.10247854E+03  d E =-.190453E-02  mag=     1.0000
 curvature: -40.50 expect dE=-0.271E-02 dE for cont linesearch -0.401E-04
 trial: gam= 0.91547 g(F)=  0.669E-04 g(S)=  0.000E+00 ort =-0.118E-04 (trialstep = 0.237E+02)
 search vector abs. value=  0.163E-03
 bond charge predicted
       N       E                     dE             d eps       ncg     rms          rms(c)
DAV:   1    -0.102477143058E+03    0.14252E-02   -0.61195E+00  1344   0.366E+00    0.862E-02
DAV:   2    -0.102479856767E+03   -0.27137E-02   -0.27125E-02  1408   0.343E-01    0.878E-02
DAV:   3    -0.102479816777E+03    0.39989E-04   -0.38563E-04  1312   0.400E-02
  49 F= -.10247982E+03 E0= -.10247982E+03  d E =-.127506E-02  mag=     1.0000
 trial-energy change:   -0.001275  1 .order   -0.000991   -0.001331   -0.000652
 step:  46.4741(harm= 46.4741)  dis= 0.01498  next Energy=  -102.479846 (dE=-0.130E-02)
 bond charge predicted
       N       E                     dE             d eps       ncg     rms          rms(c)
DAV:   1    -0.102477518353E+03    0.23384E-02   -0.56339E+00  1344   0.351E+00    0.983E-02
DAV:   2    -0.102479928389E+03   -0.24100E-02   -0.24488E-02  1424   0.327E-01    0.971E-02
DAV:   3    -0.102479864406E+03    0.63983E-04   -0.32708E-04  1080   0.371E-02
  50 F= -.10247986E+03 E0= -.10247986E+03  d E =-.132269E-02  mag=     1.0000
 curvature: -67.33 expect dE=-0.137E-01 dE for cont linesearch -0.103E-02
 ZBRENT: interpolating
 opt :  31.8054  next Energy=  -102.479928 (dE=-0.139E-02)
 bond charge predicted
       N       E                     dE             d eps       ncg     rms          rms(c)
DAV:   1    -0.102478776722E+03    0.11517E-02   -0.23210E+00  1360   0.225E+00    0.477E-02
DAV:   2    -0.102479887371E+03   -0.11106E-02   -0.10744E-02  1416   0.216E-01    0.429E-02
DAV:   3    -0.102479881366E+03    0.60042E-05   -0.14568E-04   872   0.269E-02
  51 F= -.10247988E+03 E0= -.10247988E+03  d E =-.133965E-02  mag=     1.0000
 curvature:  -7.28 expect dE=-0.626E-03 dE for cont linesearch -0.134E-03
 trial: gam= 0.00000 g(F)=  0.860E-04 g(S)=  0.000E+00 ort = 0.547E-04 (trialstep = 0.253E+02)
 search vector abs. value=  0.860E-04
 bond charge predicted
       N       E                     dE             d eps       ncg     rms          rms(c)
DAV:   1    -0.102479194755E+03    0.69262E-03   -0.36863E+00  1344   0.284E+00    0.858E-02
DAV:   2    -0.102480869582E+03   -0.16748E-02   -0.16779E-02  1392   0.268E-01    0.653E-02
DAV:   3    -0.102480848344E+03    0.21238E-04   -0.24843E-04   880   0.345E-02
  52 F= -.10248085E+03 E0= -.10248085E+03  d E =-.966978E-03  mag=     1.0000
 trial-energy change:   -0.000967  1 .order   -0.000588   -0.002178    0.001001
 step:  17.3555(harm= 17.3555)  dis= 0.00511  next Energy=  -102.480627 (dE=-0.746E-03)
 bond charge predicted
       N       E                     dE             d eps       ncg     rms          rms(c)
DAV:   1    -0.102480560253E+03    0.30933E-03   -0.36050E-01  1376   0.887E-01    0.199E-02
DAV:   2    -0.102480737306E+03   -0.17705E-03   -0.16842E-03  1424   0.852E-02    0.163E-02
DAV:   3    -0.102480738073E+03   -0.76737E-06   -0.24740E-05   856   0.110E-02
  53 F= -.10248074E+03 E0= -.10248074E+03  d E =-.856707E-03  mag=     1.0000
 curvature:  -8.68 expect dE=-0.349E-03 dE for cont linesearch -0.149E-03
 trial: gam= 0.02159 g(F)=  0.403E-04 g(S)=  0.000E+00 ort = 0.384E-04 (trialstep = 0.237E+02)
 search vector abs. value=  0.419E-04
 reached required accuracy - stopping structural energy minimisation
Application 91084168 resources: utime ~180968s, stime ~919s, Rss ~77880, inblocks ~2111507, outblocks ~1406247
