   15   15 1000    2
  0.6337326E+03  0.2118357E-08  0.2118357E-08  0.2118357E-08  0.1000000E-15
  1.000000000000000E-004
  CAR 
 unknown system                          
    165      1    108
 
  0.0000000E+00  0.0000000E+00  0.0000000E+00  0.1000000E+01
    1       -9.435491     -9.411551
    2       -9.224033     -9.209526
    3       -9.124084     -9.108561
    4       -9.081698     -9.061459
    5       -9.039530     -9.025014
    6       -9.034349     -9.010700
    7       -8.964876     -8.945197
    8       -8.905736     -8.886466
    9       -8.880010     -8.864921
   10       -8.775794     -8.756423
   11       -8.714701     -8.688421
   12       -8.668202     -8.643283
   13       -8.615483     -8.595984
   14       -8.562663     -8.543823
   15       -8.529634     -8.509744
   16       -8.491272     -8.469575
   17       -8.468608     -8.450260
   18       -8.443379     -8.419348
   19       -8.352256     -8.329084
   20       -8.304214     -8.284979
   21       -8.265407     -8.244181
   22       -8.219290     -8.198886
   23       -8.202091     -8.180190
   24       -8.158646     -8.137788
   25       -8.099017     -8.083967
   26       -8.074293     -8.048724
   27       -8.032977     -8.013276
   28       -8.011683     -7.993347
   29       -7.921848     -7.903241
   30       -7.882394     -7.864365
   31       -7.799993     -7.785247
   32       -7.739848     -7.720817
   33       -7.697307     -7.680375
   34       -7.644056     -7.628331
   35       -7.620621     -7.605806
   36       -7.575404     -7.563081
   37       -7.493914     -7.475621
   38       -7.474427     -7.456417
   39       -7.455589     -7.437646
   40       -7.402905     -7.385571
   41       -7.374382     -7.357594
   42       -7.367121     -7.352315
   43       -7.316482     -7.300948
   44       -7.311672     -7.294220
   45       -7.285074     -7.270172
   46       -7.251569     -7.230958
   47       -7.240352     -7.221233
   48       -7.218625     -7.200231
   49       -7.173285     -7.152402
   50       -7.158728     -7.142350
   51       -7.146958     -7.128252
   52       -7.135528     -7.119640
   53       -7.110518     -7.094636
   54       -7.090579     -7.074016
   55       -7.083828     -7.071773
   56       -7.058003     -7.042595
   57       -7.039033     -7.021327
   58       -6.992233     -6.976725
   59       -6.980185     -6.964550
   60       -6.943456     -6.927533
   61       -6.927451     -6.909080
   62       -6.919274     -6.905411
   63       -6.881363     -6.862446
   64       -6.840274     -6.821551
   65       -6.798591     -6.784211
   66       -6.781915     -6.762880
   67       -6.757924     -6.741797
   68       -6.747319     -6.729784
   69       -6.722634     -6.706422
   70       -6.692671     -6.676863
   71       -6.654583     -6.634985
   72       -6.617738     -6.598931
   73       -6.607173     -6.593449
   74       -6.571722     -6.557984
   75       -6.536188     -6.517497
   76       -6.471125     -6.459991
   77       -6.452175     -6.420077
   78       -6.128602     -6.100063
   79       -5.317183     -5.243806
   80       -4.779339     -4.723588
   81       -4.527117     -4.481316
   82       -4.117487     -4.083800
   83       -3.779871     -3.613421
   84       -3.229894     -3.180149
   85       -2.795579     -2.741478
   86       -2.630955     -2.564920
   87       -2.426654     -2.362474
   88       -2.266737     -2.220816
   89       -1.975930     -1.943659
   90       -1.899961     -1.792847
   91       -1.546157     -1.455089
   92       -1.225833     -1.167870
   93       -1.103528     -1.037298
   94       -1.051689     -0.942731
   95       -0.731834     -0.678922
   96       -0.613304     -0.549307
   97       -0.558822     -0.521675
   98       -0.390954     -0.339844
   99       -0.226489     -0.153628
  100       -0.136845     -0.068626
  101        0.077603      0.165558
  102        0.223582      0.274934
  103        0.297985      0.337917
  104        0.462230      0.496936
  105        0.507337      0.539578
  106        0.521754      0.561223
  107        0.538578      0.572329
  108        0.618695      0.625215
