unknown system                          
           1
    17.897808    0.000000    0.000000
     0.000000   17.897808    0.000000
     0.000000    0.000000   17.897808
   Ag
   6
Direct configuration=     1
   0.67591505  0.69359692  0.79666990
   0.63428517  0.77245474  0.68308565
   0.60991609  0.62638040  0.68464304
   0.61743702  0.69449456  0.55994711
   0.61214412  0.54179526  0.55059576
   0.58976544  0.41646077  0.45882460
Direct configuration=     2
   0.67604607  0.69357870  0.79717405
   0.63427198  0.77278068  0.68312157
   0.60989213  0.62592201  0.68477353
   0.61736914  0.69454701  0.55920720
   0.61207537  0.54164673  0.55043913
   0.58980820  0.41670753  0.45905057
Direct configuration=     3
   0.67643914  0.69352402  0.79868649
   0.63423240  0.77375849  0.68322935
   0.60982025  0.62454683  0.68516501
   0.61716550  0.69470435  0.55698745
   0.61186913  0.54120114  0.54996925
   0.58993647  0.41744783  0.45972851
Direct configuration=     4
   0.67722529  0.69341468  0.80171137
   0.63415324  0.77571410  0.68344491
   0.60967649  0.62179648  0.68594795
   0.61675821  0.69501902  0.55254797
   0.61145665  0.54030997  0.54902948
   0.59019302  0.41892842  0.46108437
Direct configuration=     5
   0.67713399  0.69347355  0.80214050
   0.63412068  0.77516245  0.68348398
   0.61004600  0.62196443  0.68566057
   0.61658924  0.69487275  0.55214955
   0.61130649  0.54030805  0.54873851
   0.59026649  0.41940144  0.46159294
Direct configuration=     6
   0.67686009  0.69365015  0.80342791
   0.63402301  0.77350750  0.68360120
   0.61115451  0.62246825  0.68479841
   0.61608232  0.69443394  0.55095430
   0.61085603  0.54030232  0.54786558
   0.59048693  0.42082050  0.46311866
Direct configuration=     7
   0.67631229  0.69400337  0.80600273
   0.63382768  0.77019760  0.68383562
   0.61337154  0.62347591  0.68307409
   0.61506847  0.69355631  0.54856379
   0.60995511  0.54029085  0.54611974
   0.59092780  0.42365861  0.46617009
Direct configuration=     8
   0.67571911  0.69401380  0.80674886
   0.63385545  0.76899512  0.68374721
   0.61455469  0.62348340  0.68234964
   0.61460076  0.69324657  0.54769450
   0.60983683  0.54181046  0.54635900
   0.59089605  0.42363331  0.46686685
Direct configuration=     9
   0.67479576  0.69403002  0.80791029
   0.63389869  0.76712333  0.68360959
   0.61639640  0.62349506  0.68122194
   0.61387271  0.69276442  0.54634135
   0.60965272  0.54417591  0.54673143
   0.59084662  0.42359393  0.46795145
Direct configuration=    10
   0.67390423  0.69377944  0.80827077
   0.63410391  0.76734616  0.68322877
   0.61760904  0.62223812  0.68109061
   0.61347742  0.69354461  0.54566283
   0.60962392  0.54499905  0.54688123
   0.59074438  0.42327528  0.46863184
Direct configuration=    11
   0.67240289  0.69335746  0.80887781
   0.63444950  0.76772140  0.68258747
   0.61965112  0.62012145  0.68086945
   0.61281177  0.69485845  0.54452020
   0.60957541  0.54638521  0.54713351
   0.59057221  0.42273868  0.46977761
Direct configuration=    12
   0.67100664  0.69289406  0.80856760
   0.63473343  0.76731427  0.68205665
   0.62128574  0.61957753  0.68102750
   0.61246255  0.69655428  0.54466433
   0.60950247  0.54618754  0.54645551
   0.59047208  0.42265498  0.47099447
Direct configuration=    13
   0.66898035  0.69222156  0.80811741
   0.63514548  0.76672342  0.68128629
   0.62365793  0.61878818  0.68125686
   0.61195574  0.69901533  0.54487350
   0.60939662  0.54590067  0.54547159
   0.59032677  0.42253350  0.47276041
Direct configuration=    14
   0.66745392  0.69151861  0.80782391
   0.63541335  0.76605921  0.68081428
   0.62559746  0.61860786  0.68074505
   0.61157215  0.70004506  0.54553388
   0.60940561  0.54707783  0.54495245
   0.59002040  0.42187408  0.47389648
Direct configuration=    15
   0.66555461  0.69064395  0.80745871
   0.63574666  0.76523274  0.68022696
   0.62801079  0.61838349  0.68010822
   0.61109484  0.70132635  0.54635559
   0.60941681  0.54854255  0.54430650
   0.58963918  0.42105358  0.47531007
Direct configuration=    16
   0.66479541  0.69002355  0.80796720
   0.63609885  0.76559225  0.68067923
   0.62904944  0.61785445  0.67894237
   0.61075746  0.70104949  0.54617375
   0.60940625  0.54996092  0.54370748
   0.58935548  0.42070199  0.47629602
Direct configuration=    17
   0.66405121  0.68941540  0.80846565
   0.63644409  0.76594467  0.68112256
   0.63006756  0.61733586  0.67779956
   0.61042674  0.70077810  0.54599551
   0.60939590  0.55135127  0.54312029
   0.58907739  0.42035736  0.47726248
Direct configuration=    18
   0.66327103  0.68869093  0.80885423
   0.63688657  0.76600859  0.68186425
   0.63093910  0.61742323  0.67689621
   0.61021490  0.70085528  0.54573260
   0.60926989  0.55171409  0.54190700
   0.58888140  0.42049053  0.47851176
Direct configuration=    19
   0.66093051  0.68651751  0.81001999
   0.63821402  0.76620037  0.68408932
   0.63355369  0.61768535  0.67418614
   0.60957937  0.70108681  0.54494386
   0.60889186  0.55280257  0.53826715
   0.58829343  0.42089004  0.48225960
Direct configuration=    20
   0.65974901  0.68533210  0.80992071
   0.63883939  0.76547574  0.68450844
   0.63424852  0.61846416  0.67327133
   0.60971957  0.70259022  0.54514924
   0.60890764  0.55307224  0.53698405
   0.58799876  0.42024820  0.48393228
Direct configuration=    21
   0.65834738  0.68392585  0.80980293
   0.63958127  0.76461611  0.68500565
   0.63507280  0.61938805  0.67218608
   0.60988588  0.70437372  0.54539288
   0.60892637  0.55339215  0.53546190
   0.58764920  0.41948678  0.48591660
Direct configuration=    22
   0.65741259  0.68281171  0.80979906
   0.64009033  0.76468783  0.68518256
   0.63537475  0.61916775  0.67128126
   0.61015407  0.70571515  0.54551321
   0.60909086  0.55436279  0.53468144
   0.58734029  0.41843742  0.48730853
Direct configuration=    23
   0.65573884  0.68081685  0.80979211
   0.64100181  0.76481625  0.68549932
   0.63591538  0.61877330  0.66966117
   0.61063427  0.70811698  0.54572865
   0.60938538  0.55610073  0.53328401
   0.58678719  0.41655855  0.48980079
Direct configuration=    24
   0.65501662  0.67987737  0.80946524
   0.64137299  0.76513610  0.68591568
   0.63598065  0.61805039  0.66921469
   0.61097110  0.70908171  0.54554452
   0.60942923  0.55645684  0.53225264
   0.58669230  0.41658024  0.49137328
Direct configuration=    25
   0.65400983  0.67856772  0.80900957
   0.64189043  0.76558198  0.68649610
   0.63607164  0.61704266  0.66859230
   0.61144063  0.71042656  0.54528784
   0.60949036  0.55695327  0.53081489
   0.58656001  0.41661048  0.49356536
Direct configuration=    26
   0.65346550  0.67754694  0.80843174
   0.64209335  0.76523795  0.68676824
   0.63595186  0.61693912  0.66812773
   0.61187083  0.71087203  0.54519758
   0.60952326  0.55755224  0.52983713
   0.58655810  0.41703438  0.49540363
Direct configuration=    27
   0.65183249  0.67448460  0.80669825
   0.64270211  0.76420588  0.68758466
   0.63559254  0.61662849  0.66673404
   0.61316143  0.71220843  0.54492680
   0.60962194  0.55934916  0.52690386
   0.58655238  0.41830609  0.50091846
Direct configuration=    28
   0.64856648  0.66835991  0.80323127
   0.64391962  0.76214174  0.68921750
   0.63487389  0.61600724  0.66394664
   0.61574264  0.71488124  0.54438523
   0.60981931  0.56294300  0.52103730
   0.58654094  0.42084952  0.51194810
Direct configuration=    29
   0.64203446  0.65611055  0.79629731
   0.64635465  0.75801346  0.69248318
   0.63343659  0.61476473  0.65837186
   0.62090506  0.72022686  0.54330211
   0.61021406  0.57013069  0.50930420
   0.58651807  0.42593637  0.53400739
Direct configuration=    30
   0.64559774  0.66279269  0.80007985
   0.64502632  0.76026547  0.69070172
   0.63422065  0.61544253  0.66141296
   0.61808891  0.71731077  0.54389296
   0.60999872  0.56620974  0.51570472
   0.58653055  0.42316145  0.52197384
Direct configuration=    31
   0.64381610  0.65945162  0.79818858
   0.64569049  0.75913946  0.69159245
   0.63382862  0.61510363  0.65989241
   0.61949698  0.71876882  0.54359754
   0.61010639  0.56817021  0.51250446
   0.58652431  0.42454891  0.52799062
Direct configuration=    32
   0.64367829  0.65917629  0.79808174
   0.64574133  0.75906481  0.69164166
   0.63378730  0.61505587  0.65972683
   0.61960913  0.71888258  0.54357391
   0.61011967  0.56833586  0.51226756
   0.58652717  0.42466726  0.52847435
Direct configuration=    33
   0.64328636  0.65839329  0.79777791
   0.64588593  0.75885250  0.69178159
   0.63366979  0.61492002  0.65925594
   0.61992805  0.71920609  0.54350674
   0.61015745  0.56880692  0.51159384
   0.58653532  0.42500384  0.52985003
Direct configuration=    34
   0.64250249  0.65682729  0.79717025
   0.64617512  0.75842788  0.69206146
   0.63343477  0.61464834  0.65831415
   0.62056589  0.71985311  0.54337238
   0.61023300  0.56974905  0.51024642
   0.58655162  0.42567699  0.53260139
Direct configuration=    35
   0.64093477  0.65369530  0.79595493
   0.64675352  0.75757864  0.69262119
   0.63296474  0.61410498  0.65643059
   0.62184157  0.72114715  0.54310367
   0.61038409  0.57163331  0.50755157
   0.58658421  0.42702329  0.53810409
Direct configuration=    36
   0.63779932  0.64743131  0.79352429
   0.64791030  0.75588016  0.69374067
   0.63202467  0.61301825  0.65266346
   0.62439293  0.72373524  0.54256626
   0.61068628  0.57540182  0.50216186
   0.58664940  0.42971589  0.54910951
Direct configuration=    37
   0.63152841  0.63490332  0.78866301
   0.65022386  0.75248320  0.69597961
   0.63014454  0.61084480  0.64512921
   0.62949565  0.72891141  0.54149142
   0.61129066  0.58293884  0.49138245
   0.58677977  0.43510109  0.57112035
Direct configuration=    38
   0.62949457  0.63080270  0.78749297
   0.65093518  0.75125419  0.69645778
   0.62931924  0.60968676  0.64177663
   0.63118340  0.73045008  0.54123647
   0.61147325  0.58503147  0.48861886
   0.58705725  0.43795746  0.57818333
Direct configuration=    39
   0.62339303  0.61850081  0.78398285
   0.65306912  0.74756716  0.69789229
   0.62684336  0.60621263  0.63171890
   0.63624667  0.73506610  0.54047162
   0.61202101  0.59130937  0.48032811
   0.58788971  0.44652659  0.59937229
Direct configuration=    40
   0.62058832  0.61284598  0.78236934
   0.65405003  0.74587234  0.69855169
   0.62570527  0.60461567  0.62709564
   0.63857412  0.73718795  0.54012004
   0.61227280  0.59419515  0.47651708
   0.58827236  0.45046558  0.60911226
Direct configuration=    41
   0.61924843  0.61035104  0.78032988
   0.65422810  0.74361868  0.69843837
   0.62489668  0.60356282  0.62503214
   0.63981250  0.73751867  0.54038426
   0.61245793  0.59576875  0.47549347
   0.58881924  0.45436270  0.61408792
Direct configuration=    42
   0.61698472  0.60613588  0.77688425
   0.65452895  0.73981118  0.69824691
   0.62353060  0.60178405  0.62154591
   0.64190473  0.73807741  0.54083066
   0.61277072  0.59842732  0.47376412
   0.58974318  0.46094681  0.62249419
Direct configuration=    43
   0.61675886  0.60567138  0.77457303
   0.65417525  0.73769490  0.69766828
   0.62364223  0.60335073  0.62198492
   0.64218497  0.73710179  0.54151587
   0.61290126  0.59908772  0.47403784
   0.58980032  0.46227614  0.62398612
Direct configuration=    44
   0.61613484  0.60438800  0.76818733
   0.65319802  0.73184782  0.69606956
   0.62395064  0.60767932  0.62319784
   0.64295925  0.73440623  0.54340904
   0.61326193  0.60091235  0.47479410
   0.58995820  0.46594893  0.62810818
Direct configuration=    45
   0.61635594  0.60484271  0.77044980
   0.65354425  0.73391945  0.69663599
   0.62384137  0.60614569  0.62276810
   0.64268492  0.73536128  0.54273829
   0.61313414  0.60026588  0.47452615
   0.58990226  0.46464765  0.62664773
Direct configuration=    46
   0.61627944  0.60424705  0.76997970
   0.65362670  0.73410801  0.69678271
   0.62395660  0.60651480  0.62230010
   0.64268215  0.73501785  0.54275083
   0.61312722  0.60007680  0.47518584
   0.58979077  0.46521815  0.62676688
Direct configuration=    47
   0.61607942  0.60268944  0.76875041
   0.65384229  0.73460108  0.69716637
   0.62425793  0.60747999  0.62107633
   0.64267491  0.73411981  0.54278361
   0.61310911  0.59958237  0.47691088
   0.58949923  0.46670997  0.62707845
Direct configuration=    48
   0.61603032  0.60223191  0.76834734
   0.65389227  0.73470528  0.69730059
   0.62437475  0.60774969  0.62111828
   0.64270907  0.73404548  0.54275106
   0.61305862  0.59930279  0.47706797
   0.58939786  0.46714751  0.62718081
Direct configuration=    49
   0.61588453  0.60087349  0.76715060
   0.65404069  0.73501464  0.69769911
   0.62472159  0.60855045  0.62124285
   0.64281049  0.73382480  0.54265440
   0.61290870  0.59847272  0.47753438
   0.58909689  0.46844656  0.62748471
Direct configuration=    50
   0.61559295  0.59815665  0.76475713
   0.65433751  0.73563335  0.69849614
   0.62541529  0.61015197  0.62149198
   0.64301333  0.73338343  0.54246109
   0.61260885  0.59681259  0.47846720
   0.58849495  0.47104466  0.62809252
Direct configuration=    51
   0.61548184  0.59742803  0.76488233
   0.65436800  0.73570678  0.69875881
   0.62576548  0.61063163  0.62172701
   0.64318976  0.73387242  0.54216457
   0.61241402  0.59612001  0.47786863
   0.58824379  0.47142379  0.62836469
Direct configuration=    52
   0.61527911  0.59609868  0.76511076
   0.65442362  0.73584076  0.69923804
   0.62640439  0.61150676  0.62215581
   0.64351165  0.73476456  0.54162360
   0.61205854  0.59485642  0.47677657
   0.58778557  0.47211549  0.62886127
Direct configuration=    53
   0.61515762  0.59541315  0.76566636
   0.65440400  0.73589258  0.69957656
   0.62674841  0.61180677  0.62131888
   0.64365034  0.73508799  0.54125309
   0.61196309  0.59444151  0.47670120
   0.58753943  0.47254067  0.62924996
Direct configuration=    54
   0.61510493  0.59511583  0.76590732
   0.65439548  0.73591505  0.69972338
   0.62689761  0.61193689  0.62095590
   0.64371049  0.73522826  0.54109240
   0.61192169  0.59426156  0.47666852
   0.58743269  0.47272507  0.62941853
Direct configuration=    55
   0.61507051  0.59472055  0.76568642
   0.65427932  0.73569415  0.69995740
   0.62716482  0.61207447  0.62077713
   0.64380654  0.73543653  0.54079732
   0.61188519  0.59407016  0.47666250
   0.58725653  0.47318678  0.62988527
Direct configuration=    56
   0.61496722  0.59353474  0.76502373
   0.65393081  0.73503147  0.70065947
   0.62796644  0.61248721  0.62024084
   0.64409468  0.73606136  0.53991210
   0.61177569  0.59349597  0.47664443
   0.58672805  0.47457191  0.63128549
Direct configuration=    57
   0.61476066  0.59116310  0.76369834
   0.65323379  0.73370610  0.70206360
   0.62956968  0.61331270  0.61916824
   0.64467097  0.73731100  0.53814165
   0.61155668  0.59234760  0.47660830
   0.58567110  0.47734217  0.63408593
Direct configuration=    58
   0.61434753  0.58641982  0.76104755
   0.65183976  0.73105536  0.70487187
   0.63277617  0.61496366  0.61702306
   0.64582356  0.73981029  0.53460075
   0.61111868  0.59005084  0.47653603
   0.58355720  0.48288269  0.63968680
Direct configuration=    59
   0.61458260  0.58911869  0.76255582
   0.65263295  0.73256360  0.70327400
   0.63095171  0.61402428  0.61824364
   0.64516775  0.73838822  0.53661548
   0.61136790  0.59135767  0.47657715
   0.58475998  0.47973020  0.63649997
Direct configuration=    60
   0.61456356  0.58893653  0.76242862
   0.65258843  0.73248418  0.70336414
   0.63108615  0.61414875  0.61816174
   0.64520083  0.73843739  0.53652424
   0.61135249  0.59128462  0.47655590
   0.58467144  0.47989120  0.63673141
Direct configuration=    61
   0.61450643  0.58839004  0.76204705
   0.65245488  0.73224592  0.70363456
   0.63148945  0.61452216  0.61791604
   0.64530006  0.73858491  0.53625051
   0.61130627  0.59106546  0.47649216
   0.58440580  0.48037417  0.63742573
Direct configuration=    62
   0.61439218  0.58729706  0.76128389
   0.65218777  0.73176941  0.70417541
   0.63229606  0.61526897  0.61742464
   0.64549853  0.73887994  0.53570307
   0.61121382  0.59062715  0.47636468
   0.58387452  0.48134013  0.63881436
Direct configuration=    63
   0.61416369  0.58511110  0.75975759
   0.65165357  0.73081638  0.70525712
   0.63390927  0.61676261  0.61644183
   0.64589548  0.73947000  0.53460818
   0.61102893  0.58975053  0.47610972
   0.58281196  0.48327203  0.64159163
Direct configuration=    64
   0.61426548  0.58608491  0.76043754
   0.65189155  0.73124094  0.70477523
   0.63319061  0.61609721  0.61687965
   0.64571864  0.73920714  0.53509594
   0.61111130  0.59014106  0.47622330
   0.58328531  0.48241140  0.64035439
Direct configuration=    65
   0.61425909  0.58613678  0.76038111
   0.65194578  0.73141304  0.70475011
   0.63317711  0.61612368  0.61686577
   0.64567580  0.73903092  0.53524584
   0.61111950  0.59020837  0.47614537
   0.58328561  0.48226987  0.64037786
Direct configuration=    66
   0.61423993  0.58629237  0.76021182
   0.65210847  0.73192933  0.70467475
   0.63313659  0.61620306  0.61682410
   0.64554726  0.73850227  0.53569555
   0.61114413  0.59041033  0.47591159
   0.58328651  0.48184529  0.64044824
Direct configuration=    67
   0.61420161  0.58660356  0.75987323
   0.65243386  0.73296191  0.70452403
   0.63305557  0.61636184  0.61674078
   0.64529017  0.73744497  0.53659498
   0.61119337  0.59081425  0.47544402
   0.58328831  0.48099613  0.64058901
Direct configuration=    68
   0.61415558  0.58666091  0.75954908
   0.65257789  0.73333272  0.70441259
   0.63295622  0.61593708  0.61692326
   0.64519711  0.73730127  0.53682828
   0.61122177  0.59101447  0.47518267
   0.58335432  0.48093622  0.64087017
Direct configuration=    69
   0.61410857  0.58671948  0.75921802
   0.65272499  0.73371142  0.70429878
   0.63285476  0.61550328  0.61710962
   0.64510206  0.73715450  0.53706655
   0.61125077  0.59121895  0.47491576
   0.58342173  0.48087503  0.64115733
Direct configuration=    70
   0.61404011  0.58670449  0.75920356
   0.65278736  0.73373332  0.70406491
   0.63286137  0.61533544  0.61695050
   0.64504328  0.73716575  0.53719247
   0.61130725  0.59144807  0.47484379
   0.58342352  0.48079558  0.64151082
Direct configuration=    71
   0.61383472  0.58665953  0.75916019
   0.65297446  0.73379904  0.70336328
   0.63288121  0.61483191  0.61647316
   0.64486693  0.73719951  0.53757023
   0.61147668  0.59213544  0.47462789
   0.58342889  0.48055722  0.64257130
Direct configuration=    72
   0.61342393  0.58656960  0.75907344
   0.65334867  0.73393048  0.70196004
   0.63292089  0.61382486  0.61551847
   0.64451424  0.73726702  0.53832576
   0.61181555  0.59351018  0.47419608
   0.58343962  0.48008052  0.64469227
Direct configuration=    73
   0.61260236  0.58638975  0.75889994
   0.65409707  0.73419336  0.69915355
   0.63300024  0.61181076  0.61360909
   0.64380885  0.73740204  0.53983683
   0.61249329  0.59625966  0.47333246
   0.58346108  0.47912710  0.64893419
Direct configuration=    74
   0.61266545  0.58653525  0.75876155
   0.65406408  0.73403840  0.69915203
   0.63301937  0.61176229  0.61416049
   0.64382034  0.73749629  0.53980836
   0.61244328  0.59632132  0.47289007
   0.58345038  0.47902911  0.64899355
Direct configuration=    75
   0.61278491  0.58681074  0.75849951
   0.65400160  0.73374499  0.69914915
   0.63305558  0.61167051  0.61520455
   0.64384209  0.73767474  0.53975447
   0.61234859  0.59643809  0.47205244
   0.58343013  0.47884359  0.64910593
Direct configuration=    76
   0.61282887  0.58693221  0.75855249
   0.65398139  0.73365701  0.69919594
   0.63305168  0.61166897  0.61515993
   0.64383722  0.73762987  0.53975678
   0.61235650  0.59660467  0.47193418
   0.58340723  0.47868993  0.64916673
Direct configuration=    77
   0.61296076  0.58729661  0.75871144
   0.65392076  0.73339308  0.69933632
   0.63303997  0.61166436  0.61502608
   0.64382262  0.73749526  0.53976369
   0.61238024  0.59710441  0.47157939
   0.58333855  0.47822895  0.64934914
Direct configuration=    78
   0.61322452  0.58802542  0.75902934
   0.65379949  0.73286520  0.69961707
   0.63301656  0.61165513  0.61475838
   0.64379342  0.73722603  0.53977751
   0.61242772  0.59810389  0.47086982
   0.58320119  0.47730699  0.64971394
Direct configuration=    79
   0.61326128  0.58807560  0.75887068
   0.65379487  0.73282929  0.69969298
   0.63284937  0.61118443  0.61485136
   0.64380863  0.73734778  0.53975111
   0.61244417  0.59832077  0.47071993
   0.58330456  0.47742478  0.64987999
Direct configuration=    80
   0.61329947  0.58812772  0.75870591
   0.65379008  0.73279200  0.69977183
   0.63267574  0.61069559  0.61494793
   0.64382442  0.73747423  0.53972369
   0.61246126  0.59854601  0.47056426
   0.58341193  0.47754712  0.65005243
Direct configuration=    81
   0.61334670  0.58821842  0.75866476
   0.65376917  0.73265714  0.69978577
   0.63255100  0.61053975  0.61473379
   0.64382676  0.73743493  0.53982280
   0.61250500  0.59890526  0.47039323
   0.58346425  0.47742717  0.65036570
Direct configuration=    82
   0.61348842  0.58849052  0.75854133
   0.65370645  0.73225256  0.69982758
   0.63217679  0.61007222  0.61409138
   0.64383378  0.73731704  0.54012011
   0.61263623  0.59998300  0.46988015
   0.58362123  0.47706731  0.65130550
Direct configuration=    83
   0.61377185  0.58903473  0.75829447
   0.65358100  0.73144340  0.69991120
   0.63142837  0.60913716  0.61280655
   0.64384780  0.73708127  0.54071475
   0.61289868  0.60213850  0.46885399
   0.58393519  0.47634761  0.65318510
Direct configuration=    84
   0.61433871  0.59012315  0.75780076
   0.65333011  0.72982508  0.70007844
   0.62993152  0.60726703  0.61023688
   0.64387586  0.73660971  0.54190402
   0.61342360  0.60644948  0.46680166
   0.58456310  0.47490821  0.65694429
Direct configuration=    85
   0.61436399  0.59016520  0.75776247
   0.65332131  0.72975431  0.70007411
   0.62986358  0.60717032  0.61018361
   0.64388158  0.73661725  0.54196240
   0.61344094  0.60662942  0.46666520
   0.58459148  0.47484616  0.65711825
Direct configuration=    86
   0.61443985  0.59029136  0.75764763
   0.65329492  0.72954203  0.70006112
   0.62965976  0.60688019  0.61002381
   0.64389874  0.73663985  0.54213756
   0.61349299  0.60716922  0.46625580
   0.58467662  0.47466001  0.65764014
Direct configuration=    87
   0.61459157  0.59054367  0.75741793
   0.65324215  0.72911745  0.70003512
   0.62925213  0.60629994  0.60970420
   0.64393306  0.73668506  0.54248788
   0.61359708  0.60824883  0.46543701
   0.58484690  0.47428771  0.65868390
Direct configuration=    88
   0.61489500  0.59104829  0.75695855
   0.65313659  0.72826829  0.69998314
   0.62843686  0.60513944  0.60906499
   0.64400171  0.73677548  0.54318852
   0.61380527  0.61040805  0.46379943
   0.58518747  0.47354311  0.66077143
Direct configuration=    89
   0.61550187  0.59205753  0.75603977
   0.65292548  0.72656999  0.69987916
   0.62680631  0.60281843  0.60778656
   0.64413900  0.73695631  0.54458980
   0.61422163  0.61472648  0.46052427
   0.58586860  0.47205392  0.66494649
Direct configuration=    90
   0.61547465  0.59184092  0.75604409
   0.65302309  0.72671819  0.69970071
   0.62664478  0.60261620  0.60769607
   0.64417194  0.73709843  0.54484543
   0.61423399  0.61498020  0.46015648
   0.58591444  0.47192872  0.66532328
Direct configuration=    91
   0.61541230  0.59134465  0.75605397
   0.65324672  0.72705775  0.69929186
   0.62627468  0.60215286  0.60748876
   0.64424742  0.73742403  0.54543110
   0.61426230  0.61556150  0.45931382
   0.58601946  0.47164187  0.66618654
Direct configuration=    92
   0.61537601  0.59118940  0.75610185
   0.65333495  0.72721601  0.69920386
   0.62626632  0.60227688  0.60739129
   0.64423362  0.73741884  0.54547682
   0.61426511  0.61547721  0.45942263
   0.58598688  0.47160432  0.66616961
Direct configuration=    93
   0.61531214  0.59091620  0.75618610
   0.65349021  0.72749450  0.69904901
   0.62625160  0.60249512  0.60721978
   0.64420934  0.73740971  0.54555726
   0.61427006  0.61532889  0.45961410
   0.58592954  0.47153824  0.66613980
Direct configuration=    94
   0.61529734  0.59075897  0.75612317
   0.65360352  0.72761807  0.69894632
   0.62615968  0.60243524  0.60734370
   0.64421330  0.73753835  0.54563754
   0.61426460  0.61530537  0.45951044
   0.58592446  0.47152667  0.66620487
Direct configuration=    95
   0.61528231  0.59059940  0.75605932
   0.65371851  0.72774348  0.69884211
   0.62606639  0.60237447  0.60746945
   0.64421732  0.73766888  0.54571901
   0.61425906  0.61528150  0.45940525
   0.58591930  0.47151493  0.66627091
