 running on   32 total cores
 distrk:  each k-point on   32 cores,    1 groups
 distr:  one band on    8 cores,    4 groups
 using from now: INCAR     
 vasp.5.3.5 31Mar14 (build Feb 01 2018 12:10:03) gamma-only                     
  
 POSCAR found type information on POSCAR  Ag
 POSCAR found :  1 types and      18 ions
 scaLAPACK will be used

 ----------------------------------------------------------------------------- 
|                                                                             |
|  ADVICE TO THIS USER RUNNING 'VASP/VAMP'   (HEAR YOUR MASTER'S VOICE ...):  |
|                                                                             |
|      You have a (more or less) 'large supercell' and for larger cells       |
|      it might be more efficient to use real space projection opertators     |
|      So try LREAL= Auto  in the INCAR   file.                               |
|      Mind: At the moment your POTCAR file does not contain real space       |
|       projectors, and has to be modified,  BUT if you                       |
|      want to do an extremely  accurate calculation you might also keep the  |
|      reciprocal projection scheme          (i.e. LREAL=.FALSE.)             |
|                                                                             |
 ----------------------------------------------------------------------------- 

 LDA part: xc-table for Pade appr. of Perdew
 POSCAR, INCAR and KPOINTS ok, starting setup
 WARNING: small aliasing (wrap around) errors must be expected
 FFT: planning ...
 WAVECAR not read
 entering main loop
       N       E                     dE             d eps       ncg     rms          rms(c)
DAV:   1     0.172973735242E+04    0.17297E+04   -0.32325E+04   528   0.562E+02
DAV:   2     0.568891143282E+03   -0.11608E+04   -0.10223E+04   904   0.117E+02
DAV:   3     0.150892166949E+02   -0.55380E+03   -0.51023E+03   720   0.910E+01
DAV:   4    -0.337893573147E+02   -0.48879E+02   -0.47275E+02   576   0.301E+01
DAV:   5    -0.347717861026E+02   -0.98243E+00   -0.98126E+00   560   0.493E+00    0.238E+01
DAV:   6    -0.600443453481E+01    0.28767E+02   -0.86758E+01   520   0.164E+01    0.115E+01
DAV:   7    -0.906951380022E+01   -0.30651E+01   -0.38308E+00   544   0.656E+00    0.766E+00
DAV:   8    -0.133994012693E+01    0.77296E+01   -0.25636E+00   560   0.649E+00    0.413E+00
DAV:   9    -0.764721798001E+01   -0.63073E+01   -0.20656E+00   552   0.280E+00    0.257E+00
DAV:  10    -0.154073069014E+02   -0.77601E+01   -0.25403E+00   528   0.318E+00    0.199E+00
DAV:  11    -0.228669993905E+02   -0.74597E+01   -0.32476E+00   552   0.285E+00    0.250E+00
DAV:  12    -0.234085080245E+02   -0.54151E+00   -0.11458E-01   624   0.720E-01    0.221E+00
DAV:  13    -0.254179920079E+02   -0.20095E+01   -0.47934E-01   528   0.131E+00    0.186E+00
DAV:  14    -0.295618478639E+02   -0.41439E+01   -0.18852E+00   520   0.226E+00    0.971E-01
DAV:  15    -0.315320499653E+02   -0.19702E+01   -0.59538E-01   544   0.106E+00    0.629E-01
DAV:  16    -0.327531053780E+02   -0.12211E+01   -0.26273E-01   552   0.788E-01    0.429E-01
DAV:  17    -0.338350086646E+02   -0.10819E+01   -0.13057E-01   512   0.603E-01    0.224E-01
DAV:  18    -0.342236975891E+02   -0.38869E+00   -0.19539E-02   560   0.223E-01    0.136E-01
DAV:  19    -0.344510370871E+02   -0.22734E+00   -0.53541E-03   544   0.146E-01    0.801E-02
DAV:  20    -0.345396271406E+02   -0.88590E-01   -0.37618E-03   544   0.861E-02    0.447E-02
DAV:  21    -0.345560525850E+02   -0.16425E-01   -0.61887E-04   400   0.378E-02    0.233E-02
DAV:  22    -0.345593543593E+02   -0.33018E-02   -0.48961E-04   360   0.287E-02    0.149E-02
DAV:  23    -0.345601322949E+02   -0.77794E-03   -0.22475E-04   392   0.186E-02    0.115E-02
DAV:  24    -0.345616963501E+02   -0.15641E-02   -0.87970E-05   384   0.120E-02    0.726E-03
DAV:  25    -0.345633731309E+02   -0.16768E-02   -0.52360E-05   392   0.984E-03    0.433E-03
DAV:  26    -0.345643740491E+02   -0.10009E-02   -0.16767E-05   336   0.912E-03    0.272E-03
DAV:  27    -0.345646185821E+02   -0.24453E-03   -0.70281E-06   360   0.477E-03    0.165E-03
DAV:  28    -0.345646182899E+02    0.29229E-06   -0.24500E-06   368   0.285E-03
   1 F= -.34564618E+02 E0= -.34564618E+02  d E =-.345646E+02  mag=     0.0005
 curvature:   0.00 expect dE= 0.000E+00 dE for cont linesearch  0.000E+00
 trial: gam= 0.00000 g(F)=  0.276E-02 g(S)=  0.000E+00 ort = 0.000E+00 (trialstep = 0.100E+01)
 search vector abs. value=  0.276E-02
 bond charge predicted
       N       E                     dE             d eps       ncg     rms          rms(c)
DAV:   1    -0.345672405693E+02   -0.26220E-02   -0.18718E-01   544   0.104E+00    0.333E-02
DAV:   2    -0.345673588879E+02   -0.11832E-03   -0.89876E-04   560   0.992E-02    0.233E-02
DAV:   3    -0.345673772856E+02   -0.18398E-04   -0.15790E-05   320   0.125E-02
   2 F= -.34567377E+02 E0= -.34567377E+02  d E =-.275900E-02  mag=     0.0002
 ZBRENT: can't locate minimum, use default step
 trial-energy change:   -0.002759  1 .order   -0.002642   -0.002760   -0.002523
 step:   4.0000(harm= 11.6524)  dis= 0.00611  next Energy=   -34.580699 (dE=-0.161E-01)
 bond charge predicted
       N       E                     dE             d eps       ncg     rms          rms(c)
DAV:   1    -0.345736103282E+02   -0.62514E-02   -0.16874E+00   544   0.312E+00    0.993E-02
DAV:   2    -0.345743949349E+02   -0.78461E-03   -0.80976E-03   560   0.297E-01    0.690E-02
DAV:   3    -0.345743797167E+02    0.15218E-04   -0.13754E-04   320   0.368E-02
   3 F= -.34574380E+02 E0= -.34574380E+02  d E =-.976143E-02  mag=     0.0001
 curvature:  -2.82 expect dE=-0.373E-02 dE for cont linesearch -0.363E-02
 ZBRENT: increasing intervall
 opt :  10.0000  next Energy=   -34.581858 (dE=-0.172E-01)
 bond charge predicted
       N       E                     dE             d eps       ncg     rms          rms(c)
DAV:   1    -0.345807013499E+02   -0.63064E-02   -0.67567E+00   512   0.624E+00    0.192E-01
DAV:   2    -0.345838192795E+02   -0.31179E-02   -0.32361E-02   552   0.595E-01    0.136E-01
DAV:   3    -0.345837637197E+02    0.55560E-04   -0.58772E-04   560   0.725E-02
   4 F= -.34583764E+02 E0= -.34583764E+02  d E =-.191454E-01  mag=     0.0001
 curvature:  -5.81 expect dE=-0.338E-02 dE for cont linesearch -0.223E-02
 ZBRENT: increasing intervall
 opt :  22.0000  next Energy=   -34.585849 (dE=-0.212E-01)
 bond charge predicted
       N       E                     dE             d eps       ncg     rms          rms(c)
DAV:   1    -0.345730829006E+02    0.10736E-01   -0.27008E+01   512   0.125E+01    0.357E-01
DAV:   2    -0.345856371004E+02   -0.12554E-01   -0.12927E-01   544   0.119E+00    0.264E-01
DAV:   3    -0.345854522170E+02    0.18488E-03   -0.22755E-03   576   0.143E-01    0.171E-01
DAV:   4    -0.345853150092E+02    0.13721E-03   -0.98641E-04   560   0.866E-02    0.275E-02
DAV:   5    -0.345853019360E+02    0.13073E-04   -0.35088E-05   336   0.230E-02
   5 F= -.34585302E+02 E0= -.34585302E+02  d E =-.206836E-01  mag=     0.0000
 curvature:  -5.43 expect dE=-0.574E-02 dE for cont linesearch -0.105E-02
 ZBRENT: bracketing found
 ZBRENT: interpolating
 opt :  17.0233  next Energy=   -34.587117 (dE=-0.225E-01)
 bond charge predicted
       N       E                     dE             d eps       ncg     rms          rms(c)
DAV:   1    -0.345851596437E+02    0.15537E-03   -0.46433E+00   512   0.517E+00    0.154E-01
DAV:   2    -0.345873524546E+02   -0.21928E-02   -0.22385E-02   560   0.495E-01    0.103E-01
DAV:   3    -0.345873214178E+02    0.31037E-04   -0.41423E-04   512   0.606E-02
   6 F= -.34587321E+02 E0= -.34587321E+02  d E =-.227031E-01  mag=     0.0000
 curvature:  -9.42 expect dE=-0.505E-02 dE for cont linesearch -0.172E-04
 trial: gam= 0.16871 g(F)=  0.537E-03 g(S)=  0.000E+00 ort = 0.709E-04 (trialstep = 0.420E+01)
 search vector abs. value=  0.639E-03
 bond charge predicted
       N       E                     dE             d eps       ncg     rms          rms(c)
DAV:   1    -0.345890092248E+02   -0.16568E-02   -0.75818E-01   544   0.209E+00    0.438E-02
DAV:   2    -0.345893672191E+02   -0.35799E-03   -0.36488E-03   560   0.204E-01    0.360E-02
DAV:   3    -0.345893628142E+02    0.44049E-05   -0.55935E-05   304   0.264E-02
   7 F= -.34589363E+02 E0= -.34589363E+02  d E =-.204140E-02  mag=     0.0000
 trial-energy change:   -0.002041  1 .order   -0.001953   -0.002306   -0.001601
 step:  13.7379(harm= 13.7379)  dis= 0.01176  next Energy=   -34.591089 (dE=-0.377E-02)
 bond charge predicted
       N       E                     dE             d eps       ncg     rms          rms(c)
DAV:   1    -0.345906279143E+02   -0.12607E-02   -0.39183E+00   512   0.475E+00    0.101E-01
DAV:   2    -0.345925102686E+02   -0.18824E-02   -0.18862E-02   560   0.462E-01    0.834E-02
DAV:   3    -0.345924972109E+02    0.13058E-04   -0.29018E-04   368   0.589E-02
   8 F= -.34592497E+02 E0= -.34592497E+02  d E =-.517579E-02  mag=     0.0000
 curvature:  -8.00 expect dE=-0.122E-02 dE for cont linesearch -0.157E-03
 trial: gam= 0.04622 g(F)=  0.153E-03 g(S)=  0.000E+00 ort = 0.112E-03 (trialstep = 0.611E+01)
 search vector abs. value=  0.165E-03
 bond charge predicted
       N       E                     dE             d eps       ncg     rms          rms(c)
DAV:   1    -0.345932616594E+02   -0.75139E-03   -0.41560E-01   544   0.155E+00    0.378E-02
DAV:   2    -0.345934589653E+02   -0.19731E-03   -0.19365E-03   560   0.147E-01    0.278E-02
DAV:   3    -0.345934589929E+02   -0.27623E-07   -0.28717E-05   304   0.177E-02
   9 F= -.34593459E+02 E0= -.34593459E+02  d E =-.961782E-03  mag=     0.0000
 ZBRENT: can't locate minimum, use default step
 trial-energy change:   -0.000962  1 .order   -0.000851   -0.000965   -0.000736
 step:  24.4452(harm= 25.7489)  dis= 0.00997  next Energy=   -34.594531 (dE=-0.203E-02)
 bond charge predicted
       N       E                     dE             d eps       ncg     rms          rms(c)
DAV:   1    -0.345932322384E+02    0.22673E-03   -0.37214E+00   512   0.464E+00    0.112E-01
DAV:   2    -0.345949867396E+02   -0.17545E-02   -0.17603E-02   560   0.441E-01    0.759E-02
DAV:   3    -0.345949649678E+02    0.21772E-04   -0.26439E-04   368   0.547E-02
  10 F= -.34594965E+02 E0= -.34594965E+02  d E =-.246776E-02  mag=     0.0000
 curvature: -13.35 expect dE=-0.242E-02 dE for cont linesearch -0.118E-03
 trial: gam= 0.00000 g(F)=  0.182E-03 g(S)=  0.000E+00 ort =-0.381E-04 (trialstep = 0.886E+01)
 search vector abs. value=  0.182E-03
 bond charge predicted
       N       E                     dE             d eps       ncg     rms          rms(c)
DAV:   1    -0.345954326913E+02   -0.44595E-03   -0.96176E-01   544   0.235E+00    0.599E-02
DAV:   2    -0.345958744722E+02   -0.44178E-03   -0.45427E-03   544   0.223E-01    0.448E-02
DAV:   3    -0.345958690314E+02    0.54408E-05   -0.73618E-05   320   0.276E-02
  11 F= -.34595869E+02 E0= -.34595869E+02  d E =-.904064E-03  mag=     0.0000
 trial-energy change:   -0.000904  1 .order   -0.000828   -0.001609   -0.000048
 step:   9.1293(harm=  9.1293)  dis= 0.00385  next Energy=   -34.595794 (dE=-0.829E-03)
 bond charge predicted
       N       E                     dE             d eps       ncg     rms          rms(c)
DAV:   1    -0.345958766362E+02   -0.21640E-05   -0.11369E-03   536   0.827E-02    0.851E-03
DAV:   2    -0.345958771833E+02   -0.54708E-06   -0.98152E-06   304   0.967E-03
  12 F= -.34595877E+02 E0= -.34595877E+02  d E =-.912215E-03  mag=     0.0000
 curvature:  -4.56 expect dE=-0.355E-03 dE for cont linesearch -0.255E-04
 trial: gam= 0.25242 g(F)=  0.777E-04 g(S)=  0.000E+00 ort = 0.318E-04 (trialstep = 0.891E+01)
 search vector abs. value=  0.105E-03
 reached required accuracy - stopping structural energy minimisation
Application 90932548 resources: utime ~5619s, stime ~58s, Rss ~78484, inblocks ~81351, outblocks ~150453
