14
Energy = -96.31556462 eV
Ru 9.072447819196357 9.106514555917855 7.825160861666008
Ru 11.614219705669443 9.176824672687717 7.920879994168807
Ru 6.536759312610421 9.179099467637908 8.006443387795704
Ru 10.406413233472062 11.267944501821209 7.961569485622847
Ru 7.743424630091834 11.278808238042526 8.008205025794402
Ru 10.291355214320452 6.865042633693845 7.923441721321138
Ru 7.869364078694029 6.869883726517281 7.9630677524869515
Ru 9.102591293714115 10.598457888680498 9.901397816276628
Ru 11.572584402985147 10.506658436572144 10.055377107725949
Ru 6.636332023515048 10.511904397350394 10.1313775813894
Ru 10.413698168886485 8.327708189952897 9.857425386678527
Ru 7.804507244768895 8.335325877193464 9.89993078027735
Ru 9.108777906589188 6.22964990557517 10.050684279887514
Ru 9.169340981124622 9.087993508357615 11.836854834546228
