15
Energy = -103.46289662 eV
Ru 10.202468747617724 8.550838794704728 6.478378108732439
Ru 8.224428387147517 8.003479909109132 5.10946974399679
Ru 10.236262856156364 6.572384549421704 4.9474411913061775
Ru 7.884587745590977 9.026641020737939 7.3531641641157215
Ru 8.153282042436123 5.860842756644588 6.073346163974281
Ru 10.134440341172176 6.403190155331447 7.4293043394306215
Ru 6.162422618998078 7.443735389570643 6.544583230283967
Ru 5.631296193118 9.482328514464756 8.171327925267315
Ru 5.581810700698885 7.295898282884892 9.141635409817988
Ru 7.807700873426125 6.875298656393 8.317865535168949
Ru 9.718860288793543 8.369069158740219 8.946581620928297
Ru 7.697020959665485 10.604570930504313 9.215293795749671
Ru 7.604710984841863 7.095742757302777 10.74710839521827
Ru 6.240053074777719 9.165688619235912 10.613828847247662
Ru 8.717458759696143 9.247095079091114 10.907476102899025
