11
Energy = -71.81807065 eV
Ru 10.149683670145478 11.799154616938306 12.824858996645284
Ru 11.689296736258546 13.175387630927753 13.778340203551275
Ru 10.456702633905246 9.596318744198998 11.529139911200986
Ru 12.893044666583819 13.226003257043484 11.854036177659204
Ru 11.425689124016374 11.910388655586795 10.743563153753584
Ru 12.64065336607945 9.835954066457028 10.321488720346979
Ru 12.632648538452571 9.959531356988471 8.00672983536533
Ru 10.577304251285414 10.236937690692706 9.04316150820772
Ru 12.405626072640406 10.850555382745442 12.748576019875932
Ru 8.90371696926377 11.395918593649073 10.665412245184722
Ru 8.515891874485007 9.207505176028933 10.149265137315856
