11
Energy = -70.84015065 eV
Ru 10.838661804733768 10.976631980190456 16.85434712528568
Ru 10.258406494008062 11.668586776826245 10.907578860645348
Ru 11.600194161006032 10.553903753574666 12.686819781775398
Ru 13.28507944859412 12.028122384369937 9.0105471137773
Ru 13.410611749762001 11.465114355522148 11.282703873730046
Ru 10.923263412577972 12.228235057192192 8.742158757646662
Ru 10.513733489606349 12.74819254513205 13.071148823672615
Ru 12.908979946382411 12.620680751395914 13.35882594288751
Ru 11.963801009529867 13.329788719339662 10.900869419292965
Ru 11.846876331436903 10.096660891646827 10.036658806801658
Ru 11.603250314759325 11.316276090719922 14.954475690356482
