4
Energy = -20.43946363 eV
Ru 10.21129166149689 10.431817278433748 11.584724037415521
Ru 13.446432188340767 10.770292292524045 10.576304729046374
Ru 11.523160222003423 10.809327297037 9.861000357926276
Ru 8.38166126696966 11.040388971400587 10.61500795381269
