4
Energy = -20.66740741 eV
Ru 9.474974134643542 9.279362535135537 8.943227979415651
Ru 9.193339994017993 9.370487894911975 6.918070552431683
Ru 10.003506582411958 8.781273600674353 11.656787211259902
Ru 9.427674571061882 10.672790954983194 10.660704313941089
