9
Energy = -58.60552234 eV
Ru 9.729146985741245 10.268244558211533 8.694382682722102
Ru 10.239730568324852 7.612111842320371 8.88390559359539
Ru 6.902148337210712 8.168684231781683 8.902074091817697
Ru 7.64619155532621 9.613107228129255 7.03938481075589
Ru 8.371123745696694 6.977611605700672 7.4316333835584425
Ru 8.308099440301289 6.353238906861191 9.807326124992779
Ru 7.353729230188436 10.587547774209684 9.265664476347903
Ru 8.684765530210536 8.746323226075116 10.319350555424828
Ru 9.87304239474477 8.781107495419674 6.764255280785215
