  29  29   0   0
  0.3773609E+03  0.2220164E-08  0.2220164E-08  0.2220164E-08  0.1000000E-15
  1.000000000000000E-004
  CAR 
 unknown system                          
      1.53382671    -10.00635756  301     -3.49577026      1.00000000
    -10.006  0.0000E+00  0.0000E+00  0.0000E+00  0.0000E+00
     -9.968  0.0000E+00  0.0000E+00  0.0000E+00  0.0000E+00
     -9.929  0.0000E+00  0.0000E+00  0.0000E+00  0.0000E+00
     -9.891  0.0000E+00  0.0000E+00  0.0000E+00  0.0000E+00
     -9.852  0.0000E+00  0.0000E+00  0.0000E+00  0.0000E+00
     -9.814  0.0000E+00  0.0000E+00  0.0000E+00  0.0000E+00
     -9.776  0.0000E+00  0.0000E+00  0.0000E+00  0.0000E+00
     -9.737  0.0000E+00  0.0000E+00  0.0000E+00  0.0000E+00
     -9.699  0.0000E+00  0.0000E+00  0.0000E+00  0.0000E+00
     -9.660  0.0000E+00  0.0000E+00  0.0000E+00  0.0000E+00
     -9.622  0.0000E+00  0.0000E+00  0.0000E+00  0.0000E+00
     -9.583  0.0000E+00  0.0000E+00  0.0000E+00  0.0000E+00
     -9.545  0.0000E+00  0.0000E+00  0.0000E+00  0.0000E+00
     -9.506  0.0000E+00  0.0000E+00  0.0000E+00  0.0000E+00
     -9.468  0.0000E+00  0.0000E+00  0.1000E-02  0.0000E+00
     -9.429  0.0000E+00  0.0000E+00  0.1000E-02  0.1000E-02
     -9.391  0.0000E+00  0.0000E+00  0.1000E-02  0.1000E-02
     -9.352  0.0000E+00  0.0000E+00  0.1000E-02  0.1000E-02
     -9.314  0.0000E+00  0.0000E+00  0.1000E-02  0.1000E-02
     -9.275  0.0000E+00  0.0000E+00  0.1000E-02  0.1000E-02
     -9.237  0.0000E+00  0.0000E+00  0.1000E-02  0.1000E-02
     -9.199  0.0000E+00  0.0000E+00  0.1000E-02  0.1000E-02
     -9.160  0.0000E+00  0.0000E+00  0.2000E-02  0.2000E-02
     -9.122  0.0000E+00  0.0000E+00  0.3000E-02  0.3000E-02
     -9.083  0.0000E+00  0.0000E+00  0.4000E-02  0.4000E-02
     -9.045  0.0000E+00  0.0000E+00  0.5000E-02  0.4000E-02
     -9.006  0.0000E+00  0.4171E-07  0.6000E-02  0.5000E-02
     -8.968  0.0000E+00  0.0000E+00  0.6000E-02  0.6000E-02
     -8.929  0.2600E-01  0.0000E+00  0.7000E-02  0.6000E-02
     -8.891  0.0000E+00  0.0000E+00  0.7000E-02  0.7000E-02
     -8.852  0.0000E+00  0.0000E+00  0.8000E-02  0.7000E-02
     -8.814  0.0000E+00  0.0000E+00  0.9000E-02  0.8000E-02
     -8.775  0.0000E+00  0.4356E-08  0.1100E-01  0.1000E-01
     -8.737  0.0000E+00  0.0000E+00  0.1200E-01  0.1200E-01
     -8.698  0.0000E+00  0.0000E+00  0.1200E-01  0.1200E-01
     -8.660  0.0000E+00  0.0000E+00  0.1300E-01  0.1300E-01
     -8.622  0.0000E+00  0.0000E+00  0.1500E-01  0.1500E-01
     -8.583  0.0000E+00  0.0000E+00  0.1600E-01  0.1600E-01
     -8.545  0.0000E+00  0.0000E+00  0.1800E-01  0.1700E-01
     -8.506  0.0000E+00  0.0000E+00  0.2000E-01  0.1900E-01
     -8.468  0.0000E+00  0.0000E+00  0.2200E-01  0.2100E-01
     -8.429  0.0000E+00  0.0000E+00  0.2200E-01  0.2200E-01
     -8.391  0.0000E+00  0.0000E+00  0.2400E-01  0.2300E-01
     -8.352  0.0000E+00  0.0000E+00  0.2500E-01  0.2400E-01
     -8.314  0.2600E-01  0.0000E+00  0.2700E-01  0.2600E-01
     -8.275  0.0000E+00  0.0000E+00  0.2700E-01  0.2700E-01
     -8.237  0.0000E+00  0.0000E+00  0.3100E-01  0.3000E-01
     -8.198  0.0000E+00  0.0000E+00  0.3200E-01  0.3200E-01
     -8.160  0.0000E+00  0.0000E+00  0.3500E-01  0.3500E-01
     -8.121  0.0000E+00  0.0000E+00  0.3700E-01  0.3600E-01
     -8.083  0.0000E+00  0.0000E+00  0.3900E-01  0.3900E-01
     -8.045  0.0000E+00  0.0000E+00  0.4000E-01  0.4000E-01
     -8.006  0.0000E+00  0.0000E+00  0.4200E-01  0.4200E-01
     -7.968  0.0000E+00  0.0000E+00  0.4300E-01  0.4200E-01
     -7.929  0.0000E+00  0.0000E+00  0.4500E-01  0.4400E-01
     -7.891  0.0000E+00  0.0000E+00  0.4600E-01  0.4500E-01
     -7.852  0.0000E+00  0.0000E+00  0.4900E-01  0.4800E-01
     -7.814  0.0000E+00  0.0000E+00  0.5100E-01  0.5100E-01
     -7.775  0.0000E+00  0.0000E+00  0.5300E-01  0.5200E-01
     -7.737  0.0000E+00  0.0000E+00  0.5500E-01  0.5400E-01
     -7.698  0.0000E+00  0.0000E+00  0.5700E-01  0.5600E-01
     -7.660  0.0000E+00  0.0000E+00  0.5800E-01  0.5800E-01
     -7.621  0.0000E+00  0.0000E+00  0.5900E-01  0.5900E-01
     -7.583  0.2514E-01  0.0000E+00  0.6297E-01  0.6200E-01
     -7.544  0.0000E+00  0.0000E+00  0.6300E-01  0.6300E-01
     -7.506  0.0000E+00  0.0000E+00  0.6600E-01  0.6600E-01
     -7.468  0.0000E+00  0.0000E+00  0.6700E-01  0.6700E-01
     -7.429  0.0000E+00  0.0000E+00  0.6900E-01  0.6900E-01
     -7.391  0.0000E+00  0.0000E+00  0.6900E-01  0.6900E-01
     -7.352  0.0000E+00  0.0000E+00  0.7100E-01  0.7100E-01
     -7.314  0.0000E+00  0.0000E+00  0.7300E-01  0.7300E-01
     -7.275  0.0000E+00  0.0000E+00  0.7500E-01  0.7500E-01
     -7.237  0.0000E+00  0.0000E+00  0.7700E-01  0.7700E-01
     -7.198  0.0000E+00  0.0000E+00  0.7900E-01  0.7900E-01
     -7.160  0.0000E+00  0.0000E+00  0.8200E-01  0.8100E-01
     -7.121  0.0000E+00  0.0000E+00  0.8500E-01  0.8400E-01
     -7.083  0.0000E+00  0.0000E+00  0.8700E-01  0.8700E-01
     -7.044  0.0000E+00  0.0000E+00  0.9000E-01  0.9000E-01
     -7.006  0.0000E+00  0.0000E+00  0.9200E-01  0.9200E-01
     -6.967  0.0000E+00  0.1096E-01  0.9400E-01  0.9342E-01
     -6.929  0.2600E-01  0.0000E+00  0.9800E-01  0.9700E-01
     -6.891  0.0000E+00  0.0000E+00  0.1010E+00  0.1000E+00
     -6.852  0.1435E-10  0.0000E+00  0.1040E+00  0.1040E+00
     -6.814  0.0000E+00  0.0000E+00  0.1070E+00  0.1060E+00
     -6.775  0.0000E+00  0.2600E-01  0.1100E+00  0.1090E+00
     -6.737  0.0000E+00  0.0000E+00  0.1140E+00  0.1130E+00
     -6.698  0.0000E+00  0.0000E+00  0.1170E+00  0.1160E+00
     -6.660  0.0000E+00  0.0000E+00  0.1200E+00  0.1180E+00
     -6.621  0.0000E+00  0.0000E+00  0.1230E+00  0.1220E+00
     -6.583  0.2075E-01  0.0000E+00  0.1248E+00  0.1240E+00
     -6.544  0.0000E+00  0.0000E+00  0.1280E+00  0.1270E+00
     -6.506  0.0000E+00  0.0000E+00  0.1300E+00  0.1300E+00
     -6.467  0.5344E-02  0.0000E+00  0.1332E+00  0.1330E+00
     -6.429  0.0000E+00  0.0000E+00  0.1360E+00  0.1350E+00
     -6.390  0.0000E+00  0.0000E+00  0.1370E+00  0.1370E+00
     -6.352  0.0000E+00  0.0000E+00  0.1400E+00  0.1400E+00
     -6.313  0.0000E+00  0.0000E+00  0.1420E+00  0.1420E+00
     -6.275  0.0000E+00  0.0000E+00  0.1450E+00  0.1440E+00
     -6.237  0.0000E+00  0.0000E+00  0.1460E+00  0.1460E+00
     -6.198  0.0000E+00  0.0000E+00  0.1470E+00  0.1470E+00
     -6.160  0.0000E+00  0.0000E+00  0.1470E+00  0.1470E+00
     -6.121  0.0000E+00  0.0000E+00  0.1490E+00  0.1480E+00
     -6.083  0.0000E+00  0.0000E+00  0.1490E+00  0.1490E+00
     -6.044  0.0000E+00  0.0000E+00  0.1490E+00  0.1490E+00
     -6.006  0.0000E+00  0.0000E+00  0.1490E+00  0.1490E+00
     -5.967  0.0000E+00  0.0000E+00  0.1490E+00  0.1490E+00
     -5.929  0.0000E+00  0.0000E+00  0.1490E+00  0.1490E+00
     -5.890  0.0000E+00  0.0000E+00  0.1490E+00  0.1490E+00
     -5.852  0.0000E+00  0.0000E+00  0.1490E+00  0.1490E+00
     -5.813  0.0000E+00  0.0000E+00  0.1490E+00  0.1490E+00
     -5.775  0.0000E+00  0.0000E+00  0.1500E+00  0.1500E+00
     -5.736  0.0000E+00  0.0000E+00  0.1500E+00  0.1500E+00
     -5.698  0.0000E+00  0.0000E+00  0.1510E+00  0.1510E+00
     -5.660  0.0000E+00  0.0000E+00  0.1510E+00  0.1510E+00
     -5.621  0.0000E+00  0.0000E+00  0.1510E+00  0.1510E+00
     -5.583  0.0000E+00  0.0000E+00  0.1510E+00  0.1510E+00
     -5.544  0.0000E+00  0.0000E+00  0.1510E+00  0.1510E+00
     -5.506  0.0000E+00  0.0000E+00  0.1510E+00  0.1510E+00
     -5.467  0.0000E+00  0.0000E+00  0.1510E+00  0.1510E+00
     -5.429  0.0000E+00  0.0000E+00  0.1510E+00  0.1510E+00
     -5.390  0.0000E+00  0.0000E+00  0.1510E+00  0.1510E+00
     -5.352  0.0000E+00  0.0000E+00  0.1510E+00  0.1510E+00
     -5.313  0.0000E+00  0.2600E-01  0.1520E+00  0.1520E+00
     -5.275  0.0000E+00  0.0000E+00  0.1530E+00  0.1520E+00
     -5.236  0.0000E+00  0.0000E+00  0.1530E+00  0.1530E+00
     -5.198  0.0000E+00  0.0000E+00  0.1530E+00  0.1530E+00
     -5.159  0.0000E+00  0.0000E+00  0.1530E+00  0.1530E+00
     -5.121  0.0000E+00  0.0000E+00  0.1530E+00  0.1530E+00
     -5.083  0.0000E+00  0.0000E+00  0.1530E+00  0.1530E+00
     -5.044  0.0000E+00  0.0000E+00  0.1530E+00  0.1530E+00
     -5.006  0.0000E+00  0.0000E+00  0.1530E+00  0.1530E+00
     -4.967  0.0000E+00  0.0000E+00  0.1530E+00  0.1530E+00
     -4.929  0.0000E+00  0.0000E+00  0.1530E+00  0.1530E+00
     -4.890  0.0000E+00  0.0000E+00  0.1530E+00  0.1530E+00
     -4.852  0.0000E+00  0.0000E+00  0.1530E+00  0.1530E+00
     -4.813  0.0000E+00  0.0000E+00  0.1540E+00  0.1530E+00
     -4.775  0.0000E+00  0.0000E+00  0.1540E+00  0.1540E+00
     -4.736  0.0000E+00  0.0000E+00  0.1540E+00  0.1540E+00
     -4.698  0.0000E+00  0.0000E+00  0.1540E+00  0.1540E+00
     -4.659  0.0000E+00  0.0000E+00  0.1540E+00  0.1540E+00
     -4.621  0.0000E+00  0.0000E+00  0.1540E+00  0.1540E+00
     -4.582  0.0000E+00  0.0000E+00  0.1540E+00  0.1540E+00
     -4.544  0.0000E+00  0.0000E+00  0.1540E+00  0.1540E+00
     -4.506  0.0000E+00  0.0000E+00  0.1540E+00  0.1540E+00
     -4.467  0.0000E+00  0.0000E+00  0.1550E+00  0.1550E+00
     -4.429  0.0000E+00  0.0000E+00  0.1550E+00  0.1550E+00
     -4.390  0.0000E+00  0.0000E+00  0.1550E+00  0.1550E+00
     -4.352  0.0000E+00  0.0000E+00  0.1560E+00  0.1550E+00
     -4.313  0.0000E+00  0.0000E+00  0.1560E+00  0.1560E+00
     -4.275  0.0000E+00  0.0000E+00  0.1560E+00  0.1560E+00
     -4.236  0.0000E+00  0.0000E+00  0.1560E+00  0.1560E+00
     -4.198  0.0000E+00  0.0000E+00  0.1560E+00  0.1560E+00
     -4.159  0.0000E+00  0.0000E+00  0.1570E+00  0.1560E+00
     -4.121  0.0000E+00  0.0000E+00  0.1570E+00  0.1570E+00
     -4.082  0.0000E+00  0.0000E+00  0.1570E+00  0.1570E+00
     -4.044  0.0000E+00  0.0000E+00  0.1570E+00  0.1570E+00
     -4.005  0.0000E+00  0.0000E+00  0.1570E+00  0.1570E+00
     -3.967  0.0000E+00  0.0000E+00  0.1580E+00  0.1570E+00
     -3.929  0.0000E+00  0.0000E+00  0.1580E+00  0.1580E+00
     -3.890  0.0000E+00  0.0000E+00  0.1580E+00  0.1580E+00
     -3.852  0.0000E+00  0.0000E+00  0.1590E+00  0.1580E+00
     -3.813  0.0000E+00  0.0000E+00  0.1590E+00  0.1590E+00
     -3.775  0.0000E+00  0.0000E+00  0.1590E+00  0.1590E+00
     -3.736  0.0000E+00  0.0000E+00  0.1590E+00  0.1590E+00
     -3.698  0.0000E+00  0.0000E+00  0.1590E+00  0.1590E+00
     -3.659  0.0000E+00  0.0000E+00  0.1590E+00  0.1590E+00
     -3.621  0.0000E+00  0.0000E+00  0.1590E+00  0.1590E+00
     -3.582  0.0000E+00  0.0000E+00  0.1590E+00  0.1590E+00
     -3.544  0.0000E+00  0.0000E+00  0.1590E+00  0.1590E+00
     -3.505  0.0000E+00  0.0000E+00  0.1600E+00  0.1590E+00
     -3.467  0.0000E+00  0.0000E+00  0.1600E+00  0.1590E+00
     -3.428  0.0000E+00  0.0000E+00  0.1600E+00  0.1590E+00
     -3.390  0.0000E+00  0.0000E+00  0.1610E+00  0.1600E+00
     -3.352  0.0000E+00  0.0000E+00  0.1610E+00  0.1610E+00
     -3.313  0.0000E+00  0.0000E+00  0.1610E+00  0.1610E+00
     -3.275  0.0000E+00  0.0000E+00  0.1610E+00  0.1610E+00
     -3.236  0.0000E+00  0.0000E+00  0.1610E+00  0.1610E+00
     -3.198  0.0000E+00  0.0000E+00  0.1610E+00  0.1610E+00
     -3.159  0.0000E+00  0.0000E+00  0.1610E+00  0.1610E+00
     -3.121  0.0000E+00  0.0000E+00  0.1610E+00  0.1610E+00
     -3.082  0.0000E+00  0.0000E+00  0.1610E+00  0.1610E+00
     -3.044  0.0000E+00  0.0000E+00  0.1610E+00  0.1610E+00
     -3.005  0.0000E+00  0.0000E+00  0.1610E+00  0.1610E+00
     -2.967  0.0000E+00  0.0000E+00  0.1610E+00  0.1610E+00
     -2.928  0.0000E+00  0.0000E+00  0.1610E+00  0.1610E+00
     -2.890  0.0000E+00  0.0000E+00  0.1610E+00  0.1610E+00
     -2.851  0.0000E+00  0.0000E+00  0.1620E+00  0.1610E+00
     -2.813  0.0000E+00  0.0000E+00  0.1630E+00  0.1620E+00
     -2.775  0.0000E+00  0.0000E+00  0.1630E+00  0.1630E+00
     -2.736  0.0000E+00  0.0000E+00  0.1630E+00  0.1630E+00
     -2.698  0.0000E+00  0.0000E+00  0.1630E+00  0.1630E+00
     -2.659  0.0000E+00  0.0000E+00  0.1630E+00  0.1630E+00
     -2.621  0.0000E+00  0.0000E+00  0.1640E+00  0.1630E+00
     -2.582  0.0000E+00  0.0000E+00  0.1640E+00  0.1640E+00
     -2.544  0.0000E+00  0.0000E+00  0.1640E+00  0.1640E+00
     -2.505  0.0000E+00  0.0000E+00  0.1640E+00  0.1640E+00
     -2.467  0.0000E+00  0.0000E+00  0.1650E+00  0.1640E+00
     -2.428  0.0000E+00  0.0000E+00  0.1650E+00  0.1650E+00
     -2.390  0.0000E+00  0.0000E+00  0.1650E+00  0.1650E+00
     -2.351  0.0000E+00  0.0000E+00  0.1660E+00  0.1650E+00
     -2.313  0.0000E+00  0.0000E+00  0.1660E+00  0.1660E+00
     -2.274  0.0000E+00  0.0000E+00  0.1660E+00  0.1660E+00
     -2.236  0.0000E+00  0.0000E+00  0.1660E+00  0.1660E+00
     -2.197  0.0000E+00  0.0000E+00  0.1660E+00  0.1660E+00
     -2.159  0.0000E+00  0.0000E+00  0.1680E+00  0.1670E+00
     -2.121  0.0000E+00  0.0000E+00  0.1680E+00  0.1680E+00
     -2.082  0.0000E+00  0.0000E+00  0.1680E+00  0.1680E+00
     -2.044  0.0000E+00  0.0000E+00  0.1680E+00  0.1680E+00
     -2.005  0.0000E+00  0.0000E+00  0.1690E+00  0.1680E+00
     -1.967  0.0000E+00  0.0000E+00  0.1690E+00  0.1690E+00
     -1.928  0.0000E+00  0.0000E+00  0.1700E+00  0.1690E+00
     -1.890  0.0000E+00  0.0000E+00  0.1700E+00  0.1700E+00
     -1.851  0.0000E+00  0.0000E+00  0.1700E+00  0.1700E+00
     -1.813  0.0000E+00  0.0000E+00  0.1700E+00  0.1700E+00
     -1.774  0.0000E+00  0.0000E+00  0.1700E+00  0.1700E+00
     -1.736  0.0000E+00  0.0000E+00  0.1710E+00  0.1700E+00
     -1.697  0.0000E+00  0.0000E+00  0.1710E+00  0.1710E+00
     -1.659  0.0000E+00  0.0000E+00  0.1710E+00  0.1710E+00
     -1.620  0.0000E+00  0.0000E+00  0.1710E+00  0.1710E+00
     -1.582  0.0000E+00  0.0000E+00  0.1720E+00  0.1710E+00
     -1.544  0.0000E+00  0.0000E+00  0.1720E+00  0.1710E+00
     -1.505  0.0000E+00  0.0000E+00  0.1720E+00  0.1720E+00
     -1.467  0.0000E+00  0.0000E+00  0.1730E+00  0.1720E+00
     -1.428  0.0000E+00  0.0000E+00  0.1730E+00  0.1730E+00
     -1.390  0.0000E+00  0.0000E+00  0.1730E+00  0.1730E+00
     -1.351  0.0000E+00  0.0000E+00  0.1730E+00  0.1730E+00
     -1.313  0.0000E+00  0.0000E+00  0.1740E+00  0.1730E+00
     -1.274  0.0000E+00  0.0000E+00  0.1750E+00  0.1740E+00
     -1.236  0.0000E+00  0.0000E+00  0.1750E+00  0.1750E+00
     -1.197  0.0000E+00  0.0000E+00  0.1750E+00  0.1750E+00
     -1.159  0.0000E+00  0.0000E+00  0.1750E+00  0.1750E+00
     -1.120  0.0000E+00  0.0000E+00  0.1750E+00  0.1750E+00
     -1.082  0.0000E+00  0.0000E+00  0.1760E+00  0.1750E+00
     -1.043  0.0000E+00  0.0000E+00  0.1760E+00  0.1760E+00
     -1.005  0.0000E+00  0.0000E+00  0.1770E+00  0.1760E+00
     -0.967  0.0000E+00  0.0000E+00  0.1770E+00  0.1770E+00
     -0.928  0.0000E+00  0.0000E+00  0.1770E+00  0.1770E+00
     -0.890  0.1154E-01  0.0000E+00  0.1774E+00  0.1770E+00
     -0.851  0.0000E+00  0.0000E+00  0.1790E+00  0.1780E+00
     -0.813  0.0000E+00  0.0000E+00  0.1790E+00  0.1790E+00
     -0.774  0.0000E+00  0.0000E+00  0.1790E+00  0.1790E+00
     -0.736  0.0000E+00  0.0000E+00  0.1790E+00  0.1790E+00
     -0.697  0.0000E+00  0.0000E+00  0.1800E+00  0.1790E+00
     -0.659  0.0000E+00  0.0000E+00  0.1800E+00  0.1800E+00
     -0.620  0.0000E+00  0.0000E+00  0.1800E+00  0.1800E+00
     -0.582  0.0000E+00  0.0000E+00  0.1800E+00  0.1800E+00
     -0.543  0.0000E+00  0.0000E+00  0.1810E+00  0.1800E+00
     -0.505  0.0000E+00  0.0000E+00  0.1810E+00  0.1810E+00
     -0.466  0.0000E+00  0.0000E+00  0.1810E+00  0.1810E+00
     -0.428  0.0000E+00  0.0000E+00  0.1820E+00  0.1810E+00
     -0.390  0.0000E+00  0.0000E+00  0.1830E+00  0.1820E+00
     -0.351  0.0000E+00  0.0000E+00  0.1830E+00  0.1830E+00
     -0.313  0.0000E+00  0.0000E+00  0.1840E+00  0.1830E+00
     -0.274  0.0000E+00  0.0000E+00  0.1840E+00  0.1840E+00
     -0.236  0.0000E+00  0.0000E+00  0.1850E+00  0.1840E+00
     -0.197  0.0000E+00  0.2597E-01  0.1850E+00  0.1850E+00
     -0.159  0.0000E+00  0.0000E+00  0.1860E+00  0.1850E+00
     -0.120  0.0000E+00  0.0000E+00  0.1860E+00  0.1860E+00
     -0.082  0.0000E+00  0.0000E+00  0.1870E+00  0.1860E+00
     -0.043  0.0000E+00  0.0000E+00  0.1880E+00  0.1870E+00
     -0.005  0.0000E+00  0.0000E+00  0.1880E+00  0.1880E+00
      0.034  0.0000E+00  0.0000E+00  0.1890E+00  0.1880E+00
      0.072  0.0000E+00  0.0000E+00  0.1890E+00  0.1880E+00
      0.111  0.0000E+00  0.0000E+00  0.1890E+00  0.1890E+00
      0.149  0.0000E+00  0.0000E+00  0.1900E+00  0.1890E+00
      0.187  0.0000E+00  0.0000E+00  0.1900E+00  0.1900E+00
      0.226  0.0000E+00  0.0000E+00  0.1900E+00  0.1900E+00
      0.264  0.0000E+00  0.0000E+00  0.1910E+00  0.1900E+00
      0.303  0.0000E+00  0.0000E+00  0.1910E+00  0.1910E+00
      0.341  0.0000E+00  0.0000E+00  0.1910E+00  0.1910E+00
      0.380  0.0000E+00  0.0000E+00  0.1910E+00  0.1910E+00
      0.418  0.0000E+00  0.0000E+00  0.1920E+00  0.1910E+00
      0.457  0.0000E+00  0.0000E+00  0.1920E+00  0.1920E+00
      0.495  0.0000E+00  0.0000E+00  0.1920E+00  0.1920E+00
      0.534  0.0000E+00  0.0000E+00  0.1930E+00  0.1930E+00
      0.572  0.0000E+00  0.0000E+00  0.1930E+00  0.1930E+00
      0.611  0.0000E+00  0.0000E+00  0.1940E+00  0.1930E+00
      0.649  0.0000E+00  0.0000E+00  0.1950E+00  0.1940E+00
      0.688  0.1264E-02  0.0000E+00  0.1960E+00  0.1960E+00
      0.726  0.0000E+00  0.0000E+00  0.1970E+00  0.1970E+00
      0.764  0.0000E+00  0.0000E+00  0.1990E+00  0.1980E+00
      0.803  0.0000E+00  0.0000E+00  0.1990E+00  0.1990E+00
      0.841  0.0000E+00  0.0000E+00  0.2010E+00  0.2010E+00
      0.880  0.0000E+00  0.0000E+00  0.2010E+00  0.2010E+00
      0.918  0.0000E+00  0.0000E+00  0.2040E+00  0.2020E+00
      0.957  0.0000E+00  0.0000E+00  0.2040E+00  0.2040E+00
      0.995  0.0000E+00  0.0000E+00  0.2070E+00  0.2070E+00
      1.034  0.0000E+00  0.0000E+00  0.2080E+00  0.2080E+00
      1.072  0.0000E+00  0.0000E+00  0.2080E+00  0.2080E+00
      1.111  0.0000E+00  0.0000E+00  0.2080E+00  0.2080E+00
      1.149  0.0000E+00  0.0000E+00  0.2080E+00  0.2080E+00
      1.188  0.0000E+00  0.0000E+00  0.2080E+00  0.2080E+00
      1.226  0.0000E+00  0.0000E+00  0.2080E+00  0.2080E+00
      1.265  0.0000E+00  0.0000E+00  0.2080E+00  0.2080E+00
      1.303  0.0000E+00  0.0000E+00  0.2080E+00  0.2080E+00
      1.341  0.0000E+00  0.0000E+00  0.2080E+00  0.2080E+00
      1.380  0.0000E+00  0.0000E+00  0.2080E+00  0.2080E+00
      1.418  0.0000E+00  0.0000E+00  0.2080E+00  0.2080E+00
      1.457  0.0000E+00  0.0000E+00  0.2080E+00  0.2080E+00
      1.495  0.0000E+00  0.0000E+00  0.2080E+00  0.2080E+00
      1.534  0.0000E+00  0.0000E+00  0.2080E+00  0.2080E+00
