   14   14 1000    2
  0.4786432E+03  0.1885298E-08  0.1885298E-08  0.1885298E-08  0.1000000E-15
  1.000000000000000E-004
  CAR 
 unknown system                          
    154      1    100
 
  0.0000000E+00  0.0000000E+00  0.0000000E+00  0.1000000E+01
    1       -9.200017     -9.200017
    2       -9.053436     -9.053436
    3       -8.952333     -8.952333
    4       -8.857440     -8.857440
    5       -8.779438     -8.779438
    6       -8.749401     -8.749401
    7       -8.667264     -8.667264
    8       -8.618792     -8.618792
    9       -8.575303     -8.575303
   10       -8.552239     -8.552239
   11       -8.473891     -8.473891
   12       -8.403217     -8.403217
   13       -8.357470     -8.357470
   14       -8.330534     -8.330534
   15       -8.248620     -8.248620
   16       -8.179174     -8.179174
   17       -8.156018     -8.156018
   18       -8.072711     -8.072711
   19       -8.015359     -8.015359
   20       -7.961742     -7.961742
   21       -7.909399     -7.909399
   22       -7.868398     -7.868398
   23       -7.829361     -7.829361
   24       -7.811548     -7.811548
   25       -7.752830     -7.752830
   26       -7.727868     -7.727868
   27       -7.678374     -7.678374
   28       -7.639744     -7.639744
   29       -7.611990     -7.611990
   30       -7.565154     -7.565154
   31       -7.536201     -7.536201
   32       -7.444595     -7.444595
   33       -7.375579     -7.375579
   34       -7.354755     -7.354755
   35       -7.305589     -7.305589
   36       -7.298424     -7.298424
   37       -7.271295     -7.271295
   38       -7.260680     -7.260680
   39       -7.226932     -7.226932
   40       -7.214760     -7.214760
   41       -7.170197     -7.170197
   42       -7.139885     -7.139885
   43       -7.108004     -7.108004
   44       -7.091462     -7.091462
   45       -7.030436     -7.030436
   46       -7.022968     -7.022968
   47       -6.993214     -6.993214
   48       -6.965735     -6.965735
   49       -6.956502     -6.956502
   50       -6.930215     -6.930215
   51       -6.870018     -6.870018
   52       -6.853818     -6.853818
   53       -6.826108     -6.826108
   54       -6.791890     -6.791890
   55       -6.782289     -6.782289
   56       -6.749574     -6.749574
   57       -6.712672     -6.712672
   58       -6.700171     -6.700171
   59       -6.665920     -6.665920
   60       -6.654440     -6.654440
   61       -6.631568     -6.631568
   62       -6.617317     -6.617317
   63       -6.569038     -6.569038
   64       -6.555025     -6.555025
   65       -6.525529     -6.525529
   66       -6.491347     -6.491347
   67       -6.459520     -6.459520
   68       -6.378370     -6.378370
   69       -6.349154     -6.349154
   70       -6.284673     -6.284673
   71       -6.235880     -6.235880
   72       -6.117383     -6.117383
   73       -5.720123     -5.720123
   74       -5.493063     -5.493063
   75       -4.408996     -4.408996
   76       -4.151292     -4.151292
   77       -3.770605     -3.770605
   78       -3.218640     -3.218640
   79       -2.958742     -2.958742
   80       -2.652465     -2.652465
   81       -2.259548     -2.259548
   82       -2.082194     -2.082193
   83       -1.985925     -1.985925
   84       -1.814929     -1.814929
   85       -1.239685     -1.239685
   86       -1.070002     -1.070002
   87       -0.966040     -0.966040
   88       -0.888062     -0.888063
   89       -0.655525     -0.655524
   90       -0.547529     -0.547530
   91       -0.335051     -0.335050
   92       -0.086970     -0.086970
   93        0.095493      0.095493
   94        0.188834      0.188834
   95        0.282200      0.282189
   96        0.455171      0.455170
   97        0.556800      0.556796
   98        0.579594      0.579583
   99        0.683004      0.683005
  100        0.720192      0.720184
