 vasp.5.3.5 31Mar14 (build Feb 01 2018 12:10:03) gamma-only                     
  
 executed on             LinuxIFC date 2019.03.21  20:40:30
 running on   32 total cores
 distrk:  each k-point on   32 cores,    1 groups
 distr:  one band on NCORES_PER_BAND=   8 cores,    4 groups


--------------------------------------------------------------------------------------------------------


 INCAR:
 POTCAR:    PAW_PBE Ag 02Apr2005                  
 POTCAR:    PAW_PBE Ag 02Apr2005                  
   VRHFIN =Ag : s1 d10                                                          
   LEXCH  = PE                                                                  
   EATOM  =  1037.2675 eV,   76.2370 Ry                                         
                                                                                
   TITEL  = PAW_PBE Ag 02Apr2005                                                
   LULTRA =        F    use ultrasoft PP ?                                      
   IUNSCR =        1    unscreen: 0-lin 1-nonlin 2-no                           
   RPACOR =    2.000    partial core radius                                     
   POMASS =  107.868; ZVAL   =   11.000    mass and valenz                      
   RCORE  =    2.500    outmost cutoff radius                                   
   RWIGS  =    2.840; RWIGS  =    1.503    wigner-seitz radius (au A)           
   ENMAX  =  249.844; ENMIN  =  187.383 eV                                      
   ICORE  =        3    local potential                                         
   LCOR   =        T    correct aug charges                                     
   LPAW   =        T    paw PP                                                  
   EAUG   =  412.496                                                            
   DEXC   =    0.000                                                            
   RMAX   =    2.560    core radius for proj-oper                               
   RAUG   =    1.300    factor for augmentation sphere                          
   RDEP   =    2.576    radius for radial grids                                 
   RDEPT  =    2.072    core radius for aug-charge                              
                                                                                
   Atomic configuration                                                         
   12 entries                                                                   
     n  l   j            E        occ.                                          
     1  0  0.50    -25324.9161   2.0000                                         
     2  0  0.50     -3728.5341   2.0000                                         
     2  1  1.50     -3344.0404   6.0000                                         
     3  0  0.50      -683.5581   2.0000                                         
     3  1  1.50      -557.3225   6.0000                                         
     3  2  2.50      -358.3853  10.0000                                         
     4  0  0.50       -95.0341   2.0000                                         
     4  1  1.50       -58.5511   6.0000                                         
     4  2  2.50        -7.4440  10.0000                                         
     5  0  0.50        -4.4045   1.0000                                         
     5  1  0.50        -1.3606   0.0000                                         
     4  3  2.50        -1.3606   0.0000                                         
   Description                                                                  
     l       E           TYP  RCUT    TYP  RCUT                                 
     2     -7.4439781     23  2.400                                             
     2     -8.8045607     23  2.400                                             
     0     -4.4044681     23  2.400                                             
     0      1.9520038     23  2.400                                             
     1     -1.3605826     23  2.500                                             
     1     27.2116520     23  2.500                                             
     3     -4.0817478     23  2.400                                             
  local pseudopotential read in
  partial core-charges read in
  partial kinetic energy density read in
  atomic valenz-charges read in
  non local Contribution for L=           2  read in
    real space projection operators read in
  non local Contribution for L=           2  read in
    real space projection operators read in
  non local Contribution for L=           0  read in
    real space projection operators read in
  non local Contribution for L=           0  read in
    real space projection operators read in
  non local Contribution for L=           1  read in
    real space projection operators read in
  non local Contribution for L=           1  read in
    real space projection operators read in
    PAW grid and wavefunctions read in
 
   number of l-projection  operators is LMAX  =           6
   number of lm-projection operators is LMMAX =          18
 

 ----------------------------------------------------------------------------- 
|                                                                             |
|  ADVICE TO THIS USER RUNNING 'VASP/VAMP'   (HEAR YOUR MASTER'S VOICE ...):  |
|                                                                             |
|      You have a (more or less) 'large supercell' and for larger cells       |
|      it might be more efficient to use real space projection opertators     |
|      So try LREAL= Auto  in the INCAR   file.                               |
|      Mind: At the moment your POTCAR file does not contain real space       |
|       projectors, and has to be modified,  BUT if you                       |
|      want to do an extremely  accurate calculation you might also keep the  |
|      reciprocal projection scheme          (i.e. LREAL=.FALSE.)             |
|                                                                             |
 ----------------------------------------------------------------------------- 

  PAW_PBE Ag 02Apr2005                  :
 energy of atom  1       EATOM=-1037.2675
 kinetic energy error for atom=    0.0689 (will be added to EATOM!!)
 
 
 POSCAR: Ag19, -720.0 <s> Ag </s>                
  positions in direct lattice
  No initial velocities read in
 exchange correlation table for  LEXCH =        8
   RHO(1)=    0.500       N(1)  =     2000
   RHO(2)=  100.500       N(2)  =     4000
 


--------------------------------------------------------------------------------------------------------


 ion  position               nearest neighbor table
   1  0.534  0.369  0.626-  19 2.77  18 2.83   9 2.89   8 3.10   5 3.14
   2  0.524  0.614  0.378-   7 2.81  10 2.86  14 2.94   4 2.98   3 2.99  15 3.02
   3  0.484  0.691  0.500-   7 2.78   2 2.99  11 2.99   4 3.02   6 3.02  15 3.03
   4  0.382  0.608  0.425-   7 2.82  14 2.92  16 2.94   2 2.98   6 3.00   3 3.02
   5  0.627  0.381  0.500-  19 2.77  17 2.88  18 2.90  10 2.90  13 3.14   1 3.14
   6  0.382  0.608  0.575-   7 2.82   9 2.92  16 2.94  11 2.98   4 3.00   3 3.02
   7  0.488  0.552  0.500-   3 2.78  15 2.79  11 2.81   2 2.81   4 2.82   6 2.82  19 2.85  16 2.89
                            14 2.91   9 2.91  18 2.99  10 2.99
   8  0.385  0.365  0.580-  19 2.78   9 2.87  16 2.87   1 3.10  12 3.19
   9  0.448  0.487  0.625-   8 2.87   1 2.89   7 2.91   6 2.92  11 2.94  18 3.00  16 3.04  19 3.05

  10  0.594  0.493  0.412-  13 2.83  17 2.84   2 2.86   5 2.90   7 2.99  15 2.99  14 3.00  19 3.18
                            18 3.50
  11  0.524  0.614  0.622-   7 2.81  18 2.86   9 2.94   6 2.98   3 2.99  15 3.02
  12  0.385  0.365  0.420-  19 2.78  14 2.87  16 2.87  13 3.10   8 3.19
  13  0.534  0.369  0.374-  19 2.77  10 2.83  14 2.89  12 3.10   5 3.14
  14  0.448  0.487  0.375-  12 2.87  13 2.89   7 2.91   4 2.92   2 2.94  10 3.00  16 3.04  19 3.05

  15  0.614  0.613  0.500-   7 2.79  17 2.86  10 2.99  18 2.99   2 3.02  11 3.02   3 3.03
  16  0.360  0.482  0.500-   8 2.87  12 2.87   7 2.89   6 2.94   4 2.94  19 2.99  14 3.04   9 3.04

  17  0.706  0.503  0.500-  10 2.84  18 2.84  15 2.86   5 2.88
  18  0.594  0.493  0.588-   1 2.83  17 2.84  11 2.86   5 2.90   7 2.99  15 2.99   9 3.00  19 3.18
                            10 3.50
  19  0.491  0.409  0.500-   1 2.77  13 2.77   5 2.77  12 2.78   8 2.78   7 2.85  16 2.99  14 3.05
                             9 3.05  10 3.18  18 3.18
 
  LATTYP: Found a simple cubic cell.
 ALAT       =    19.8922480000
  
  Lattice vectors:
  
 A1 = (  19.8922480000,   0.0000000000,   0.0000000000)
 A2 = (   0.0000000000,  19.8922480000,   0.0000000000)
 A3 = (   0.0000000000,   0.0000000000,  19.8922480000)


Analysis of symmetry for initial positions (statically):
=====================================================================
 Subroutine PRICEL returns:
 Original cell was already a primitive cell.
 

 Routine SETGRP: Setting up the symmetry group for a 
 simple cubic supercell.


 Subroutine GETGRP returns: Found  2 space group operations
 (whereof  2 operations were pure point group operations)
 out of a pool of 48 trial point group operations.


The static configuration has the point symmetry C_1h.


Analysis of symmetry for dynamics (positions and initial velocities):
=====================================================================
 Subroutine PRICEL returns:
 Original cell was already a primitive cell.
 

 Routine SETGRP: Setting up the symmetry group for a 
 simple cubic supercell.


 Subroutine GETGRP returns: Found  2 space group operations
 (whereof  2 operations were pure point group operations)
 out of a pool of 48 trial point group operations.


The dynamic configuration has the point symmetry C_1h.


Analysis of magnetic symmetry:
=====================================================================
 Subroutine PRICEL returns:
 Original cell was already a primitive cell.
 

 Subroutine MAGSYM returns: Found  2 space group operations
 (whereof  2 operations were pure point group operations)
 out of a pool of  2 trial space group operations
 (whereof  2 operations were pure point group operations)
 and found also     1 'primitive' translations


The magnetic configuration has the point symmetry C_1h.
 
 
 KPOINTS: Gamma-point only                        
  k-points in reciprocal lattice
Space group operators:
 irot       det(A)        alpha          n_x          n_y          n_z        tau_x        tau_y        tau_z
    1     1.000000     0.000000     1.000000     0.000000     0.000000     0.000000     0.000000     0.000000
    2    -1.000000   180.000000     0.000000     0.000000     1.000000     0.000000     0.000000     0.000000


--------------------------------------------------------------------------------------------------------




 Dimension of arrays:
   k-points           NKPTS =      1   k-points in BZ     NKDIM =      1   number of bands    NBANDS=    136
   number of dos      NEDOS =    301   number of ions     NIONS =     19
   non local maximal  LDIM  =      6   non local SUM 2l+1 LMDIM =     18
   total plane-waves  NPLWV = 512000
   max r-space proj   IRMAX =      1   max aug-charges    IRDMAX=   3397
   dimension x,y,z NGX =    80 NGY =   80 NGZ =   80
   dimension x,y,z NGXF=   160 NGYF=  160 NGZF=  160
   support grid    NGXF=   160 NGYF=  160 NGZF=  160
   ions per type =              19
 NGX,Y,Z   is equivalent  to a cutoff of   6.69,  6.69,  6.69 a.u.
 NGXF,Y,Z  is equivalent  to a cutoff of  13.37, 13.37, 13.37 a.u.


 I would recommend the setting:
   dimension x,y,z NGX =    77 NGY =   77 NGZ =   77
 SYSTEM =  unknown system                          
 POSCAR =  Ag19, -720.0 <s> Ag </s>                

 Startparameter for this run:
   NWRITE =      2    write-flag & timer
   PREC   = normal    normal or accurate (medium, high low for compatibility)
   ISTART =      0    job   : 0-new  1-cont  2-samecut
   ICHARG =      2    charge: 1-file 2-atom 10-const
   ISPIN  =      2    spin polarized calculation?
   LNONCOLLINEAR =      F non collinear calculations
   LSORBIT =      F    spin-orbit coupling
   INIWAV =      1    electr: 0-lowe 1-rand  2-diag
   LASPH  =      F    aspherical Exc in radial PAW
   METAGGA=      F    non-selfconsistent MetaGGA calc.

 Electronic Relaxation 1
   ENCUT  =  249.8 eV  18.36 Ry    4.29 a.u.  25.64 25.64 25.64*2*pi/ulx,y,z
   ENINI  =  249.8     initial cutoff
   ENAUG  =  412.5 eV  augmentation charge cutoff
   NELM   =     60;   NELMIN=  2; NELMDL= -5     # of ELM steps 
   EDIFF  = 0.1E-03   stopping-criterion for ELM
   LREAL  =      F    real-space projection
   NLSPLINE    = F    spline interpolate recip. space projectors
   LCOMPAT=      F    compatible to vasp.4.4
   GGA_COMPAT  = T    GGA compatible to vasp.4.4-vasp.4.6
   LMAXPAW     = -100 max onsite density
   LMAXMIX     =    2 max onsite mixed and CHGCAR
   VOSKOWN=      0    Vosko Wilk Nusair interpolation
   ROPT   =    0.00000
 Ionic relaxation
   EDIFFG = 0.1E-02   stopping-criterion for IOM
   NSW    =   1000    number of steps for IOM
   NBLOCK =      1;   KBLOCK =   1000    inner block; outer block 
   IBRION =      2    ionic relax: 0-MD 1-quasi-New 2-CG
   NFREE  =      1    steps in history (QN), initial steepest desc. (CG)
   ISIF   =      2    stress and relaxation
   IWAVPR =     11    prediction:  0-non 1-charg 2-wave 3-comb
   ISYM   =      2    0-nonsym 1-usesym 2-fastsym
   LCORR  =      T    Harris-Foulkes like correction to forces

   POTIM  = 0.1000    time-step for ionic-motion
   TEIN   =    0.0    initial temperature
   TEBEG  =    0.0;   TEEND  =   0.0 temperature during run
   SMASS  =  -3.00    Nose mass-parameter (am)
   estimated Nose-frequenzy (Omega)   =  0.10E-29 period in steps =****** mass=  -0.904E-26a.u.
   SCALEE = 1.0000    scale energy and forces
   NPACO  =    256;   APACO  = 16.0  distance and # of slots for P.C.
   PSTRESS=    0.0 pullay stress

  Mass of Ions in am
   POMASS = 107.87
  Ionic Valenz
   ZVAL   =  11.00
  Atomic Wigner-Seitz radii
   RWIGS  =  -1.00
  virtual crystal weights 
   VCA    =   1.00
   NELECT =     209.0000    total number of electrons
   NUPDOWN=      -1.0000    fix difference up-down

 DOS related values:
   EMIN   =  10.00;   EMAX   =-10.00  energy-range for DOS
   EFERMI =   0.00
   ISMEAR =     0;   SIGMA  =   0.00  broadening in eV -4-tet -1-fermi 0-gaus

 Electronic relaxation 2 (details)
   IALGO  =     38    algorithm
   LDIAG  =      T    sub-space diagonalisation (order eigenvalues)
   LSUBROT=      F    optimize rotation matrix (better conditioning)
   TURBO    =      0    0=normal 1=particle mesh
   IRESTART =      0    0=no restart 2=restart with 2 vectors
   NREBOOT  =      0    no. of reboots
   NMIN     =      0    reboot dimension
   EREF     =   0.00    reference energy to select bands
   IMIX   =      4    mixing-type and parameters
     AMIX     =   0.40;   BMIX     =  1.00
     AMIX_MAG =   1.60;   BMIX_MAG =  1.00
     AMIN     =   0.10
     WC   =   100.;   INIMIX=   1;  MIXPRE=   1;  MAXMIX= -45

 Intra band minimization:
   WEIMIN = 0.0010     energy-eigenvalue tresh-hold
   EBREAK =  0.18E-06  absolut break condition
   DEPER  =   0.30     relativ break condition  

   TIME   =   0.40     timestep for ELM

  volume/ion in A,a.u.               =     414.28      2795.73
  Fermi-wavevector in a.u.,A,eV,Ry     =   0.488397  0.922937  3.245421  0.238532
  Thomas-Fermi vector in A             =   1.490186
 
 Write flags
   LWAVE  =      F    write WAVECAR
   LCHARG =      F    write CHGCAR
   LVTOT  =      F    write LOCPOT, total local potential
   LVHAR  =      F    write LOCPOT, Hartree potential only
   LELF   =      F    write electronic localiz. function (ELF)
   LORBIT =      0    0 simple, 1 ext, 2 COOP (PROOUT)


 Dipole corrections
   LMONO  =      F    monopole corrections only (constant potential shift)
   LDIPOL =      F    correct potential (dipole corrections)
   IDIPOL =      0    1-x, 2-y, 3-z, 4-all directions 
   EPSILON=  1.0000000 bulk dielectric constant

 Exchange correlation treatment:
   GGA     =    PE    GGA type
   LEXCH   =     8    internal setting for exchange type
   VOSKOWN=      0    Vosko Wilk Nusair interpolation
   LHFCALC =     F    Hartree Fock is set to
   LHFONE  =     F    Hartree Fock one center treatment
   AEXX    =    0.0000 exact exchange contribution

 Linear response parameters
   LEPSILON=     F    determine dielectric tensor
   LRPA    =     F    only Hartree local field effects (RPA)
   LNABLA  =     F    use nabla operator in PAW spheres
   LVEL    =     F    velocity operator in full k-point grid
   LINTERFAST=   F  fast interpolation
   KINTER  =     0    interpolate to denser k-point grid
   CSHIFT  =0.1000    complex shift for real part using Kramers Kronig
   OMEGAMAX=  -1.0    maximum frequency
   DEG_THRESHOLD= 0.2000000E-02 threshold for treating states as degnerate
   RTIME   =    0.100 relaxation time in fs

 Orbital magnetization related:
   ORBITALMAG=     F  switch on orbital magnetization
   LCHIMAG   =     F  perturbation theory with respect to B field
   DQ        =  0.001000  dq finite difference perturbation B field



--------------------------------------------------------------------------------------------------------


 conjugate gradient relaxation of ions
 charge density and potential will be updated during run
 spin polarized calculation
 Variant of blocked Davidson
 Davidson routine will perform the subspace rotation
 perform sub-space diagonalisation
    after iterative eigenvector-optimisation
 modified Broyden-mixing scheme, WC =      100.0
 initial mixing is a Kerker type mixing with AMIX =  0.4000 and BMIX =      1.0000
 Hartree-type preconditioning will be used
 using additional bands           31
 reciprocal scheme for non local part
 use partial core corrections
 calculate Harris-corrections to forces 
   (improved forces if not selfconsistent)
 use gradient corrections 
 use of overlap-Matrix (Vanderbilt PP)
 Gauss-broadening in eV      SIGMA  =   0.00


--------------------------------------------------------------------------------------------------------


  energy-cutoff  :      249.84
  volume of cell :     7871.39
      direct lattice vectors                 reciprocal lattice vectors
    19.892248000  0.000000000  0.000000000     0.050270839  0.000000000  0.000000000
     0.000000000 19.892248000  0.000000000     0.000000000  0.050270839  0.000000000
     0.000000000  0.000000000 19.892248000     0.000000000  0.000000000  0.050270839

  length of vectors
    19.892248000 19.892248000 19.892248000     0.050270839  0.050270839  0.050270839


 
 k-points in units of 2pi/SCALE and weight: Gamma-point only                        
   0.00000000  0.00000000  0.00000000       1.000
 
 k-points in reciprocal lattice and weights: Gamma-point only                        
   0.00000000  0.00000000  0.00000000       1.000
 
 position of ions in fractional coordinates (direct lattice) 
   0.53374335  0.36933683  0.62628698
   0.52356120  0.61354322  0.37800866
   0.48353782  0.69139862  0.50000000
   0.38154220  0.60767023  0.42457016
   0.62730432  0.38149222  0.50000000
   0.38154220  0.60767023  0.57542984
   0.48751399  0.55154384  0.50000000
   0.38491030  0.36485619  0.58029761
   0.44780676  0.48661021  0.62486085
   0.59399295  0.49263693  0.41211803
   0.52356120  0.61354322  0.62199134
   0.38491030  0.36485619  0.41970239
   0.53374335  0.36933683  0.37371302
   0.44780676  0.48661021  0.37513915
   0.61397843  0.61267906  0.50000000
   0.35977699  0.48235966  0.50000000
   0.70625608  0.50267988  0.50000000
   0.59399295  0.49263693  0.58788197
   0.49051883  0.40853949  0.50000000
 
 position of ions in cartesian coordinates  (Angst):
  10.61735516  7.34693989 12.45825600
  10.41480916 12.20475389  7.51944200
   9.61865416 13.75347289  9.94612400
   7.58973216 12.08792689  8.44565500
  12.47849316  7.58873789  9.94612400
   7.58973216 12.08792689 11.44659300
   9.69774916 10.97144689  9.94612400
   7.65673116  7.25780989 11.54342400
   8.90788316  9.67977089 12.42988700
  11.81585516  9.79965589  8.19795400
  10.41480916 12.20475389 12.37280600
   7.65673116  7.25780989  8.34882400
  10.61735516  7.34693989  7.43399200
   8.90788316  9.67977089  7.46236100
  12.21341116 12.18756389  9.94612400
   7.15677316  9.59521789  9.94612400
  14.04902116  9.99943289  9.94612400
  11.81585516  9.79965589 11.69429400
   9.75752216  8.12676889  9.94612400
 


--------------------------------------------------------------------------------------------------------


 use parallel FFT for wavefunctions z direction half grid
 k-point  1 :   0.0000 0.0000 0.0000  plane waves:   35328

 maximum and minimum number of plane-waves per node :      4420     4410

 maximum number of plane-waves:     35328
 maximum index in each direction: 
   IXMAX=   25   IYMAX=   25   IZMAX=   25
   IXMIN=  -25   IYMIN=  -25   IZMIN=    0

 WARNING: aliasing errors must be expected set NGX to 102 to avoid them
 WARNING: aliasing errors must be expected set NGY to 102 to avoid them
 WARNING: aliasing errors must be expected set NGZ to 102 to avoid them
 aliasing errors are usually negligible using standard VASP settings
 and one can safely disregard these warnings

 parallel 3D FFT for wavefunctions:
    minimum data exchange during FFTs selected (reduces bandwidth)
 parallel 3D FFT for charge:
    minimum data exchange during FFTs selected (reduces bandwidth)


 total amount of memory used by VASP on root node    57086. kBytes
========================================================================

   base      :      30000. kBytes
   nonl-proj :       1980. kBytes
   fftplans  :       5770. kBytes
   grid      :      14451. kBytes
   one-center:         46. kBytes
   wavefun   :       4839. kBytes
 
     INWAV:  cpu time    0.00: real time    0.00
 Broyden mixing: mesh for mixing (old mesh)
   NGX = 51   NGY = 51   NGZ = 51
  (NGX  =160   NGY  =160   NGZ  =160)
  gives a total of 132651 points

 initial charge density was supplied:
 charge density of overlapping atoms calculated
 number of electron     209.0000000 magnetization      19.0000000
 keeping initial charge density in first step


--------------------------------------------------------------------------------------------------------


 Maximum index for augmentation-charges          251 (set IRDMAX)


--------------------------------------------------------------------------------------------------------


 First call to EWALD:  gamma=   0.089
 Maximum number of real-space cells 3x 3x 3
 Maximum number of reciprocal cells 3x 3x 3

 FEWALD executed in parallel
    FEWALD:  cpu time    0.00: real time    0.00


----------------------------------------- Iteration    1(   1)  ---------------------------------------


    POTLOK:  cpu time    0.23: real time    0.23
    SETDIJ:  cpu time    0.01: real time    0.01
     EDDAV:  cpu time    1.52: real time    1.52
       DOS:  cpu time    0.00: real time    0.00
    --------------------------------------------
      LOOP:  cpu time    1.76: real time    1.78

 eigenvalue-minimisations  :   544
 total energy-change (2. order) : 0.1826463E+04  (-0.3655236E+04)
 number of electron     209.0000000 magnetization      19.0000000
 augmentation part      209.0000000 magnetization      19.0000000

 Free energy of the ion-electron system (eV)
  ---------------------------------------------------
  alpha Z        PSCENC =        39.00944645
  Ewald energy   TEWEN  =     30251.77587787
  -Hartree energ DENC   =    -49151.33243303
  -exchange      EXHF   =         0.00000000
  -V(xc)+E(xc)   XCENC  =      -211.46630874
  PAW double counting   =     19064.07138332   -18188.02756870
  entropy T*S    EENTRO =         0.00000000
  eigenvalues    EBANDS =       315.65825535
  atomic energy  EATOM  =     19706.77397164
  ---------------------------------------------------
  free energy    TOTEN  =      1826.46262417 eV

  energy without entropy =     1826.46262417  energy(sigma->0) =     1826.46262417


--------------------------------------------------------------------------------------------------------




----------------------------------------- Iteration    1(   2)  ---------------------------------------


     EDDAV:  cpu time    2.43: real time    2.43
       DOS:  cpu time    0.00: real time    0.00
    --------------------------------------------
      LOOP:  cpu time    2.43: real time    2.44

 eigenvalue-minimisations  :   952
 total energy-change (2. order) :-0.1346978E+04  (-0.1190609E+04)
 number of electron     209.0000000 magnetization      19.0000000
 augmentation part      209.0000000 magnetization      19.0000000

 Free energy of the ion-electron system (eV)
  ---------------------------------------------------
  alpha Z        PSCENC =        39.00944645
  Ewald energy   TEWEN  =     30251.77587787
  -Hartree energ DENC   =    -49151.33243303
  -exchange      EXHF   =         0.00000000
  -V(xc)+E(xc)   XCENC  =      -211.46630874
  PAW double counting   =     19064.07138332   -18188.02756870
  entropy T*S    EENTRO =         0.00000000
  eigenvalues    EBANDS =     -1031.31999064
  atomic energy  EATOM  =     19706.77397164
  ---------------------------------------------------
  free energy    TOTEN  =       479.48437818 eV

  energy without entropy =      479.48437818  energy(sigma->0) =      479.48437818


--------------------------------------------------------------------------------------------------------




----------------------------------------- Iteration    1(   3)  ---------------------------------------


     EDDAV:  cpu time    2.00: real time    2.00
       DOS:  cpu time    0.00: real time    0.00
    --------------------------------------------
      LOOP:  cpu time    2.00: real time    2.01

 eigenvalue-minimisations  :   752
 total energy-change (2. order) :-0.4873083E+03  (-0.4455864E+03)
 number of electron     209.0000000 magnetization      19.0000000
 augmentation part      209.0000000 magnetization      19.0000000

 Free energy of the ion-electron system (eV)
  ---------------------------------------------------
  alpha Z        PSCENC =        39.00944645
  Ewald energy   TEWEN  =     30251.77587787
  -Hartree energ DENC   =    -49151.33243303
  -exchange      EXHF   =         0.00000000
  -V(xc)+E(xc)   XCENC  =      -211.46630874
  PAW double counting   =     19064.07138332   -18188.02756870
  entropy T*S    EENTRO =         0.00000000
  eigenvalues    EBANDS =     -1518.62834000
  atomic energy  EATOM  =     19706.77397164
  ---------------------------------------------------
  free energy    TOTEN  =        -7.82397118 eV

  energy without entropy =       -7.82397118  energy(sigma->0) =       -7.82397118


--------------------------------------------------------------------------------------------------------




----------------------------------------- Iteration    1(   4)  ---------------------------------------


     EDDAV:  cpu time    1.66: real time    1.66
       DOS:  cpu time    0.00: real time    0.00
    --------------------------------------------
      LOOP:  cpu time    1.66: real time    1.67

 eigenvalue-minimisations  :   592
 total energy-change (2. order) :-0.3011768E+02  (-0.2973856E+02)
 number of electron     209.0000000 magnetization      19.0000000
 augmentation part      209.0000000 magnetization      19.0000000

 Free energy of the ion-electron system (eV)
  ---------------------------------------------------
  alpha Z        PSCENC =        39.00944645
  Ewald energy   TEWEN  =     30251.77587787
  -Hartree energ DENC   =    -49151.33243303
  -exchange      EXHF   =         0.00000000
  -V(xc)+E(xc)   XCENC  =      -211.46630874
  PAW double counting   =     19064.07138332   -18188.02756870
  entropy T*S    EENTRO =        -0.00000000
  eigenvalues    EBANDS =     -1548.74601618
  atomic energy  EATOM  =     19706.77397164
  ---------------------------------------------------
  free energy    TOTEN  =       -37.94164735 eV

  energy without entropy =      -37.94164735  energy(sigma->0) =      -37.94164735


--------------------------------------------------------------------------------------------------------




----------------------------------------- Iteration    1(   5)  ---------------------------------------


     EDDAV:  cpu time    1.71: real time    1.71
       DOS:  cpu time    0.00: real time    0.00
    CHARGE:  cpu time    0.16: real time    0.16
    MIXING:  cpu time    0.01: real time    0.01
    --------------------------------------------
      LOOP:  cpu time    1.88: real time    1.89

 eigenvalue-minimisations  :   616
 total energy-change (2. order) :-0.4376940E+00  (-0.4371554E+00)
 number of electron     209.0000322 magnetization      16.3873373
 augmentation part       98.8037434 magnetization      15.8403988

 Broyden mixing:
  rms(total) = 0.23541E+01    rms(broyden)= 0.23537E+01
  rms(prec ) = 0.24065E+01
  weight for this iteration     100.00

 Free energy of the ion-electron system (eV)
  ---------------------------------------------------
  alpha Z        PSCENC =        39.00944645
  Ewald energy   TEWEN  =     30251.77587787
  -Hartree energ DENC   =    -49151.33243303
  -exchange      EXHF   =         0.00000000
  -V(xc)+E(xc)   XCENC  =      -211.46630874
  PAW double counting   =     19064.07138332   -18188.02756870
  entropy T*S    EENTRO =         0.00000000
  eigenvalues    EBANDS =     -1549.18371020
  atomic energy  EATOM  =     19706.77397164
  ---------------------------------------------------
  free energy    TOTEN  =       -38.37934138 eV

  energy without entropy =      -38.37934138  energy(sigma->0) =      -38.37934138


--------------------------------------------------------------------------------------------------------




----------------------------------------- Iteration    1(   6)  ---------------------------------------


    POTLOK:  cpu time    0.22: real time    0.22
    SETDIJ:  cpu time    0.01: real time    0.01
     EDDAV:  cpu time    1.57: real time    1.57
       DOS:  cpu time    0.00: real time    0.00
    CHARGE:  cpu time    0.16: real time    0.16
    MIXING:  cpu time    0.01: real time    0.01
    --------------------------------------------
      LOOP:  cpu time    1.98: real time    1.98

 eigenvalue-minimisations  :   552
 total energy-change (2. order) : 0.2611486E+02  (-0.7514711E+01)
 number of electron     209.0000328 magnetization      14.6200832
 augmentation part      100.8519487 magnetization      10.1958497

 Broyden mixing:
  rms(total) = 0.12027E+01    rms(broyden)= 0.12026E+01
  rms(prec ) = 0.12291E+01
  weight for this iteration     100.00

 eigenvalues of (default mixing * dielectric matrix)
  average eigenvalue GAMMA=   0.8416
  0.8416

 Free energy of the ion-electron system (eV)
  ---------------------------------------------------
  alpha Z        PSCENC =        39.00944645
  Ewald energy   TEWEN  =     30251.77587787
  -Hartree energ DENC   =    -49091.08303448
  -exchange      EXHF   =         0.00000000
  -V(xc)+E(xc)   XCENC  =      -199.10363508
  PAW double counting   =     19544.30639619   -18679.01929842
  entropy T*S    EENTRO =         0.00000000
  eigenvalues    EBANDS =     -1584.92420207
  atomic energy  EATOM  =     19706.77397164
  ---------------------------------------------------
  free energy    TOTEN  =       -12.26447790 eV

  energy without entropy =      -12.26447790  energy(sigma->0) =      -12.26447790


--------------------------------------------------------------------------------------------------------




----------------------------------------- Iteration    1(   7)  ---------------------------------------


    POTLOK:  cpu time    0.22: real time    0.22
    SETDIJ:  cpu time    0.01: real time    0.01
     EDDAV:  cpu time    1.66: real time    1.66
       DOS:  cpu time    0.00: real time    0.00
    CHARGE:  cpu time    0.16: real time    0.16
    MIXING:  cpu time    0.01: real time    0.01
    --------------------------------------------
      LOOP:  cpu time    2.06: real time    2.06

 eigenvalue-minimisations  :   592
 total energy-change (2. order) : 0.5234657E+01  (-0.4063962E+00)
 number of electron     209.0000328 magnetization      12.0916855
 augmentation part      100.7935655 magnetization       7.8671366

 Broyden mixing:
  rms(total) = 0.72128E+00    rms(broyden)= 0.72127E+00
  rms(prec ) = 0.73763E+00
  weight for this iteration     100.00

 eigenvalues of (default mixing * dielectric matrix)
  average eigenvalue GAMMA=   0.9348
  0.7416  1.1279

 Free energy of the ion-electron system (eV)
  ---------------------------------------------------
  alpha Z        PSCENC =        39.00944645
  Ewald energy   TEWEN  =     30251.77587787
  -Hartree energ DENC   =    -49137.56490744
  -exchange      EXHF   =         0.00000000
  -V(xc)+E(xc)   XCENC  =      -194.42021148
  PAW double counting   =     19853.36944952   -18995.24969979
  entropy T*S    EENTRO =         0.00000000
  eigenvalues    EBANDS =     -1530.72374749
  atomic energy  EATOM  =     19706.77397164
  ---------------------------------------------------
  free energy    TOTEN  =        -7.02982071 eV

  energy without entropy =       -7.02982071  energy(sigma->0) =       -7.02982071


--------------------------------------------------------------------------------------------------------




----------------------------------------- Iteration    1(   8)  ---------------------------------------


    POTLOK:  cpu time    0.22: real time    0.22
    SETDIJ:  cpu time    0.01: real time    0.01
     EDDAV:  cpu time    1.62: real time    1.62
       DOS:  cpu time    0.00: real time    0.00
    CHARGE:  cpu time    0.16: real time    0.16
    MIXING:  cpu time    0.00: real time    0.01
    --------------------------------------------
      LOOP:  cpu time    2.02: real time    2.03

 eigenvalue-minimisations  :   576
 total energy-change (2. order) :-0.2384276E+01  (-0.1572047E+00)
 number of electron     209.0000327 magnetization      10.1088742
 augmentation part      100.6316168 magnetization       6.0536855

 Broyden mixing:
  rms(total) = 0.39400E+00    rms(broyden)= 0.39399E+00
  rms(prec ) = 0.39913E+00
  weight for this iteration     100.00

 eigenvalues of (default mixing * dielectric matrix)
  average eigenvalue GAMMA=   1.2279
  2.1489  0.9150  0.6199

 Free energy of the ion-electron system (eV)
  ---------------------------------------------------
  alpha Z        PSCENC =        39.00944645
  Ewald energy   TEWEN  =     30251.77587787
  -Hartree energ DENC   =    -49190.78666776
  -exchange      EXHF   =         0.00000000
  -V(xc)+E(xc)   XCENC  =      -195.79592369
  PAW double counting   =     20188.74939610   -19337.70463685
  entropy T*S    EENTRO =         0.00000000
  eigenvalues    EBANDS =     -1471.43556045
  atomic energy  EATOM  =     19706.77397164
  ---------------------------------------------------
  free energy    TOTEN  =        -9.41409668 eV

  energy without entropy =       -9.41409668  energy(sigma->0) =       -9.41409668


--------------------------------------------------------------------------------------------------------




----------------------------------------- Iteration    1(   9)  ---------------------------------------


    POTLOK:  cpu time    0.22: real time    0.22
    SETDIJ:  cpu time    0.00: real time    0.01
     EDDAV:  cpu time    1.66: real time    1.66
       DOS:  cpu time    0.00: real time    0.00
    CHARGE:  cpu time    0.16: real time    0.16
    MIXING:  cpu time    0.00: real time    0.01
    --------------------------------------------
      LOOP:  cpu time    2.06: real time    2.06

 eigenvalue-minimisations  :   592
 total energy-change (2. order) :-0.4283855E+01  (-0.1232600E+00)
 number of electron     209.0000325 magnetization       9.8385708
 augmentation part      100.6013539 magnetization       7.9205350

 Broyden mixing:
  rms(total) = 0.32895E+00    rms(broyden)= 0.32880E+00
  rms(prec ) = 0.34166E+00
  weight for this iteration     100.00

 eigenvalues of (default mixing * dielectric matrix)
  average eigenvalue GAMMA=   0.9559
  2.1598  0.9159  0.6175  0.1304

 Free energy of the ion-electron system (eV)
  ---------------------------------------------------
  alpha Z        PSCENC =        39.00944645
  Ewald energy   TEWEN  =     30251.77587787
  -Hartree energ DENC   =    -49212.84241813
  -exchange      EXHF   =         0.00000000
  -V(xc)+E(xc)   XCENC  =      -198.77466758
  PAW double counting   =     20340.55075163   -19492.61429009
  entropy T*S    EENTRO =         0.00000000
  eigenvalues    EBANDS =     -1447.57662306
  atomic energy  EATOM  =     19706.77397164
  ---------------------------------------------------
  free energy    TOTEN  =       -13.69795128 eV

  energy without entropy =      -13.69795128  energy(sigma->0) =      -13.69795128


--------------------------------------------------------------------------------------------------------




----------------------------------------- Iteration    1(  10)  ---------------------------------------


    POTLOK:  cpu time    0.22: real time    0.22
    SETDIJ:  cpu time    0.01: real time    0.01
     EDDAV:  cpu time    1.76: real time    1.76
       DOS:  cpu time    0.00: real time    0.00
    CHARGE:  cpu time    0.16: real time    0.16
    MIXING:  cpu time    0.01: real time    0.01
    --------------------------------------------
      LOOP:  cpu time    2.16: real time    2.17

 eigenvalue-minimisations  :   640
 total energy-change (2. order) :-0.2678135E+00  (-0.5896641E-02)
 number of electron     209.0000325 magnetization       8.3026073
 augmentation part      100.5842197 magnetization       6.4257684

 Broyden mixing:
  rms(total) = 0.30703E+00    rms(broyden)= 0.30702E+00
  rms(prec ) = 0.31861E+00
  weight for this iteration     100.00

 eigenvalues of (default mixing * dielectric matrix)
  average eigenvalue GAMMA=   1.0064
  2.1187  0.9640  0.6344  0.6574  0.6574

 Free energy of the ion-electron system (eV)
  ---------------------------------------------------
  alpha Z        PSCENC =        39.00944645
  Ewald energy   TEWEN  =     30251.77587787
  -Hartree energ DENC   =    -49215.04454555
  -exchange      EXHF   =         0.00000000
  -V(xc)+E(xc)   XCENC  =      -198.86172558
  PAW double counting   =     20346.59993194   -19498.79670845
  entropy T*S    EENTRO =         0.00000000
  eigenvalues    EBANDS =     -1445.42201311
  atomic energy  EATOM  =     19706.77397164
  ---------------------------------------------------
  free energy    TOTEN  =       -13.96576479 eV

  energy without entropy =      -13.96576479  energy(sigma->0) =      -13.96576479


--------------------------------------------------------------------------------------------------------




----------------------------------------- Iteration    1(  11)  ---------------------------------------


    POTLOK:  cpu time    0.22: real time    0.22
    SETDIJ:  cpu time    0.01: real time    0.01
     EDDAV:  cpu time    1.60: real time    1.59
       DOS:  cpu time    0.00: real time    0.00
    CHARGE:  cpu time    0.16: real time    0.16
    MIXING:  cpu time    0.01: real time    0.01
    --------------------------------------------
      LOOP:  cpu time    2.00: real time    2.01

 eigenvalue-minimisations  :   560
 total energy-change (2. order) :-0.5262623E+01  (-0.1877191E+00)
 number of electron     209.0000325 magnetization       5.2601533
 augmentation part      100.5788071 magnetization       3.5943936

 Broyden mixing:
  rms(total) = 0.23376E+00    rms(broyden)= 0.23376E+00
  rms(prec ) = 0.23916E+00
  weight for this iteration     100.00

 eigenvalues of (default mixing * dielectric matrix)
  average eigenvalue GAMMA=   1.1629
  1.9460  1.9460  0.9376  0.9376  0.6617  0.5486

 Free energy of the ion-electron system (eV)
  ---------------------------------------------------
  alpha Z        PSCENC =        39.00944645
  Ewald energy   TEWEN  =     30251.77587787
  -Hartree energ DENC   =    -49218.44360444
  -exchange      EXHF   =         0.00000000
  -V(xc)+E(xc)   XCENC  =      -202.57170568
  PAW double counting   =     20326.27554459   -19478.50270090
  entropy T*S    EENTRO =         0.00000000
  eigenvalues    EBANDS =     -1443.54521723
  atomic energy  EATOM  =     19706.77397164
  ---------------------------------------------------
  free energy    TOTEN  =       -19.22838770 eV

  energy without entropy =      -19.22838770  energy(sigma->0) =      -19.22838770


--------------------------------------------------------------------------------------------------------




----------------------------------------- Iteration    1(  12)  ---------------------------------------


    POTLOK:  cpu time    0.22: real time    0.22
    SETDIJ:  cpu time    0.01: real time    0.01
     EDDAV:  cpu time    1.56: real time    1.56
       DOS:  cpu time    0.00: real time    0.00
    CHARGE:  cpu time    0.16: real time    0.16
    MIXING:  cpu time    0.01: real time    0.01
    --------------------------------------------
      LOOP:  cpu time    1.96: real time    1.97

 eigenvalue-minimisations  :   544
 total energy-change (2. order) :-0.9014428E+01  (-0.5450538E+00)
 number of electron     209.0000325 magnetization       3.8459897
 augmentation part      100.5783437 magnetization       2.5482651

 Broyden mixing:
  rms(total) = 0.12671E+00    rms(broyden)= 0.12669E+00
  rms(prec ) = 0.13051E+00
  weight for this iteration     100.00

 eigenvalues of (default mixing * dielectric matrix)
  average eigenvalue GAMMA=   1.3110
  3.3684  1.9347  0.9538  0.9538  0.7550  0.6448  0.5667

 Free energy of the ion-electron system (eV)
  ---------------------------------------------------
  alpha Z        PSCENC =        39.00944645
  Ewald energy   TEWEN  =     30251.77587787
  -Hartree energ DENC   =    -49222.34933448
  -exchange      EXHF   =         0.00000000
  -V(xc)+E(xc)   XCENC  =      -209.21314279
  PAW double counting   =     20303.93865047   -19456.30735896
  entropy T*S    EENTRO =         0.00000000
  eigenvalues    EBANDS =     -1441.87092619
  atomic energy  EATOM  =     19706.77397164
  ---------------------------------------------------
  free energy    TOTEN  =       -28.24281598 eV

  energy without entropy =      -28.24281598  energy(sigma->0) =      -28.24281598


--------------------------------------------------------------------------------------------------------




----------------------------------------- Iteration    1(  13)  ---------------------------------------


    POTLOK:  cpu time    0.22: real time    0.22
    SETDIJ:  cpu time    0.00: real time    0.01
     EDDAV:  cpu time    1.63: real time    1.63
       DOS:  cpu time    0.00: real time    0.00
    CHARGE:  cpu time    0.16: real time    0.16
    MIXING:  cpu time    0.01: real time    0.01
    --------------------------------------------
      LOOP:  cpu time    2.03: real time    2.04

 eigenvalue-minimisations  :   576
 total energy-change (2. order) :-0.3645872E+01  (-0.1305343E+00)
 number of electron     209.0000325 magnetization       3.0250475
 augmentation part      100.5536735 magnetization       1.8765796

 Broyden mixing:
  rms(total) = 0.97767E-01    rms(broyden)= 0.97756E-01
  rms(prec ) = 0.10605E+00
  weight for this iteration     100.00

 eigenvalues of (default mixing * dielectric matrix)
  average eigenvalue GAMMA=   1.3530
  3.0640  2.2108  1.3779  1.3779  0.7708  0.7708  0.6698  0.5816

 Free energy of the ion-electron system (eV)
  ---------------------------------------------------
  alpha Z        PSCENC =        39.00944645
  Ewald energy   TEWEN  =     30251.77587787
  -Hartree energ DENC   =    -49220.45737129
  -exchange      EXHF   =         0.00000000
  -V(xc)+E(xc)   XCENC  =      -212.05009694
  PAW double counting   =     20298.90906446   -19451.30139185
  entropy T*S    EENTRO =         0.00000000
  eigenvalues    EBANDS =     -1444.54818806
  atomic energy  EATOM  =     19706.77397164
  ---------------------------------------------------
  free energy    TOTEN  =       -31.88868771 eV

  energy without entropy =      -31.88868771  energy(sigma->0) =      -31.88868771


--------------------------------------------------------------------------------------------------------




----------------------------------------- Iteration    1(  14)  ---------------------------------------


    POTLOK:  cpu time    0.22: real time    0.22
    SETDIJ:  cpu time    0.01: real time    0.01
     EDDAV:  cpu time    1.56: real time    1.56
       DOS:  cpu time    0.00: real time    0.00
    CHARGE:  cpu time    0.16: real time    0.16
    MIXING:  cpu time    0.01: real time    0.01
    --------------------------------------------
      LOOP:  cpu time    1.96: real time    1.97

 eigenvalue-minimisations  :   544
 total energy-change (2. order) :-0.3369189E+01  (-0.1076794E+00)
 number of electron     209.0000325 magnetization       2.1017051
 augmentation part      100.5699216 magnetization       1.0039667

 Broyden mixing:
  rms(total) = 0.57500E-01    rms(broyden)= 0.57484E-01
  rms(prec ) = 0.63386E-01
  weight for this iteration     100.00

 eigenvalues of (default mixing * dielectric matrix)
  average eigenvalue GAMMA=   1.5228
  3.6161  3.6161  1.5185  1.1986  0.9361  0.9361  0.6216  0.6216  0.6401

 Free energy of the ion-electron system (eV)
  ---------------------------------------------------
  alpha Z        PSCENC =        39.00944645
  Ewald energy   TEWEN  =     30251.77587787
  -Hartree energ DENC   =    -49199.14222188
  -exchange      EXHF   =         0.00000000
  -V(xc)+E(xc)   XCENC  =      -215.11620743
  PAW double counting   =     20248.06376036   -19399.54536792
  entropy T*S    EENTRO =         0.00000000
  eigenvalues    EBANDS =     -1467.07713532
  atomic energy  EATOM  =     19706.77397164
  ---------------------------------------------------
  free energy    TOTEN  =       -35.25787623 eV

  energy without entropy =      -35.25787623  energy(sigma->0) =      -35.25787623


--------------------------------------------------------------------------------------------------------




----------------------------------------- Iteration    1(  15)  ---------------------------------------


    POTLOK:  cpu time    0.22: real time    0.22
    SETDIJ:  cpu time    0.00: real time    0.01
     EDDAV:  cpu time    1.58: real time    1.58
       DOS:  cpu time    0.00: real time    0.00
    CHARGE:  cpu time    0.16: real time    0.16
    MIXING:  cpu time    0.01: real time    0.01
    --------------------------------------------
      LOOP:  cpu time    1.98: real time    1.99

 eigenvalue-minimisations  :   552
 total energy-change (2. order) :-0.1483990E+01  (-0.3763734E-01)
 number of electron     209.0000326 magnetization       1.8663342
 augmentation part      100.6262203 magnetization       0.8202662

 Broyden mixing:
  rms(total) = 0.44508E-01    rms(broyden)= 0.44492E-01
  rms(prec ) = 0.47744E-01
  weight for this iteration     100.00

 eigenvalues of (default mixing * dielectric matrix)
  average eigenvalue GAMMA=   1.5248
  4.4413  3.0212  2.2688  1.0541  1.0541  0.8908  0.6617  0.6617  0.5652  0.6287

 Free energy of the ion-electron system (eV)
  ---------------------------------------------------
  alpha Z        PSCENC =        39.00944645
  Ewald energy   TEWEN  =     30251.77587787
  -Hartree energ DENC   =    -49179.28012714
  -exchange      EXHF   =         0.00000000
  -V(xc)+E(xc)   XCENC  =      -216.69584555
  PAW double counting   =     20211.77933411   -19362.76762898
  entropy T*S    EENTRO =         0.00000000
  eigenvalues    EBANDS =     -1487.33689466
  atomic energy  EATOM  =     19706.77397164
  ---------------------------------------------------
  free energy    TOTEN  =       -36.74186625 eV

  energy without entropy =      -36.74186625  energy(sigma->0) =      -36.74186625


--------------------------------------------------------------------------------------------------------




----------------------------------------- Iteration    1(  16)  ---------------------------------------


    POTLOK:  cpu time    0.22: real time    0.22
    SETDIJ:  cpu time    0.01: real time    0.01
     EDDAV:  cpu time    1.66: real time    1.66
       DOS:  cpu time    0.00: real time    0.00
    CHARGE:  cpu time    0.16: real time    0.16
    MIXING:  cpu time    0.01: real time    0.01
    --------------------------------------------
      LOOP:  cpu time    2.07: real time    2.07

 eigenvalue-minimisations  :   592
 total energy-change (2. order) :-0.3147660E+00  (-0.1807650E-02)
 number of electron     209.0000326 magnetization       1.4495837
 augmentation part      100.6048551 magnetization       0.4117085

 Broyden mixing:
  rms(total) = 0.29837E-01    rms(broyden)= 0.29833E-01
  rms(prec ) = 0.33369E-01
  weight for this iteration     100.00

 eigenvalues of (default mixing * dielectric matrix)
  average eigenvalue GAMMA=   1.6059
  4.2681  4.2681  2.0232  1.3603  1.3603  0.9652  0.7759  0.7759  0.5895  0.6392
  0.6392

 Free energy of the ion-electron system (eV)
  ---------------------------------------------------
  alpha Z        PSCENC =        39.00944645
  Ewald energy   TEWEN  =     30251.77587787
  -Hartree energ DENC   =    -49177.23600724
  -exchange      EXHF   =         0.00000000
  -V(xc)+E(xc)   XCENC  =      -217.00789062
  PAW double counting   =     20220.99680988   -19372.19446638
  entropy T*S    EENTRO =         0.00000000
  eigenvalues    EBANDS =     -1489.17437390
  atomic energy  EATOM  =     19706.77397164
  ---------------------------------------------------
  free energy    TOTEN  =       -37.05663230 eV

  energy without entropy =      -37.05663230  energy(sigma->0) =      -37.05663230


--------------------------------------------------------------------------------------------------------




----------------------------------------- Iteration    1(  17)  ---------------------------------------


    POTLOK:  cpu time    0.22: real time    0.22
    SETDIJ:  cpu time    0.00: real time    0.01
     EDDAV:  cpu time    1.63: real time    1.63
       DOS:  cpu time    0.00: real time    0.00
    CHARGE:  cpu time    0.16: real time    0.16
    MIXING:  cpu time    0.01: real time    0.01
    --------------------------------------------
      LOOP:  cpu time    2.04: real time    2.04

 eigenvalue-minimisations  :   576
 total energy-change (2. order) :-0.6083221E+00  (-0.4159148E-02)
 number of electron     209.0000326 magnetization       1.1020960
 augmentation part      100.6131426 magnetization       0.0786267

 Broyden mixing:
  rms(total) = 0.14718E-01    rms(broyden)= 0.14710E-01
  rms(prec ) = 0.17262E-01
  weight for this iteration     100.00

 eigenvalues of (default mixing * dielectric matrix)
  average eigenvalue GAMMA=   1.6523
  5.8908  2.6732  2.6732  2.0603  1.0930  1.0930  1.0390  0.6933  0.6933  0.7150
  0.5916  0.6124

 Free energy of the ion-electron system (eV)
  ---------------------------------------------------
  alpha Z        PSCENC =        39.00944645
  Ewald energy   TEWEN  =     30251.77587787
  -Hartree energ DENC   =    -49168.36495403
  -exchange      EXHF   =         0.00000000
  -V(xc)+E(xc)   XCENC  =      -217.68904161
  PAW double counting   =     20219.21300048   -19370.33798856
  entropy T*S    EENTRO =         0.00000000
  eigenvalues    EBANDS =     -1498.04526661
  atomic energy  EATOM  =     19706.77397164
  ---------------------------------------------------
  free energy    TOTEN  =       -37.66495437 eV

  energy without entropy =      -37.66495437  energy(sigma->0) =      -37.66495437


--------------------------------------------------------------------------------------------------------




----------------------------------------- Iteration    1(  18)  ---------------------------------------


    POTLOK:  cpu time    0.22: real time    0.22
    SETDIJ:  cpu time    0.01: real time    0.01
     EDDAV:  cpu time    1.65: real time    1.65
       DOS:  cpu time    0.00: real time    0.00
    CHARGE:  cpu time    0.16: real time    0.16
    MIXING:  cpu time    0.01: real time    0.01
    --------------------------------------------
      LOOP:  cpu time    2.06: real time    2.06

 eigenvalue-minimisations  :   584
 total energy-change (2. order) :-0.1751233E+00  (-0.9470790E-03)
 number of electron     209.0000326 magnetization       1.0665571
 augmentation part      100.6178000 magnetization       0.0575520

 Broyden mixing:
  rms(total) = 0.94877E-02    rms(broyden)= 0.94851E-02
  rms(prec ) = 0.11867E-01
  weight for this iteration     100.00

 eigenvalues of (default mixing * dielectric matrix)
  average eigenvalue GAMMA=   1.6392
  6.2673  2.9069  2.9069  1.8628  1.1813  1.1813  0.9849  0.7640  0.7640  0.6416
  0.6416  0.5797  0.6269

 Free energy of the ion-electron system (eV)
  ---------------------------------------------------
  alpha Z        PSCENC =        39.00944645
  Ewald energy   TEWEN  =     30251.77587787
  -Hartree energ DENC   =    -49163.82154338
  -exchange      EXHF   =         0.00000000
  -V(xc)+E(xc)   XCENC  =      -217.90640249
  PAW double counting   =     20224.15034235   -19375.34325688
  entropy T*S    EENTRO =         0.00000000
  eigenvalues    EBANDS =     -1502.47851327
  atomic energy  EATOM  =     19706.77397164
  ---------------------------------------------------
  free energy    TOTEN  =       -37.84007771 eV

  energy without entropy =      -37.84007771  energy(sigma->0) =      -37.84007771


--------------------------------------------------------------------------------------------------------




----------------------------------------- Iteration    1(  19)  ---------------------------------------


    POTLOK:  cpu time    0.22: real time    0.22
    SETDIJ:  cpu time    0.00: real time    0.01
     EDDAV:  cpu time    1.60: real time    1.60
       DOS:  cpu time    0.00: real time    0.00
    CHARGE:  cpu time    0.16: real time    0.16
    MIXING:  cpu time    0.01: real time    0.01
    --------------------------------------------
      LOOP:  cpu time    2.01: real time    2.02

 eigenvalue-minimisations  :   560
 total energy-change (2. order) :-0.2720462E-01  (-0.1286714E-03)
 number of electron     209.0000326 magnetization       1.0427525
 augmentation part      100.6145413 magnetization       0.0335140

 Broyden mixing:
  rms(total) = 0.77520E-02    rms(broyden)= 0.77516E-02
  rms(prec ) = 0.98926E-02
  weight for this iteration     100.00

 eigenvalues of (default mixing * dielectric matrix)
  average eigenvalue GAMMA=   1.6707
  6.3419  2.8532  2.8532  2.3350  1.5089  1.5089  0.9640  0.9640  0.8270  0.6872
  0.6872  0.5891  0.6350  0.6350

 Free energy of the ion-electron system (eV)
  ---------------------------------------------------
  alpha Z        PSCENC =        39.00944645
  Ewald energy   TEWEN  =     30251.77587787
  -Hartree energ DENC   =    -49162.80604673
  -exchange      EXHF   =         0.00000000
  -V(xc)+E(xc)   XCENC  =      -217.93158304
  PAW double counting   =     20227.17875910   -19378.38848688
  entropy T*S    EENTRO =         0.00000000
  eigenvalues    EBANDS =     -1503.47922073
  atomic energy  EATOM  =     19706.77397164
  ---------------------------------------------------
  free energy    TOTEN  =       -37.86728232 eV

  energy without entropy =      -37.86728232  energy(sigma->0) =      -37.86728232


--------------------------------------------------------------------------------------------------------




----------------------------------------- Iteration    1(  20)  ---------------------------------------


    POTLOK:  cpu time    0.22: real time    0.22
    SETDIJ:  cpu time    0.01: real time    0.01
     EDDAV:  cpu time    1.63: real time    1.64
       DOS:  cpu time    0.00: real time    0.00
    CHARGE:  cpu time    0.16: real time    0.16
    MIXING:  cpu time    0.01: real time    0.01
    --------------------------------------------
      LOOP:  cpu time    2.04: real time    2.06

 eigenvalue-minimisations  :   576
 total energy-change (2. order) :-0.4034280E-01  (-0.3249749E-03)
 number of electron     209.0000326 magnetization       1.0176103
 augmentation part      100.6127973 magnetization       0.0057763

 Broyden mixing:
  rms(total) = 0.31666E-02    rms(broyden)= 0.31655E-02
  rms(prec ) = 0.48853E-02
  weight for this iteration     100.00

 eigenvalues of (default mixing * dielectric matrix)
  average eigenvalue GAMMA=   1.7038
  6.6365  2.9984  2.9774  2.9774  1.5483  1.5483  0.9922  0.9922  0.7019  0.7019
  0.8395  0.7840  0.5903  0.6094  0.6589

 Free energy of the ion-electron system (eV)
  ---------------------------------------------------
  alpha Z        PSCENC =        39.00944645
  Ewald energy   TEWEN  =     30251.77587787
  -Hartree energ DENC   =    -49159.20315865
  -exchange      EXHF   =         0.00000000
  -V(xc)+E(xc)   XCENC  =      -217.98591042
  PAW double counting   =     20229.87038360   -19381.04500140
  entropy T*S    EENTRO =         0.00000000
  eigenvalues    EBANDS =     -1507.10323422
  atomic energy  EATOM  =     19706.77397164
  ---------------------------------------------------
  free energy    TOTEN  =       -37.90762513 eV

  energy without entropy =      -37.90762513  energy(sigma->0) =      -37.90762513


--------------------------------------------------------------------------------------------------------




----------------------------------------- Iteration    1(  21)  ---------------------------------------


    POTLOK:  cpu time    0.22: real time    0.22
    SETDIJ:  cpu time    0.01: real time    0.01
     EDDAV:  cpu time    1.29: real time    1.29
       DOS:  cpu time    0.00: real time    0.00
    CHARGE:  cpu time    0.16: real time    0.16
    MIXING:  cpu time    0.01: real time    0.01
    --------------------------------------------
      LOOP:  cpu time    1.70: real time    1.70

 eigenvalue-minimisations  :   408
 total energy-change (2. order) :-0.6792677E-03  (-0.5581402E-04)
 number of electron     209.0000326 magnetization       1.0146284
 augmentation part      100.6143429 magnetization       0.0027750

 Broyden mixing:
  rms(total) = 0.20971E-02    rms(broyden)= 0.20966E-02
  rms(prec ) = 0.33794E-02
  weight for this iteration     100.00

 eigenvalues of (default mixing * dielectric matrix)
  average eigenvalue GAMMA=   1.6693
  6.6794  3.4285  2.7937  2.7937  1.5624  1.5624  1.0275  1.0275  1.0584  0.8408
  0.6915  0.6915  0.7039  0.5909  0.6142  0.6418

 Free energy of the ion-electron system (eV)
  ---------------------------------------------------
  alpha Z        PSCENC =        39.00944645
  Ewald energy   TEWEN  =     30251.77587787
  -Hartree energ DENC   =    -49157.21020954
  -exchange      EXHF   =         0.00000000
  -V(xc)+E(xc)   XCENC  =      -218.00208709
  PAW double counting   =     20230.02378168   -19381.18895702
  entropy T*S    EENTRO =         0.00000000
  eigenvalues    EBANDS =     -1509.09012839
  atomic energy  EATOM  =     19706.77397164
  ---------------------------------------------------
  free energy    TOTEN  =       -37.90830439 eV

  energy without entropy =      -37.90830439  energy(sigma->0) =      -37.90830439


--------------------------------------------------------------------------------------------------------




----------------------------------------- Iteration    1(  22)  ---------------------------------------


    POTLOK:  cpu time    0.22: real time    0.22
    SETDIJ:  cpu time    0.00: real time    0.01
     EDDAV:  cpu time    1.24: real time    1.24
       DOS:  cpu time    0.00: real time    0.00
    CHARGE:  cpu time    0.16: real time    0.16
    MIXING:  cpu time    0.01: real time    0.01
    --------------------------------------------
      LOOP:  cpu time    1.64: real time    1.67

 eigenvalue-minimisations  :   384
 total energy-change (2. order) :-0.1777260E-02  (-0.1936660E-04)
 number of electron     209.0000326 magnetization       1.0122586
 augmentation part      100.6163700 magnetization       0.0007015

 Broyden mixing:
  rms(total) = 0.13262E-02    rms(broyden)= 0.13260E-02
  rms(prec ) = 0.23167E-02
  weight for this iteration     100.00

 eigenvalues of (default mixing * dielectric matrix)
  average eigenvalue GAMMA=   1.7183
  6.6199  4.2268  2.5809  2.4687  2.4687  1.5575  1.5575  0.9930  0.9930  1.0420
  0.6976  0.6976  0.7365  0.7365  0.5967  0.5967  0.6410

 Free energy of the ion-electron system (eV)
  ---------------------------------------------------
  alpha Z        PSCENC =        39.00944645
  Ewald energy   TEWEN  =     30251.77587787
  -Hartree energ DENC   =    -49155.91689697
  -exchange      EXHF   =         0.00000000
  -V(xc)+E(xc)   XCENC  =      -218.01351725
  PAW double counting   =     20229.58364162   -19380.74858026
  entropy T*S    EENTRO =         0.00000000
  eigenvalues    EBANDS =     -1510.37402476
  atomic energy  EATOM  =     19706.77397164
  ---------------------------------------------------
  free energy    TOTEN  =       -37.91008165 eV

  energy without entropy =      -37.91008165  energy(sigma->0) =      -37.91008165


--------------------------------------------------------------------------------------------------------




----------------------------------------- Iteration    1(  23)  ---------------------------------------


    POTLOK:  cpu time    0.22: real time    0.22
    SETDIJ:  cpu time    0.01: real time    0.01
     EDDAV:  cpu time    1.27: real time    1.27
       DOS:  cpu time    0.00: real time    0.00
    CHARGE:  cpu time    0.16: real time    0.16
    MIXING:  cpu time    0.02: real time    0.01
    --------------------------------------------
      LOOP:  cpu time    1.68: real time    1.70

 eigenvalue-minimisations  :   400
 total energy-change (2. order) :-0.3917308E-02  (-0.3925223E-04)
 number of electron     209.0000326 magnetization       1.0047816
 augmentation part      100.6174798 magnetization      -0.0067931

 Broyden mixing:
  rms(total) = 0.10836E-02    rms(broyden)= 0.10834E-02
  rms(prec ) = 0.14529E-02
  weight for this iteration     100.00

 eigenvalues of (default mixing * dielectric matrix)
  average eigenvalue GAMMA=   1.7413
  6.5914  4.9113  2.6852  2.6852  2.7026  1.5847  1.5847  1.0320  1.0320  1.0078
  0.8119  0.8119  0.6939  0.6939  0.6632  0.6572  0.5917  0.6021

 Free energy of the ion-electron system (eV)
  ---------------------------------------------------
  alpha Z        PSCENC =        39.00944645
  Ewald energy   TEWEN  =     30251.77587787
  -Hartree energ DENC   =    -49154.02647487
  -exchange      EXHF   =         0.00000000
  -V(xc)+E(xc)   XCENC  =      -218.02834475
  PAW double counting   =     20229.44272485   -19380.61493024
  entropy T*S    EENTRO =         0.00000000
  eigenvalues    EBANDS =     -1512.24626991
  atomic energy  EATOM  =     19706.77397164
  ---------------------------------------------------
  free energy    TOTEN  =       -37.91399896 eV

  energy without entropy =      -37.91399896  energy(sigma->0) =      -37.91399896


--------------------------------------------------------------------------------------------------------




----------------------------------------- Iteration    1(  24)  ---------------------------------------


    POTLOK:  cpu time    0.22: real time    0.22
    SETDIJ:  cpu time    0.01: real time    0.01
     EDDAV:  cpu time    1.24: real time    1.24
       DOS:  cpu time    0.00: real time    0.00
    CHARGE:  cpu time    0.16: real time    0.16
    MIXING:  cpu time    0.02: real time    0.01
    --------------------------------------------
      LOOP:  cpu time    1.64: real time    1.65

 eigenvalue-minimisations  :   384
 total energy-change (2. order) :-0.1006166E-02  (-0.6198934E-05)
 number of electron     209.0000326 magnetization       0.9995159
 augmentation part      100.6178228 magnetization      -0.0117800

 Broyden mixing:
  rms(total) = 0.72497E-03    rms(broyden)= 0.72493E-03
  rms(prec ) = 0.10006E-02
  weight for this iteration     100.00

 eigenvalues of (default mixing * dielectric matrix)
  average eigenvalue GAMMA=   1.7568
  6.6766  5.2428  3.2186  2.5333  2.5333  1.6574  1.6574  1.3428  1.1034  0.9826
  0.9826  0.8669  0.6976  0.6976  0.7090  0.5924  0.5924  0.6463  0.6463

 Free energy of the ion-electron system (eV)
  ---------------------------------------------------
  alpha Z        PSCENC =        39.00944645
  Ewald energy   TEWEN  =     30251.77587787
  -Hartree energ DENC   =    -49153.36479203
  -exchange      EXHF   =         0.00000000
  -V(xc)+E(xc)   XCENC  =      -218.03280658
  PAW double counting   =     20229.53218600   -19380.70440554
  entropy T*S    EENTRO =         0.00000000
  eigenvalues    EBANDS =     -1512.90448294
  atomic energy  EATOM  =     19706.77397164
  ---------------------------------------------------
  free energy    TOTEN  =       -37.91500513 eV

  energy without entropy =      -37.91500513  energy(sigma->0) =      -37.91500513


--------------------------------------------------------------------------------------------------------




----------------------------------------- Iteration    1(  25)  ---------------------------------------


    POTLOK:  cpu time    0.22: real time    0.22
    SETDIJ:  cpu time    0.01: real time    0.01
     EDDAV:  cpu time    1.24: real time    1.24
       DOS:  cpu time    0.00: real time    0.00
    CHARGE:  cpu time    0.16: real time    0.16
    MIXING:  cpu time    0.01: real time    0.01
    --------------------------------------------
      LOOP:  cpu time    1.64: real time    1.66

 eigenvalue-minimisations  :   384
 total energy-change (2. order) :-0.6545459E-03  (-0.2603950E-05)
 number of electron     209.0000326 magnetization       0.9985466
 augmentation part      100.6174917 magnetization      -0.0124977

 Broyden mixing:
  rms(total) = 0.30533E-03    rms(broyden)= 0.30523E-03
  rms(prec ) = 0.52043E-03
  weight for this iteration     100.00

 eigenvalues of (default mixing * dielectric matrix)
  average eigenvalue GAMMA=   1.8081
  6.7222  5.9720  3.6238  2.5494  2.5494  2.3228  1.5683  1.5683  1.0071  1.0071
  0.9978  0.9057  0.6992  0.6992  0.7856  0.7181  0.6398  0.6398  0.5927  0.5927

 Free energy of the ion-electron system (eV)
  ---------------------------------------------------
  alpha Z        PSCENC =        39.00944645
  Ewald energy   TEWEN  =     30251.77587787
  -Hartree energ DENC   =    -49153.08770696
  -exchange      EXHF   =         0.00000000
  -V(xc)+E(xc)   XCENC  =      -218.03394119
  PAW double counting   =     20229.75350444   -19380.92632677
  entropy T*S    EENTRO =         0.00000000
  eigenvalues    EBANDS =     -1513.18048515
  atomic energy  EATOM  =     19706.77397164
  ---------------------------------------------------
  free energy    TOTEN  =       -37.91565967 eV

  energy without entropy =      -37.91565967  energy(sigma->0) =      -37.91565967


--------------------------------------------------------------------------------------------------------




----------------------------------------- Iteration    1(  26)  ---------------------------------------


    POTLOK:  cpu time    0.22: real time    0.22
    SETDIJ:  cpu time    0.01: real time    0.01
     EDDAV:  cpu time    1.19: real time    1.19
       DOS:  cpu time    0.00: real time    0.00
    --------------------------------------------
      LOOP:  cpu time    1.42: real time    1.44

 eigenvalue-minimisations  :   360
 total energy-change (2. order) : 0.9394716E-07  (-0.1139926E-05)
 number of electron     209.0000326 magnetization       0.9985466
 augmentation part      100.6174917 magnetization      -0.0124977

 Free energy of the ion-electron system (eV)
  ---------------------------------------------------
  alpha Z        PSCENC =        39.00944645
  Ewald energy   TEWEN  =     30251.77587787
  -Hartree energ DENC   =    -49152.95831098
  -exchange      EXHF   =         0.00000000
  -V(xc)+E(xc)   XCENC  =      -218.03393940
  PAW double counting   =     20229.87230991   -19381.04409819
  entropy T*S    EENTRO =         0.00000000
  eigenvalues    EBANDS =     -1513.31091688
  atomic energy  EATOM  =     19706.77397164
  ---------------------------------------------------
  free energy    TOTEN  =       -37.91565958 eV

  energy without entropy =      -37.91565958  energy(sigma->0) =      -37.91565958


--------------------------------------------------------------------------------------------------------




 average (electrostatic) potential at core
  the test charge radii are     1.1249
  (the norm of the test charge is              1.0000)
       1 -82.0775       2 -82.2024       3 -82.1840       4 -82.1751       5 -82.1179
       6 -82.1751       7 -82.6118       8 -82.0429       9 -82.2000      10 -82.1620
      11 -82.2024      12 -82.0429      13 -82.0775      14 -82.2000      15 -82.2526
      16 -82.2617      17 -82.0023      18 -82.1620      19 -82.4931
 
 
 
 E-fermi :  -3.4170     XC(G=0):  -0.9615     alpha+bet : -0.5541


 spin component 1

 k-point     1 :       0.0000    0.0000    0.0000
  band No.  band energies     occupation 
      1      -9.3952      1.00000
      2      -9.0034      1.00000
      3      -8.9693      1.00000
      4      -8.9621      1.00000
      5      -8.9340      1.00000
      6      -8.9187      1.00000
      7      -8.8731      1.00000
      8      -8.7573      1.00000
      9      -8.7429      1.00000
     10      -8.4765      1.00000
     11      -8.4410      1.00000
     12      -8.3721      1.00000
     13      -8.3300      1.00000
     14      -8.2889      1.00000
     15      -8.2521      1.00000
     16      -8.2392      1.00000
     17      -8.1962      1.00000
     18      -8.1938      1.00000
     19      -8.1805      1.00000
     20      -8.1751      1.00000
     21      -8.1485      1.00000
     22      -8.1139      1.00000
     23      -8.0568      1.00000
     24      -8.0254      1.00000
     25      -8.0134      1.00000
     26      -8.0025      1.00000
     27      -7.9898      1.00000
     28      -7.9684      1.00000
     29      -7.8324      1.00000
     30      -7.8321      1.00000
     31      -7.7927      1.00000
     32      -7.7867      1.00000
     33      -7.7746      1.00000
     34      -7.7544      1.00000
     35      -7.7206      1.00000
     36      -7.6492      1.00000
     37      -7.6277      1.00000
     38      -7.5803      1.00000
     39      -7.5709      1.00000
     40      -7.5550      1.00000
     41      -7.5375      1.00000
     42      -7.5331      1.00000
     43      -7.4763      1.00000
     44      -7.4705      1.00000
     45      -7.4632      1.00000
     46      -7.4497      1.00000
     47      -7.4274      1.00000
     48      -7.3752      1.00000
     49      -7.3639      1.00000
     50      -7.2816      1.00000
     51      -7.2116      1.00000
     52      -7.1736      1.00000
     53      -7.1240      1.00000
     54      -7.1172      1.00000
     55      -7.1045      1.00000
     56      -7.0888      1.00000
     57      -7.0677      1.00000
     58      -7.0443      1.00000
     59      -7.0424      1.00000
     60      -7.0277      1.00000
     61      -7.0209      1.00000
     62      -7.0093      1.00000
     63      -7.0032      1.00000
     64      -6.9690      1.00000
     65      -6.9571      1.00000
     66      -6.9475      1.00000
     67      -6.9311      1.00000
     68      -6.8997      1.00000
     69      -6.8950      1.00000
     70      -6.8730      1.00000
     71      -6.8690      1.00000
     72      -6.8310      1.00000
     73      -6.8265      1.00000
     74      -6.7685      1.00000
     75      -6.7639      1.00000
     76      -6.7568      1.00000
     77      -6.7180      1.00000
     78      -6.7069      1.00000
     79      -6.6771      1.00000
     80      -6.6534      1.00000
     81      -6.6471      1.00000
     82      -6.6319      1.00000
     83      -6.5774      1.00000
     84      -6.5627      1.00000
     85      -6.5608      1.00000
     86      -6.5532      1.00000
     87      -6.5429      1.00000
     88      -6.5245      1.00000
     89      -6.5163      1.00000
     90      -6.4858      1.00000
     91      -6.4477      1.00000
     92      -6.4353      1.00000
     93      -6.4214      1.00000
     94      -6.3819      1.00000
     95      -6.3790      1.00000
     96      -6.3157      1.00000
     97      -6.3076      1.00000
     98      -6.1811      1.00000
     99      -6.0240      1.00000
    100      -4.7685      1.00000
    101      -4.7163      1.00000
    102      -4.5789      1.00000
    103      -4.2940      1.00000
    104      -3.9407      1.00000
    105      -3.4353      1.00000
    106      -2.6887      0.00000
    107      -2.5908      0.00000
    108      -2.5031      0.00000
    109      -2.4807      0.00000
    110      -2.3477      0.00000
    111      -2.1993      0.00000
    112      -2.0711      0.00000
    113      -2.0058      0.00000
    114      -1.6367      0.00000
    115      -1.3913      0.00000
    116      -0.7122      0.00000
    117      -0.6785      0.00000
    118      -0.6578      0.00000
    119      -0.5988      0.00000
    120      -0.5751      0.00000
    121      -0.5110      0.00000
    122      -0.4490      0.00000
    123      -0.4489      0.00000
    124      -0.2840      0.00000
    125      -0.2172      0.00000
    126      -0.0811      0.00000
    127       0.1778      0.00000
    128       0.4119      0.00000
    129       0.5789      0.00000
    130       0.6534      0.00000
    131       0.7200      0.00000
    132       0.7485      0.00000
    133       0.7574      0.00000
    134       0.7643      0.00000
    135       0.8090      0.00000
    136       0.9492      0.00000

 spin component 2

 k-point     1 :       0.0000    0.0000    0.0000
  band No.  band energies     occupation 
      1      -9.3493      1.00000
      2      -8.9766      1.00000
      3      -8.9432      1.00000
      4      -8.9400      1.00000
      5      -8.9112      1.00000
      6      -8.8964      1.00000
      7      -8.8497      1.00000
      8      -8.7384      1.00000
      9      -8.7220      1.00000
     10      -8.4623      1.00000
     11      -8.4249      1.00000
     12      -8.3566      1.00000
     13      -8.3195      1.00000
     14      -8.2758      1.00000
     15      -8.2421      1.00000
     16      -8.2296      1.00000
     17      -8.1856      1.00000
     18      -8.1823      1.00000
     19      -8.1671      1.00000
     20      -8.1545      1.00000
     21      -8.1366      1.00000
     22      -8.1010      1.00000
     23      -8.0433      1.00000
     24      -8.0148      1.00000
     25      -8.0018      1.00000
     26      -7.9877      1.00000
     27      -7.9782      1.00000
     28      -7.9475      1.00000
     29      -7.8219      1.00000
     30      -7.8208      1.00000
     31      -7.7826      1.00000
     32      -7.7691      1.00000
     33      -7.7571      1.00000
     34      -7.7436      1.00000
     35      -7.7086      1.00000
     36      -7.6379      1.00000
     37      -7.6139      1.00000
     38      -7.5682      1.00000
     39      -7.5611      1.00000
     40      -7.5454      1.00000
     41      -7.5252      1.00000
     42      -7.5214      1.00000
     43      -7.4675      1.00000
     44      -7.4614      1.00000
     45      -7.4508      1.00000
     46      -7.4379      1.00000
     47      -7.4159      1.00000
     48      -7.3654      1.00000
     49      -7.3542      1.00000
     50      -7.2737      1.00000
     51      -7.2027      1.00000
     52      -7.1642      1.00000
     53      -7.1099      1.00000
     54      -7.1078      1.00000
     55      -7.0925      1.00000
     56      -7.0737      1.00000
     57      -7.0541      1.00000
     58      -7.0332      1.00000
     59      -7.0327      1.00000
     60      -7.0148      1.00000
     61      -7.0100      1.00000
     62      -6.9936      1.00000
     63      -6.9930      1.00000
     64      -6.9525      1.00000
     65      -6.9475      1.00000
     66      -6.9319      1.00000
     67      -6.9174      1.00000
     68      -6.8798      1.00000
     69      -6.8782      1.00000
     70      -6.8626      1.00000
     71      -6.8596      1.00000
     72      -6.8182      1.00000
     73      -6.8145      1.00000
     74      -6.7531      1.00000
     75      -6.7492      1.00000
     76      -6.7472      1.00000
     77      -6.7024      1.00000
     78      -6.6955      1.00000
     79      -6.6646      1.00000
     80      -6.6378      1.00000
     81      -6.6347      1.00000
     82      -6.6202      1.00000
     83      -6.5637      1.00000
     84      -6.5505      1.00000
     85      -6.5497      1.00000
     86      -6.5396      1.00000
     87      -6.5292      1.00000
     88      -6.5070      1.00000
     89      -6.5033      1.00000
     90      -6.4604      1.00000
     91      -6.4361      1.00000
     92      -6.4194      1.00000
     93      -6.4049      1.00000
     94      -6.3684      1.00000
     95      -6.3681      1.00000
     96      -6.3025      1.00000
     97      -6.2975      1.00000
     98      -6.1580      1.00000
     99      -5.9684      1.00000
    100      -4.7167      1.00000
    101      -4.6992      1.00000
    102      -4.5469      1.00000
    103      -4.2556      1.00000
    104      -3.8908      1.00000
    105      -3.2995      0.00000
    106      -2.6498      0.00000
    107      -2.5520      0.00000
    108      -2.4824      0.00000
    109      -2.4342      0.00000
    110      -2.3123      0.00000
    111      -2.1594      0.00000
    112      -2.0104      0.00000
    113      -1.9456      0.00000
    114      -1.5418      0.00000
    115      -1.2641      0.00000
    116      -0.6759      0.00000
    117      -0.6221      0.00000
    118      -0.6112      0.00000
    119      -0.5616      0.00000
    120      -0.5327      0.00000
    121      -0.4589      0.00000
    122      -0.4013      0.00000
    123      -0.3995      0.00000
    124      -0.2321      0.00000
    125      -0.1675      0.00000
    126       0.0052      0.00000
    127       0.2411      0.00000
    128       0.4439      0.00000
    129       0.6560      0.00000
    130       0.6952      0.00000
    131       0.7709      0.00000
    132       0.7807      0.00000
    133       0.7807      0.00000
    134       0.8164      0.00000
    135       0.8360      0.00000
    136       0.8809      0.00000


--------------------------------------------------------------------------------------------------------


 soft charge-density along one line, spin component           1
         0         1         2         3         4         5         6         7         8         9
 total charge-density along one line
 
 soft charge-density along one line, spin component           2
         0         1         2         3         4         5         6         7         8         9
 total charge-density along one line
 
 pseudopotential strength for first ion, spin component:           1
-10.255  -0.001  -0.001   0.007   0.000 -10.233  -0.001  -0.001
 -0.001 -10.258   0.007   0.005  -0.008  -0.001 -10.235   0.007
 -0.001   0.007 -10.263  -0.005  -0.005  -0.001   0.007 -10.240
  0.007   0.005  -0.005 -10.253  -0.002   0.006   0.004  -0.005
  0.000  -0.008  -0.005  -0.002 -10.250   0.000  -0.008  -0.005
-10.233  -0.001  -0.001   0.006   0.000 -10.186  -0.001  -0.001
 -0.001 -10.235   0.007   0.004  -0.008  -0.001 -10.188   0.007
 -0.001   0.007 -10.240  -0.005  -0.005  -0.001   0.007 -10.193
  0.006   0.004  -0.005 -10.230  -0.002   0.006   0.004  -0.005
  0.000  -0.008  -0.005  -0.002 -10.228   0.000  -0.007  -0.005
[...]
     49      -7.4378      1.00000
     50      -7.3501      1.00000
     51      -7.2788      1.00000
     52      -7.2377      1.00000
     53      -7.1768      1.00000
     54      -7.1694      1.00000
     55      -7.1588      1.00000
     56      -7.1401      1.00000
     57      -7.1178      1.00000
     58      -7.0860      1.00000
     59      -7.0855      1.00000
     60      -7.0730      1.00000
     61      -7.0644      1.00000
     62      -7.0441      1.00000
     63      -7.0368      1.00000
     64      -6.9932      1.00000
     65      -6.9925      1.00000
     66      -6.9789      1.00000
     67      -6.9556      1.00000
     68      -6.9169      1.00000
     69      -6.9147      1.00000
     70      -6.8964      1.00000
     71      -6.8960      1.00000
     72      -6.8485      1.00000
     73      -6.8473      1.00000
     74      -6.7829      1.00000
     75      -6.7758      1.00000
     76      -6.7666      1.00000
     77      -6.7280      1.00000
     78      -6.7073      1.00000
     79      -6.6762      1.00000
     80      -6.6526      1.00000
     81      -6.6396      1.00000
     82      -6.6255      1.00000
     83      -6.5712      1.00000
     84      -6.5523      1.00000
     85      -6.5476      1.00000
     86      -6.5425      1.00000
     87      -6.5370      1.00000
     88      -6.5103      1.00000
     89      -6.5076      1.00000
     90      -6.4548      1.00000
     91      -6.4350      1.00000
     92      -6.4134      1.00000
     93      -6.3974      1.00000
     94      -6.3582      1.00000
     95      -6.3577      1.00000
     96      -6.3345      1.00000
     97      -6.2784      1.00000
     98      -6.1984      1.00000
     99      -6.0054      1.00000
    100      -4.7384      1.00000
    101      -4.7207      1.00000
    102      -4.5706      1.00000
    103      -4.2774      1.00000
    104      -3.8897      1.00000
    105      -3.2936      0.00000
    106      -2.6195      0.00000
    107      -2.5146      0.00000
    108      -2.4465      0.00000
    109      -2.4095      0.00000
    110      -2.2942      0.00000
    111      -2.1359      0.00000
    112      -1.9831      0.00000
    113      -1.9047      0.00000
    114      -1.4898      0.00000
    115      -1.2510      0.00000
    116      -0.6327      0.00000
    117      -0.5948      0.00000
    118      -0.5539      0.00000
    119      -0.5185      0.00000
    120      -0.4724      0.00000
    121      -0.4222      0.00000
    122      -0.3728      0.00000
    123      -0.3389      0.00000
    124      -0.1640      0.00000
    125      -0.1082      0.00000
    126       0.0640      0.00000
    127       0.3082      0.00000
    128       0.4641      0.00000
    129       0.6951      0.00000
    130       0.7148      0.00000
    131       0.7897      0.00000
    132       0.7922      0.00000
    133       0.7971      0.00000
    134       0.8610      0.00000
    135       0.8807      0.00000
    136       0.9210      0.00000


--------------------------------------------------------------------------------------------------------


 soft charge-density along one line, spin component           1
         0         1         2         3         4         5         6         7         8         9
 total charge-density along one line
 
 soft charge-density along one line, spin component           2
         0         1         2         3         4         5         6         7         8         9
 total charge-density along one line
 
 pseudopotential strength for first ion, spin component:           1
-10.282  -0.001  -0.002   0.008   0.000 -10.258  -0.001  -0.002
 -0.001 -10.286   0.008   0.005  -0.009  -0.001 -10.262   0.008
 -0.002   0.008 -10.291  -0.005  -0.006  -0.002   0.008 -10.267
  0.008   0.005  -0.005 -10.279  -0.002   0.008   0.005  -0.005
  0.000  -0.009  -0.006  -0.002 -10.277   0.000  -0.009  -0.005
-10.258  -0.001  -0.002   0.008   0.000 -10.210  -0.001  -0.002
 -0.001 -10.262   0.008   0.005  -0.009  -0.001 -10.213   0.008
 -0.002   0.008 -10.267  -0.005  -0.005  -0.002   0.008 -10.218
  0.008   0.005  -0.005 -10.255  -0.002   0.007   0.005  -0.005
  0.000  -0.009  -0.005  -0.002 -10.253   0.000  -0.008  -0.005
 -0.001  -0.004   0.001   0.001  -0.001  -0.001  -0.004   0.001
 -0.001  -0.006   0.001   0.001  -0.001  -0.001  -0.006   0.001
  0.006   0.022   0.015   0.000   0.025   0.005   0.021   0.014
  0.000  -0.024   0.025   0.005   0.000   0.000  -0.023   0.024
 -0.025   0.000  -0.004   0.023   0.006  -0.024   0.000  -0.004
  0.007   0.027   0.018   0.000   0.030   0.006   0.026   0.017
  0.000  -0.030   0.030   0.006   0.000   0.000  -0.028   0.029
 -0.030   0.000  -0.005   0.028   0.007  -0.029   0.000  -0.004
 pseudopotential strength for first ion, spin component:           2
-10.282  -0.001  -0.002   0.008   0.000 -10.258  -0.001  -0.002
 -0.001 -10.283   0.005   0.004  -0.009  -0.001 -10.259   0.005
 -0.002   0.005 -10.287  -0.004  -0.006  -0.002   0.005 -10.263
  0.008   0.004  -0.004 -10.279  -0.003   0.007   0.004  -0.004
  0.000  -0.009  -0.006  -0.003 -10.276   0.000  -0.009  -0.006
-10.258  -0.001  -0.002   0.007   0.000 -10.210  -0.001  -0.002
 -0.001 -10.259   0.005   0.004  -0.009  -0.001 -10.211   0.005
 -0.002   0.005 -10.263  -0.004  -0.006  -0.002   0.005 -10.214
  0.007   0.004  -0.004 -10.255  -0.002   0.007   0.004  -0.004
  0.000  -0.009  -0.006  -0.002 -10.253   0.000  -0.008  -0.006
 -0.001  -0.004   0.000   0.000  -0.001  -0.001  -0.004   0.000
 -0.001  -0.006   0.001   0.001  -0.001  -0.001  -0.006   0.001
  0.006   0.022   0.015   0.000   0.025   0.006   0.021   0.014
  0.000  -0.025   0.026   0.005   0.000   0.000  -0.024   0.025
 -0.025   0.000  -0.004   0.023   0.006  -0.024   0.000  -0.004
  0.007   0.027   0.018   0.000   0.031   0.007   0.026   0.017
  0.000  -0.031   0.032   0.006   0.000   0.000  -0.030   0.031
 -0.031   0.000  -0.005   0.028   0.008  -0.030   0.000  -0.005
 total augmentation occupancy for first ion, spin component:           1
  2.492   0.047   0.093  -0.183  -0.027  -0.538  -0.025  -0.075   0.191   0.028   0.062  -0.031   0.023   0.007  -0.112   0.002
  0.047   2.604  -0.047   0.025   0.091  -0.025  -0.564   0.081   0.004  -0.118   0.351  -0.101   0.081  -0.086   0.009   0.007
  0.093  -0.047   2.641  -0.070   0.065  -0.075   0.081  -0.677   0.020  -0.085   0.003   0.017   0.055   0.105  -0.038   0.006
 -0.183   0.025  -0.070   2.615   0.119   0.191   0.003   0.020  -0.603  -0.118  -0.043   0.030   0.008   0.015   0.122   0.000
 -0.027   0.091   0.065   0.119   2.697   0.028  -0.118  -0.085  -0.118  -0.656   0.037  -0.022   0.098   0.019   0.073   0.009
 -0.538  -0.025  -0.075   0.191   0.028   0.553   0.007   0.060  -0.200  -0.030  -0.051   0.023  -0.026  -0.008   0.132   0.002
 -0.025  -0.564   0.081   0.003  -0.118   0.007   0.509  -0.111  -0.028   0.143  -0.305   0.082  -0.096   0.106  -0.009   0.007
 -0.075   0.081  -0.677   0.020  -0.085   0.060  -0.111   0.681   0.023   0.104  -0.004  -0.011  -0.071  -0.134   0.037   0.004
  0.191   0.004   0.020  -0.603  -0.118  -0.200  -0.028   0.023   0.567   0.118   0.042  -0.024  -0.008  -0.026  -0.138   0.000
  0.028  -0.118  -0.085  -0.118  -0.656  -0.030   0.143   0.104   0.118   0.596  -0.028   0.010  -0.119  -0.020  -0.075   0.007
  0.062   0.351   0.003  -0.043   0.037  -0.051  -0.305  -0.004   0.042  -0.028   1.758  -0.228   0.180  -0.174  -0.056  -0.016
 -0.031  -0.101   0.017   0.030  -0.022   0.023   0.082  -0.011  -0.024   0.010  -0.228   0.045  -0.034   0.036   0.015   0.003
  0.023   0.081   0.055   0.008   0.098  -0.026  -0.096  -0.071  -0.008  -0.119   0.180  -0.034   0.060  -0.010   0.001  -0.004
  0.007  -0.086   0.105   0.015   0.019  -0.008   0.106  -0.134  -0.026  -0.020  -0.174   0.036  -0.010   0.062  -0.001   0.001
 -0.112   0.009  -0.038   0.122   0.073   0.132  -0.009   0.037  -0.138  -0.075  -0.056   0.015   0.001  -0.001   0.073   0.000
  0.002   0.007   0.006   0.000   0.009   0.002   0.007   0.004   0.000   0.007  -0.016   0.003  -0.004   0.001   0.000   0.001
 -0.000  -0.008   0.009   0.001  -0.000   0.000  -0.007   0.008   0.002   0.001   0.016  -0.003   0.001  -0.004  -0.000  -0.000
 -0.008   0.000   0.000   0.006  -0.001  -0.008   0.000  -0.002   0.009   0.004   0.005  -0.001   0.000  -0.000  -0.004  -0.000
 total augmentation occupancy for first ion, spin component:           2
 -0.008   0.008  -0.008   0.001  -0.000   0.003  -0.006   0.006  -0.001   0.000  -0.003  -0.001  -0.000  -0.003  -0.000   0.000
  0.008   0.033  -0.066  -0.020   0.002  -0.006  -0.031   0.051   0.016  -0.001  -0.035  -0.007   0.001  -0.026   0.004   0.000
 -0.008  -0.066   0.048   0.025  -0.007   0.006   0.051  -0.042  -0.019   0.005   0.033   0.008  -0.000   0.032  -0.004  -0.000
  0.001  -0.020   0.025  -0.018  -0.002  -0.001   0.016  -0.019   0.009   0.002   0.014   0.002   0.000   0.009  -0.001  -0.000
 -0.000   0.002  -0.007  -0.002  -0.007   0.000  -0.001   0.005   0.002   0.003  -0.003  -0.001   0.000  -0.002   0.001  -0.000
  0.003  -0.006   0.006  -0.001   0.000   0.002   0.004  -0.005   0.001   0.000   0.002   0.001  -0.000   0.002   0.000   0.000
 -0.006  -0.031   0.051   0.016  -0.001   0.004   0.031  -0.040  -0.013   0.001   0.030   0.003   0.001   0.020  -0.003  -0.000
  0.006   0.051  -0.042  -0.019   0.005  -0.005  -0.040   0.040   0.014  -0.004  -0.026  -0.004   0.000  -0.023   0.003   0.000
 -0.001   0.016  -0.019   0.009   0.002   0.001  -0.013   0.014   0.001  -0.002  -0.013  -0.001  -0.000  -0.007   0.002   0.000
  0.000  -0.001   0.005   0.002   0.003   0.000   0.001  -0.004  -0.002   0.001   0.003   0.000  -0.000   0.002  -0.001   0.000
 -0.003  -0.035   0.033   0.014  -0.003   0.002   0.030  -0.026  -0.013   0.003   0.031  -0.000   0.001   0.020  -0.003  -0.000
 -0.001  -0.007   0.008   0.002  -0.001   0.001   0.003  -0.004  -0.001   0.000  -0.000   0.001  -0.000   0.002  -0.000   0.000
 -0.000   0.001  -0.000   0.000   0.000  -0.000   0.001   0.000  -0.000  -0.000   0.001  -0.000   0.000   0.001  -0.000  -0.000
 -0.003  -0.026   0.032   0.009  -0.002   0.002   0.020  -0.023  -0.007   0.002   0.020   0.002   0.001   0.011  -0.002  -0.000
 -0.000   0.004  -0.004  -0.001   0.001   0.000  -0.003   0.003   0.002  -0.001  -0.003  -0.000  -0.000  -0.002   0.000   0.000
  0.000   0.000  -0.000  -0.000  -0.000   0.000  -0.000   0.000   0.000   0.000  -0.000   0.000  -0.000  -0.000   0.000   0.000
  0.000   0.000  -0.000  -0.000   0.000  -0.000  -0.000   0.000   0.000  -0.000  -0.000   0.000  -0.000  -0.000   0.000   0.000
  0.000  -0.000   0.000   0.000  -0.000  -0.000   0.000  -0.000  -0.000   0.000   0.000   0.000   0.000   0.000  -0.000  -0.000


------------------------ aborting loop because EDIFF is reached ----------------------------------------


    CHARGE:  cpu time    0.16: real time    0.16
    FORLOC:  cpu time    0.01: real time    0.01
    FORNL :  cpu time    0.91: real time    0.91
    STRESS:  cpu time    1.04: real time    1.04
    FORCOR:  cpu time    0.23: real time    0.23
    FORHAR:  cpu time    0.03: real time    0.03
    MIXING:  cpu time    0.01: real time    0.01
    OFIELD:  cpu time    0.00: real time    0.00

  FORCE on cell =-STRESS in cart. coord.  units (eV):
  Direction    XX          YY          ZZ          XY          YZ          ZX
  --------------------------------------------------------------------------------------
  Alpha Z    39.00945    39.00945    39.00945
  Ewald   11123.51750 12840.46862  7606.45548     7.01532     0.00000    -0.00000
  Hartree 17355.59117 18893.72026 14200.43230    -1.18413    -0.00000    -0.00000
  E(xc)   -1101.38570 -1100.95818 -1102.17582     0.03358    -0.00000    -0.00000
  Local  -31564.10846-34812.71389-24898.33150    -5.70265    -0.00000     0.00000
  n-local  -208.31343  -209.45397  -208.49205    -0.02867     0.00000     0.00000
  augment  1745.41868  1743.86674  1747.44809    -0.01415     0.00000    -0.00000
  Kinetic  2603.42152  2598.89144  2609.10724    -0.04244    -0.00000     0.00000
  Fock        0.00000     0.00000     0.00000     0.00000     0.00000     0.00000
  -------------------------------------------------------------------------------------
  Total      -6.84926    -7.16953    -6.54681     0.07686     0.00000     0.00000
  in kB      -1.39413    -1.45932    -1.33257     0.01564     0.00000     0.00000
  external pressure =       -1.40 kB  Pullay stress =        0.00 kB


 VOLUME and BASIS-vectors are now :
 -----------------------------------------------------------------------------
  energy-cutoff  :      249.84
  volume of cell :     7871.39
      direct lattice vectors                 reciprocal lattice vectors
    19.892248000  0.000000000  0.000000000     0.050270839  0.000000000  0.000000000
     0.000000000 19.892248000  0.000000000     0.000000000  0.050270839  0.000000000
     0.000000000  0.000000000 19.892248000     0.000000000  0.000000000  0.050270839

  length of vectors
    19.892248000 19.892248000 19.892248000     0.050270839  0.050270839  0.050270839


 FORCES acting on ions
    electron-ion (+dipol)            ewald-force                    non-local-force                 convergence-correction
 -----------------------------------------------------------------------------------------------
   -.273E+03 0.860E+03 -.903E+03   0.272E+03 -.856E+03 0.899E+03   0.100E+01 -.429E+01 0.390E+01   -.638E-03 0.240E-01 -.101E-01
   -.245E+03 -.761E+03 0.104E+04   0.244E+03 0.757E+03 -.104E+04   0.835E+00 0.337E+01 -.386E+01   0.106E-02 -.173E-01 -.166E-01
   0.653E+02 -.128E+04 0.109E-04   -.649E+02 0.128E+04 -.355E-13   -.383E+00 0.462E+01 0.254E-25   0.923E-02 0.136E-01 -.672E-11
   0.920E+03 -.685E+03 0.629E+03   -.917E+03 0.682E+03 -.627E+03   -.329E+01 0.286E+01 -.206E+01   0.187E-02 -.513E-02 -.107E-01
   -.869E+03 0.911E+03 0.139E-05   0.866E+03 -.907E+03 -.285E-13   0.290E+01 -.386E+01 0.130E-25   -.358E-01 0.917E-02 -.187E-10
   0.920E+03 -.685E+03 -.629E+03   -.917E+03 0.682E+03 0.627E+03   -.329E+01 0.286E+01 0.206E+01   0.187E-02 -.513E-02 0.107E-01
   0.658E+02 -.328E+03 0.819E-05   -.654E+02 0.326E+03 0.142E-13   -.342E+00 0.137E+01 0.201E-25   0.353E-01 -.194E+00 -.177E-13
   0.755E+03 0.849E+03 -.558E+03   -.752E+03 -.844E+03 0.556E+03   -.309E+01 -.424E+01 0.204E+01   0.109E-01 0.124E-01 -.158E-01
   0.420E+03 0.704E+02 -.114E+04   -.419E+03 -.701E+02 0.114E+04   -.412E+00 -.259E+00 0.248E+01   0.321E-01 0.779E-02 -.269E-01
   -.762E+03 0.321E+02 0.855E+03   0.760E+03 -.321E+02 -.855E+03   0.123E+01 -.972E-02 -.551E+00   -.553E-01 0.128E-01 0.327E-01
   -.245E+03 -.761E+03 -.104E+04   0.244E+03 0.757E+03 0.104E+04   0.835E+00 0.337E+01 0.386E+01   0.106E-02 -.173E-01 0.166E-01
   0.755E+03 0.849E+03 0.558E+03   -.752E+03 -.844E+03 -.556E+03   -.309E+01 -.424E+01 -.204E+01   0.109E-01 0.124E-01 0.158E-01
   -.273E+03 0.860E+03 0.903E+03   0.272E+03 -.856E+03 -.899E+03   0.100E+01 -.429E+01 -.390E+01   -.638E-03 0.240E-01 0.101E-01
   0.420E+03 0.704E+02 0.114E+04   -.419E+03 -.701E+02 -.114E+04   -.412E+00 -.259E+00 -.248E+01   0.321E-01 0.779E-02 0.269E-01
   -.910E+03 -.868E+03 -.360E-05   0.908E+03 0.865E+03 -.426E-13   0.260E+01 0.324E+01 -.219E-27   -.370E-02 -.194E-01 -.388E-11
   0.121E+04 0.991E+02 0.585E-05   -.121E+04 -.991E+02 0.142E-13   -.332E+01 -.126E-01 -.372E-28   0.327E-01 0.179E-01 -.307E-11
   -.122E+04 -.458E+02 0.185E-05   0.122E+04 0.456E+02 0.194E-16   0.595E+01 0.224E+00 -.122E-27   -.288E-01 -.302E-02 -.227E-10
   -.762E+03 0.321E+02 -.855E+03   0.760E+03 -.321E+02 0.855E+03   0.123E+01 -.972E-02 0.551E+00   -.553E-01 0.128E-01 -.327E-01
   0.280E+02 0.782E+03 -.144E-04   -.276E+02 -.782E+03 -.427E-13   -.461E+00 0.217E+00 -.104E-27   0.343E-01 0.711E-01 0.146E-10
 -----------------------------------------------------------------------------------------------
   0.588E+00 -.632E+00 -.479E-04   0.327E-12 0.796E-12 0.639E-12   -.493E+00 0.677E+00 -.888E-15   0.231E-01 -.355E-01 -.912E-10
 
 
 POSITION                                       TOTAL-FORCE (eV/Angst)
 -----------------------------------------------------------------------------------
     10.60487      7.38980     12.41315         0.006018      0.001245      0.006275
     10.39836     12.16624      7.56623        -0.002220      0.000489     -0.010196
      9.62508     13.69551      9.94612         0.019560     -0.054070     -0.000000
      7.63308     12.05956      8.47580         0.014129     -0.005727      0.000085
     12.43622      7.64179      9.94612        -0.010351     -0.022476      0.000000
      7.63308     12.05956     11.41645         0.014129     -0.005727     -0.000085
      9.69776     10.96182      9.94612         0.020944     -0.006429     -0.000000
      7.69200      7.30021     11.51638         0.005889      0.004667     -0.021485
      8.93325      9.68251     12.37008         0.006233      0.004551      0.017193
     11.77866      9.79890      8.24482        -0.026107      0.015626      0.010519
     10.39836     12.16624     12.32602        -0.002220      0.000489      0.010196
      7.69200      7.30021      8.37587         0.005889      0.004667      0.021485
     10.60487      7.38980      7.47909         0.006018      0.001245     -0.006275
      8.93325      9.68251      7.52217         0.006233      0.004551     -0.017193
     12.16901     12.13900      9.94612        -0.008754      0.010411      0.000000
      7.22208      9.60004      9.94612        -0.017485      0.019731     -0.000000
     13.98905      9.99472      9.94612        -0.019512     -0.000467     -0.000000
     11.77866      9.79890     11.64743        -0.026107      0.015626     -0.010519
      9.75669      8.14903      9.94612         0.007711      0.011599     -0.000000
 -----------------------------------------------------------------------------------
    total drift:                                0.117866      0.009443     -0.000048


--------------------------------------------------------------------------------------------------------



  FREE ENERGIE OF THE ION-ELECTRON SYSTEM (eV)
  ---------------------------------------------------
  free  energy   TOTEN  =       -38.11139082 eV

  energy  without entropy=      -38.11139082  energy(sigma->0) =      -38.11139082
 
 d Force = 0.2166259E-02[ 0.491E-03, 0.384E-02]  d Energy = 0.2626069E-02-0.460E-03
 d Force =-0.4129240E+02[-0.414E+02,-0.412E+02]  d Ewald  =-0.4129235E+02-0.514E-04


--------------------------------------------------------------------------------------------------------


    POTLOK:  cpu time    0.23: real time    0.24


--------------------------------------------------------------------------------------------------------




--------------------------------------------------------------------------------------------------------


  
 reached required accuracy - stopping structural energy minimisation
     LOOP+:  cpu time    8.15: real time    9.21
    4ORBIT:  cpu time    0.00: real time    0.00

 total amount of memory used by VASP on root node    57086. kBytes
========================================================================

   base      :      30000. kBytes
   nonl-proj :       1980. kBytes
   fftplans  :       5770. kBytes
   grid      :      14451. kBytes
   one-center:         46. kBytes
   wavefun   :       4839. kBytes
 
  
  
 General timing and accounting informations for this job:
 ========================================================
  
                  Total CPU time used (sec):      126.564
                            User time (sec):      124.008
                          System time (sec):        2.556
                         Elapsed time (sec):      130.121
  
                   Maximum memory used (kb):       65244.
                   Average memory used (kb):           0.
  
                          Minor page faults:       496581
                          Major page faults:            0
                 Voluntary context switches:         3090
