  44  44   0   0
  0.2529534E+03  0.2232704E-08  0.2232704E-08  0.2232704E-08  0.1000000E-15
  1.000000000000000E-004
  CAR 
 unknown system                          
      2.11139414    -10.26869066  301     -3.53186118      1.00000000
    -10.269  0.0000E+00  0.0000E+00  0.0000E+00  0.0000E+00
    -10.227  0.0000E+00  0.0000E+00  0.0000E+00  0.0000E+00
    -10.186  0.0000E+00  0.0000E+00  0.0000E+00  0.0000E+00
    -10.145  0.0000E+00  0.0000E+00  0.0000E+00  0.0000E+00
    -10.104  0.0000E+00  0.0000E+00  0.0000E+00  0.0000E+00
    -10.062  0.0000E+00  0.0000E+00  0.0000E+00  0.0000E+00
    -10.021  0.0000E+00  0.0000E+00  0.0000E+00  0.0000E+00
     -9.980  0.0000E+00  0.0000E+00  0.0000E+00  0.0000E+00
     -9.939  0.0000E+00  0.0000E+00  0.0000E+00  0.0000E+00
     -9.897  0.0000E+00  0.0000E+00  0.0000E+00  0.0000E+00
     -9.856  0.0000E+00  0.0000E+00  0.0000E+00  0.0000E+00
     -9.815  0.0000E+00  0.0000E+00  0.0000E+00  0.0000E+00
     -9.773  0.0000E+00  0.0000E+00  0.0000E+00  0.0000E+00
     -9.732  0.0000E+00  0.0000E+00  0.0000E+00  0.0000E+00
     -9.691  0.0000E+00  0.0000E+00  0.1000E-02  0.1000E-02
     -9.650  0.0000E+00  0.0000E+00  0.1000E-02  0.1000E-02
     -9.608  0.0000E+00  0.0000E+00  0.1000E-02  0.1000E-02
     -9.567  0.0000E+00  0.0000E+00  0.1000E-02  0.1000E-02
     -9.526  0.0000E+00  0.0000E+00  0.1000E-02  0.1000E-02
     -9.485  0.0000E+00  0.0000E+00  0.1000E-02  0.1000E-02
     -9.443  0.0000E+00  0.0000E+00  0.1000E-02  0.1000E-02
     -9.402  0.0000E+00  0.0000E+00  0.1000E-02  0.1000E-02
     -9.361  0.0000E+00  0.0000E+00  0.1000E-02  0.1000E-02
     -9.320  0.0000E+00  0.0000E+00  0.1000E-02  0.1000E-02
     -9.278  0.0000E+00  0.0000E+00  0.1000E-02  0.1000E-02
     -9.237  0.0000E+00  0.0000E+00  0.1000E-02  0.1000E-02
     -9.196  0.0000E+00  0.0000E+00  0.1000E-02  0.1000E-02
     -9.154  0.0000E+00  0.0000E+00  0.1000E-02  0.1000E-02
     -9.113  0.0000E+00  0.0000E+00  0.2000E-02  0.2000E-02
     -9.072  0.0000E+00  0.0000E+00  0.2000E-02  0.2000E-02
     -9.031  0.0000E+00  0.0000E+00  0.2000E-02  0.2000E-02
     -8.989  0.0000E+00  0.0000E+00  0.2000E-02  0.2000E-02
     -8.948  0.0000E+00  0.0000E+00  0.7000E-02  0.7000E-02
     -8.907  0.0000E+00  0.0000E+00  0.8000E-02  0.8000E-02
     -8.866  0.0000E+00  0.0000E+00  0.1000E-01  0.1000E-01
     -8.824  0.0000E+00  0.0000E+00  0.1400E-01  0.1400E-01
     -8.783  0.0000E+00  0.0000E+00  0.1400E-01  0.1400E-01
     -8.742  0.0000E+00  0.0000E+00  0.1600E-01  0.1600E-01
     -8.701  0.0000E+00  0.0000E+00  0.1800E-01  0.1800E-01
     -8.659  0.0000E+00  0.0000E+00  0.2100E-01  0.2100E-01
     -8.618  0.0000E+00  0.0000E+00  0.2300E-01  0.2300E-01
     -8.577  0.0000E+00  0.0000E+00  0.3100E-01  0.3100E-01
     -8.535  0.0000E+00  0.0000E+00  0.3200E-01  0.3200E-01
     -8.494  0.0000E+00  0.0000E+00  0.3200E-01  0.3200E-01
     -8.453  0.0000E+00  0.0000E+00  0.3500E-01  0.3500E-01
     -8.412  0.0000E+00  0.0000E+00  0.4000E-01  0.4000E-01
     -8.370  0.0000E+00  0.0000E+00  0.4000E-01  0.4000E-01
     -8.329  0.0000E+00  0.0000E+00  0.4000E-01  0.4000E-01
     -8.288  0.0000E+00  0.0000E+00  0.4200E-01  0.4200E-01
     -8.247  0.0000E+00  0.0000E+00  0.4500E-01  0.4500E-01
     -8.205  0.0000E+00  0.0000E+00  0.4900E-01  0.4900E-01
     -8.164  0.0000E+00  0.0000E+00  0.5100E-01  0.5100E-01
     -8.123  0.0000E+00  0.0000E+00  0.5100E-01  0.5100E-01
     -8.082  0.0000E+00  0.0000E+00  0.5300E-01  0.5300E-01
     -8.040  0.0000E+00  0.0000E+00  0.5600E-01  0.5600E-01
     -7.999  0.0000E+00  0.0000E+00  0.6100E-01  0.6100E-01
     -7.958  0.0000E+00  0.0000E+00  0.6400E-01  0.6400E-01
     -7.916  0.0000E+00  0.0000E+00  0.6700E-01  0.6700E-01
     -7.875  0.0000E+00  0.0000E+00  0.7100E-01  0.7100E-01
     -7.834  0.0000E+00  0.0000E+00  0.7200E-01  0.7200E-01
     -7.793  0.0000E+00  0.0000E+00  0.7700E-01  0.7700E-01
     -7.751  0.7370E-05  0.7371E-05  0.7900E-01  0.7900E-01
     -7.710  0.0000E+00  0.0000E+00  0.8500E-01  0.8500E-01
     -7.669  0.0000E+00  0.0000E+00  0.8600E-01  0.8600E-01
     -7.628  0.0000E+00  0.0000E+00  0.9300E-01  0.9300E-01
     -7.586  0.0000E+00  0.0000E+00  0.9300E-01  0.9300E-01
     -7.545  0.0000E+00  0.0000E+00  0.9400E-01  0.9400E-01
     -7.504  0.0000E+00  0.0000E+00  0.9800E-01  0.9800E-01
     -7.463  0.0000E+00  0.0000E+00  0.1020E+00  0.1020E+00
     -7.421  0.0000E+00  0.0000E+00  0.1040E+00  0.1040E+00
     -7.380  0.0000E+00  0.0000E+00  0.1060E+00  0.1060E+00
     -7.339  0.0000E+00  0.0000E+00  0.1120E+00  0.1120E+00
     -7.297  0.0000E+00  0.0000E+00  0.1120E+00  0.1120E+00
     -7.256  0.2423E-01  0.2423E-01  0.1170E+00  0.1170E+00
     -7.215  0.1333E-05  0.1331E-05  0.1220E+00  0.1220E+00
     -7.174  0.0000E+00  0.0000E+00  0.1250E+00  0.1250E+00
     -7.132  0.1953E-12  0.1949E-12  0.1270E+00  0.1270E+00
     -7.091  0.0000E+00  0.0000E+00  0.1300E+00  0.1300E+00
     -7.050  0.0000E+00  0.0000E+00  0.1320E+00  0.1320E+00
     -7.009  0.0000E+00  0.0000E+00  0.1340E+00  0.1340E+00
     -6.967  0.0000E+00  0.0000E+00  0.1370E+00  0.1370E+00
     -6.926  0.0000E+00  0.0000E+00  0.1400E+00  0.1400E+00
     -6.885  0.0000E+00  0.0000E+00  0.1460E+00  0.1460E+00
     -6.844  0.0000E+00  0.0000E+00  0.1500E+00  0.1500E+00
     -6.802  0.0000E+00  0.0000E+00  0.1540E+00  0.1540E+00
     -6.761  0.0000E+00  0.0000E+00  0.1600E+00  0.1600E+00
     -6.720  0.0000E+00  0.0000E+00  0.1640E+00  0.1640E+00
     -6.678  0.0000E+00  0.0000E+00  0.1670E+00  0.1670E+00
     -6.637  0.0000E+00  0.0000E+00  0.1730E+00  0.1730E+00
     -6.596  0.0000E+00  0.0000E+00  0.1730E+00  0.1730E+00
     -6.555  0.0000E+00  0.0000E+00  0.1780E+00  0.1780E+00
     -6.513  0.0000E+00  0.0000E+00  0.1790E+00  0.1790E+00
     -6.472  0.0000E+00  0.0000E+00  0.1880E+00  0.1880E+00
     -6.431  0.0000E+00  0.0000E+00  0.1900E+00  0.1900E+00
     -6.390  0.0000E+00  0.0000E+00  0.1980E+00  0.1980E+00
     -6.348  0.0000E+00  0.0000E+00  0.2020E+00  0.2020E+00
     -6.307  0.0000E+00  0.0000E+00  0.2040E+00  0.2040E+00
     -6.266  0.0000E+00  0.0000E+00  0.2070E+00  0.2070E+00
     -6.225  0.0000E+00  0.0000E+00  0.2090E+00  0.2090E+00
     -6.183  0.0000E+00  0.0000E+00  0.2130E+00  0.2130E+00
     -6.142  0.0000E+00  0.0000E+00  0.2150E+00  0.2150E+00
     -6.101  0.0000E+00  0.0000E+00  0.2200E+00  0.2200E+00
     -6.059  0.0000E+00  0.0000E+00  0.2240E+00  0.2240E+00
     -6.018  0.0000E+00  0.0000E+00  0.2260E+00  0.2260E+00
     -5.977  0.0000E+00  0.0000E+00  0.2270E+00  0.2270E+00
     -5.936  0.0000E+00  0.0000E+00  0.2270E+00  0.2270E+00
     -5.894  0.0000E+00  0.0000E+00  0.2270E+00  0.2270E+00
     -5.853  0.0000E+00  0.0000E+00  0.2270E+00  0.2270E+00
     -5.812  0.0000E+00  0.0000E+00  0.2270E+00  0.2270E+00
     -5.771  0.0000E+00  0.0000E+00  0.2270E+00  0.2270E+00
     -5.729  0.0000E+00  0.0000E+00  0.2270E+00  0.2270E+00
     -5.688  0.0000E+00  0.0000E+00  0.2270E+00  0.2270E+00
     -5.647  0.0000E+00  0.0000E+00  0.2270E+00  0.2270E+00
     -5.606  0.0000E+00  0.0000E+00  0.2270E+00  0.2270E+00
     -5.564  0.0000E+00  0.0000E+00  0.2270E+00  0.2270E+00
     -5.523  0.0000E+00  0.0000E+00  0.2290E+00  0.2290E+00
     -5.482  0.0000E+00  0.0000E+00  0.2290E+00  0.2290E+00
     -5.440  0.0000E+00  0.0000E+00  0.2300E+00  0.2300E+00
     -5.399  0.0000E+00  0.0000E+00  0.2300E+00  0.2300E+00
     -5.358  0.0000E+00  0.0000E+00  0.2300E+00  0.2300E+00
     -5.317  0.0000E+00  0.0000E+00  0.2300E+00  0.2300E+00
     -5.275  0.0000E+00  0.0000E+00  0.2300E+00  0.2300E+00
     -5.234  0.0000E+00  0.0000E+00  0.2300E+00  0.2300E+00
     -5.193  0.0000E+00  0.0000E+00  0.2300E+00  0.2300E+00
     -5.152  0.0000E+00  0.0000E+00  0.2300E+00  0.2300E+00
     -5.110  0.0000E+00  0.0000E+00  0.2300E+00  0.2300E+00
     -5.069  0.0000E+00  0.0000E+00  0.2310E+00  0.2310E+00
     -5.028  0.4517E-03  0.4509E-03  0.2310E+00  0.2310E+00
     -4.987  0.0000E+00  0.0000E+00  0.2330E+00  0.2330E+00
     -4.945  0.0000E+00  0.0000E+00  0.2330E+00  0.2330E+00
     -4.904  0.0000E+00  0.0000E+00  0.2330E+00  0.2330E+00
     -4.863  0.0000E+00  0.0000E+00  0.2330E+00  0.2330E+00
     -4.821  0.0000E+00  0.0000E+00  0.2330E+00  0.2330E+00
     -4.780  0.0000E+00  0.0000E+00  0.2330E+00  0.2330E+00
     -4.739  0.0000E+00  0.0000E+00  0.2330E+00  0.2330E+00
     -4.698  0.0000E+00  0.0000E+00  0.2330E+00  0.2330E+00
     -4.656  0.0000E+00  0.0000E+00  0.2330E+00  0.2330E+00
     -4.615  0.0000E+00  0.0000E+00  0.2330E+00  0.2330E+00
     -4.574  0.0000E+00  0.0000E+00  0.2330E+00  0.2330E+00
     -4.533  0.0000E+00  0.0000E+00  0.2330E+00  0.2330E+00
     -4.491  0.0000E+00  0.0000E+00  0.2330E+00  0.2330E+00
     -4.450  0.0000E+00  0.0000E+00  0.2330E+00  0.2330E+00
     -4.409  0.0000E+00  0.0000E+00  0.2330E+00  0.2330E+00
     -4.368  0.2423E-01  0.2423E-01  0.2350E+00  0.2350E+00
     -4.326  0.0000E+00  0.0000E+00  0.2350E+00  0.2350E+00
     -4.285  0.0000E+00  0.0000E+00  0.2360E+00  0.2360E+00
     -4.244  0.0000E+00  0.0000E+00  0.2360E+00  0.2360E+00
     -4.202  0.0000E+00  0.0000E+00  0.2360E+00  0.2360E+00
     -4.161  0.0000E+00  0.0000E+00  0.2360E+00  0.2360E+00
     -4.120  0.0000E+00  0.0000E+00  0.2360E+00  0.2360E+00
     -4.079  0.0000E+00  0.0000E+00  0.2360E+00  0.2360E+00
     -4.037  0.0000E+00  0.0000E+00  0.2360E+00  0.2360E+00
     -3.996  0.0000E+00  0.0000E+00  0.2360E+00  0.2360E+00
     -3.955  0.0000E+00  0.0000E+00  0.2360E+00  0.2360E+00
     -3.914  0.0000E+00  0.0000E+00  0.2360E+00  0.2360E+00
     -3.872  0.0000E+00  0.0000E+00  0.2370E+00  0.2370E+00
     -3.831  0.0000E+00  0.0000E+00  0.2370E+00  0.2370E+00
     -3.790  0.0000E+00  0.0000E+00  0.2370E+00  0.2370E+00
     -3.749  0.0000E+00  0.0000E+00  0.2370E+00  0.2370E+00
     -3.707  0.0000E+00  0.0000E+00  0.2370E+00  0.2370E+00
     -3.666  0.0000E+00  0.0000E+00  0.2380E+00  0.2380E+00
     -3.625  0.0000E+00  0.0000E+00  0.2380E+00  0.2380E+00
     -3.583  0.0000E+00  0.0000E+00  0.2400E+00  0.2400E+00
     -3.542  0.0000E+00  0.0000E+00  0.2420E+00  0.2420E+00
     -3.501  0.0000E+00  0.0000E+00  0.2420E+00  0.2420E+00
     -3.460  0.0000E+00  0.0000E+00  0.2420E+00  0.2420E+00
     -3.418  0.0000E+00  0.0000E+00  0.2420E+00  0.2420E+00
     -3.377  0.0000E+00  0.0000E+00  0.2430E+00  0.2430E+00
     -3.336  0.0000E+00  0.0000E+00  0.2430E+00  0.2430E+00
     -3.295  0.0000E+00  0.0000E+00  0.2430E+00  0.2430E+00
     -3.253  0.0000E+00  0.0000E+00  0.2430E+00  0.2430E+00
     -3.212  0.0000E+00  0.0000E+00  0.2430E+00  0.2430E+00
     -3.171  0.0000E+00  0.0000E+00  0.2430E+00  0.2430E+00
     -3.130  0.0000E+00  0.0000E+00  0.2430E+00  0.2430E+00
     -3.088  0.0000E+00  0.0000E+00  0.2430E+00  0.2430E+00
     -3.047  0.0000E+00  0.0000E+00  0.2450E+00  0.2450E+00
     -3.006  0.0000E+00  0.0000E+00  0.2450E+00  0.2450E+00
     -2.964  0.0000E+00  0.0000E+00  0.2450E+00  0.2450E+00
     -2.923  0.0000E+00  0.0000E+00  0.2450E+00  0.2450E+00
     -2.882  0.0000E+00  0.0000E+00  0.2450E+00  0.2450E+00
     -2.841  0.0000E+00  0.0000E+00  0.2450E+00  0.2450E+00
     -2.799  0.0000E+00  0.0000E+00  0.2450E+00  0.2450E+00
     -2.758  0.0000E+00  0.0000E+00  0.2450E+00  0.2450E+00
     -2.717  0.0000E+00  0.0000E+00  0.2460E+00  0.2460E+00
     -2.676  0.0000E+00  0.0000E+00  0.2460E+00  0.2460E+00
     -2.634  0.0000E+00  0.0000E+00  0.2460E+00  0.2460E+00
     -2.593  0.0000E+00  0.0000E+00  0.2460E+00  0.2460E+00
     -2.552  0.0000E+00  0.0000E+00  0.2460E+00  0.2460E+00
     -2.511  0.0000E+00  0.0000E+00  0.2460E+00  0.2460E+00
     -2.469  0.0000E+00  0.0000E+00  0.2460E+00  0.2460E+00
     -2.428  0.0000E+00  0.0000E+00  0.2480E+00  0.2480E+00
     -2.387  0.0000E+00  0.0000E+00  0.2480E+00  0.2480E+00
     -2.345  0.0000E+00  0.0000E+00  0.2480E+00  0.2480E+00
     -2.304  0.0000E+00  0.0000E+00  0.2490E+00  0.2490E+00
     -2.263  0.0000E+00  0.0000E+00  0.2500E+00  0.2500E+00
     -2.222  0.0000E+00  0.0000E+00  0.2500E+00  0.2500E+00
     -2.180  0.0000E+00  0.0000E+00  0.2500E+00  0.2500E+00
     -2.139  0.0000E+00  0.0000E+00  0.2500E+00  0.2500E+00
     -2.098  0.0000E+00  0.0000E+00  0.2500E+00  0.2500E+00
     -2.057  0.2423E-01  0.2423E-01  0.2510E+00  0.2510E+00
     -2.015  0.0000E+00  0.0000E+00  0.2510E+00  0.2510E+00
     -1.974  0.0000E+00  0.0000E+00  0.2510E+00  0.2510E+00
     -1.933  0.0000E+00  0.0000E+00  0.2530E+00  0.2530E+00
     -1.891  0.0000E+00  0.0000E+00  0.2530E+00  0.2530E+00
     -1.850  0.0000E+00  0.0000E+00  0.2550E+00  0.2550E+00
     -1.809  0.0000E+00  0.0000E+00  0.2580E+00  0.2580E+00
     -1.768  0.0000E+00  0.0000E+00  0.2580E+00  0.2580E+00
     -1.726  0.0000E+00  0.0000E+00  0.2580E+00  0.2580E+00
     -1.685  0.0000E+00  0.0000E+00  0.2580E+00  0.2580E+00
     -1.644  0.0000E+00  0.0000E+00  0.2580E+00  0.2580E+00
     -1.603  0.0000E+00  0.0000E+00  0.2600E+00  0.2600E+00
     -1.561  0.0000E+00  0.0000E+00  0.2600E+00  0.2600E+00
     -1.520  0.0000E+00  0.0000E+00  0.2600E+00  0.2600E+00
     -1.479  0.0000E+00  0.0000E+00  0.2600E+00  0.2600E+00
     -1.438  0.0000E+00  0.0000E+00  0.2610E+00  0.2610E+00
     -1.396  0.0000E+00  0.0000E+00  0.2610E+00  0.2610E+00
     -1.355  0.0000E+00  0.0000E+00  0.2610E+00  0.2610E+00
     -1.314  0.0000E+00  0.0000E+00  0.2610E+00  0.2610E+00
     -1.272  0.0000E+00  0.0000E+00  0.2610E+00  0.2610E+00
     -1.231  0.0000E+00  0.0000E+00  0.2610E+00  0.2610E+00
     -1.190  0.0000E+00  0.0000E+00  0.2610E+00  0.2610E+00
     -1.149  0.0000E+00  0.0000E+00  0.2610E+00  0.2610E+00
     -1.107  0.0000E+00  0.0000E+00  0.2610E+00  0.2610E+00
     -1.066  0.0000E+00  0.0000E+00  0.2610E+00  0.2610E+00
     -1.025  0.0000E+00  0.0000E+00  0.2610E+00  0.2610E+00
     -0.984  0.0000E+00  0.0000E+00  0.2640E+00  0.2640E+00
     -0.942  0.0000E+00  0.0000E+00  0.2640E+00  0.2640E+00
     -0.901  0.0000E+00  0.0000E+00  0.2640E+00  0.2640E+00
     -0.860  0.0000E+00  0.0000E+00  0.2650E+00  0.2650E+00
     -0.819  0.0000E+00  0.0000E+00  0.2650E+00  0.2650E+00
     -0.777  0.0000E+00  0.0000E+00  0.2650E+00  0.2650E+00
     -0.736  0.2423E-01  0.2423E-01  0.2660E+00  0.2660E+00
     -0.695  0.2423E-01  0.2423E-01  0.2680E+00  0.2680E+00
     -0.653  0.0000E+00  0.0000E+00  0.2680E+00  0.2680E+00
     -0.612  0.0000E+00  0.0000E+00  0.2680E+00  0.2680E+00
     -0.571  0.0000E+00  0.0000E+00  0.2680E+00  0.2680E+00
     -0.530  0.0000E+00  0.0000E+00  0.2680E+00  0.2680E+00
     -0.488  0.0000E+00  0.0000E+00  0.2680E+00  0.2680E+00
     -0.447  0.0000E+00  0.0000E+00  0.2700E+00  0.2700E+00
     -0.406  0.0000E+00  0.0000E+00  0.2700E+00  0.2700E+00
     -0.365  0.0000E+00  0.0000E+00  0.2700E+00  0.2700E+00
     -0.323  0.0000E+00  0.0000E+00  0.2700E+00  0.2700E+00
     -0.282  0.0000E+00  0.0000E+00  0.2700E+00  0.2700E+00
     -0.241  0.0000E+00  0.0000E+00  0.2700E+00  0.2700E+00
     -0.200  0.0000E+00  0.0000E+00  0.2700E+00  0.2700E+00
     -0.158  0.0000E+00  0.0000E+00  0.2700E+00  0.2700E+00
     -0.117  0.0000E+00  0.0000E+00  0.2710E+00  0.2710E+00
     -0.076  0.0000E+00  0.0000E+00  0.2710E+00  0.2710E+00
     -0.034  0.0000E+00  0.0000E+00  0.2730E+00  0.2730E+00
      0.007  0.0000E+00  0.0000E+00  0.2730E+00  0.2730E+00
      0.048  0.1551E-03  0.1541E-03  0.2750E+00  0.2750E+00
      0.089  0.0000E+00  0.0000E+00  0.2760E+00  0.2760E+00
      0.131  0.0000E+00  0.0000E+00  0.2760E+00  0.2760E+00
      0.172  0.3766E-04  0.3709E-04  0.2770E+00  0.2770E+00
      0.213  0.0000E+00  0.0000E+00  0.2790E+00  0.2790E+00
      0.254  0.0000E+00  0.0000E+00  0.2790E+00  0.2790E+00
      0.296  0.0000E+00  0.0000E+00  0.2810E+00  0.2810E+00
      0.337  0.0000E+00  0.0000E+00  0.2810E+00  0.2810E+00
      0.378  0.0000E+00  0.0000E+00  0.2820E+00  0.2820E+00
      0.419  0.0000E+00  0.0000E+00  0.2820E+00  0.2820E+00
      0.461  0.0000E+00  0.0000E+00  0.2820E+00  0.2820E+00
      0.502  0.0000E+00  0.0000E+00  0.2850E+00  0.2850E+00
      0.543  0.0000E+00  0.0000E+00  0.2850E+00  0.2850E+00
      0.585  0.0000E+00  0.0000E+00  0.2850E+00  0.2850E+00
      0.626  0.0000E+00  0.0000E+00  0.2850E+00  0.2850E+00
      0.667  0.0000E+00  0.0000E+00  0.2860E+00  0.2860E+00
      0.708  0.0000E+00  0.0000E+00  0.2860E+00  0.2860E+00
      0.750  0.0000E+00  0.0000E+00  0.2860E+00  0.2860E+00
      0.791  0.2423E-01  0.2423E-01  0.2870E+00  0.2870E+00
      0.832  0.0000E+00  0.0000E+00  0.2870E+00  0.2870E+00
      0.873  0.0000E+00  0.0000E+00  0.2880E+00  0.2880E+00
      0.915  0.0000E+00  0.0000E+00  0.2880E+00  0.2880E+00
      0.956  0.0000E+00  0.0000E+00  0.2890E+00  0.2890E+00
      0.997  0.0000E+00  0.0000E+00  0.2900E+00  0.2900E+00
      1.038  0.0000E+00  0.0000E+00  0.2910E+00  0.2910E+00
      1.080  0.0000E+00  0.0000E+00  0.2920E+00  0.2920E+00
      1.121  0.0000E+00  0.0000E+00  0.2940E+00  0.2940E+00
      1.162  0.0000E+00  0.0000E+00  0.2960E+00  0.2960E+00
      1.204  0.2408E-01  0.2406E-01  0.2980E+00  0.2980E+00
      1.245  0.0000E+00  0.0000E+00  0.3000E+00  0.3000E+00
      1.286  0.0000E+00  0.0000E+00  0.3000E+00  0.3000E+00
      1.327  0.0000E+00  0.0000E+00  0.3010E+00  0.3010E+00
      1.369  0.0000E+00  0.0000E+00  0.3030E+00  0.3030E+00
      1.410  0.0000E+00  0.0000E+00  0.3050E+00  0.3050E+00
      1.451  0.0000E+00  0.0000E+00  0.3060E+00  0.3060E+00
      1.492  0.0000E+00  0.0000E+00  0.3080E+00  0.3080E+00
      1.534  0.0000E+00  0.0000E+00  0.3100E+00  0.3100E+00
      1.575  0.0000E+00  0.0000E+00  0.3120E+00  0.3120E+00
      1.616  0.0000E+00  0.0000E+00  0.3120E+00  0.3120E+00
      1.657  0.0000E+00  0.0000E+00  0.3120E+00  0.3120E+00
      1.699  0.0000E+00  0.0000E+00  0.3120E+00  0.3120E+00
      1.740  0.0000E+00  0.0000E+00  0.3120E+00  0.3120E+00
      1.781  0.0000E+00  0.0000E+00  0.3120E+00  0.3120E+00
      1.823  0.0000E+00  0.0000E+00  0.3120E+00  0.3120E+00
      1.864  0.0000E+00  0.0000E+00  0.3120E+00  0.3120E+00
      1.905  0.0000E+00  0.0000E+00  0.3120E+00  0.3120E+00
      1.946  0.0000E+00  0.0000E+00  0.3120E+00  0.3120E+00
      1.988  0.0000E+00  0.0000E+00  0.3120E+00  0.3120E+00
      2.029  0.0000E+00  0.0000E+00  0.3120E+00  0.3120E+00
      2.070  0.0000E+00  0.0000E+00  0.3120E+00  0.3120E+00
      2.111  0.0000E+00  0.0000E+00  0.3120E+00  0.3120E+00
