17
Energy = -32.84849450 eV
Ag 13.92569671297091 12.664387817914477 13.017985457626574
Ag 12.664854547823145 12.967815700631938 10.609217111695353
Ag 12.905873373229339 10.256326119386365 12.130102435484838
Ag 11.070847299768896 12.970205560593241 8.20792778916626
Ag 11.369926230684033 10.666499840380135 9.62319264865637
Ag 13.455888678616258 8.546292889631307 10.043249236801564
Ag 11.208120591667102 12.18423673261427 13.022493680098323
Ag 11.310770788070903 8.230159230965198 8.255199070124887
Ag 10.510201545220905 9.551138021851976 13.686324159404364
Ag 9.939912841778554 13.303304834235062 10.743827199922686
Ag 11.00955003983917 8.388653936237652 11.197570037419615
Ag 8.864755533862581 9.031868600912867 9.42181820430801
Ag 9.077542116901176 10.77822652097271 11.616647266251096
Ag 10.085287616760967 10.47518871988676 7.140022238558955
Ag 8.658030913649725 13.087036588895035 13.164425194584432
Ag 8.48101680532352 11.736907822833647 9.00574117908551
Ag 8.502050925771538 8.062252087605197 12.12441744872293
