<?xml version="1.0" encoding="ISO-8859-1"?>
<modeling>
 <generator>
  <i name="program" type="string">vasp </i>
  <i name="version" type="string">5.3.5  </i>
  <i name="subversion" type="string">31Mar14 (build Feb 01 2018 12:10:03) gamma-only                       parallel </i>
  <i name="platform" type="string">LinuxIFC </i>
  <i name="date" type="string">2019 03 23 </i>
  <i name="time" type="string">12:32:24 </i>
 </generator>
 <incar>
  <i type="string" name="PREC">normal</i>
  <i type="int" name="ISPIN">     2</i>
  <i type="int" name="IBRION">     2</i>
  <i type="int" name="NSW">  1000</i>
  <i type="int" name="ISIF">     2</i>
  <i name="POTIM">      0.10000000</i>
  <i type="logical" name="LPLANE"> T  </i>
  <i type="int" name="ISMEAR">     0</i>
  <i name="SIGMA">      0.00010000</i>
  <i type="logical" name="LWAVE"> F  </i>
  <i type="logical" name="LCHARG"> F  </i>
  <i type="logical" name="LVTOT"> F  </i>
  <i type="string" name="GGA"> PE</i>
 </incar>
 <kpoints>
  <varray name="kpointlist" >
   <v>       0.00000000       0.00000000       0.00000000 </v>
  </varray>
  <varray name="weights" >
   <v>       1.00000000 </v>
  </varray>
 </kpoints>
 <parameters>
  <separator name="general" >
   <i type="string" name="SYSTEM">unknown system</i>
   <i type="logical" name="LCOMPAT"> F  </i>
  </separator>
  <separator name="electronic" >
   <i type="string" name="PREC">normal</i>
   <i name="ENMAX">    249.84400000</i>
   <i name="ENAUG">    412.49600000</i>
   <i name="EDIFF">      0.00010000</i>
   <i type="int" name="IALGO">    38</i>
   <i type="int" name="IWAVPR">    11</i>
   <i type="int" name="NBANDS">    52</i>
   <i name="NELECT">     77.00000000</i>
   <i type="int" name="TURBO">     0</i>
   <i type="int" name="IRESTART">     0</i>
   <i type="int" name="NREBOOT">     0</i>
   <i type="int" name="NMIN">     0</i>
   <i name="EREF">      0.00000000</i>
   <separator name="electronic smearing" >
    <i type="int" name="ISMEAR">     0</i>
    <i name="SIGMA">      0.00010000</i>
    <i name="KSPACING">      0.50000000</i>
    <i type="logical" name="KGAMMA"> T  </i>
   </separator>
   <separator name="electronic projectors" >
    <i type="logical" name="LREAL"> F  </i>
    <v name="ROPT">      0.00000000</v>
    <i type="int" name="LMAXPAW">  -100</i>
    <i type="int" name="LMAXMIX">     2</i>
    <i type="logical" name="NLSPLINE"> F  </i>
   </separator>
   <separator name="electronic startup" >
    <i type="int" name="ISTART">     0</i>
    <i type="int" name="ICHARG">     2</i>
    <i type="int" name="INIWAV">     1</i>
   </separator>
   <separator name="electronic spin" >
    <i type="int" name="ISPIN">     2</i>
    <i type="logical" name="LNONCOLLINEAR"> F  </i>
    <v name="MAGMOM">      1.00000000      1.00000000      1.00000000      1.00000000      1.00000000      1.00000000      1.00000000</v>
    <i name="NUPDOWN">     -1.00000000</i>
    <i type="logical" name="LSORBIT"> F  </i>
    <v name="SAXIS">      0.00000000      0.00000000      1.00000000</v>
    <i type="logical" name="LSPIRAL"> F  </i>
    <v name="QSPIRAL">      0.00000000      0.00000000      0.00000000</v>
    <i type="logical" name="LZEROZ"> F  </i>
   </separator>
   <separator name="electronic exchange-correlation" >
    <i type="logical" name="LASPH"> F  </i>
    <i type="logical" name="LMETAGGA"> F  </i>
   </separator>
   <separator name="electronic convergence" >
    <i type="int" name="NELM">    60</i>
    <i type="int" name="NELMDL">    -5</i>
    <i type="int" name="NELMIN">     2</i>
    <i name="ENINI">    249.84400000</i>
    <separator name="electronic convergence detail" >
     <i type="logical" name="LDIAG"> T  </i>
     <i type="logical" name="LSUBROT"> F  </i>
     <i name="WEIMIN">      0.00100000</i>
     <i name="EBREAK">      0.00000048</i>
     <i name="DEPER">      0.30000000</i>
     <i type="int" name="NRMM">     4</i>
     <i name="TIME">      0.40000000</i>
    </separator>
   </separator>
   <separator name="electronic mixer" >
    <i name="AMIX">      0.40000000</i>
    <i name="BMIX">      1.00000000</i>
    <i name="AMIN">      0.10000000</i>
    <i name="AMIX_MAG">      1.60000000</i>
    <i name="BMIX_MAG">      1.00000000</i>
    <separator name="electronic mixer details" >
     <i type="int" name="IMIX">     4</i>
     <i type="int" name="MAXMIX">   -45</i>
     <i name="WC">    100.00000000</i>
     <i type="int" name="INIMIX">     1</i>
     <i type="int" name="MIXPRE">     1</i>
     <i type="int" name="MREMOVE">     5</i>
    </separator>
   </separator>
   <separator name="electronic dipolcorrection" >
    <i type="logical" name="LDIPOL"> F  </i>
    <i type="logical" name="LMONO"> F  </i>
    <i type="int" name="IDIPOL">     0</i>
    <i name="EPSILON">      1.00000000</i>
    <v name="DIPOL">   -100.00000000   -100.00000000   -100.00000000</v>
    <i name="EFIELD">      0.00000000</i>
   </separator>
  </separator>
  <separator name="grids" >
   <i type="int" name="NGX">    70</i>
   <i type="int" name="NGY">    70</i>
   <i type="int" name="NGZ">    70</i>
   <i type="int" name="NGXF">   140</i>
   <i type="int" name="NGYF">   140</i>
   <i type="int" name="NGZF">   140</i>
   <i type="logical" name="ADDGRID"> F  </i>
  </separator>
  <separator name="ionic" >
   <i type="int" name="NSW">  1000</i>
   <i type="int" name="IBRION">     2</i>
   <i type="int" name="ISIF">     2</i>
   <i name="PSTRESS">      0.00000000</i>
   <i name="EDIFFG">      0.00100000</i>
   <i type="int" name="NFREE">     1</i>
   <i name="POTIM">      0.10000000</i>
   <i name="SMASS">     -3.00000000</i>
   <i name="SCALEE">      1.00000000</i>
  </separator>
  <separator name="ionic md" >
   <i name="TEBEG">      0.00010000</i>
   <i name="TEEND">      0.00010000</i>
   <i type="int" name="NBLOCK">     1</i>
   <i type="int" name="KBLOCK">  1000</i>
   <i type="int" name="NPACO">   256</i>
   <i name="APACO">     16.00000000</i>
  </separator>
  <separator name="symmetry" >
   <i type="int" name="ISYM">     2</i>
   <i name="SYMPREC">      0.00001000</i>
  </separator>
  <separator name="dos" >
   <i type="logical" name="LORBIT"> F  </i>
   <v name="RWIGS">     -1.00000000</v>
   <i type="int" name="NEDOS">   301</i>
   <i name="EMIN">     10.00000000</i>
   <i name="EMAX">    -10.00000000</i>
   <i name="EFERMI">      0.00000000</i>
  </separator>
  <separator name="writing" >
   <i type="int" name="NWRITE">     2</i>
   <i type="logical" name="LWAVE"> F  </i>
   <i type="logical" name="LCHARG"> F  </i>
   <i type="logical" name="LPARD"> F  </i>
   <i type="logical" name="LVTOT"> F  </i>
   <i type="logical" name="LVHAR"> F  </i>
   <i type="logical" name="LELF"> F  </i>
   <i type="logical" name="LOPTICS"> F  </i>
   <v name="STM">      0.00000000      0.00000000      0.00000000      0.00000000      0.00000000      0.00000000      0.00000000</v>
  </separator>
  <separator name="performance" >
   <i type="int" name="NPAR">     4</i>
   <i type="int" name="NSIM">     4</i>
   <i type="int" name="NBLK">    -1</i>
   <i type="logical" name="LPLANE"> T  </i>
   <i type="logical" name="LSCALAPACK"> T  </i>
   <i type="logical" name="LSCAAWARE"> F  </i>
   <i type="logical" name="LSCALU"> F  </i>
   <i type="logical" name="LASYNC"> F  </i>
   <i type="logical" name="LORBITALREAL"> F  </i>
  </separator>
  <separator name="miscellaneous" >
   <i type="int" name="IDIOT">     3</i>
   <i type="logical" name="LMUSIC"> F  </i>
   <v name="POMASS">    107.86800000</v>
   <v name="DARWINR">      0.00000000</v>
   <v name="DARWINV">      1.00000000</v>
   <i type="logical" name="LCORR"> T  </i>
  </separator>
  <i type="logical" name="GGA_COMPAT"> T  </i>
  <i type="logical" name="LBERRY"> F  </i>
  <i type="int" name="ICORELEVEL">     0</i>
  <i type="logical" name="LDAU"> F  </i>
  <i type="int" name="I_CONSTRAINED_M">     0</i>
  <separator name="electronic exchange-correlation" >
   <i type="string" name="GGA">PE</i>
   <i type="int" name="VOSKOWN">     0</i>
   <i type="logical" name="LHFCALC"> F  </i>
   <i type="string" name="PRECFOCK"></i>
   <i type="logical" name="LSYMGRAD"> F  </i>
   <i type="logical" name="LHFONE"> F  </i>
   <i type="logical" name="LRHFCALC"> F  </i>
   <i type="logical" name="LTHOMAS"> F  </i>
   <i type="logical" name="LMODELHF"> F  </i>
   <i name="ENCUT4O">     -1.00000000</i>
   <i type="int" name="EXXOEP">     0</i>
   <i type="int" name="FOURORBIT">     0</i>
   <i name="AEXX">      0.00000000</i>
   <i name="HFALPHA">      0.00000000</i>
   <i name="MCALPHA">      0.00000000</i>
   <i name="ALDAX">      1.00000000</i>
   <i name="AGGAX">      1.00000000</i>
   <i name="ALDAC">      1.00000000</i>
   <i name="AGGAC">      1.00000000</i>
   <i type="int" name="NKREDX">     1</i>
   <i type="int" name="NKREDY">     1</i>
   <i type="int" name="NKREDZ">     1</i>
   <i type="logical" name="SHIFTRED"> F  </i>
   <i type="logical" name="ODDONLY"> F  </i>
   <i type="logical" name="EVENONLY"> F  </i>
   <i type="int" name="LMAXFOCK">     0</i>
   <i type="int" name="NMAXFOCKAE">     0</i>
   <i type="logical" name="LFOCKAEDFT"> F  </i>
   <i name="HFSCREEN">      0.00000000</i>
   <i name="HFSCREENC">      0.00000000</i>
   <i type="int" name="NBANDSGWLOW">     0</i>
  </separator>
  <separator name="vdW DFT" >
   <i type="logical" name="LUSE_VDW"> F  </i>
   <i name="Zab_VDW">     -0.84910000</i>
   <i name="PARAM1">      0.12340000</i>
   <i name="PARAM2">      1.00000000</i>
   <i name="PARAM3">      0.00000000</i>
  </separator>
  <separator name="model GW" >
   <i type="int" name="MODEL_GW">     0</i>
   <i name="MODEL_EPS0">    450.81009076</i>
   <i name="MODEL_ALPHA">      1.00000000</i>
  </separator>
  <separator name="linear response parameters" >
   <i type="logical" name="LEPSILON"> F  </i>
   <i type="logical" name="LRPA"> F  </i>
   <i type="logical" name="LNABLA"> F  </i>
   <i type="logical" name="LVEL"> F  </i>
   <i type="int" name="KINTER">     0</i>
   <i name="CSHIFT">      0.10000000</i>
   <i name="OMEGAMAX">     -1.00000000</i>
   <i name="DEG_THRESHOLD">      0.00200000</i>
  </separator>
  <separator name="orbital magnetization" >
   <i type="logical" name="NUCIND"> F  </i>
   <v name="MAGPOS">      0.00000000      0.00000000      0.00000000</v>
   <i type="logical" name="LNICSALL"> T  </i>
   <i type="logical" name="ORBITALMAG"> F  </i>
   <i type="logical" name="LMAGBLOCH"> F  </i>
   <i type="logical" name="LCHIMAG"> F  </i>
   <i type="logical" name="LGAUGE"> T  </i>
   <i type="int" name="MAGATOM">     0</i>
   <v name="MAGDIPOL">      0.00000000      0.00000000      0.00000000</v>
   <v name="AVECCONST">      0.00000000      0.00000000      0.00000000</v>
  </separator>
  <separator name="response functions" >
   <i type="logical" name="LADDER"> F  </i>
   <i type="logical" name="LFXC"> F  </i>
   <i type="logical" name="LHARTREE"> T  </i>
   <i type="int" name="IBSE">     0</i>
   <i type="logical" name="LTCTE"> F  </i>
   <i type="logical" name="LTETE"> F  </i>
   <i type="logical" name="LTRIPLET"> F  </i>
   <i type="logical" name="LFXCEPS"> F  </i>
   <i type="logical" name="LFXHEG"> F  </i>
   <i type="logical" name="L2ORDER"> F  </i>
   <i type="logical" name="LUSEW"> F  </i>
   <i name="ENCUTGW">     -2.00000000</i>
   <i name="ENCUTGWSOFT">     -2.00000000</i>
   <i name="ENCUTLF">     -1.00000000</i>
   <i type="int" name="LMAXMP2">    -1</i>
   <i name="SCISSOR">      0.00000000</i>
   <i type="int" name="NOMEGA">     0</i>
   <i type="int" name="NOMEGAR">     0</i>
   <i type="int" name="NBANDSGW">    -1</i>
   <i type="int" name="NBANDSO">    -1</i>
   <i type="int" name="NBANDSV">    -1</i>
   <i type="int" name="NELM">     1</i>
   <i type="int" name="DIM">     3</i>
   <i type="int" name="ANTIRES">     0</i>
   <i name="OMEGAMAX">    -30.00000000</i>
   <i name="OMEGAMIN">    -30.00000000</i>
   <i name="OMEGATL">   -200.00000000</i>
   <i type="int" name="OMEGAGRID">     0</i>
   <i name="CSHIFT">     -0.10000000</i>
   <i type="logical" name="SELFENERGY"> F  </i>
   <i type="logical" name="LSPECTRAL"> F  </i>
   <i type="logical" name="ODDONLYGW"> F  </i>
   <i type="logical" name="EVENONLYGW"> F  </i>
   <i type="int" name="NKREDLFX">     1</i>
   <i type="int" name="NKREDLFY">     1</i>
   <i type="int" name="NKREDLFZ">     1</i>
   <i type="int" name="MAXMEM">  1800</i>
   <i type="int" name="TELESCOPE">     0</i>
   <i type="int" name="TAUPAR">     1</i>
  </separator>
  <separator name="External order field" >
   <i name="OFIELD_KAPPA">      0.00000000</i>
   <v name="OFIELD_K">      0.00000000      0.00000000      0.00000000</v>
   <i name="OFIELD_Q6_NEAR">      0.00000000</i>
   <i name="OFIELD_Q6_FAR">      0.00000000</i>
   <i name="OFIELD_A">      0.00000000</i>
  </separator>
 </parameters>
 <atominfo>
  <atoms>       7 </atoms>
  <types>       1 </types>
  <array name="atoms" >
   <dimension dim="1">ion</dimension>
   <field type="string">element</field>
   <field type="int">atomtype</field>
   <set>
    <rc><c>Ag</c><c>   1</c></rc>
    <rc><c>Ag</c><c>   1</c></rc>
    <rc><c>Ag</c><c>   1</c></rc>
    <rc><c>Ag</c><c>   1</c></rc>
    <rc><c>Ag</c><c>   1</c></rc>
    <rc><c>Ag</c><c>   1</c></rc>
    <rc><c>Ag</c><c>   1</c></rc>
   </set>
  </array>
  <array name="atomtypes" >
   <dimension dim="1">type</dimension>
   <field type="int">atomspertype</field>
   <field type="string">element</field>
   <field>mass</field>
   <field>valence</field>
   <field type="string">pseudopotential</field>
   <set>
    <rc><c>   7</c><c>Ag</c><c>    107.86800000</c><c>     11.00000000</c><c>  PAW_PBE Ag 02Apr2005                  </c></rc>
   </set>
  </array>
 </atominfo>
 <structure name="initialpos" >
  <crystal>
   <varray name="basis" >
    <v>      17.39055622       0.00000000       0.00000000 </v>
    <v>       0.00000000      17.39055622       0.00000000 </v>
    <v>       0.00000000       0.00000000      17.39055622 </v>
   </varray>
   <i name="volume">   5259.45105886 </i>
   <varray name="rec_basis" >
    <v>       0.05750247       0.00000000       0.00000000 </v>
    <v>       0.00000000       0.05750247       0.00000000 </v>
    <v>       0.00000000       0.00000000       0.05750247 </v>
   </varray>
  </crystal>
  <varray name="positions" >
   <v>       0.65719930       0.61089887       0.60402878 </v>
   <v>       0.76243148       0.69932315       0.63809911 </v>
   <v>       0.63014349       0.50333331       0.51669112 </v>
   <v>       0.59991464       0.70861382       0.69403323 </v>
   <v>       0.77714922       0.57494977       0.53301182 </v>
   <v>       0.51585857       0.58428674       0.61863848 </v>
   <v>       0.44871619       0.68042320       0.72155262 </v>
  </varray>
 </structure>
 <calculation>
  <scstep>
   <time name="dav">    0.30    0.30</time>
   <time name="total">    0.46    0.49</time>
   <energy>
    <i name="alphaZ">      7.92446301 </i>
    <i name="ewald">   4137.25259923 </i>
    <i name="hartreedc"> -11076.32038572 </i>
    <i name="XCdc">    -79.16819268 </i>
    <i name="pawpsdc">   7023.60524649 </i>
    <i name="pawaedc">  -6700.85226215 </i>
    <i name="eentropy">     -0.00000000 </i>
    <i name="bandstr">     87.62018787 </i>
    <i name="atom">   7260.39041060 </i>
    <i name="e_fr_energy">    660.45206665 </i>
    <i name="e_wo_entrp">    660.45206665 </i>
    <i name="e_0_energy">    660.45206665 </i>
   </energy>
  </scstep>
  <scstep>
   <time name="dav">    0.48    0.49</time>
   <time name="total">    0.49    0.49</time>
   <energy>
    <i name="e_fr_energy">    267.42359549 </i>
    <i name="e_wo_entrp">    267.42359549 </i>
    <i name="e_0_energy">    267.42359549 </i>
   </energy>
  </scstep>
  <scstep>
   <time name="dav">    0.41    0.41</time>
   <time name="total">    0.41    0.42</time>
   <energy>
    <i name="e_fr_energy">     14.59067492 </i>
    <i name="e_wo_entrp">     14.59067492 </i>
    <i name="e_0_energy">     14.59067492 </i>
   </energy>
  </scstep>
  <scstep>
   <time name="dav">    0.31    0.31</time>
   <time name="total">    0.31    0.32</time>
   <energy>
    <i name="e_fr_energy">    -10.09579663 </i>
    <i name="e_wo_entrp">    -10.09579663 </i>
    <i name="e_0_energy">    -10.09579663 </i>
   </energy>
  </scstep>
  <scstep>
   <time name="dav">    0.29    0.29</time>
   <time name="total">    0.33    0.34</time>
   <energy>
    <i name="e_fr_energy">    -10.52189552 </i>
    <i name="e_wo_entrp">    -10.52189552 </i>
    <i name="e_0_energy">    -10.52189552 </i>
   </energy>
  </scstep>
  <scstep>
   <time name="dav">    0.30    0.30</time>
   <time name="total">    0.48    0.49</time>
   <energy>
    <i name="e_fr_energy">     -1.23434385 </i>
    <i name="e_wo_entrp">     -1.23434385 </i>
    <i name="e_0_energy">     -1.23434385 </i>
   </energy>
  </scstep>
  <scstep>
   <time name="dav">    0.34    0.34</time>
   <time name="total">    0.53    0.54</time>
   <energy>
    <i name="e_fr_energy">      1.77273708 </i>
    <i name="e_wo_entrp">      1.77273708 </i>
    <i name="e_0_energy">      1.77273708 </i>
   </energy>
  </scstep>
  <scstep>
   <time name="dav">    0.32    0.32</time>
   <time name="total">    0.51    0.51</time>
   <energy>
    <i name="e_fr_energy">     -1.84328287 </i>
    <i name="e_wo_entrp">     -1.84328287 </i>
    <i name="e_0_energy">     -1.84328287 </i>
   </energy>
  </scstep>
  <scstep>
   <time name="dav">    0.32    0.31</time>
   <time name="total">    0.50    0.51</time>
   <energy>
    <i name="e_fr_energy">     -4.86059059 </i>
    <i name="e_wo_entrp">     -4.86059059 </i>
    <i name="e_0_energy">     -4.86059059 </i>
   </energy>
  </scstep>
  <scstep>
   <time name="dav">    0.31    0.31</time>
   <time name="total">    0.50    0.50</time>
   <energy>
    <i name="e_fr_energy">     -7.84220206 </i>
    <i name="e_wo_entrp">     -7.84220206 </i>
    <i name="e_0_energy">     -7.84220206 </i>
   </energy>
  </scstep>
  <scstep>
   <time name="dav">    0.31    0.31</time>
   <time name="total">    0.50    0.52</time>
   <energy>
    <i name="e_fr_energy">     -8.73505735 </i>
    <i name="e_wo_entrp">     -8.73505735 </i>
    <i name="e_0_energy">     -8.73505735 </i>
   </energy>
  </scstep>
  <scstep>
   <time name="dav">    0.30    0.30</time>
   <time name="total">    0.49    0.51</time>
   <energy>
    <i name="e_fr_energy">     -9.77250846 </i>
    <i name="e_wo_entrp">     -9.77250846 </i>
    <i name="e_0_energy">     -9.77250846 </i>
   </energy>
  </scstep>
  <scstep>
   <time name="dav">    0.30    0.30</time>
   <time name="total">    0.49    0.49</time>
   <energy>
    <i name="e_fr_energy">    -10.24822188 </i>
    <i name="e_wo_entrp">    -10.24822188 </i>
    <i name="e_0_energy">    -10.24822188 </i>
   </energy>
  </scstep>
  <scstep>
   <time name="dav">    0.32    0.32</time>
   <time name="total">    0.51    0.52</time>
   <energy>
    <i name="e_fr_energy">    -10.40849864 </i>
    <i name="e_wo_entrp">    -10.40849864 </i>
    <i name="e_0_energy">    -10.40849864 </i>
   </energy>
  </scstep>
  <scstep>
   <time name="dav">    0.28    0.28</time>
   <time name="total">    0.47    0.72</time>
   <energy>
    <i name="e_fr_energy">    -10.49175763 </i>
    <i name="e_wo_entrp">    -10.49175763 </i>
    <i name="e_0_energy">    -10.49175763 </i>
   </energy>
  </scstep>
  <scstep>
   <time name="dav">    0.27    0.27</time>
   <time name="total">    0.46    0.48</time>
   <energy>
    <i name="e_fr_energy">    -10.51049072 </i>
    <i name="e_wo_entrp">    -10.51049072 </i>
    <i name="e_0_energy">    -10.51049072 </i>
   </energy>
  </scstep>
  <scstep>
   <time name="dav">    0.25    0.25</time>
   <time name="total">    0.44    0.45</time>
   <energy>
    <i name="e_fr_energy">    -10.51248411 </i>
    <i name="e_wo_entrp">    -10.51248411 </i>
    <i name="e_0_energy">    -10.51248411 </i>
   </energy>
  </scstep>
  <scstep>
   <time name="dav">    0.23    0.23</time>
   <time name="total">    0.43    0.43</time>
   <energy>
    <i name="e_fr_energy">    -10.51432362 </i>
    <i name="e_wo_entrp">    -10.51432362 </i>
    <i name="e_0_energy">    -10.51432362 </i>
   </energy>
  </scstep>
  <scstep>
   <time name="dav">    0.24    0.24</time>
   <time name="total">    0.43    0.44</time>
   <energy>
    <i name="e_fr_energy">    -10.51493694 </i>
    <i name="e_wo_entrp">    -10.51493694 </i>
    <i name="e_0_energy">    -10.51493694 </i>
   </energy>
  </scstep>
  <scstep>
   <time name="dav">    0.24    0.24</time>
   <time name="total">    0.44    0.44</time>
   <energy>
    <i name="e_fr_energy">    -10.51535375 </i>
    <i name="e_wo_entrp">    -10.51535375 </i>
    <i name="e_0_energy">    -10.51535375 </i>
   </energy>
  </scstep>
  <scstep>
   <time name="dav">    0.25    0.25</time>
   <time name="total">    0.44    0.45</time>
   <energy>
    <i name="e_fr_energy">    -10.51551591 </i>
    <i name="e_wo_entrp">    -10.51551591 </i>
    <i name="e_0_energy">    -10.51551591 </i>
   </energy>
  </scstep>
  <scstep>
   <time name="dav">    0.24    0.24</time>
   <time name="total">    0.40    0.40</time>
   <energy>
    <i name="alphaZ">      7.92446301 </i>
    <i name="ewald">   4137.25259923 </i>
    <i name="hartreedc"> -11083.52470897 </i>
    <i name="XCdc">    -80.68371393 </i>
    <i name="pawpsdc">   7579.06139954 </i>
    <i name="pawaedc">  -7267.60480970 </i>
    <i name="eentropy">      0.00000000 </i>
    <i name="bandstr">   -563.33117563 </i>
    <i name="atom">   7260.39041060 </i>
    <i name="e_fr_energy">    -10.51553585 </i>
    <i name="e_wo_entrp">    -10.51553585 </i>
    <i name="e_0_energy">    -10.51553585 </i>
   </energy>
  </scstep>
  <structure>
   <crystal>
    <varray name="basis" >
     <v>      17.39055622       0.00000000       0.00000000 </v>
     <v>       0.00000000      17.39055622       0.00000000 </v>
     <v>       0.00000000       0.00000000      17.39055622 </v>
    </varray>
    <i name="volume">   5259.45105886 </i>
    <varray name="rec_basis" >
     <v>       0.05750247       0.00000000       0.00000000 </v>
     <v>       0.00000000       0.05750247       0.00000000 </v>
     <v>       0.00000000       0.00000000       0.05750247 </v>
    </varray>
   </crystal>
   <varray name="positions" >
    <v>       0.65719930       0.61089887       0.60402878 </v>
    <v>       0.76243148       0.69932315       0.63809911 </v>
    <v>       0.63014349       0.50333331       0.51669112 </v>
    <v>       0.59991464       0.70861382       0.69403323 </v>
    <v>       0.77714922       0.57494977       0.53301182 </v>
    <v>       0.51585857       0.58428674       0.61863848 </v>
    <v>       0.44871619       0.68042320       0.72155262 </v>
   </varray>
  </structure>
  <varray name="forces" >
   <v>      -0.28271730       0.04286785       0.36610294 </v>
   <v>       0.83251143       0.91797294       0.45807747 </v>
   <v>      -0.45777641      -1.04784839      -0.78227619 </v>
   <v>      -0.18684417       0.64609530       0.55624391 </v>
   <v>       0.93939893      -0.30882093      -0.57842874 </v>
   <v>      -0.81209063      -0.27705215      -0.04351518 </v>
   <v>      -0.03248186       0.02678538       0.02379579 </v>
  </varray>
  <varray name="stress" >
   <v>       1.13361726       0.48041274      -0.17082918 </v>
   <v>       0.48041275       0.76875870       1.06386076 </v>
   <v>      -0.17082918       1.06386076       0.21805621 </v>
  </varray>
  <energy>
   <i name="e_fr_energy">    -10.51553585 </i>
   <i name="e_wo_entrp">    -10.51553585 </i>
   <i name="e_0_energy">      0.00000000 </i>
  </energy>
  <time name="totalsc">   10.61   11.06</time>
 </calculation>
 <calculation>
  <scstep>
   <time name="dav">    0.30    0.31</time>
   <time name="total">    0.50    0.51</time>
   <energy>
    <i name="alphaZ">      7.92446301 </i>
    <i name="ewald">   4102.32056789 </i>
    <i name="hartreedc"> -11048.99547123 </i>
    <i name="XCdc">    -80.78151791 </i>
    <i name="pawpsdc">   7579.11346597 </i>
    <i name="pawaedc">  -7267.65689711 </i>
    <i name="eentropy">      0.00000000 </i>
    <i name="bandstr">   -562.88914261 </i>
    <i name="atom">   7260.39041060 </i>
    <i name="e_fr_energy">    -10.57412137 </i>
    <i name="e_wo_entrp">    -10.57412137 </i>
    <i name="e_0_energy">    -10.57412137 </i>
   </energy>
  </scstep>
  <scstep>
   <time name="dav">    0.31    0.31</time>
   <time name="total">    0.50    0.50</time>
   <energy>
    <i name="e_fr_energy">    -10.57608426 </i>
    <i name="e_wo_entrp">    -10.57608426 </i>
    <i name="e_0_energy">    -10.57608426 </i>
   </energy>
  </scstep>
  <scstep>
   <time name="dav">    0.33    0.33</time>
   <time name="total">    0.48    0.49</time>
   <energy>
    <i name="alphaZ">      7.92446301 </i>
    <i name="ewald">   4102.32056789 </i>
    <i name="hartreedc"> -11049.53449482 </i>
    <i name="XCdc">    -80.76613678 </i>
    <i name="pawpsdc">   7566.93915731 </i>
    <i name="pawaedc">  -7255.29769390 </i>
    <i name="eentropy">      0.00000000 </i>
    <i name="bandstr">   -562.55231652 </i>
    <i name="atom">   7260.39041060 </i>
    <i name="e_fr_energy">    -10.57604319 </i>
    <i name="e_wo_entrp">    -10.57604319 </i>
    <i name="e_0_energy">    -10.57604319 </i>
   </energy>
  </scstep>
  <structure>
   <crystal>
    <varray name="basis" >
     <v>      17.39055622       0.00000000       0.00000000 </v>
     <v>       0.00000000      17.39055622       0.00000000 </v>
     <v>       0.00000000       0.00000000      17.39055622 </v>
    </varray>
    <i name="volume">   5259.45105886 </i>
    <varray name="rec_basis" >
     <v>       0.05750247       0.00000000       0.00000000 </v>
     <v>       0.00000000       0.05750247       0.00000000 </v>
     <v>       0.00000000       0.00000000       0.05750247 </v>
    </varray>
   </crystal>
   <varray name="positions" >
    <v>       0.65704244       0.61092265       0.60423190 </v>
    <v>       0.76289337       0.69983245       0.63835326 </v>
    <v>       0.62988951       0.50275195       0.51625710 </v>
    <v>       0.59981098       0.70897228       0.69434184 </v>
    <v>       0.77767041       0.57477843       0.53269090 </v>
    <v>       0.51540801       0.58413303       0.61861434 </v>
    <v>       0.44869817       0.68043806       0.72156582 </v>
   </varray>
  </structure>
  <varray name="forces" >
   <v>      -0.16036487      -0.00710409       0.26630171 </v>
   <v>       0.71543647       0.79798360       0.40567997 </v>
   <v>      -0.40347513      -0.89650675      -0.66677833 </v>
   <v>      -0.16343359       0.60455841       0.51592449 </v>
   <v>       0.79475112      -0.26388691      -0.49570206 </v>
   <v>      -0.74641874      -0.26239070      -0.05106432 </v>
   <v>      -0.03649525       0.02734644       0.02563853 </v>
  </varray>
  <varray name="stress" >
   <v>       0.92653629       0.42943595      -0.14968487 </v>
   <v>       0.42943594       0.60879577       0.94879257 </v>
   <v>      -0.14968486       0.94879258       0.11155606 </v>
  </varray>
  <energy>
   <i name="e_fr_energy">    -10.57604319 </i>
   <i name="e_wo_entrp">    -10.57604319 </i>
   <i name="e_0_energy">      0.00000000 </i>
  </energy>
  <time name="totalsc">    2.07    6.23</time>
 </calculation>
 <calculation>
  <scstep>
   <time name="dav">    0.30    0.30</time>
   <time name="total">    0.49    0.50</time>
   <energy>
    <i name="alphaZ">      7.92446301 </i>
    <i name="ewald">   3999.47103611 </i>
    <i name="hartreedc"> -10947.94762316 </i>
    <i name="XCdc">    -81.04375120 </i>
    <i name="pawpsdc">   7562.59429339 </i>
    <i name="pawaedc">  -7250.88485034 </i>
    <i name="eentropy">      0.00000000 </i>
    <i name="bandstr">   -561.19835477 </i>
    <i name="atom">   7260.39041060 </i>
    <i name="e_fr_energy">    -10.69437637 </i>
    <i name="e_wo_entrp">    -10.69437637 </i>
    <i name="e_0_energy">    -10.69437637 </i>
   </energy>
  </scstep>
  <scstep>
   <time name="dav">    0.32    0.31</time>
   <time name="total">    0.50    0.51</time>
   <energy>
    <i name="e_fr_energy">    -10.71185660 </i>
    <i name="e_wo_entrp">    -10.71185660 </i>
    <i name="e_0_energy">    -10.71185660 </i>
   </energy>
  </scstep>
  <scstep>
   <time name="dav">    0.30    0.30</time>
   <time name="total">    0.49    0.50</time>
   <energy>
    <i name="e_fr_energy">    -10.71166971 </i>
    <i name="e_wo_entrp">    -10.71166971 </i>
    <i name="e_0_energy">    -10.71166971 </i>
   </energy>
  </scstep>
  <scstep>
   <time name="dav">    0.30    0.30</time>
   <time name="total">    0.46    0.46</time>
   <energy>
    <i name="alphaZ">      7.92446301 </i>
    <i name="ewald">   3999.47103611 </i>
    <i name="hartreedc"> -10949.90074469 </i>
    <i name="XCdc">    -80.98689451 </i>
    <i name="pawpsdc">   7517.33668626 </i>
    <i name="pawaedc">  -7204.91417214 </i>
    <i name="eentropy">      0.00000000 </i>
    <i name="bandstr">   -560.03242225 </i>
    <i name="atom">   7260.39041060 </i>
    <i name="e_fr_energy">    -10.71163762 </i>
    <i name="e_wo_entrp">    -10.71163762 </i>
    <i name="e_0_energy">    -10.71163762 </i>
   </energy>
  </scstep>
  <structure>
   <crystal>
    <varray name="basis" >
     <v>      17.39055622       0.00000000       0.00000000 </v>
     <v>       0.00000000      17.39055622       0.00000000 </v>
     <v>       0.00000000       0.00000000      17.39055622 </v>
    </varray>
    <i name="volume">   5259.45105886 </i>
    <varray name="rec_basis" >
     <v>       0.05750247       0.00000000       0.00000000 </v>
     <v>       0.00000000       0.05750247       0.00000000 </v>
     <v>       0.00000000       0.00000000       0.05750247 </v>
    </varray>
   </crystal>
   <varray name="positions" >
    <v>       0.65657187       0.61099400       0.60484125 </v>
    <v>       0.76427904       0.70136037       0.63911570 </v>
    <v>       0.62912757       0.50100786       0.51495504 </v>
    <v>       0.59949999       0.71004767       0.69526768 </v>
    <v>       0.77923399       0.57426442       0.53172813 </v>
    <v>       0.51405633       0.58367189       0.61854191 </v>
    <v>       0.44864410       0.68048264       0.72160543 </v>
   </varray>
  </structure>
  <varray name="forces" >
   <v>       0.13259885      -0.12592769       0.02979906 </v>
   <v>       0.42054372       0.50016906       0.27142110 </v>
   <v>      -0.27299063      -0.52023877      -0.37619385 </v>
   <v>      -0.10145051       0.49825498       0.41218528 </v>
   <v>       0.44896087      -0.15463415      -0.29506517 </v>
   <v>      -0.57775033      -0.22749279      -0.07174335 </v>
   <v>      -0.04991198       0.02986936       0.02959693 </v>
  </varray>
  <varray name="stress" >
   <v>       0.39282355       0.29764583      -0.09514344 </v>
   <v>       0.29764583       0.19045837       0.65290078 </v>
   <v>      -0.09514344       0.65290078      -0.16928323 </v>
  </varray>
  <energy>
   <i name="e_fr_energy">    -10.71163762 </i>
   <i name="e_wo_entrp">    -10.71163762 </i>
   <i name="e_0_energy">      0.00000000 </i>
  </energy>
  <time name="totalsc">    2.55    2.56</time>
 </calculation>
 <calculation>
  <scstep>
   <time name="dav">    0.30    0.30</time>
   <time name="total">    0.48    0.50</time>
   <energy>
    <i name="alphaZ">      7.92446301 </i>
    <i name="ewald">   3802.10894137 </i>
    <i name="hartreedc"> -10754.07544820 </i>
    <i name="XCdc">    -81.50159667 </i>
    <i name="pawpsdc">   7517.91937762 </i>
    <i name="pawaedc">  -7205.50589521 </i>
    <i name="eentropy">      0.00000000 </i>
    <i name="bandstr">   -558.00579766 </i>
    <i name="atom">   7260.39041060 </i>
    <i name="e_fr_energy">    -10.74554515 </i>
    <i name="e_wo_entrp">    -10.74554515 </i>
    <i name="e_0_energy">    -10.74554515 </i>
   </energy>
  </scstep>
  <scstep>
   <time name="dav">    0.30    0.30</time>
   <time name="total">    0.49    0.49</time>
   <energy>
    <i name="e_fr_energy">    -10.81557060 </i>
    <i name="e_wo_entrp">    -10.81557060 </i>
    <i name="e_0_energy">    -10.81557060 </i>
   </energy>
  </scstep>
  <scstep>
   <time name="dav">    0.31    0.31</time>
   <time name="total">    0.50    0.50</time>
   <energy>
    <i name="e_fr_energy">    -10.81577540 </i>
    <i name="e_wo_entrp">    -10.81577540 </i>
    <i name="e_0_energy">    -10.81577540 </i>
   </energy>
  </scstep>
  <scstep>
   <time name="dav">    0.30    0.30</time>
   <time name="total">    0.49    0.49</time>
   <energy>
    <i name="e_fr_energy">    -10.81542039 </i>
    <i name="e_wo_entrp">    -10.81542039 </i>
    <i name="e_0_energy">    -10.81542039 </i>
   </energy>
  </scstep>
  <scstep>
   <time name="dav">    0.24    0.25</time>
   <time name="total">    0.44    0.44</time>
   <energy>
    <i name="e_fr_energy">    -10.81568603 </i>
    <i name="e_wo_entrp">    -10.81568603 </i>
    <i name="e_0_energy">    -10.81568603 </i>
   </energy>
  </scstep>
  <scstep>
   <time name="dav">    0.24    0.24</time>
   <time name="total">    0.43    0.46</time>
   <energy>
    <i name="e_fr_energy">    -10.81591389 </i>
    <i name="e_wo_entrp">    -10.81591389 </i>
    <i name="e_0_energy">    -10.81591389 </i>
   </energy>
  </scstep>
  <scstep>
   <time name="dav">    0.24    0.25</time>
   <time name="total">    0.44    0.44</time>
   <energy>
    <i name="e_fr_energy">    -10.81620016 </i>
    <i name="e_wo_entrp">    -10.81620016 </i>
    <i name="e_0_energy">    -10.81620016 </i>
   </energy>
  </scstep>
  <scstep>
   <time name="dav">    0.25    0.25</time>
   <time name="total">    0.44    0.45</time>
   <energy>
    <i name="e_fr_energy">    -10.81648281 </i>
    <i name="e_wo_entrp">    -10.81648281 </i>
    <i name="e_0_energy">    -10.81648281 </i>
   </energy>
  </scstep>
  <scstep>
   <time name="dav">    0.24    0.24</time>
   <time name="total">    0.43    0.43</time>
   <energy>
    <i name="e_fr_energy">    -10.81667022 </i>
    <i name="e_wo_entrp">    -10.81667022 </i>
    <i name="e_0_energy">    -10.81667022 </i>
   </energy>
  </scstep>
  <scstep>
   <time name="dav">    0.25    0.25</time>
   <time name="total">    0.44    0.44</time>
   <energy>
    <i name="e_fr_energy">    -10.81680000 </i>
    <i name="e_wo_entrp">    -10.81680000 </i>
    <i name="e_0_energy">    -10.81680000 </i>
   </energy>
  </scstep>
  <scstep>
   <time name="dav">    0.25    0.25</time>
   <time name="total">    0.44    0.45</time>
   <energy>
    <i name="e_fr_energy">    -10.81697367 </i>
    <i name="e_wo_entrp">    -10.81697367 </i>
    <i name="e_0_energy">    -10.81697367 </i>
   </energy>
  </scstep>
  <scstep>
   <time name="dav">    0.24    0.25</time>
   <time name="total">    0.40    0.41</time>
   <energy>
    <i name="alphaZ">      7.92446301 </i>
    <i name="ewald">   3802.10894137 </i>
    <i name="hartreedc"> -10757.75931359 </i>
    <i name="XCdc">    -81.39080852 </i>
    <i name="pawpsdc">   7442.63929720 </i>
    <i name="pawaedc">  -7128.97756159 </i>
    <i name="eentropy">      0.00000000 </i>
    <i name="bandstr">   -555.75240280 </i>
    <i name="atom">   7260.39041060 </i>
    <i name="e_fr_energy">    -10.81697433 </i>
    <i name="e_wo_entrp">    -10.81697433 </i>
    <i name="e_0_energy">    -10.81697433 </i>
   </energy>
  </scstep>
  <structure>
   <crystal>
    <varray name="basis" >
     <v>      17.39055622       0.00000000       0.00000000 </v>
     <v>       0.00000000      17.39055622       0.00000000 </v>
     <v>       0.00000000       0.00000000      17.39055622 </v>
    </varray>
    <i name="volume">   5259.45105886 </i>
    <varray name="rec_basis" >
     <v>       0.05750247       0.00000000       0.00000000 </v>
     <v>       0.00000000       0.05750247       0.00000000 </v>
     <v>       0.00000000       0.00000000       0.05750247 </v>
    </varray>
   </crystal>
   <varray name="positions" >
    <v>       0.65563074       0.61113671       0.60605997 </v>
    <v>       0.76705037       0.70441619       0.64064059 </v>
    <v>       0.62760368       0.49751970       0.51235093 </v>
    <v>       0.59887800       0.71219845       0.69711935 </v>
    <v>       0.78236114       0.57323639       0.52980261 </v>
    <v>       0.51135298       0.58274962       0.61839705 </v>
    <v>       0.44853598       0.68057181       0.72168464 </v>
   </varray>
  </structure>
  <varray name="forces" >
   <v>       0.52880998      -0.26929930      -0.30045291 </v>
   <v>      -0.05231417       0.04427788       0.06984971 </v>
   <v>      -0.08045849       0.04873034       0.06731323 </v>
   <v>       0.01657608       0.30671267       0.22652557 </v>
   <v>      -0.06777249       0.00759348       0.01121316 </v>
   <v>      -0.27733812      -0.16931702      -0.10815188 </v>
   <v>      -0.06750279       0.03130195       0.03370312 </v>
  </varray>
  <varray name="stress" >
   <v>      -0.47103256       0.07385353       0.01093168 </v>
   <v>       0.07385353      -0.47549378       0.14137753 </v>
   <v>       0.01093168       0.14137753      -0.59970118 </v>
  </varray>
  <energy>
   <i name="e_fr_energy">    -10.81697433 </i>
   <i name="e_wo_entrp">    -10.81697433 </i>
   <i name="e_0_energy">      0.00000000 </i>
  </energy>
  <time name="totalsc">    6.02    6.26</time>
 </calculation>
 <calculation>
  <scstep>
   <time name="dav">    0.30    0.30</time>
   <time name="total">    0.49    0.50</time>
   <energy>
    <i name="alphaZ">      7.92446301 </i>
    <i name="ewald">   3783.40146325 </i>
    <i name="hartreedc"> -10739.23513502 </i>
    <i name="XCdc">    -81.43732236 </i>
    <i name="pawpsdc">   7442.64276696 </i>
    <i name="pawaedc">  -7128.98097048 </i>
    <i name="eentropy">      0.00000000 </i>
    <i name="bandstr">   -555.53680819 </i>
    <i name="atom">   7260.39041060 </i>
    <i name="e_fr_energy">    -10.83113222 </i>
    <i name="e_wo_entrp">    -10.83113222 </i>
    <i name="e_0_energy">    -10.83113222 </i>
   </energy>
  </scstep>
  <scstep>
   <time name="dav">    0.31    0.31</time>
   <time name="total">    0.50    0.50</time>
   <energy>
    <i name="e_fr_energy">    -10.83295623 </i>
    <i name="e_wo_entrp">    -10.83295623 </i>
    <i name="e_0_energy">    -10.83295623 </i>
   </energy>
  </scstep>
  <scstep>
   <time name="dav">    0.32    0.32</time>
   <time name="total">    0.48    0.48</time>
   <energy>
    <i name="alphaZ">      7.92446301 </i>
    <i name="ewald">   3783.40146325 </i>
    <i name="hartreedc"> -10739.49524729 </i>
    <i name="XCdc">    -81.42962878 </i>
    <i name="pawpsdc">   7437.94456021 </i>
    <i name="pawaedc">  -7124.20587705 </i>
    <i name="eentropy">      0.00000000 </i>
    <i name="bandstr">   -555.36306925 </i>
    <i name="atom">   7260.39041060 </i>
    <i name="e_fr_energy">    -10.83292531 </i>
    <i name="e_wo_entrp">    -10.83292531 </i>
    <i name="e_0_energy">    -10.83292531 </i>
   </energy>
  </scstep>
  <structure>
   <crystal>
    <varray name="basis" >
     <v>      17.39055622       0.00000000       0.00000000 </v>
     <v>       0.00000000      17.39055622       0.00000000 </v>
     <v>       0.00000000       0.00000000      17.39055622 </v>
    </varray>
    <i name="volume">   5259.45105886 </i>
    <varray name="rec_basis" >
     <v>       0.05750247       0.00000000       0.00000000 </v>
     <v>       0.00000000       0.05750247       0.00000000 </v>
     <v>       0.00000000       0.00000000       0.05750247 </v>
    </varray>
   </crystal>
   <varray name="positions" >
    <v>       0.65641817       0.61072352       0.60563734 </v>
    <v>       0.76706942       0.70459560       0.64080430 </v>
    <v>       0.62742353       0.49746913       0.51236124 </v>
    <v>       0.59888124       0.71275278       0.69753828 </v>
    <v>       0.78236906       0.57321097       0.52975033 </v>
    <v>       0.51082428       0.58245320       0.61822380 </v>
    <v>       0.44842720       0.68062366       0.72173987 </v>
   </varray>
  </structure>
  <varray name="forces" >
   <v>       0.28153998      -0.14890920      -0.13982547 </v>
   <v>      -0.05748909       0.04910477       0.07421494 </v>
   <v>      -0.09318101       0.02657756       0.05082843 </v>
   <v>       0.06119945       0.17531014       0.11497572 </v>
   <v>      -0.00810746      -0.00767233      -0.02155149 </v>
   <v>      -0.13427468      -0.11940171      -0.10200787 </v>
   <v>      -0.04968719       0.02499077       0.02336574 </v>
  </varray>
  <varray name="stress" >
   <v>      -0.57858097       0.07785134       0.03541613 </v>
   <v>       0.07785134      -0.53787300       0.09872670 </v>
   <v>       0.03541613       0.09872670      -0.63538876 </v>
  </varray>
  <energy>
   <i name="e_fr_energy">    -10.83292531 </i>
   <i name="e_wo_entrp">    -10.83292531 </i>
   <i name="e_0_energy">      0.00000000 </i>
  </energy>
  <time name="totalsc">    2.06    2.08</time>
 </calculation>
 <calculation>
  <scstep>
   <time name="dav">    0.31    0.31</time>
   <time name="total">    0.49    0.51</time>
   <energy>
    <i name="alphaZ">      7.92446301 </i>
    <i name="ewald">   3760.10856085 </i>
    <i name="hartreedc"> -10716.47663159 </i>
    <i name="XCdc">    -81.48305350 </i>
    <i name="pawpsdc">   7435.65546538 </i>
    <i name="pawaedc">  -7121.87872674 </i>
    <i name="eentropy">      0.00000000 </i>
    <i name="bandstr">   -555.07860138 </i>
    <i name="atom">   7260.39041060 </i>
    <i name="e_fr_energy">    -10.83811335 </i>
    <i name="e_wo_entrp">    -10.83811335 </i>
    <i name="e_0_energy">    -10.83811335 </i>
   </energy>
  </scstep>
  <scstep>
   <time name="dav">    0.31    0.31</time>
   <time name="total">    0.50    0.50</time>
   <energy>
    <i name="e_fr_energy">    -10.84105814 </i>
    <i name="e_wo_entrp">    -10.84105814 </i>
    <i name="e_0_energy">    -10.84105814 </i>
   </energy>
  </scstep>
  <scstep>
   <time name="dav">    0.32    0.32</time>
   <time name="total">    0.48    0.48</time>
   <energy>
    <i name="alphaZ">      7.92446301 </i>
    <i name="ewald">   3760.10856085 </i>
    <i name="hartreedc"> -10716.76919921 </i>
    <i name="XCdc">    -81.47339308 </i>
    <i name="pawpsdc">   7430.72401868 </i>
    <i name="pawaedc">  -7116.86105428 </i>
    <i name="eentropy">      0.00000000 </i>
    <i name="bandstr">   -554.88481324 </i>
    <i name="atom">   7260.39041060 </i>
    <i name="e_fr_energy">    -10.84100665 </i>
    <i name="e_wo_entrp">    -10.84100665 </i>
    <i name="e_0_energy">    -10.84100665 </i>
   </energy>
  </scstep>
  <structure>
   <crystal>
    <varray name="basis" >
     <v>      17.39055622       0.00000000       0.00000000 </v>
     <v>       0.00000000      17.39055622       0.00000000 </v>
     <v>       0.00000000       0.00000000      17.39055622 </v>
    </varray>
    <i name="volume">   5259.45105886 </i>
    <varray name="rec_basis" >
     <v>       0.05750247       0.00000000       0.00000000 </v>
     <v>       0.00000000       0.05750247       0.00000000 </v>
     <v>       0.00000000       0.00000000       0.05750247 </v>
    </varray>
   </crystal>
   <varray name="positions" >
    <v>       0.65741534       0.61020027       0.60510213 </v>
    <v>       0.76709355       0.70482279       0.64101162 </v>
    <v>       0.62719538       0.49740509       0.51237428 </v>
    <v>       0.59888534       0.71345477       0.69806881 </v>
    <v>       0.78237909       0.57317878       0.52968412 </v>
    <v>       0.51015475       0.58207783       0.61800439 </v>
    <v>       0.44828944       0.68068933       0.72180980 </v>
   </varray>
  </structure>
  <varray name="forces" >
   <v>      -0.00687822      -0.00906638       0.04761171 </v>
   <v>      -0.06381762       0.05711755       0.08073394 </v>
   <v>      -0.11038462      -0.00222322       0.03008785 </v>
   <v>       0.11019188       0.03274783      -0.00536949 </v>
   <v>       0.07475002      -0.02958198      -0.06750080 </v>
   <v>       0.02345359      -0.06621414      -0.09616091 </v>
   <v>      -0.02731501       0.01722034       0.01059770 </v>
  </varray>
  <varray name="stress" >
   <v>      -0.68832130       0.08110268       0.05930423 </v>
   <v>       0.08110268      -0.60110445       0.05419500 </v>
   <v>       0.05930424       0.05419499      -0.66625873 </v>
  </varray>
  <energy>
   <i name="e_fr_energy">    -10.84100665 </i>
   <i name="e_wo_entrp">    -10.84100665 </i>
   <i name="e_0_energy">      0.00000000 </i>
  </energy>
  <time name="totalsc">    2.07    2.09</time>
 </calculation>
 <calculation>
  <scstep>
   <time name="dav">    0.31    0.31</time>
   <time name="total">    0.51    0.51</time>
   <energy>
    <i name="alphaZ">      7.92446301 </i>
    <i name="ewald">   3754.96162876 </i>
    <i name="hartreedc"> -10711.80510018 </i>
    <i name="XCdc">    -81.48573049 </i>
    <i name="pawpsdc">   7428.03936494 </i>
    <i name="pawaedc">  -7114.12996575 </i>
    <i name="eentropy">      0.00000000 </i>
    <i name="bandstr">   -554.73809122 </i>
    <i name="atom">   7260.39041060 </i>
    <i name="e_fr_energy">    -10.84302033 </i>
    <i name="e_wo_entrp">    -10.84302033 </i>
    <i name="e_0_energy">    -10.84302033 </i>
   </energy>
  </scstep>
  <scstep>
   <time name="dav">    0.31    0.31</time>
   <time name="total">    0.50    0.50</time>
   <energy>
    <i name="e_fr_energy">    -10.84332108 </i>
    <i name="e_wo_entrp">    -10.84332108 </i>
    <i name="e_0_energy">    -10.84332108 </i>
   </energy>
  </scstep>
  <scstep>
   <time name="dav">    0.25    0.25</time>
   <time name="total">    0.40    0.41</time>
   <energy>
    <i name="alphaZ">      7.92446301 </i>
    <i name="ewald">   3754.96162876 </i>
    <i name="hartreedc"> -10711.86652119 </i>
    <i name="XCdc">    -81.48298288 </i>
    <i name="pawpsdc">   7426.73636490 </i>
    <i name="pawaedc">  -7112.80451739 </i>
    <i name="eentropy">     -0.00000000 </i>
    <i name="bandstr">   -554.70216944 </i>
    <i name="atom">   7260.39041060 </i>
    <i name="e_fr_energy">    -10.84332363 </i>
    <i name="e_wo_entrp">    -10.84332363 </i>
    <i name="e_0_energy">    -10.84332363 </i>
   </energy>
  </scstep>
  <structure>
   <crystal>
    <varray name="basis" >
     <v>      17.39055622       0.00000000       0.00000000 </v>
     <v>       0.00000000      17.39055622       0.00000000 </v>
     <v>       0.00000000       0.00000000      17.39055622 </v>
    </varray>
    <i name="volume">   5259.45105886 </i>
    <varray name="rec_basis" >
     <v>       0.05750247       0.00000000       0.00000000 </v>
     <v>       0.00000000       0.05750247       0.00000000 </v>
     <v>       0.00000000       0.00000000       0.05750247 </v>
    </varray>
   </crystal>
   <varray name="positions" >
    <v>       0.65745489       0.61015484       0.60516641 </v>
    <v>       0.76697058       0.70494606       0.64117981 </v>
    <v>       0.62696836       0.49739736       0.51243356 </v>
    <v>       0.59910009       0.71355579       0.69808652 </v>
    <v>       0.78252515       0.57311948       0.52954918 </v>
    <v>       0.51016486       0.58192898       0.61780552 </v>
    <v>       0.44822895       0.68072634       0.72183415 </v>
   </varray>
  </structure>
  <varray name="forces" >
   <v>       0.00860436      -0.01503471       0.03346131 </v>
   <v>      -0.05949053       0.05109542       0.07242041 </v>
   <v>      -0.09977221       0.00179756       0.03035094 </v>
   <v>       0.08644919       0.02860714      -0.00125904 </v>
   <v>       0.05091262      -0.02213765      -0.05054912 </v>
   <v>       0.01518341      -0.05274745      -0.08012445 </v>
   <v>      -0.00188685       0.00841969      -0.00430005 </v>
  </varray>
  <varray name="stress" >
   <v>      -0.71325137       0.08209003       0.07064369 </v>
   <v>       0.08209003      -0.60922541       0.04487467 </v>
   <v>       0.07064368       0.04487467      -0.67579022 </v>
  </varray>
  <energy>
   <i name="e_fr_energy">    -10.84332363 </i>
   <i name="e_wo_entrp">    -10.84332363 </i>
   <i name="e_0_energy">     -0.00000000 </i>
  </energy>
  <time name="totalsc">    2.01    2.14</time>
 </calculation>
 <calculation>
  <scstep>
   <time name="dav">    0.30    0.30</time>
   <time name="total">    0.49    0.50</time>
   <energy>
    <i name="alphaZ">      7.92446301 </i>
    <i name="ewald">   3739.65148081 </i>
    <i name="hartreedc"> -10696.76529427 </i>
    <i name="XCdc">    -81.52661257 </i>
    <i name="pawpsdc">   7426.10488857 </i>
    <i name="pawaedc">  -7112.16125572 </i>
    <i name="eentropy">      0.00000000 </i>
    <i name="bandstr">   -554.46425021 </i>
    <i name="atom">   7260.39041060 </i>
    <i name="e_fr_energy">    -10.84616977 </i>
    <i name="e_wo_entrp">    -10.84616977 </i>
    <i name="e_0_energy">    -10.84616977 </i>
   </energy>
  </scstep>
  <scstep>
   <time name="dav">    0.30    0.30</time>
   <time name="total">    0.49    0.49</time>
   <energy>
    <i name="e_fr_energy">    -10.84870598 </i>
    <i name="e_wo_entrp">    -10.84870598 </i>
    <i name="e_0_energy">    -10.84870598 </i>
   </energy>
  </scstep>
  <scstep>
   <time name="dav">    0.33    0.33</time>
   <time name="total">    0.49    0.49</time>
   <energy>
    <i name="alphaZ">      7.92446301 </i>
    <i name="ewald">   3739.65148081 </i>
    <i name="hartreedc"> -10696.96706757 </i>
    <i name="XCdc">    -81.51892401 </i>
    <i name="pawpsdc">   7422.53492766 </i>
    <i name="pawaedc">  -7108.53042794 </i>
    <i name="eentropy">      0.00000000 </i>
    <i name="bandstr">   -554.33354540 </i>
    <i name="atom">   7260.39041060 </i>
    <i name="e_fr_energy">    -10.84868283 </i>
    <i name="e_wo_entrp">    -10.84868283 </i>
    <i name="e_0_energy">    -10.84868283 </i>
   </energy>
  </scstep>
  <structure>
   <crystal>
    <varray name="basis" >
     <v>      17.39055622       0.00000000       0.00000000 </v>
     <v>       0.00000000      17.39055622       0.00000000 </v>
     <v>       0.00000000       0.00000000      17.39055622 </v>
    </varray>
    <i name="volume">   5259.45105886 </i>
    <varray name="rec_basis" >
     <v>       0.05750247       0.00000000       0.00000000 </v>
     <v>       0.00000000       0.05750247       0.00000000 </v>
     <v>       0.00000000       0.00000000       0.05750247 </v>
    </varray>
   </crystal>
   <varray name="positions" >
    <v>       0.65757354       0.61001855       0.60535926 </v>
    <v>       0.76660168       0.70531585       0.64168438 </v>
    <v>       0.62628729       0.49737418       0.51261137 </v>
    <v>       0.59974435       0.71385887       0.69813966 </v>
    <v>       0.78296335       0.57294157       0.52914438 </v>
    <v>       0.51019522       0.58148245       0.61720892 </v>
    <v>       0.44804747       0.68083738       0.72190718 </v>
   </varray>
  </structure>
  <varray name="forces" >
   <v>       0.04898585      -0.03510721       0.00954629 </v>
   <v>      -0.06552443       0.04790254       0.06834141 </v>
   <v>      -0.09955183       0.01350003       0.03773175 </v>
   <v>       0.04743877       0.01852243       0.00327985 </v>
   <v>       0.00255654      -0.00674092      -0.01956528 </v>
   <v>       0.00555610      -0.02632623      -0.05659793 </v>
   <v>       0.06053898      -0.01175064      -0.04273608 </v>
  </varray>
  <varray name="stress" >
   <v>      -0.80414283       0.08700211       0.10578842 </v>
   <v>       0.08700211      -0.64565691       0.01269216 </v>
   <v>       0.10578842       0.01269216      -0.71114704 </v>
  </varray>
  <energy>
   <i name="e_fr_energy">    -10.84868283 </i>
   <i name="e_wo_entrp">    -10.84868283 </i>
   <i name="e_0_energy">      0.00000000 </i>
  </energy>
  <time name="totalsc">    2.07    2.11</time>
 </calculation>
 <calculation>
  <scstep>
   <time name="dav">    0.30    0.30</time>
   <time name="total">    0.49    0.50</time>
   <energy>
    <i name="alphaZ">      7.92446301 </i>
    <i name="ewald">   3709.61867827 </i>
    <i name="hartreedc"> -10667.34995461 </i>
    <i name="XCdc">    -81.59990571 </i>
    <i name="pawpsdc">   7420.57305932 </i>
    <i name="pawaedc">  -7106.53310473 </i>
    <i name="eentropy">      0.00000000 </i>
    <i name="bandstr">   -553.86620169 </i>
    <i name="atom">   7260.39041060 </i>
    <i name="e_fr_energy">    -10.84255554 </i>
    <i name="e_wo_entrp">    -10.84255554 </i>
    <i name="e_0_energy">    -10.84255554 </i>
   </energy>
  </scstep>
  <scstep>
   <time name="dav">    0.30    0.30</time>
   <time name="total">    0.49    0.49</time>
   <energy>
    <i name="e_fr_energy">    -10.85274528 </i>
    <i name="e_wo_entrp">    -10.85274528 </i>
    <i name="e_0_energy">    -10.85274528 </i>
   </energy>
  </scstep>
  <scstep>
   <time name="dav">    0.33    0.33</time>
   <time name="total">    0.52    0.54</time>
   <energy>
    <i name="e_fr_energy">    -10.85272402 </i>
    <i name="e_wo_entrp">    -10.85272402 </i>
    <i name="e_0_energy">    -10.85272402 </i>
   </energy>
  </scstep>
  <scstep>
   <time name="dav">    0.31    0.31</time>
   <time name="total">    0.50    0.52</time>
   <energy>
    <i name="e_fr_energy">    -10.85255154 </i>
    <i name="e_wo_entrp">    -10.85255154 </i>
    <i name="e_0_energy">    -10.85255154 </i>
   </energy>
  </scstep>
  <scstep>
   <time name="dav">    0.24    0.23</time>
   <time name="total">    0.39    0.40</time>
   <energy>
    <i name="alphaZ">      7.92446301 </i>
    <i name="ewald">   3709.61867827 </i>
    <i name="hartreedc"> -10667.94686725 </i>
    <i name="XCdc">    -81.57990054 </i>
    <i name="pawpsdc">   7408.81112617 </i>
    <i name="pawaedc">  -7094.55993757 </i>
    <i name="eentropy">      0.00000000 </i>
    <i name="bandstr">   -553.51058924 </i>
    <i name="atom">   7260.39041060 </i>
    <i name="e_fr_energy">    -10.85261654 </i>
    <i name="e_wo_entrp">    -10.85261654 </i>
    <i name="e_0_energy">    -10.85261654 </i>
   </energy>
  </scstep>
  <structure>
   <crystal>
    <varray name="basis" >
     <v>      17.39055622       0.00000000       0.00000000 </v>
     <v>       0.00000000      17.39055622       0.00000000 </v>
     <v>       0.00000000       0.00000000      17.39055622 </v>
    </varray>
    <i name="volume">   5259.45105886 </i>
    <varray name="rec_basis" >
     <v>       0.05750247       0.00000000       0.00000000 </v>
     <v>       0.00000000       0.05750247       0.00000000 </v>
     <v>       0.00000000       0.00000000       0.05750247 </v>
    </varray>
   </crystal>
   <varray name="positions" >
    <v>       0.65781083       0.60974597       0.60574496 </v>
    <v>       0.76586387       0.70605545       0.64269352 </v>
    <v>       0.62492514       0.49732781       0.51296700 </v>
    <v>       0.60103288       0.71446503       0.69824592 </v>
    <v>       0.78383975       0.57258575       0.52833477 </v>
    <v>       0.51025592       0.58058939       0.61601571 </v>
    <v>       0.44768450       0.68105946       0.72205326 </v>
   </varray>
  </structure>
  <varray name="forces" >
   <v>       0.11814373      -0.06814262      -0.04080305 </v>
   <v>      -0.07085894       0.03723288       0.05346631 </v>
   <v>      -0.09284466       0.03455512       0.04754617 </v>
   <v>      -0.03113787      -0.00184092       0.01391555 </v>
   <v>      -0.08717818       0.02243025       0.03967975 </v>
   <v>      -0.01133467       0.02358419      -0.00100761 </v>
   <v>       0.17521058      -0.04781890      -0.11279711 </v>
  </varray>
  <varray name="stress" >
   <v>      -0.95958585       0.09865143       0.16317204 </v>
   <v>       0.09865143      -0.70666739      -0.03317130 </v>
   <v>       0.16317204      -0.03317130      -0.78048653 </v>
  </varray>
  <energy>
   <i name="e_fr_energy">    -10.85261654 </i>
   <i name="e_wo_entrp">    -10.85261654 </i>
   <i name="e_0_energy">      0.00000000 </i>
  </energy>
  <time name="totalsc">    2.98    3.09</time>
 </calculation>
 <calculation>
  <scstep>
   <time name="dav">    0.30    0.30</time>
   <time name="total">    0.49    0.50</time>
   <energy>
    <i name="alphaZ">      7.92446301 </i>
    <i name="ewald">   3709.27251806 </i>
    <i name="hartreedc"> -10667.62143967 </i>
    <i name="XCdc">    -81.58168294 </i>
    <i name="pawpsdc">   7408.80097705 </i>
    <i name="pawaedc">  -7094.54900153 </i>
    <i name="eentropy">     -0.00000000 </i>
    <i name="bandstr">   -553.49092463 </i>
    <i name="atom">   7260.39041060 </i>
    <i name="e_fr_energy">    -10.85468004 </i>
    <i name="e_wo_entrp">    -10.85468004 </i>
    <i name="e_0_energy">    -10.85468004 </i>
   </energy>
  </scstep>
  <scstep>
   <time name="dav">    0.31    0.31</time>
   <time name="total">    0.50    0.50</time>
   <energy>
    <i name="e_fr_energy">    -10.85535354 </i>
    <i name="e_wo_entrp">    -10.85535354 </i>
    <i name="e_0_energy">    -10.85535354 </i>
   </energy>
  </scstep>
  <scstep>
   <time name="dav">    0.24    0.23</time>
   <time name="total">    0.39    0.41</time>
   <energy>
    <i name="alphaZ">      7.92446301 </i>
    <i name="ewald">   3709.27251806 </i>
    <i name="hartreedc"> -10667.62239871 </i>
    <i name="XCdc">    -81.58170588 </i>
    <i name="pawpsdc">   7408.75017655 </i>
    <i name="pawaedc">  -7094.49682573 </i>
    <i name="eentropy">      0.00000000 </i>
    <i name="bandstr">   -553.49202049 </i>
    <i name="atom">   7260.39041060 </i>
    <i name="e_fr_energy">    -10.85538258 </i>
    <i name="e_wo_entrp">    -10.85538258 </i>
    <i name="e_0_energy">    -10.85538258 </i>
   </energy>
  </scstep>
  <structure>
   <crystal>
    <varray name="basis" >
     <v>      17.39055622       0.00000000       0.00000000 </v>
     <v>       0.00000000      17.39055622       0.00000000 </v>
     <v>       0.00000000       0.00000000      17.39055622 </v>
    </varray>
    <i name="volume">   5259.45105886 </i>
    <varray name="rec_basis" >
     <v>       0.05750247       0.00000000       0.00000000 </v>
     <v>       0.00000000       0.05750247       0.00000000 </v>
     <v>       0.00000000       0.00000000       0.05750247 </v>
    </varray>
   </crystal>
   <varray name="positions" >
    <v>       0.65803796       0.60958895       0.60575613 </v>
    <v>       0.76561352       0.70625443       0.64296912 </v>
    <v>       0.62452134       0.49737205       0.51310826 </v>
    <v>       0.60123193       0.71457836       0.69828769 </v>
    <v>       0.78387365       0.57255205       0.52824063 </v>
    <v>       0.51025012       0.58045451       0.61578550 </v>
    <v>       0.44788436       0.68102849       0.72190781 </v>
   </varray>
  </structure>
  <varray name="forces" >
   <v>       0.08216215      -0.04891510      -0.02210335 </v>
   <v>      -0.05708709       0.03331821       0.04118204 </v>
   <v>      -0.07895785       0.02576058       0.03459549 </v>
   <v>      -0.03773964      -0.02047887       0.00174374 </v>
   <v>      -0.08280218       0.02235117       0.04096540 </v>
   <v>       0.00392711       0.03594739       0.01332797 </v>
   <v>       0.17049752      -0.04798337      -0.10971129 </v>
  </varray>
  <varray name="stress" >
   <v>      -0.96423013       0.09920137       0.16604381 </v>
   <v>       0.09920137      -0.70713588      -0.03692345 </v>
   <v>       0.16604381      -0.03692345      -0.77637059 </v>
  </varray>
  <energy>
   <i name="e_fr_energy">    -10.85538258 </i>
   <i name="e_wo_entrp">    -10.85538258 </i>
   <i name="e_0_energy">      0.00000000 </i>
  </energy>
  <time name="totalsc">    1.97    2.01</time>
 </calculation>
 <calculation>
  <scstep>
   <time name="dav">    0.30    0.30</time>
   <time name="total">    0.49    0.50</time>
   <energy>
    <i name="alphaZ">      7.92446301 </i>
    <i name="ewald">   3708.28683682 </i>
    <i name="hartreedc"> -10666.73945837 </i>
    <i name="XCdc">    -81.58502694 </i>
    <i name="pawpsdc">   7408.68951537 </i>
    <i name="pawaedc">  -7094.43550709 </i>
    <i name="eentropy">      0.00000000 </i>
    <i name="bandstr">   -553.38772002 </i>
    <i name="atom">   7260.39041060 </i>
    <i name="e_fr_energy">    -10.85648661 </i>
    <i name="e_wo_entrp">    -10.85648661 </i>
    <i name="e_0_energy">    -10.85648661 </i>
   </energy>
  </scstep>
  <scstep>
   <time name="dav">    0.30    0.30</time>
   <time name="total">    0.50    0.50</time>
   <energy>
    <i name="e_fr_energy">    -10.86211853 </i>
    <i name="e_wo_entrp">    -10.86211853 </i>
    <i name="e_0_energy">    -10.86211853 </i>
   </energy>
  </scstep>
  <scstep>
   <time name="dav">    0.32    0.32</time>
   <time name="total">    0.48    0.48</time>
   <energy>
    <i name="alphaZ">      7.92446301 </i>
    <i name="ewald">   3708.28683682 </i>
    <i name="hartreedc"> -10666.72026030 </i>
    <i name="XCdc">    -81.58569589 </i>
    <i name="pawpsdc">   7408.62926078 </i>
    <i name="pawaedc">  -7094.37376878 </i>
    <i name="eentropy">      0.00000000 </i>
    <i name="bandstr">   -553.41333559 </i>
    <i name="atom">   7260.39041060 </i>
    <i name="e_fr_energy">    -10.86208934 </i>
    <i name="e_wo_entrp">    -10.86208934 </i>
    <i name="e_0_energy">    -10.86208934 </i>
   </energy>
  </scstep>
  <structure>
   <crystal>
    <varray name="basis" >
     <v>      17.39055622       0.00000000       0.00000000 </v>
     <v>       0.00000000      17.39055622       0.00000000 </v>
     <v>       0.00000000       0.00000000      17.39055622 </v>
    </varray>
    <i name="volume">   5259.45105886 </i>
    <varray name="rec_basis" >
     <v>       0.05750247       0.00000000       0.00000000 </v>
     <v>       0.00000000       0.05750247       0.00000000 </v>
     <v>       0.00000000       0.00000000       0.05750247 </v>
    </varray>
   </crystal>
   <varray name="positions" >
    <v>       0.65871937       0.60911790       0.60578966 </v>
    <v>       0.76486248       0.70685139       0.64379593 </v>
    <v>       0.62330993       0.49750479       0.51353205 </v>
    <v>       0.60182909       0.71491836       0.69841297 </v>
    <v>       0.78397536       0.57245095       0.52795821 </v>
    <v>       0.51023274       0.58004987       0.61509486 </v>
    <v>       0.44848391       0.68093559       0.72147147 </v>
   </varray>
  </structure>
  <varray name="forces" >
   <v>       0.01480984      -0.02066838       0.03735237 </v>
   <v>      -0.05542618       0.05635676       0.05062893 </v>
   <v>      -0.10327811       0.00292088       0.01672213 </v>
   <v>      -0.02372046      -0.05325238      -0.02456689 </v>
   <v>      -0.05973093       0.01588617       0.02557992 </v>
   <v>       0.04509442       0.04888492       0.01734138 </v>
   <v>       0.18225142      -0.05012797      -0.12305784 </v>
  </varray>
  <varray name="stress" >
   <v>      -0.98747152       0.10339505       0.17007324 </v>
   <v>       0.10339505      -0.72012296      -0.04115665 </v>
   <v>       0.17007324      -0.04115665      -0.77973574 </v>
  </varray>
  <energy>
   <i name="e_fr_energy">    -10.86208934 </i>
   <i name="e_wo_entrp">    -10.86208934 </i>
   <i name="e_0_energy">      0.00000000 </i>
  </energy>
  <time name="totalsc">    2.06    2.38</time>
 </calculation>
 <calculation>
  <scstep>
   <time name="dav">    0.30    0.30</time>
   <time name="total">    0.49    0.50</time>
   <energy>
    <i name="alphaZ">      7.92446301 </i>
    <i name="ewald">   3706.55907601 </i>
    <i name="hartreedc"> -10665.20072775 </i>
    <i name="XCdc">    -81.58554349 </i>
    <i name="pawpsdc">   7408.34277209 </i>
    <i name="pawaedc">  -7094.08489294 </i>
    <i name="eentropy">      0.00000000 </i>
    <i name="bandstr">   -553.19335070 </i>
    <i name="atom">   7260.39041060 </i>
    <i name="e_fr_energy">    -10.84779317 </i>
    <i name="e_wo_entrp">    -10.84779317 </i>
    <i name="e_0_energy">    -10.84779317 </i>
   </energy>
  </scstep>
  <scstep>
   <time name="dav">    0.30    0.30</time>
   <time name="total">    0.49    0.68</time>
   <energy>
    <i name="e_fr_energy">    -10.87084644 </i>
    <i name="e_wo_entrp">    -10.87084644 </i>
    <i name="e_0_energy">    -10.87084644 </i>
   </energy>
  </scstep>
  <scstep>
   <time name="dav">    0.34    0.33</time>
   <time name="total">    0.52    0.54</time>
   <energy>
    <i name="e_fr_energy">    -10.87084249 </i>
    <i name="e_wo_entrp">    -10.87084249 </i>
    <i name="e_0_energy">    -10.87084249 </i>
   </energy>
  </scstep>
  <scstep>
   <time name="dav">    0.30    0.30</time>
   <time name="total">    0.49    0.51</time>
   <energy>
    <i name="e_fr_energy">    -10.87063556 </i>
    <i name="e_wo_entrp">    -10.87063556 </i>
    <i name="e_0_energy">    -10.87063556 </i>
   </energy>
  </scstep>
  <scstep>
   <time name="dav">    0.32    0.31</time>
   <time name="total">    0.50    0.79</time>
   <energy>
    <i name="e_fr_energy">    -10.87089665 </i>
    <i name="e_wo_entrp">    -10.87089665 </i>
    <i name="e_0_energy">    -10.87089665 </i>
   </energy>
  </scstep>
  <scstep>
   <time name="dav">    0.25    0.25</time>
   <time name="total">    0.44    0.45</time>
   <energy>
    <i name="e_fr_energy">    -10.87119282 </i>
    <i name="e_wo_entrp">    -10.87119282 </i>
    <i name="e_0_energy">    -10.87119282 </i>
   </energy>
  </scstep>
  <scstep>
   <time name="dav">    0.24    0.24</time>
   <time name="total">    0.43    0.43</time>
   <energy>
    <i name="e_fr_energy">    -10.87164249 </i>
    <i name="e_wo_entrp">    -10.87164249 </i>
    <i name="e_0_energy">    -10.87164249 </i>
   </energy>
  </scstep>
  <scstep>
   <time name="dav">    0.25    0.25</time>
   <time name="total">    0.44    0.45</time>
   <energy>
    <i name="e_fr_energy">    -10.87204147 </i>
    <i name="e_wo_entrp">    -10.87204147 </i>
    <i name="e_0_energy">    -10.87204147 </i>
   </energy>
  </scstep>
  <scstep>
   <time name="dav">    0.25    0.25</time>
   <time name="total">    0.44    0.44</time>
   <energy>
    <i name="e_fr_energy">    -10.87230772 </i>
    <i name="e_wo_entrp">    -10.87230772 </i>
    <i name="e_0_energy">    -10.87230772 </i>
   </energy>
  </scstep>
  <scstep>
   <time name="dav">    0.24    0.25</time>
   <time name="total">    0.44    0.44</time>
   <energy>
    <i name="e_fr_energy">    -10.87251450 </i>
    <i name="e_wo_entrp">    -10.87251450 </i>
    <i name="e_0_energy">    -10.87251450 </i>
   </energy>
  </scstep>
  <scstep>
   <time name="dav">    0.25    0.25</time>
   <time name="total">    0.44    1.42</time>
   <energy>
    <i name="e_fr_energy">    -10.87268092 </i>
    <i name="e_wo_entrp">    -10.87268092 </i>
    <i name="e_0_energy">    -10.87268092 </i>
   </energy>
  </scstep>
  <scstep>
   <time name="dav">    0.24    0.24</time>
   <time name="total">    0.40    0.40</time>
   <energy>
    <i name="alphaZ">      7.92446301 </i>
    <i name="ewald">   3706.55907601 </i>
    <i name="hartreedc"> -10665.12633862 </i>
    <i name="XCdc">    -81.58902710 </i>
    <i name="pawpsdc">   7407.72223395 </i>
    <i name="pawaedc">  -7093.46221190 </i>
    <i name="eentropy">      0.00000000 </i>
    <i name="bandstr">   -553.29133899 </i>
    <i name="atom">   7260.39041060 </i>
    <i name="e_fr_energy">    -10.87273302 </i>
    <i name="e_wo_entrp">    -10.87273302 </i>
    <i name="e_0_energy">    -10.87273302 </i>
   </energy>
  </scstep>
  <structure>
   <crystal>
    <varray name="basis" >
     <v>      17.39055622       0.00000000       0.00000000 </v>
     <v>       0.00000000      17.39055622       0.00000000 </v>
     <v>       0.00000000       0.00000000      17.39055622 </v>
    </varray>
    <i name="volume">   5259.45105886 </i>
    <varray name="rec_basis" >
     <v>       0.05750247       0.00000000       0.00000000 </v>
     <v>       0.00000000       0.05750247       0.00000000 </v>
     <v>       0.00000000       0.00000000       0.05750247 </v>
    </varray>
   </crystal>
   <varray name="positions" >
    <v>       0.66008219       0.60817580       0.60585671 </v>
    <v>       0.76336038       0.70804531       0.64544955 </v>
    <v>       0.62088712       0.49777028       0.51437962 </v>
    <v>       0.60302342       0.71559836       0.69866355 </v>
    <v>       0.78417879       0.57224876       0.52739336 </v>
    <v>       0.51019797       0.57924057       0.61371357 </v>
    <v>       0.44968302       0.68074977       0.72059879 </v>
   </varray>
  </structure>
  <varray name="forces" >
   <v>      -0.12764054       0.04860859       0.14343034 </v>
   <v>      -0.03462942       0.08894924       0.05095399 </v>
   <v>      -0.12369626      -0.04552902      -0.02956095 </v>
   <v>      -0.01813632      -0.11818033      -0.06687713 </v>
   <v>      -0.00693439      -0.00037022      -0.00466077 </v>
   <v>       0.11237577       0.08178081       0.05029139 </v>
   <v>       0.19866116      -0.05525908      -0.14357688 </v>
  </varray>
  <varray name="stress" >
   <v>      -1.00174456       0.10882127       0.16875450 </v>
   <v>       0.10882127      -0.72306370      -0.04053039 </v>
   <v>       0.16875450      -0.04053039      -0.77067550 </v>
  </varray>
  <energy>
   <i name="e_fr_energy">    -10.87273302 </i>
   <i name="e_wo_entrp">    -10.87273302 </i>
   <i name="e_0_energy">      0.00000000 </i>
  </energy>
  <time name="totalsc">    6.14    7.77</time>
 </calculation>
 <calculation>
  <scstep>
   <time name="dav">    0.30    0.30</time>
   <time name="total">    0.49    0.50</time>
   <energy>
    <i name="alphaZ">      7.92446301 </i>
    <i name="ewald">   3704.15612193 </i>
    <i name="hartreedc"> -10663.05361439 </i>
    <i name="XCdc">    -81.56484934 </i>
    <i name="pawpsdc">   7407.72295513 </i>
    <i name="pawaedc">  -7093.46293853 </i>
    <i name="eentropy">      0.00000000 </i>
    <i name="bandstr">   -552.88578777 </i>
    <i name="atom">   7260.39041060 </i>
    <i name="e_fr_energy">    -10.77323937 </i>
    <i name="e_wo_entrp">    -10.77323937 </i>
    <i name="e_0_energy">    -10.77323937 </i>
   </energy>
  </scstep>
  <scstep>
   <time name="dav">    0.31    0.31</time>
   <time name="total">    0.50    0.50</time>
   <energy>
    <i name="e_fr_energy">    -10.87038285 </i>
    <i name="e_wo_entrp">    -10.87038285 </i>
    <i name="e_0_energy">    -10.87038285 </i>
   </energy>
  </scstep>
  <scstep>
   <time name="dav">    0.32    0.32</time>
   <time name="total">    0.51    0.51</time>
   <energy>
    <i name="e_fr_energy">    -10.87061851 </i>
    <i name="e_wo_entrp">    -10.87061851 </i>
    <i name="e_0_energy">    -10.87061851 </i>
   </energy>
  </scstep>
  <scstep>
   <time name="dav">    0.31    0.31</time>
   <time name="total">    0.50    0.50</time>
   <energy>
    <i name="e_fr_energy">    -10.86970045 </i>
    <i name="e_wo_entrp">    -10.86970045 </i>
    <i name="e_0_energy">    -10.86970045 </i>
   </energy>
  </scstep>
  <scstep>
   <time name="dav">    0.30    0.30</time>
   <time name="total">    0.49    0.49</time>
   <energy>
    <i name="e_fr_energy">    -10.86960244 </i>
    <i name="e_wo_entrp">    -10.86960244 </i>
    <i name="e_0_energy">    -10.86960244 </i>
   </energy>
  </scstep>
  <scstep>
   <time name="dav">    0.25    0.25</time>
   <time name="total">    0.44    0.54</time>
   <energy>
    <i name="e_fr_energy">    -10.87002055 </i>
    <i name="e_wo_entrp">    -10.87002055 </i>
    <i name="e_0_energy">    -10.87002055 </i>
   </energy>
  </scstep>
  <scstep>
   <time name="dav">    0.24    0.24</time>
   <time name="total">    0.44    0.44</time>
   <energy>
    <i name="e_fr_energy">    -10.87070440 </i>
    <i name="e_wo_entrp">    -10.87070440 </i>
    <i name="e_0_energy">    -10.87070440 </i>
   </energy>
  </scstep>
  <scstep>
   <time name="dav">    0.26    0.26</time>
   <time name="total">    0.45    0.46</time>
   <energy>
    <i name="e_fr_energy">    -10.87126686 </i>
    <i name="e_wo_entrp">    -10.87126686 </i>
    <i name="e_0_energy">    -10.87126686 </i>
   </energy>
  </scstep>
  <scstep>
   <time name="dav">    0.25    0.25</time>
   <time name="total">    0.44    0.44</time>
   <energy>
    <i name="e_fr_energy">    -10.87168104 </i>
    <i name="e_wo_entrp">    -10.87168104 </i>
    <i name="e_0_energy">    -10.87168104 </i>
   </energy>
  </scstep>
  <scstep>
   <time name="dav">    0.26    0.26</time>
   <time name="total">    0.45    0.45</time>
   <energy>
    <i name="e_fr_energy">    -10.87190761 </i>
    <i name="e_wo_entrp">    -10.87190761 </i>
    <i name="e_0_energy">    -10.87190761 </i>
   </energy>
  </scstep>
  <scstep>
   <time name="dav">    0.24    0.24</time>
   <time name="total">    0.44    0.44</time>
   <energy>
    <i name="e_fr_energy">    -10.87209789 </i>
    <i name="e_wo_entrp">    -10.87209789 </i>
    <i name="e_0_energy">    -10.87209789 </i>
   </energy>
  </scstep>
  <scstep>
   <time name="dav">    0.26    0.26</time>
   <time name="total">    0.45    0.45</time>
   <energy>
    <i name="e_fr_energy">    -10.87229361 </i>
    <i name="e_wo_entrp">    -10.87229361 </i>
    <i name="e_0_energy">    -10.87229361 </i>
   </energy>
  </scstep>
  <scstep>
   <time name="dav">    0.25    0.25</time>
   <time name="total">    0.40    0.45</time>
   <energy>
    <i name="alphaZ">      7.92446301 </i>
    <i name="ewald">   3704.15612193 </i>
    <i name="hartreedc"> -10662.57583131 </i>
    <i name="XCdc">    -81.57630947 </i>
    <i name="pawpsdc">   7411.24554298 </i>
    <i name="pawaedc">  -7097.06248264 </i>
    <i name="eentropy">      0.00000000 </i>
    <i name="bandstr">   -553.37422883 </i>
    <i name="atom">   7260.39041060 </i>
    <i name="e_fr_energy">    -10.87231373 </i>
    <i name="e_wo_entrp">    -10.87231373 </i>
    <i name="e_0_energy">    -10.87231373 </i>
   </energy>
  </scstep>
  <structure>
   <crystal>
    <varray name="basis" >
     <v>      17.39055622       0.00000000       0.00000000 </v>
     <v>       0.00000000      17.39055622       0.00000000 </v>
     <v>       0.00000000       0.00000000      17.39055622 </v>
    </varray>
    <i name="volume">   5259.45105886 </i>
    <varray name="rec_basis" >
     <v>       0.05750247       0.00000000       0.00000000 </v>
     <v>       0.00000000       0.05750247       0.00000000 </v>
     <v>       0.00000000       0.00000000       0.05750247 </v>
    </varray>
   </crystal>
   <varray name="positions" >
    <v>       0.66280783       0.60629160       0.60599080 </v>
    <v>       0.76035620       0.71043315       0.64875680 </v>
    <v>       0.61604150       0.49830124       0.51607476 </v>
    <v>       0.60541206       0.71695836       0.69916469 </v>
    <v>       0.78458564       0.57184436       0.52626368 </v>
    <v>       0.51012843       0.57762199       0.61095099 </v>
    <v>       0.45208124       0.68037815       0.71885343 </v>
   </varray>
  </structure>
  <varray name="forces" >
   <v>      -0.36241769       0.16697314       0.32148528 </v>
   <v>       0.03967486       0.12542215       0.04689085 </v>
   <v>      -0.09893335      -0.14220283      -0.14288116 </v>
   <v>      -0.06888313      -0.21668888      -0.12473546 </v>
   <v>       0.10219502      -0.03171493      -0.07815085 </v>
   <v>       0.16282116       0.16797527       0.14417259 </v>
   <v>       0.22554313      -0.06976393      -0.16678126 </v>
  </varray>
  <varray name="stress" >
   <v>      -0.93445352       0.09156271       0.11556425 </v>
   <v>       0.09156271      -0.71415135      -0.02399232 </v>
   <v>       0.11556426      -0.02399232      -0.72829079 </v>
  </varray>
  <energy>
   <i name="e_fr_energy">    -10.87231373 </i>
   <i name="e_wo_entrp">    -10.87231373 </i>
   <i name="e_0_energy">      0.00000000 </i>
  </energy>
  <time name="totalsc">    6.60    6.78</time>
 </calculation>
 <calculation>
  <scstep>
   <time name="dav">    0.30    0.30</time>
   <time name="total">    0.49    0.50</time>
   <energy>
    <i name="alphaZ">      7.92446301 </i>
    <i name="ewald">   3705.26959294 </i>
    <i name="hartreedc"> -10663.63531545 </i>
    <i name="XCdc">    -81.58928844 </i>
    <i name="pawpsdc">   7411.25104826 </i>
    <i name="pawaedc">  -7097.06808625 </i>
    <i name="eentropy">      0.00000000 </i>
    <i name="bandstr">   -553.39136216 </i>
    <i name="atom">   7260.39041060 </i>
    <i name="e_fr_energy">    -10.84853748 </i>
    <i name="e_wo_entrp">    -10.84853748 </i>
    <i name="e_0_energy">    -10.84853748 </i>
   </energy>
  </scstep>
  <scstep>
   <time name="dav">    0.31    0.31</time>
   <time name="total">    0.50    0.50</time>
   <energy>
    <i name="e_fr_energy">    -10.87581956 </i>
    <i name="e_wo_entrp">    -10.87581956 </i>
    <i name="e_0_energy">    -10.87581956 </i>
   </energy>
  </scstep>
  <scstep>
   <time name="dav">    0.35    0.35</time>
   <time name="total">    0.54    0.54</time>
   <energy>
    <i name="e_fr_energy">    -10.87579331 </i>
    <i name="e_wo_entrp">    -10.87579331 </i>
    <i name="e_0_energy">    -10.87579331 </i>
   </energy>
  </scstep>
  <scstep>
   <time name="dav">    0.31    0.31</time>
   <time name="total">    0.50    0.50</time>
   <energy>
    <i name="e_fr_energy">    -10.87540778 </i>
    <i name="e_wo_entrp">    -10.87540778 </i>
    <i name="e_0_energy">    -10.87540778 </i>
   </energy>
  </scstep>
  <scstep>
   <time name="dav">    0.31    0.31</time>
   <time name="total">    0.47    0.47</time>
   <energy>
    <i name="alphaZ">      7.92446301 </i>
    <i name="ewald">   3705.26959294 </i>
    <i name="hartreedc"> -10663.84583349 </i>
    <i name="XCdc">    -81.58549151 </i>
    <i name="pawpsdc">   7409.05148219 </i>
    <i name="pawaedc">  -7094.82299425 </i>
    <i name="eentropy">      0.00000000 </i>
    <i name="bandstr">   -553.25694784 </i>
    <i name="atom">   7260.39041060 </i>
    <i name="e_fr_energy">    -10.87531834 </i>
    <i name="e_wo_entrp">    -10.87531834 </i>
    <i name="e_0_energy">    -10.87531834 </i>
   </energy>
  </scstep>
  <structure>
   <crystal>
    <varray name="basis" >
     <v>      17.39055622       0.00000000       0.00000000 </v>
     <v>       0.00000000      17.39055622       0.00000000 </v>
     <v>       0.00000000       0.00000000      17.39055622 </v>
    </varray>
    <i name="volume">   5259.45105886 </i>
    <varray name="rec_basis" >
     <v>       0.05750247       0.00000000       0.00000000 </v>
     <v>       0.00000000       0.05750247       0.00000000 </v>
     <v>       0.00000000       0.00000000       0.05750247 </v>
    </varray>
   </crystal>
   <varray name="positions" >
    <v>       0.66133708       0.60730831       0.60591845 </v>
    <v>       0.76197725       0.70914468       0.64697222 </v>
    <v>       0.61865619       0.49801473       0.51516006 </v>
    <v>       0.60412316       0.71622451       0.69889428 </v>
    <v>       0.78436610       0.57206257       0.52687325 </v>
    <v>       0.51016595       0.57849538       0.61244167 </v>
    <v>       0.45078717       0.68057868       0.71979522 </v>
   </varray>
  </structure>
  <varray name="forces" >
   <v>      -0.24937716       0.11201862       0.23084371 </v>
   <v>      -0.00293142       0.10329158       0.04173796 </v>
   <v>      -0.11677771      -0.08435380      -0.08139539 </v>
   <v>      -0.03434260      -0.17080056      -0.09951214 </v>
   <v>       0.04291661      -0.01435083      -0.03383853 </v>
   <v>       0.14991788       0.11513273       0.09334872 </v>
   <v>       0.21059440      -0.06093774      -0.15118433 </v>
  </varray>
  <varray name="stress" >
   <v>      -0.99249352       0.10499918       0.15317719 </v>
   <v>       0.10499918      -0.73515422      -0.03572288 </v>
   <v>       0.15317718      -0.03572288      -0.76548623 </v>
  </varray>
  <energy>
[...]
       <r>    -1.7738     0.0000    43.0000 </r>
       <r>    -1.7383     0.0000    43.0000 </r>
       <r>    -1.7028     0.0000    43.0000 </r>
       <r>    -1.6673     0.0000    43.0000 </r>
       <r>    -1.6318     0.0000    43.0000 </r>
       <r>    -1.5963     0.0000    43.0000 </r>
       <r>    -1.5608     0.0000    43.0000 </r>
       <r>    -1.5253     0.0000    43.0000 </r>
       <r>    -1.4898     0.0000    43.0000 </r>
       <r>    -1.4543     0.0000    43.0000 </r>
       <r>    -1.4188     0.0000    43.0000 </r>
       <r>    -1.3833     0.0000    43.0000 </r>
       <r>    -1.3478     0.0000    43.0000 </r>
       <r>    -1.3123     0.0000    43.0000 </r>
       <r>    -1.2768     0.0000    43.0000 </r>
       <r>    -1.2413     0.0000    43.0000 </r>
       <r>    -1.2058     0.0000    43.0000 </r>
       <r>    -1.1703     0.0000    43.0000 </r>
       <r>    -1.1348     0.0000    43.0000 </r>
       <r>    -1.0993     0.0000    43.0000 </r>
       <r>    -1.0638     0.0000    43.0000 </r>
       <r>    -1.0284     0.0000    43.0000 </r>
       <r>    -0.9929     0.0000    44.0000 </r>
       <r>    -0.9574     0.0000    44.0000 </r>
       <r>    -0.9219     0.0000    44.0000 </r>
       <r>    -0.8864     0.0000    44.0000 </r>
       <r>    -0.8509     0.0000    44.0000 </r>
       <r>    -0.8154     0.0000    44.0000 </r>
       <r>    -0.7799     0.0000    45.0000 </r>
       <r>    -0.7444     0.0000    45.0000 </r>
       <r>    -0.7089     0.0000    46.0000 </r>
       <r>    -0.6734     0.0000    47.0000 </r>
       <r>    -0.6379     0.0000    47.0000 </r>
       <r>    -0.6024     0.0000    47.0000 </r>
       <r>    -0.5669     0.0000    47.0000 </r>
       <r>    -0.5314     0.0000    47.0000 </r>
       <r>    -0.4959     0.0000    47.0000 </r>
       <r>    -0.4604    28.1693    48.0000 </r>
       <r>    -0.4249     0.0000    48.0000 </r>
       <r>    -0.3894     0.0000    48.0000 </r>
       <r>    -0.3539     0.0000    48.0000 </r>
       <r>    -0.3184     0.0000    48.0000 </r>
       <r>    -0.2829     4.1737    48.1482 </r>
       <r>    -0.2474     0.0000    49.0000 </r>
       <r>    -0.2119     0.0000    49.0000 </r>
       <r>    -0.1764     0.0000    49.0000 </r>
       <r>    -0.1409     0.0000    49.0000 </r>
       <r>    -0.1054     0.0000    49.0000 </r>
       <r>    -0.0699     0.0000    49.0000 </r>
       <r>    -0.0344     0.0000    49.0000 </r>
       <r>     0.0011     0.0000    49.0000 </r>
       <r>     0.0366     0.0000    49.0000 </r>
       <r>     0.0721     0.0000    49.0000 </r>
       <r>     0.1076     0.0000    49.0000 </r>
       <r>     0.1431     0.0000    49.0000 </r>
       <r>     0.1786     0.0000    50.0000 </r>
       <r>     0.2141     0.0000    50.0000 </r>
       <r>     0.2496     0.0000    50.0000 </r>
       <r>     0.2851     0.0000    50.0000 </r>
       <r>     0.3206     0.0000    51.0000 </r>
       <r>     0.3561     0.0000    51.0000 </r>
       <r>     0.3916     0.0000    51.0000 </r>
       <r>     0.4271     0.0000    51.0000 </r>
       <r>     0.4626     0.0000    51.0000 </r>
       <r>     0.4981     0.0000    51.0000 </r>
       <r>     0.5336     0.0000    52.0000 </r>
       <r>     0.5691     0.0000    52.0000 </r>
       <r>     0.6046     0.0000    52.0000 </r>
       <r>     0.6401     0.0000    52.0000 </r>
       <r>     0.6756     0.0000    52.0000 </r>
       <r>     0.7111     0.0000    52.0000 </r>
       <r>     0.7466     0.0000    52.0000 </r>
       <r>     0.7821     0.0000    52.0000 </r>
       <r>     0.8176     0.0000    52.0000 </r>
       <r>     0.8531     0.0000    52.0000 </r>
       <r>     0.8886     0.0000    52.0000 </r>
       <r>     0.9241     0.0000    52.0000 </r>
       <r>     0.9596     0.0000    52.0000 </r>
       <r>     0.9951     0.0000    52.0000 </r>
       <r>     1.0306     0.0000    52.0000 </r>
       <r>     1.0661     0.0000    52.0000 </r>
       <r>     1.1016     0.0000    52.0000 </r>
      </set>
      <set comment="spin 2">
       <r>    -9.5483     0.0000     0.0000 </r>
       <r>    -9.5128     0.0000     0.0000 </r>
       <r>    -9.4773     0.0000     0.0000 </r>
       <r>    -9.4418     0.0000     0.0000 </r>
       <r>    -9.4063     0.0000     0.0000 </r>
       <r>    -9.3708     0.0000     0.0000 </r>
       <r>    -9.3353     0.0000     0.0000 </r>
       <r>    -9.2998     0.0000     0.0000 </r>
       <r>    -9.2643     0.0000     0.0000 </r>
       <r>    -9.2288     0.0000     0.0000 </r>
       <r>    -9.1933     0.0000     0.0000 </r>
       <r>    -9.1578     0.0000     0.0000 </r>
       <r>    -9.1223     0.0000     0.0000 </r>
       <r>    -9.0868     0.0000     0.0000 </r>
       <r>    -9.0513     0.0000     0.0000 </r>
       <r>    -9.0158     0.0000     1.0000 </r>
       <r>    -8.9803     0.0000     1.0000 </r>
       <r>    -8.9448     0.0000     1.0000 </r>
       <r>    -8.9093     0.0000     1.0000 </r>
       <r>    -8.8738     0.0000     1.0000 </r>
       <r>    -8.8383     0.0000     2.0000 </r>
       <r>    -8.8028     0.0000     2.0000 </r>
       <r>    -8.7673     0.0000     2.0000 </r>
       <r>    -8.7318     0.0000     3.0000 </r>
       <r>    -8.6963     0.0000     3.0000 </r>
       <r>    -8.6608     0.0000     3.0000 </r>
       <r>    -8.6253     0.0000     3.0000 </r>
       <r>    -8.5898     0.0000     3.0000 </r>
       <r>    -8.5543     0.0000     3.0000 </r>
       <r>    -8.5188     0.0000     3.0000 </r>
       <r>    -8.4833     0.0000     3.0000 </r>
       <r>    -8.4478     0.0000     3.0000 </r>
       <r>    -8.4123     0.0000     3.0000 </r>
       <r>    -8.3768     0.0000     3.0000 </r>
       <r>    -8.3413     0.0000     3.0000 </r>
       <r>    -8.3058     0.0000     5.0000 </r>
       <r>    -8.2703     0.0000     5.0000 </r>
       <r>    -8.2348     0.0000     6.0000 </r>
       <r>    -8.1993     0.0000     6.0000 </r>
       <r>    -8.1638     0.0000     6.0000 </r>
       <r>    -8.1283     0.0000     6.0000 </r>
       <r>    -8.0928     0.0000     7.0000 </r>
       <r>    -8.0573     0.0000     7.0000 </r>
       <r>    -8.0218     0.0000     7.0000 </r>
       <r>    -7.9863     0.0000     7.0000 </r>
       <r>    -7.9508     0.0000     7.0000 </r>
       <r>    -7.9153     0.0000     7.0000 </r>
       <r>    -7.8798     0.0000     7.0000 </r>
       <r>    -7.8443     0.0000     8.0000 </r>
       <r>    -7.8088     0.0000     8.0000 </r>
       <r>    -7.7733     0.0000     9.0000 </r>
       <r>    -7.7378     0.0000     9.0000 </r>
       <r>    -7.7023     0.0000    10.0000 </r>
       <r>    -7.6668     0.0000    10.0000 </r>
       <r>    -7.6313     0.0000    10.0000 </r>
       <r>    -7.5958     0.0000    10.0000 </r>
       <r>    -7.5603     0.0000    10.0000 </r>
       <r>    -7.5248     0.0000    12.0000 </r>
       <r>    -7.4893     0.0000    13.0000 </r>
       <r>    -7.4538     0.0000    13.0000 </r>
       <r>    -7.4183     0.0000    13.0000 </r>
       <r>    -7.3828     0.0000    13.0000 </r>
       <r>    -7.3473     0.0000    14.0000 </r>
       <r>    -7.3118     0.0000    15.0000 </r>
       <r>    -7.2763     0.0000    17.0000 </r>
       <r>    -7.2408     3.6489    17.1295 </r>
       <r>    -7.2053     0.0000    18.0000 </r>
       <r>    -7.1698     0.0000    19.0000 </r>
       <r>    -7.1343     0.0000    20.0000 </r>
       <r>    -7.0988     0.0000    20.0000 </r>
       <r>    -7.0633     0.0000    22.0000 </r>
       <r>    -7.0278     0.0000    22.0000 </r>
       <r>    -6.9923     0.0000    22.0000 </r>
       <r>    -6.9568     0.0000    22.0000 </r>
       <r>    -6.9213     0.0000    23.0000 </r>
       <r>    -6.8858     0.0000    25.0000 </r>
       <r>    -6.8503     0.0000    25.0000 </r>
       <r>    -6.8148     0.0000    27.0000 </r>
       <r>    -6.7793    28.1693    29.0000 </r>
       <r>    -6.7438     0.0000    30.0000 </r>
       <r>    -6.7083     0.0000    31.0000 </r>
       <r>    -6.6728     0.0000    31.0000 </r>
       <r>    -6.6373     0.0000    32.0000 </r>
       <r>    -6.6018     0.0000    33.0000 </r>
       <r>    -6.5663     0.0000    33.0000 </r>
       <r>    -6.5308     0.0000    33.0000 </r>
       <r>    -6.4953     0.0000    33.0000 </r>
       <r>    -6.4598     0.0000    33.0000 </r>
       <r>    -6.4243     0.0000    34.0000 </r>
       <r>    -6.3888     0.0000    34.0000 </r>
       <r>    -6.3533     0.0000    34.0000 </r>
       <r>    -6.3178     0.0000    34.0000 </r>
       <r>    -6.2823     0.0000    35.0000 </r>
       <r>    -6.2468     0.0000    36.0000 </r>
       <r>    -6.2113     0.0000    36.0000 </r>
       <r>    -6.1758     0.0000    36.0000 </r>
       <r>    -6.1403     0.0000    36.0000 </r>
       <r>    -6.1048     0.0000    36.0000 </r>
       <r>    -6.0693     0.0000    36.0000 </r>
       <r>    -6.0338     0.0000    36.0000 </r>
       <r>    -5.9983     0.0000    36.0000 </r>
       <r>    -5.9628     0.0000    36.0000 </r>
       <r>    -5.9273     0.0000    36.0000 </r>
       <r>    -5.8918     0.0000    36.0000 </r>
       <r>    -5.8563     0.0000    36.0000 </r>
       <r>    -5.8208     0.0000    36.0000 </r>
       <r>    -5.7853     0.0000    36.0000 </r>
       <r>    -5.7498     0.0000    36.0000 </r>
       <r>    -5.7143     0.0000    36.0000 </r>
       <r>    -5.6788     0.0000    36.0000 </r>
       <r>    -5.6433     0.0000    36.0000 </r>
       <r>    -5.6078     0.0000    36.0000 </r>
       <r>    -5.5723     0.0000    36.0000 </r>
       <r>    -5.5368     0.0000    36.0000 </r>
       <r>    -5.5013     0.0000    36.0000 </r>
       <r>    -5.4658     0.0000    36.0000 </r>
       <r>    -5.4303     0.0000    36.0000 </r>
       <r>    -5.3948     0.0000    36.0000 </r>
       <r>    -5.3593     0.0000    36.0000 </r>
       <r>    -5.3238     0.0000    36.0000 </r>
       <r>    -5.2883     0.0000    36.0000 </r>
       <r>    -5.2528     0.0000    36.0000 </r>
       <r>    -5.2173     0.0000    37.0000 </r>
       <r>    -5.1818     0.0000    37.0000 </r>
       <r>    -5.1463     0.0000    37.0000 </r>
       <r>    -5.1108     0.0000    37.0000 </r>
       <r>    -5.0753     0.0000    37.0000 </r>
       <r>    -5.0398     0.0000    37.0000 </r>
       <r>    -5.0043     0.0000    37.0000 </r>
       <r>    -4.9688     0.0000    37.0000 </r>
       <r>    -4.9333     0.0000    37.0000 </r>
       <r>    -4.8978     0.0000    38.0000 </r>
       <r>    -4.8623     0.0000    38.0000 </r>
       <r>    -4.8268     0.0000    38.0000 </r>
       <r>    -4.7913     0.0000    38.0000 </r>
       <r>    -4.7558     0.0000    38.0000 </r>
       <r>    -4.7203     0.0000    38.0000 </r>
       <r>    -4.6848     0.0000    38.0000 </r>
       <r>    -4.6493     0.0000    38.0000 </r>
       <r>    -4.6138     0.0000    38.0000 </r>
       <r>    -4.5783     0.0000    38.0000 </r>
       <r>    -4.5428     0.0000    38.0000 </r>
       <r>    -4.5073     0.0000    38.0000 </r>
       <r>    -4.4718     0.0000    38.0000 </r>
       <r>    -4.4363     0.0000    38.0000 </r>
       <r>    -4.4008     0.0000    38.0000 </r>
       <r>    -4.3653     0.0000    38.0000 </r>
       <r>    -4.3298     0.0000    38.0000 </r>
       <r>    -4.2943     0.0000    38.0000 </r>
       <r>    -4.2588     0.0000    38.0000 </r>
       <r>    -4.2233     0.0000    38.0000 </r>
       <r>    -4.1878     0.0000    38.0000 </r>
       <r>    -4.1523     0.0000    38.0000 </r>
       <r>    -4.1168     0.0000    38.0000 </r>
       <r>    -4.0813     0.0000    38.0000 </r>
       <r>    -4.0458     0.0000    38.0000 </r>
       <r>    -4.0103     0.0000    38.0000 </r>
       <r>    -3.9748     0.0000    38.0000 </r>
       <r>    -3.9393     0.0000    38.0000 </r>
       <r>    -3.9038     0.0000    38.0000 </r>
       <r>    -3.8683     0.0000    38.0000 </r>
       <r>    -3.8328     0.0000    38.0000 </r>
       <r>    -3.7973     0.0000    38.0000 </r>
       <r>    -3.7618     0.0000    38.0000 </r>
       <r>    -3.7263     0.0000    38.0000 </r>
       <r>    -3.6908     0.0000    38.0000 </r>
       <r>    -3.6553     0.0000    38.0000 </r>
       <r>    -3.6198     0.0000    38.0000 </r>
       <r>    -3.5843     0.0000    38.0000 </r>
       <r>    -3.5488     0.0000    38.0000 </r>
       <r>    -3.5133     0.0000    38.0000 </r>
       <r>    -3.4778     0.0000    38.0000 </r>
       <r>    -3.4423     0.0000    39.0000 </r>
       <r>    -3.4068     0.0000    39.0000 </r>
       <r>    -3.3713     0.0000    39.0000 </r>
       <r>    -3.3358     0.0000    39.0000 </r>
       <r>    -3.3003     0.0000    39.0000 </r>
       <r>    -3.2648     0.0000    39.0000 </r>
       <r>    -3.2293     0.0000    39.0000 </r>
       <r>    -3.1938     0.0000    39.0000 </r>
       <r>    -3.1583     0.0000    39.0000 </r>
       <r>    -3.1228     0.0000    39.0000 </r>
       <r>    -3.0873     0.0000    39.0000 </r>
       <r>    -3.0518     0.0000    39.0000 </r>
       <r>    -3.0163     0.0000    39.0000 </r>
       <r>    -2.9808     0.0000    39.0000 </r>
       <r>    -2.9453     0.0000    39.0000 </r>
       <r>    -2.9098     0.0000    39.0000 </r>
       <r>    -2.8743     0.0000    39.0000 </r>
       <r>    -2.8388     0.0000    39.0000 </r>
       <r>    -2.8033     0.0000    39.0000 </r>
       <r>    -2.7678     0.0000    40.0000 </r>
       <r>    -2.7323     0.0000    40.0000 </r>
       <r>    -2.6968     0.0000    40.0000 </r>
       <r>    -2.6613     0.0000    40.0000 </r>
       <r>    -2.6258     0.0000    40.0000 </r>
       <r>    -2.5903     0.0000    40.0000 </r>
       <r>    -2.5548     0.0000    41.0000 </r>
       <r>    -2.5193     0.0000    41.0000 </r>
       <r>    -2.4838     0.0000    41.0000 </r>
       <r>    -2.4483     0.0000    41.0000 </r>
       <r>    -2.4128     0.0000    41.0000 </r>
       <r>    -2.3773     0.0000    41.0000 </r>
       <r>    -2.3418     0.0000    41.0000 </r>
       <r>    -2.3063     0.0000    41.0000 </r>
       <r>    -2.2708     0.0000    41.0000 </r>
       <r>    -2.2353     0.0000    41.0000 </r>
       <r>    -2.1998     0.0000    41.0000 </r>
       <r>    -2.1643     0.0000    41.0000 </r>
       <r>    -2.1288     0.0000    41.0000 </r>
       <r>    -2.0933     0.0000    41.0000 </r>
       <r>    -2.0578     0.0000    41.0000 </r>
       <r>    -2.0223     0.0000    41.0000 </r>
       <r>    -1.9868     0.0000    41.0000 </r>
       <r>    -1.9513     0.0000    41.0000 </r>
       <r>    -1.9158     0.0000    41.0000 </r>
       <r>    -1.8803     0.0000    42.0000 </r>
       <r>    -1.8448     0.0000    42.0000 </r>
       <r>    -1.8093     0.0000    42.0000 </r>
       <r>    -1.7738     0.0000    42.0000 </r>
       <r>    -1.7383     0.0000    42.0000 </r>
       <r>    -1.7028     0.0000    42.0000 </r>
       <r>    -1.6673     0.0000    42.0000 </r>
       <r>    -1.6318     0.0000    42.0000 </r>
       <r>    -1.5963     0.0000    42.0000 </r>
       <r>    -1.5608     0.0000    42.0000 </r>
       <r>    -1.5253     0.0000    43.0000 </r>
       <r>    -1.4898     0.0000    43.0000 </r>
       <r>    -1.4543     0.0000    43.0000 </r>
       <r>    -1.4188     0.0000    43.0000 </r>
       <r>    -1.3833     0.0000    43.0000 </r>
       <r>    -1.3478     0.0000    43.0000 </r>
       <r>    -1.3123     0.0000    43.0000 </r>
       <r>    -1.2768     0.0000    43.0000 </r>
       <r>    -1.2413     0.0000    43.0000 </r>
       <r>    -1.2058     0.0000    43.0000 </r>
       <r>    -1.1703     0.0000    43.0000 </r>
       <r>    -1.1348     0.0000    43.0000 </r>
       <r>    -1.0993     0.0000    43.0000 </r>
       <r>    -1.0638     0.0000    43.0000 </r>
       <r>    -1.0284     0.0000    43.0000 </r>
       <r>    -0.9929     0.0000    43.0000 </r>
       <r>    -0.9574     0.0000    43.0000 </r>
       <r>    -0.9219     0.0000    43.0000 </r>
       <r>    -0.8864     0.0000    44.0000 </r>
       <r>    -0.8509     0.0000    44.0000 </r>
       <r>    -0.8154     0.0000    44.0000 </r>
       <r>    -0.7799     0.0000    44.0000 </r>
       <r>    -0.7444     0.0000    44.0000 </r>
       <r>    -0.7089     0.0000    44.0000 </r>
       <r>    -0.6734     0.0000    44.0000 </r>
       <r>    -0.6379     0.0000    45.0000 </r>
       <r>    -0.6024    28.1652    45.9999 </r>
       <r>    -0.5669     0.0000    47.0000 </r>
       <r>    -0.5314     0.0000    47.0000 </r>
       <r>    -0.4959     0.0000    47.0000 </r>
       <r>    -0.4604     0.0000    47.0000 </r>
       <r>    -0.4249     0.0000    47.0000 </r>
       <r>    -0.3894     0.0000    48.0000 </r>
       <r>    -0.3539     0.0000    48.0000 </r>
       <r>    -0.3184     0.0000    48.0000 </r>
       <r>    -0.2829     0.0000    48.0000 </r>
       <r>    -0.2474     0.0000    48.0000 </r>
       <r>    -0.2119     0.0000    48.0000 </r>
       <r>    -0.1764     0.0000    48.0000 </r>
       <r>    -0.1409     0.0000    48.0000 </r>
       <r>    -0.1054     0.0000    48.0000 </r>
       <r>    -0.0699     0.0000    48.0000 </r>
       <r>    -0.0344     0.0000    48.0000 </r>
       <r>     0.0011     0.0000    49.0000 </r>
       <r>     0.0366     0.0000    49.0000 </r>
       <r>     0.0721     0.0000    49.0000 </r>
       <r>     0.1076     0.0000    49.0000 </r>
       <r>     0.1431     0.0000    49.0000 </r>
       <r>     0.1786     0.0000    49.0000 </r>
       <r>     0.2141     0.0000    49.0000 </r>
       <r>     0.2496     0.0000    50.0000 </r>
       <r>     0.2851     0.0000    50.0000 </r>
       <r>     0.3206     0.0000    50.0000 </r>
       <r>     0.3561     0.0000    50.0000 </r>
       <r>     0.3916     0.0000    50.0000 </r>
       <r>     0.4271     0.0000    50.0000 </r>
       <r>     0.4626     0.0000    50.0000 </r>
       <r>     0.4981     0.0000    50.0000 </r>
       <r>     0.5336     0.0000    50.0000 </r>
       <r>     0.5691     0.0000    51.0000 </r>
       <r>     0.6046     0.0000    51.0000 </r>
       <r>     0.6401     0.0000    52.0000 </r>
       <r>     0.6756     0.0000    52.0000 </r>
       <r>     0.7111     0.0000    52.0000 </r>
       <r>     0.7466     0.0000    52.0000 </r>
       <r>     0.7821     0.0000    52.0000 </r>
       <r>     0.8176     0.0000    52.0000 </r>
       <r>     0.8531     0.0000    52.0000 </r>
       <r>     0.8886     0.0000    52.0000 </r>
       <r>     0.9241     0.0000    52.0000 </r>
       <r>     0.9596     0.0000    52.0000 </r>
       <r>     0.9951     0.0000    52.0000 </r>
       <r>     1.0306     0.0000    52.0000 </r>
       <r>     1.0661     0.0000    52.0000 </r>
       <r>     1.1016     0.0000    52.0000 </r>
      </set>
     </set>
    </array>
   </total>
  </dos>
 </calculation>
 <structure name="finalpos" >
  <crystal>
   <varray name="basis" >
    <v>      17.39055622       0.00000000       0.00000000 </v>
    <v>       0.00000000      17.39055622       0.00000000 </v>
    <v>       0.00000000       0.00000000      17.39055622 </v>
   </varray>
   <i name="volume">   5259.45105886 </i>
   <varray name="rec_basis" >
    <v>       0.05750247       0.00000000       0.00000000 </v>
    <v>       0.00000000       0.05750247       0.00000000 </v>
    <v>       0.00000000       0.00000000       0.05750247 </v>
   </varray>
  </crystal>
  <varray name="positions" >
   <v>       0.66283519       0.60480905       0.60932437 </v>
   <v>       0.75928538       0.71288085       0.65009836 </v>
   <v>       0.61394190       0.49815528       0.51497148 </v>
   <v>       0.60481087       0.71499870       0.69785196 </v>
   <v>       0.78380159       0.57164479       0.52558072 </v>
   <v>       0.51221508       0.57945888       0.61210408 </v>
   <v>       0.45452289       0.67988130       0.71612419 </v>
  </varray>
 </structure>
</modeling>
