44
Energy = -95.21649286 eV
Ag 10.658547863711723 6.231296405511068 13.240354487844016
Ag 8.21773146184419 7.489404444023803 13.79847292161039
Ag 9.746191012299787 8.346823004647948 11.605312279226208
Ag 12.403310280801316 7.206285773232163 11.204429894351545
Ag 7.293955869818631 9.649105583902724 12.196513577359774
Ag 13.073777891324934 7.571429916837617 13.886867623124544
Ag 8.166702088134642 10.106652654726222 14.856415212465308
Ag 10.603543637813841 8.779437750088897 14.510786221904405
Ag 8.92162570803177 10.606857002741668 10.077299782624154
Ag 11.459590986544912 9.28377552612813 9.49527980435482
Ag 5.91853711682074 11.505531404362358 13.80577554119668
Ag 15.013360874097845 9.238017757360238 12.839386036843974
Ag 14.262565394861307 9.027499431634661 10.09867640799922
Ag 13.199817297565193 10.22852728669021 14.887111251474145
Ag 10.698531571494879 11.457111092558439 15.37870392179094
Ag 12.30109792976213 9.803305105250153 12.211336582128341
Ag 9.838125003126786 11.141741434489056 12.725341330946826
Ag 10.496329152355617 11.460101975106864 7.947570995462806
Ag 7.538406080211335 12.519090949963921 11.689006130162406
Ag 13.293168994348369 11.198643242686487 8.394117508035645
Ag 8.304051852380582 12.902374684407274 14.384072359750984
Ag 16.910012885739764 10.985868905496703 11.753355024268766
Ag 12.382043319410727 12.596287372795222 13.156790487358853
Ag 14.271448042666641 11.67621399539233 11.177117904812038
Ag 9.723672280442091 14.236678567193692 12.357082692782924
Ag 13.215196994689546 12.94997997384632 15.757748221765006
Ag 11.502552901935498 11.986964359269857 10.55240576502321
Ag 15.228490769794364 11.943414026079907 13.864503357013218
Ag 11.914797823009671 13.836296407342898 8.424594474710338
Ag 9.314635381843694 13.500469297208806 9.692991256978177
Ag 14.466416659020961 14.644623350633662 13.726362637549968
Ag 10.725400617903663 14.20526854908678 14.969182957353983
Ag 13.285982720174244 14.339457174063753 11.081394287381853
Ag 14.768604793471093 13.58778251922266 8.771438623851244
Ag 12.84468260404055 15.776977210956717 15.801876878653154
Ag 16.02641867710083 11.097451028365562 9.11414521013154
Ag 11.912727050497082 15.943432059729245 13.096150935638086
Ag 16.202941974238215 13.7088186208545 11.619359878488023
Ag 11.006116857933957 15.748823435038085 10.389067508337362
Ag 16.439869288846573 16.39799298542381 12.552760717531774
Ag 13.4484073668271 16.120549432245333 8.82324498712583
Ag 14.348306739535145 17.384954296186415 14.136732437478344
Ag 13.923558329339293 17.0523168510476 11.410781538867198
Ag 16.0050475301939 15.874839359508597 9.879068254609173
