 vasp.5.3.5 31Mar14 (build Feb 01 2018 12:10:03) gamma-only                     
  
 executed on             LinuxIFC date 2019.04.09  01:50:25
 running on   32 total cores
 distrk:  each k-point on   32 cores,    1 groups
 distr:  one band on NCORES_PER_BAND=   8 cores,    4 groups


--------------------------------------------------------------------------------------------------------


 INCAR:
 POTCAR:    PAW_PBE Pd 04Jan2005                  
 POTCAR:    PAW_PBE Pd 04Jan2005                  
   VRHFIN =Pd : s1 d9                                                           
   LEXCH  = PE                                                                  
   EATOM  =   809.7530 eV,   59.5152 Ry                                         
                                                                                
   TITEL  = PAW_PBE Pd 04Jan2005                                                
   LULTRA =        F    use ultrasoft PP ?                                      
   IUNSCR =        1    unscreen: 0-lin 1-nonlin 2-no                           
   RPACOR =    2.000    partial core radius                                     
   POMASS =  106.420; ZVAL   =   10.000    mass and valenz                      
   RCORE  =    2.600    outmost cutoff radius                                   
   RWIGS  =    2.710; RWIGS  =    1.434    wigner-seitz radius (au A)           
   ENMAX  =  250.925; ENMIN  =  188.194 eV                                      
   ICORE  =        3    local potential                                         
   LCOR   =        T    correct aug charges                                     
   LPAW   =        T    paw PP                                                  
   EAUG   =  416.230                                                            
   DEXC   =    0.000                                                            
   RMAX   =    2.653    core radius for proj-oper                               
   RAUG   =    1.300    factor for augmentation sphere                          
   RDEP   =    2.734    radius for radial grids                                 
   RDEPT  =    2.103    core radius for aug-charge                              
                                                                                
   Atomic configuration                                                         
   12 entries                                                                   
     n  l   j            E        occ.                                          
     1  0  0.50    -24164.6631   2.0000                                         
     2  0  0.50     -3530.9218   2.0000                                         
     2  1  1.50     -3165.6822   6.0000                                         
     3  0  0.50      -639.4577   2.0000                                         
     3  1  1.50      -519.4532   6.0000                                         
     3  2  2.50      -328.9757  10.0000                                         
     4  0  0.50       -88.7014   2.0000                                         
     4  1  1.50       -54.4540   6.0000                                         
     4  2  2.50        -6.6878   9.0000                                         
     5  0  0.50        -4.3543   1.0000                                         
     5  1  0.50        -1.3606   0.0000                                         
     4  3  2.50        -1.3606   0.0000                                         
   Description                                                                  
     l       E           TYP  RCUT    TYP  RCUT                                 
     2     -6.6878251     23  2.400                                             
     2     -8.0484077     23  2.400                                             
     0     -4.3542939     23  2.400                                             
     0      4.3406793     23  2.400                                             
     1     -4.0817478     23  2.600                                             
     1     15.8380318     23  2.600                                             
     3     -4.0817478     23  2.400                                             
  local pseudopotential read in
  partial core-charges read in
  partial kinetic energy density read in
  atomic valenz-charges read in
  non local Contribution for L=           2  read in
    real space projection operators read in
  non local Contribution for L=           2  read in
    real space projection operators read in
  non local Contribution for L=           0  read in
    real space projection operators read in
  non local Contribution for L=           0  read in
    real space projection operators read in
  non local Contribution for L=           1  read in
    real space projection operators read in
  non local Contribution for L=           1  read in
    real space projection operators read in
    PAW grid and wavefunctions read in
 
   number of l-projection  operators is LMAX  =           6
   number of lm-projection operators is LMMAX =          18
 
  PAW_PBE Pd 04Jan2005                  :
 energy of atom  1       EATOM= -809.7530
 kinetic energy error for atom=    0.0653 (will be added to EATOM!!)
 
 
 POSCAR: Pt10, -42.33987265 <s> Pd </s>          
  positions in direct lattice
  No initial velocities read in
 exchange correlation table for  LEXCH =        8
   RHO(1)=    0.500       N(1)  =     2000
   RHO(2)=  100.500       N(2)  =     4000
 


--------------------------------------------------------------------------------------------------------


 ion  position               nearest neighbor table
   1  0.354  0.600  0.431-   2 2.46   3 2.47
   2  0.398  0.481  0.470-   1 2.46   5 2.55  10 2.55   3 2.67   8 2.91   9 3.37   4 3.43
   3  0.457  0.605  0.515-   1 2.47   6 2.53   4 2.54   2 2.67   8 2.69
   4  0.573  0.540  0.482-   5 2.51   3 2.54   7 2.55   6 2.55   8 2.62   9 2.93   2 3.43
   5  0.512  0.454  0.397-   9 2.48   4 2.51   2 2.55   7 2.60
   6  0.563  0.608  0.602-   3 2.53   8 2.54   4 2.55
   7  0.648  0.438  0.427-   9 2.54   4 2.55   5 2.60
   8  0.498  0.487  0.591-  10 2.53   6 2.54   4 2.62   9 2.64   3 2.69   2 2.91
   9  0.549  0.385  0.505-   5 2.48  10 2.50   7 2.54   8 2.64   4 2.93   2 3.37
  10  0.424  0.378  0.557-   9 2.50   8 2.53   2 2.55
 
  LATTYP: Found a simple cubic cell.
 ALAT       =    18.4789956739
  
  Lattice vectors:
  
 A1 = (  18.4789956739,   0.0000000000,   0.0000000000)
 A2 = (   0.0000000000,  18.4789956739,   0.0000000000)
 A3 = (   0.0000000000,   0.0000000000,  18.4789956739)


Analysis of symmetry for initial positions (statically):
=====================================================================
 Subroutine PRICEL returns:
 Original cell was already a primitive cell.
 

 Routine SETGRP: Setting up the symmetry group for a 
 simple cubic supercell.


 Subroutine GETGRP returns: Found  1 space group operations
 (whereof  1 operations were pure point group operations)
 out of a pool of 48 trial point group operations.


The static configuration has the point symmetry C_1 .


Analysis of symmetry for dynamics (positions and initial velocities):
=====================================================================
 Subroutine PRICEL returns:
 Original cell was already a primitive cell.
 

 Routine SETGRP: Setting up the symmetry group for a 
 simple cubic supercell.


 Subroutine GETGRP returns: Found  1 space group operations
 (whereof  1 operations were pure point group operations)
 out of a pool of 48 trial point group operations.


The dynamic configuration has the point symmetry C_1 .


Analysis of magnetic symmetry:
=====================================================================
 Subroutine PRICEL returns:
 Original cell was already a primitive cell.
 

 Subroutine MAGSYM returns: Found  1 space group operations
 (whereof  1 operations were pure point group operations)
 out of a pool of  1 trial space group operations
 (whereof  1 operations were pure point group operations)
 and found also     1 'primitive' translations


The magnetic configuration has the point symmetry C_1 .
 
 
 KPOINTS: Gamma-point only                        
  k-points in reciprocal lattice
Space group operators:
 irot       det(A)        alpha          n_x          n_y          n_z        tau_x        tau_y        tau_z
    1     1.000000     0.000000     1.000000     0.000000     0.000000     0.000000     0.000000     0.000000


--------------------------------------------------------------------------------------------------------




 Dimension of arrays:
   k-points           NKPTS =      1   k-points in BZ     NKDIM =      1   number of bands    NBANDS=     68
   number of dos      NEDOS =    301   number of ions     NIONS =     10
   non local maximal  LDIM  =      6   non local SUM 2l+1 LMDIM =     18
   total plane-waves  NPLWV = 373248
   max r-space proj   IRMAX =      1   max aug-charges    IRDMAX=   3068
   dimension x,y,z NGX =    72 NGY =   72 NGZ =   72
   dimension x,y,z NGXF=   144 NGYF=  144 NGZF=  144
   support grid    NGXF=   144 NGYF=  144 NGZF=  144
   ions per type =              10
 NGX,Y,Z   is equivalent  to a cutoff of   6.48,  6.48,  6.48 a.u.
 NGXF,Y,Z  is equivalent  to a cutoff of  12.95, 12.95, 12.95 a.u.


 I would recommend the setting:
   dimension x,y,z NGX =    72 NGY =   72 NGZ =   72
 SYSTEM =  unknown system                          
 POSCAR =  Pt10, -42.33987265 <s> Pd </s>          

 Startparameter for this run:
   NWRITE =      2    write-flag & timer
   PREC   = normal    normal or accurate (medium, high low for compatibility)
   ISTART =      0    job   : 0-new  1-cont  2-samecut
   ICHARG =      2    charge: 1-file 2-atom 10-const
   ISPIN  =      2    spin polarized calculation?
   LNONCOLLINEAR =      F non collinear calculations
   LSORBIT =      F    spin-orbit coupling
   INIWAV =      1    electr: 0-lowe 1-rand  2-diag
   LASPH  =      F    aspherical Exc in radial PAW
   METAGGA=      F    non-selfconsistent MetaGGA calc.

 Electronic Relaxation 1
   ENCUT  =  250.9 eV  18.44 Ry    4.29 a.u.  23.87 23.87 23.87*2*pi/ulx,y,z
   ENINI  =  250.9     initial cutoff
   ENAUG  =  416.2 eV  augmentation charge cutoff
   NELM   =     60;   NELMIN=  2; NELMDL= -5     # of ELM steps 
   EDIFF  = 0.1E-03   stopping-criterion for ELM
   LREAL  =      F    real-space projection
   NLSPLINE    = F    spline interpolate recip. space projectors
   LCOMPAT=      F    compatible to vasp.4.4
   GGA_COMPAT  = T    GGA compatible to vasp.4.4-vasp.4.6
   LMAXPAW     = -100 max onsite density
   LMAXMIX     =    2 max onsite mixed and CHGCAR
   VOSKOWN=      0    Vosko Wilk Nusair interpolation
   ROPT   =    0.00000
 Ionic relaxation
   EDIFFG = 0.1E-02   stopping-criterion for IOM
   NSW    =   1000    number of steps for IOM
   NBLOCK =      1;   KBLOCK =   1000    inner block; outer block 
   IBRION =      2    ionic relax: 0-MD 1-quasi-New 2-CG
   NFREE  =      1    steps in history (QN), initial steepest desc. (CG)
   ISIF   =      2    stress and relaxation
   IWAVPR =     11    prediction:  0-non 1-charg 2-wave 3-comb
   ISYM   =      2    0-nonsym 1-usesym 2-fastsym
   LCORR  =      T    Harris-Foulkes like correction to forces

   POTIM  = 0.1000    time-step for ionic-motion
   TEIN   =    0.0    initial temperature
   TEBEG  =    0.0;   TEEND  =   0.0 temperature during run
   SMASS  =  -3.00    Nose mass-parameter (am)
   estimated Nose-frequenzy (Omega)   =  0.10E-29 period in steps =****** mass=  -0.780E-26a.u.
   SCALEE = 1.0000    scale energy and forces
   NPACO  =    256;   APACO  = 16.0  distance and # of slots for P.C.
   PSTRESS=    0.0 pullay stress

  Mass of Ions in am
   POMASS = 106.42
  Ionic Valenz
   ZVAL   =  10.00
  Atomic Wigner-Seitz radii
   RWIGS  =  -1.00
  virtual crystal weights 
   VCA    =   1.00
   NELECT =     100.0000    total number of electrons
   NUPDOWN=      -1.0000    fix difference up-down

 DOS related values:
   EMIN   =  10.00;   EMAX   =-10.00  energy-range for DOS
   EFERMI =   0.00
   ISMEAR =     0;   SIGMA  =   0.00  broadening in eV -4-tet -1-fermi 0-gaus

 Electronic relaxation 2 (details)
   IALGO  =     38    algorithm
   LDIAG  =      T    sub-space diagonalisation (order eigenvalues)
   LSUBROT=      F    optimize rotation matrix (better conditioning)
   TURBO    =      0    0=normal 1=particle mesh
   IRESTART =      0    0=no restart 2=restart with 2 vectors
   NREBOOT  =      0    no. of reboots
   NMIN     =      0    reboot dimension
   EREF     =   0.00    reference energy to select bands
   IMIX   =      4    mixing-type and parameters
     AMIX     =   0.40;   BMIX     =  1.00
     AMIX_MAG =   1.60;   BMIX_MAG =  1.00
     AMIN     =   0.10
     WC   =   100.;   INIMIX=   1;  MIXPRE=   1;  MAXMIX= -45

 Intra band minimization:
   WEIMIN = 0.0010     energy-eigenvalue tresh-hold
   EBREAK =  0.37E-06  absolut break condition
   DEPER  =   0.30     relativ break condition  

   TIME   =   0.40     timestep for ELM

  volume/ion in A,a.u.               =     631.01      4258.25
  Fermi-wavevector in a.u.,A,eV,Ry     =   0.411209  0.777073  2.300653  0.169093
  Thomas-Fermi vector in A             =   1.367368
 
 Write flags
   LWAVE  =      F    write WAVECAR
   LCHARG =      F    write CHGCAR
   LVTOT  =      F    write LOCPOT, total local potential
   LVHAR  =      F    write LOCPOT, Hartree potential only
   LELF   =      F    write electronic localiz. function (ELF)
   LORBIT =      0    0 simple, 1 ext, 2 COOP (PROOUT)


 Dipole corrections
   LMONO  =      F    monopole corrections only (constant potential shift)
   LDIPOL =      F    correct potential (dipole corrections)
   IDIPOL =      0    1-x, 2-y, 3-z, 4-all directions 
   EPSILON=  1.0000000 bulk dielectric constant

 Exchange correlation treatment:
   GGA     =    PE    GGA type
   LEXCH   =     8    internal setting for exchange type
   VOSKOWN=      0    Vosko Wilk Nusair interpolation
   LHFCALC =     F    Hartree Fock is set to
   LHFONE  =     F    Hartree Fock one center treatment
   AEXX    =    0.0000 exact exchange contribution

 Linear response parameters
   LEPSILON=     F    determine dielectric tensor
   LRPA    =     F    only Hartree local field effects (RPA)
   LNABLA  =     F    use nabla operator in PAW spheres
   LVEL    =     F    velocity operator in full k-point grid
   LINTERFAST=   F  fast interpolation
   KINTER  =     0    interpolate to denser k-point grid
   CSHIFT  =0.1000    complex shift for real part using Kramers Kronig
   OMEGAMAX=  -1.0    maximum frequency
   DEG_THRESHOLD= 0.2000000E-02 threshold for treating states as degnerate
   RTIME   =    0.100 relaxation time in fs

 Orbital magnetization related:
   ORBITALMAG=     F  switch on orbital magnetization
   LCHIMAG   =     F  perturbation theory with respect to B field
   DQ        =  0.001000  dq finite difference perturbation B field



--------------------------------------------------------------------------------------------------------


 conjugate gradient relaxation of ions
 charge density and potential will be updated during run
 spin polarized calculation
 Variant of blocked Davidson
 Davidson routine will perform the subspace rotation
 perform sub-space diagonalisation
    after iterative eigenvector-optimisation
 modified Broyden-mixing scheme, WC =      100.0
 initial mixing is a Kerker type mixing with AMIX =  0.4000 and BMIX =      1.0000
 Hartree-type preconditioning will be used
 using additional bands           18
 reciprocal scheme for non local part
 use partial core corrections
 calculate Harris-corrections to forces 
   (improved forces if not selfconsistent)
 use gradient corrections 
 use of overlap-Matrix (Vanderbilt PP)
 Gauss-broadening in eV      SIGMA  =   0.00


--------------------------------------------------------------------------------------------------------


  energy-cutoff  :      250.93
  volume of cell :     6310.08
      direct lattice vectors                 reciprocal lattice vectors
    18.478995674  0.000000000  0.000000000     0.054115495  0.000000000  0.000000000
     0.000000000 18.478995674  0.000000000     0.000000000  0.054115495  0.000000000
     0.000000000  0.000000000 18.478995674     0.000000000  0.000000000  0.054115495

  length of vectors
    18.478995674 18.478995674 18.478995674     0.054115495  0.054115495  0.054115495


 
 k-points in units of 2pi/SCALE and weight: Gamma-point only                        
   0.00000000  0.00000000  0.00000000       1.000
 
 k-points in reciprocal lattice and weights: Gamma-point only                        
   0.00000000  0.00000000  0.00000000       1.000
 
 position of ions in fractional coordinates (direct lattice) 
   0.35362127  0.60006602  0.43073751
   0.39802746  0.48076950  0.46956808
   0.45694514  0.60478320  0.51502129
   0.57335028  0.53973965  0.48239253
   0.51174455  0.45415576  0.39654972
   0.56270944  0.60814905  0.60181768
   0.64830431  0.43818175  0.42687730
   0.49822660  0.48739656  0.59086231
   0.54879579  0.38478623  0.50497357
   0.42417591  0.37761649  0.55708475
 
 position of ions in cartesian coordinates  (Angst):
   6.53456598 11.08861745  7.95959657
   7.35514772  8.88413760  8.67714658
   8.44388719 11.17578620  9.51707610
  10.59493741  9.97384657  8.91412946
   9.45652529  8.39234237  7.32784064
  10.39830534 11.23798373 11.12098640
  11.98001261  8.09715859  7.88826376
   9.20672728  9.00659887 10.91854208
  10.14119497  7.11046309  9.33140448
   7.83834484  6.97797347 10.29436669
 


--------------------------------------------------------------------------------------------------------


 use parallel FFT for wavefunctions z direction half grid
 k-point  1 :   0.0000 0.0000 0.0000  plane waves:   28526

 maximum and minimum number of plane-waves per node :      3570     3561

 maximum number of plane-waves:     28526
 maximum index in each direction: 
   IXMAX=   23   IYMAX=   23   IZMAX=   23
   IXMIN=  -23   IYMIN=  -23   IZMIN=    0

 WARNING: aliasing errors must be expected set NGX to  94 to avoid them
 WARNING: aliasing errors must be expected set NGY to  94 to avoid them
 WARNING: aliasing errors must be expected set NGZ to  94 to avoid them
 aliasing errors are usually negligible using standard VASP settings
 and one can safely disregard these warnings

 parallel 3D FFT for wavefunctions:
    minimum data exchange during FFTs selected (reduces bandwidth)
 parallel 3D FFT for charge:
    minimum data exchange during FFTs selected (reduces bandwidth)


 total amount of memory used by VASP on root node    48839. kBytes
========================================================================

   base      :      30000. kBytes
   nonl-proj :       1083. kBytes
   fftplans  :       4479. kBytes
   grid      :      11298. kBytes
   one-center:         31. kBytes
   wavefun   :       1948. kBytes
 
     INWAV:  cpu time    0.00: real time    0.00
 Broyden mixing: mesh for mixing (old mesh)
   NGX = 47   NGY = 47   NGZ = 47
  (NGX  =144   NGY  =144   NGZ  =144)
  gives a total of 103823 points

 initial charge density was supplied:
 charge density of overlapping atoms calculated
 number of electron     100.0000000 magnetization      10.0000000
 keeping initial charge density in first step


--------------------------------------------------------------------------------------------------------


 Maximum index for augmentation-charges          230 (set IRDMAX)


--------------------------------------------------------------------------------------------------------


 First call to EWALD:  gamma=   0.096
 Maximum number of real-space cells 3x 3x 3
 Maximum number of reciprocal cells 3x 3x 3

 FEWALD executed in parallel
    FEWALD:  cpu time    0.00: real time    0.00


----------------------------------------- Iteration    1(   1)  ---------------------------------------


    POTLOK:  cpu time    0.18: real time    0.18
    SETDIJ:  cpu time    0.00: real time    0.01
     EDDAV:  cpu time    0.46: real time    0.46
       DOS:  cpu time    0.00: real time    0.00
    --------------------------------------------
      LOOP:  cpu time    0.65: real time    0.67

 eigenvalue-minimisations  :   272
 total energy-change (2. order) : 0.8481845E+03  (-0.1480902E+04)
 number of electron     100.0000000 magnetization      10.0000000
 augmentation part      100.0000000 magnetization      10.0000000

 Free energy of the ion-electron system (eV)
  ---------------------------------------------------
  alpha Z        PSCENC =        10.32874244
  Ewald energy   TEWEN  =      8813.26870327
  -Hartree energ DENC   =    -16528.77565159
  -exchange      EXHF   =         0.00000000
  -V(xc)+E(xc)   XCENC  =      -301.95672927
  PAW double counting   =      8066.47928288    -7444.32281523
  entropy T*S    EENTRO =         0.00000000
  eigenvalues    EBANDS =       136.28559687
  atomic energy  EATOM  =      8096.87741396
  ---------------------------------------------------
  free energy    TOTEN  =       848.18454333 eV

  energy without entropy =      848.18454333  energy(sigma->0) =      848.18454333


--------------------------------------------------------------------------------------------------------




----------------------------------------- Iteration    1(   2)  ---------------------------------------


     EDDAV:  cpu time    0.77: real time    0.77
       DOS:  cpu time    0.00: real time    0.00
    --------------------------------------------
      LOOP:  cpu time    0.77: real time    0.78

 eigenvalue-minimisations  :   512
 total energy-change (2. order) :-0.4939387E+03  (-0.4397705E+03)
 number of electron     100.0000000 magnetization      10.0000000
 augmentation part      100.0000000 magnetization      10.0000000

 Free energy of the ion-electron system (eV)
  ---------------------------------------------------
  alpha Z        PSCENC =        10.32874244
  Ewald energy   TEWEN  =      8813.26870327
  -Hartree energ DENC   =    -16528.77565159
  -exchange      EXHF   =         0.00000000
  -V(xc)+E(xc)   XCENC  =      -301.95672927
  PAW double counting   =      8066.47928288    -7444.32281523
  entropy T*S    EENTRO =         0.00000000
  eigenvalues    EBANDS =      -357.65307221
  atomic energy  EATOM  =      8096.87741396
  ---------------------------------------------------
  free energy    TOTEN  =       354.24587425 eV

  energy without entropy =      354.24587425  energy(sigma->0) =      354.24587425


--------------------------------------------------------------------------------------------------------




----------------------------------------- Iteration    1(   3)  ---------------------------------------


     EDDAV:  cpu time    0.66: real time    0.66
       DOS:  cpu time    0.00: real time    0.00
    --------------------------------------------
      LOOP:  cpu time    0.66: real time    0.67

 eigenvalue-minimisations  :   416
 total energy-change (2. order) :-0.3307016E+03  (-0.3128791E+03)
 number of electron     100.0000000 magnetization      10.0000000
 augmentation part      100.0000000 magnetization      10.0000000

 Free energy of the ion-electron system (eV)
  ---------------------------------------------------
  alpha Z        PSCENC =        10.32874244
  Ewald energy   TEWEN  =      8813.26870327
  -Hartree energ DENC   =    -16528.77565159
  -exchange      EXHF   =         0.00000000
  -V(xc)+E(xc)   XCENC  =      -301.95672927
  PAW double counting   =      8066.47928288    -7444.32281523
  entropy T*S    EENTRO =         0.00000000
  eigenvalues    EBANDS =      -688.35462917
  atomic energy  EATOM  =      8096.87741396
  ---------------------------------------------------
  free energy    TOTEN  =        23.54431729 eV

  energy without entropy =       23.54431729  energy(sigma->0) =       23.54431729


--------------------------------------------------------------------------------------------------------




----------------------------------------- Iteration    1(   4)  ---------------------------------------


     EDDAV:  cpu time    0.61: real time    0.61
       DOS:  cpu time    0.00: real time    0.00
    --------------------------------------------
      LOOP:  cpu time    0.61: real time    0.62

 eigenvalue-minimisations  :   376
 total energy-change (2. order) :-0.5717232E+02  (-0.5190504E+02)
 number of electron     100.0000000 magnetization      10.0000000
 augmentation part      100.0000000 magnetization      10.0000000

 Free energy of the ion-electron system (eV)
  ---------------------------------------------------
  alpha Z        PSCENC =        10.32874244
  Ewald energy   TEWEN  =      8813.26870327
  -Hartree energ DENC   =    -16528.77565159
  -exchange      EXHF   =         0.00000000
  -V(xc)+E(xc)   XCENC  =      -301.95672927
  PAW double counting   =      8066.47928288    -7444.32281523
  entropy T*S    EENTRO =         0.00000000
  eigenvalues    EBANDS =      -745.52695055
  atomic energy  EATOM  =      8096.87741396
  ---------------------------------------------------
  free energy    TOTEN  =       -33.62800409 eV

  energy without entropy =      -33.62800409  energy(sigma->0) =      -33.62800409


--------------------------------------------------------------------------------------------------------




----------------------------------------- Iteration    1(   5)  ---------------------------------------


     EDDAV:  cpu time    0.51: real time    0.51
       DOS:  cpu time    0.00: real time    0.00
    CHARGE:  cpu time    0.04: real time    0.04
    MIXING:  cpu time    0.00: real time    0.00
    --------------------------------------------
      LOOP:  cpu time    0.55: real time    0.56

 eigenvalue-minimisations  :   300
 total energy-change (2. order) :-0.4034854E+01  (-0.3668831E+01)
 number of electron     100.0000020 magnetization       9.3367612
 augmentation part       42.3983575 magnetization       6.3595859

 Broyden mixing:
  rms(total) = 0.17793E+01    rms(broyden)= 0.17749E+01
  rms(prec ) = 0.18463E+01
  weight for this iteration     100.00

 Free energy of the ion-electron system (eV)
  ---------------------------------------------------
  alpha Z        PSCENC =        10.32874244
  Ewald energy   TEWEN  =      8813.26870327
  -Hartree energ DENC   =    -16528.77565159
  -exchange      EXHF   =         0.00000000
  -V(xc)+E(xc)   XCENC  =      -301.95672927
  PAW double counting   =      8066.47928288    -7444.32281523
  entropy T*S    EENTRO =         0.00000000
  eigenvalues    EBANDS =      -749.56180451
  atomic energy  EATOM  =      8096.87741396
  ---------------------------------------------------
  free energy    TOTEN  =       -37.66285805 eV

  energy without entropy =      -37.66285805  energy(sigma->0) =      -37.66285805


--------------------------------------------------------------------------------------------------------




----------------------------------------- Iteration    1(   6)  ---------------------------------------


    POTLOK:  cpu time    0.17: real time    0.17
    SETDIJ:  cpu time    0.01: real time    0.01
     EDDAV:  cpu time    0.48: real time    0.48
       DOS:  cpu time    0.00: real time    0.00
    CHARGE:  cpu time    0.04: real time    0.03
    MIXING:  cpu time    0.00: real time    0.00
    --------------------------------------------
      LOOP:  cpu time    0.70: real time    0.71

 eigenvalue-minimisations  :   276
 total energy-change (2. order) : 0.3403504E+01  (-0.8585047E+00)
 number of electron     100.0000005 magnetization       8.7461496
 augmentation part       42.6272494 magnetization       5.1699837

 Broyden mixing:
  rms(total) = 0.99023E+00    rms(broyden)= 0.98897E+00
  rms(prec ) = 0.10484E+01
  weight for this iteration     100.00

 eigenvalues of (default mixing * dielectric matrix)
  average eigenvalue GAMMA=   0.8326
  0.8326

 Free energy of the ion-electron system (eV)
  ---------------------------------------------------
  alpha Z        PSCENC =        10.32874244
  Ewald energy   TEWEN  =      8813.26870327
  -Hartree energ DENC   =    -16566.29173422
  -exchange      EXHF   =         0.00000000
  -V(xc)+E(xc)   XCENC  =      -301.18456952
  PAW double counting   =      8593.74205028    -7977.77221968
  entropy T*S    EENTRO =         0.00000000
  eigenvalues    EBANDS =      -703.22774080
  atomic energy  EATOM  =      8096.87741396
  ---------------------------------------------------
  free energy    TOTEN  =       -34.25935426 eV

  energy without entropy =      -34.25935426  energy(sigma->0) =      -34.25935426


--------------------------------------------------------------------------------------------------------




----------------------------------------- Iteration    1(   7)  ---------------------------------------


    POTLOK:  cpu time    0.17: real time    0.17
    SETDIJ:  cpu time    0.01: real time    0.01
     EDDAV:  cpu time    0.50: real time    0.49
       DOS:  cpu time    0.00: real time    0.00
    CHARGE:  cpu time    0.04: real time    0.03
    MIXING:  cpu time    0.00: real time    0.00
    --------------------------------------------
      LOOP:  cpu time    0.72: real time    0.72

 eigenvalue-minimisations  :   288
 total energy-change (2. order) : 0.1117170E+01  (-0.7224229E+00)
 number of electron     100.0000044 magnetization       8.2747580
 augmentation part       42.4559246 magnetization       5.8202461

 Broyden mixing:
  rms(total) = 0.13694E+01    rms(broyden)= 0.13650E+01
  rms(prec ) = 0.16127E+01
  weight for this iteration     100.00

 eigenvalues of (default mixing * dielectric matrix)
  average eigenvalue GAMMA=   0.7246
  1.0549  0.3943

 Free energy of the ion-electron system (eV)
  ---------------------------------------------------
  alpha Z        PSCENC =        10.32874244
  Ewald energy   TEWEN  =      8813.26870327
  -Hartree energ DENC   =    -16596.82969390
  -exchange      EXHF   =         0.00000000
  -V(xc)+E(xc)   XCENC  =      -299.19426830
  PAW double counting   =      8889.94162072    -8277.06973148
  entropy T*S    EENTRO =         0.00000000
  eigenvalues    EBANDS =      -670.46497049
  atomic energy  EATOM  =      8096.87741396
  ---------------------------------------------------
  free energy    TOTEN  =       -33.14218378 eV

  energy without entropy =      -33.14218378  energy(sigma->0) =      -33.14218378


--------------------------------------------------------------------------------------------------------




----------------------------------------- Iteration    1(   8)  ---------------------------------------


    POTLOK:  cpu time    0.17: real time    0.17
    SETDIJ:  cpu time    0.01: real time    0.01
     EDDAV:  cpu time    0.48: real time    0.48
       DOS:  cpu time    0.00: real time    0.00
    CHARGE:  cpu time    0.04: real time    0.03
    MIXING:  cpu time    0.00: real time    0.00
    --------------------------------------------
      LOOP:  cpu time    0.70: real time    1.42

 eigenvalue-minimisations  :   276
 total energy-change (2. order) : 0.2769468E+01  (-0.4476400E+00)
 number of electron     100.0000002 magnetization       7.8269730
 augmentation part       42.6059564 magnetization       3.8931826

 Broyden mixing:
  rms(total) = 0.74917E+00    rms(broyden)= 0.74094E+00
  rms(prec ) = 0.87003E+00
  weight for this iteration     100.00

 eigenvalues of (default mixing * dielectric matrix)
  average eigenvalue GAMMA=   0.8665
  1.7420  0.6222  0.2353

 Free energy of the ion-electron system (eV)
  ---------------------------------------------------
  alpha Z        PSCENC =        10.32874244
  Ewald energy   TEWEN  =      8813.26870327
  -Hartree energ DENC   =    -16606.90285543
  -exchange      EXHF   =         0.00000000
  -V(xc)+E(xc)   XCENC  =      -297.82644050
  PAW double counting   =      9028.71840507    -8417.50083185
  entropy T*S    EENTRO =         0.00000000
  eigenvalues    EBANDS =      -657.33585309
  atomic energy  EATOM  =      8096.87741396
  ---------------------------------------------------
  free energy    TOTEN  =       -30.37271612 eV

  energy without entropy =      -30.37271612  energy(sigma->0) =      -30.37271612


--------------------------------------------------------------------------------------------------------




----------------------------------------- Iteration    1(   9)  ---------------------------------------


    POTLOK:  cpu time    0.17: real time    0.17
    SETDIJ:  cpu time    0.01: real time    0.01
     EDDAV:  cpu time    0.50: real time    0.50
       DOS:  cpu time    0.00: real time    0.00
    CHARGE:  cpu time    0.04: real time    0.03
    MIXING:  cpu time    0.00: real time    0.00
    --------------------------------------------
      LOOP:  cpu time    0.72: real time    1.48

 eigenvalue-minimisations  :   296
 total energy-change (2. order) : 0.3898354E+00  (-0.2822232E+00)
 number of electron     100.0000026 magnetization       7.6767539
 augmentation part       42.5753792 magnetization       3.7634936

 Broyden mixing:
  rms(total) = 0.50610E+00    rms(broyden)= 0.49972E+00
  rms(prec ) = 0.57011E+00
  weight for this iteration     100.00

 eigenvalues of (default mixing * dielectric matrix)
  average eigenvalue GAMMA=   0.7428
  1.8272  0.5937  0.3361  0.2143

 Free energy of the ion-electron system (eV)
  ---------------------------------------------------
  alpha Z        PSCENC =        10.32874244
  Ewald energy   TEWEN  =      8813.26870327
  -Hartree energ DENC   =    -16618.53946493
  -exchange      EXHF   =         0.00000000
  -V(xc)+E(xc)   XCENC  =      -297.44823524
  PAW double counting   =      9153.39934793    -8543.41501511
  entropy T*S    EENTRO =         0.00000000
  eigenvalues    EBANDS =      -644.45437307
  atomic energy  EATOM  =      8096.87741396
  ---------------------------------------------------
  free energy    TOTEN  =       -29.98288076 eV

  energy without entropy =      -29.98288076  energy(sigma->0) =      -29.98288076


--------------------------------------------------------------------------------------------------------




----------------------------------------- Iteration    1(  10)  ---------------------------------------


    POTLOK:  cpu time    0.17: real time    0.17
    SETDIJ:  cpu time    0.01: real time    0.01
     EDDAV:  cpu time    0.49: real time    0.49
       DOS:  cpu time    0.00: real time    0.00
    CHARGE:  cpu time    0.04: real time    0.03
    MIXING:  cpu time    0.00: real time    0.01
    --------------------------------------------
      LOOP:  cpu time    0.71: real time    0.72

 eigenvalue-minimisations  :   288
 total energy-change (2. order) :-0.6707821E+00  (-0.1013120E+00)
 number of electron     100.0000017 magnetization       7.5472903
 augmentation part       42.5957010 magnetization       3.8229196

 Broyden mixing:
  rms(total) = 0.25248E+00    rms(broyden)= 0.24886E+00
  rms(prec ) = 0.26952E+00
  weight for this iteration     100.00

 eigenvalues of (default mixing * dielectric matrix)
  average eigenvalue GAMMA=   0.6708
  1.8382  0.5005  0.4028  0.4028  0.2098

 Free energy of the ion-electron system (eV)
  ---------------------------------------------------
  alpha Z        PSCENC =        10.32874244
  Ewald energy   TEWEN  =      8813.26870327
  -Hartree energ DENC   =    -16623.52009020
  -exchange      EXHF   =         0.00000000
  -V(xc)+E(xc)   XCENC  =      -297.94453465
  PAW double counting   =      9181.30007157    -8571.58345562
  entropy T*S    EENTRO =         0.00000000
  eigenvalues    EBANDS =      -639.38051367
  atomic energy  EATOM  =      8096.87741396
  ---------------------------------------------------
  free energy    TOTEN  =       -30.65366290 eV

  energy without entropy =      -30.65366290  energy(sigma->0) =      -30.65366290


--------------------------------------------------------------------------------------------------------




----------------------------------------- Iteration    1(  11)  ---------------------------------------


    POTLOK:  cpu time    0.18: real time    0.17
    SETDIJ:  cpu time    0.00: real time    0.01
     EDDAV:  cpu time    0.50: real time    0.50
       DOS:  cpu time    0.00: real time    0.00
    CHARGE:  cpu time    0.04: real time    0.03
    MIXING:  cpu time    0.00: real time    0.01
    --------------------------------------------
      LOOP:  cpu time    0.72: real time    0.72

 eigenvalue-minimisations  :   288
 total energy-change (2. order) :-0.7630197E+00  (-0.2400055E-01)
 number of electron     100.0000016 magnetization       7.4425375
 augmentation part       42.5451904 magnetization       3.8046684

 Broyden mixing:
  rms(total) = 0.19953E+00    rms(broyden)= 0.19849E+00
  rms(prec ) = 0.21484E+00
  weight for this iteration     100.00

 eigenvalues of (default mixing * dielectric matrix)
  average eigenvalue GAMMA=   0.6603
  1.8545  0.5180  0.5180  0.5759  0.2895  0.2060

 Free energy of the ion-electron system (eV)
  ---------------------------------------------------
  alpha Z        PSCENC =        10.32874244
  Ewald energy   TEWEN  =      8813.26870327
  -Hartree energ DENC   =    -16627.42791806
  -exchange      EXHF   =         0.00000000
  -V(xc)+E(xc)   XCENC  =      -298.45156105
  PAW double counting   =      9193.79061977    -8584.11994052
  entropy T*S    EENTRO =        -0.00000000
  eigenvalues    EBANDS =      -635.68274242
  atomic energy  EATOM  =      8096.87741396
  ---------------------------------------------------
  free energy    TOTEN  =       -31.41668260 eV

  energy without entropy =      -31.41668260  energy(sigma->0) =      -31.41668260


--------------------------------------------------------------------------------------------------------




----------------------------------------- Iteration    1(  12)  ---------------------------------------


    POTLOK:  cpu time    0.17: real time    0.17
    SETDIJ:  cpu time    0.01: real time    0.01
     EDDAV:  cpu time    0.50: real time    0.50
       DOS:  cpu time    0.00: real time    0.00
    CHARGE:  cpu time    0.04: real time    0.03
    MIXING:  cpu time    0.00: real time    0.01
    --------------------------------------------
      LOOP:  cpu time    0.72: real time    0.73

 eigenvalue-minimisations  :   296
 total energy-change (2. order) :-0.4290965E+00  (-0.1463073E-01)
 number of electron     100.0000019 magnetization       7.1727242
 augmentation part       42.5409969 magnetization       3.6266123

 Broyden mixing:
  rms(total) = 0.15762E+00    rms(broyden)= 0.15716E+00
  rms(prec ) = 0.17487E+00
  weight for this iteration     100.00

 eigenvalues of (default mixing * dielectric matrix)
  average eigenvalue GAMMA=   0.7326
  1.8899  0.9067  0.9067  0.6461  0.3173  0.2076  0.2541

 Free energy of the ion-electron system (eV)
  ---------------------------------------------------
  alpha Z        PSCENC =        10.32874244
  Ewald energy   TEWEN  =      8813.26870327
  -Hartree energ DENC   =    -16629.01885171
  -exchange      EXHF   =         0.00000000
  -V(xc)+E(xc)   XCENC  =      -298.74449115
  PAW double counting   =      9200.44177552    -8590.85404982
  entropy T*S    EENTRO =         0.00000000
  eigenvalues    EBANDS =      -634.14502163
  atomic energy  EATOM  =      8096.87741396
  ---------------------------------------------------
  free energy    TOTEN  =       -31.84577912 eV

  energy without entropy =      -31.84577912  energy(sigma->0) =      -31.84577912


--------------------------------------------------------------------------------------------------------




----------------------------------------- Iteration    1(  13)  ---------------------------------------


    POTLOK:  cpu time    0.17: real time    0.17
    SETDIJ:  cpu time    0.00: real time    0.01
     EDDAV:  cpu time    0.48: real time    0.48
       DOS:  cpu time    0.00: real time    0.00
    CHARGE:  cpu time    0.03: real time    0.03
    MIXING:  cpu time    0.00: real time    0.01
    --------------------------------------------
      LOOP:  cpu time    0.70: real time    0.71

 eigenvalue-minimisations  :   280
 total energy-change (2. order) :-0.9529882E+00  (-0.2588337E-01)
 number of electron     100.0000017 magnetization       6.9795204
 augmentation part       42.4950519 magnetization       3.5561679

 Broyden mixing:
  rms(total) = 0.12123E+00    rms(broyden)= 0.12068E+00
  rms(prec ) = 0.13650E+00
  weight for this iteration     100.00

 eigenvalues of (default mixing * dielectric matrix)
  average eigenvalue GAMMA=   0.7373
  1.9797  1.0054  1.0054  0.6375  0.4810  0.3449  0.2085  0.2359

 Free energy of the ion-electron system (eV)
  ---------------------------------------------------
  alpha Z        PSCENC =        10.32874244
  Ewald energy   TEWEN  =      8813.26870327
  -Hartree energ DENC   =    -16633.64622783
  -exchange      EXHF   =         0.00000000
  -V(xc)+E(xc)   XCENC  =      -299.42653962
  PAW double counting   =      9214.28997366    -8604.93460837
  entropy T*S    EENTRO =         0.00000000
  eigenvalues    EBANDS =      -629.55622482
  atomic energy  EATOM  =      8096.87741396
  ---------------------------------------------------
  free energy    TOTEN  =       -32.79876731 eV

  energy without entropy =      -32.79876731  energy(sigma->0) =      -32.79876731


--------------------------------------------------------------------------------------------------------




----------------------------------------- Iteration    1(  14)  ---------------------------------------


    POTLOK:  cpu time    0.18: real time    0.17
    SETDIJ:  cpu time    0.00: real time    0.01
     EDDAV:  cpu time    0.49: real time    0.49
       DOS:  cpu time    0.00: real time    0.00
    CHARGE:  cpu time    0.04: real time    0.03
    MIXING:  cpu time    0.00: real time    0.01
    --------------------------------------------
      LOOP:  cpu time    0.72: real time    0.72

 eigenvalue-minimisations  :   288
 total energy-change (2. order) :-0.5875851E+00  (-0.1421046E-01)
 number of electron     100.0000020 magnetization       6.8014290
 augmentation part       42.5205921 magnetization       3.4960098

 Broyden mixing:
  rms(total) = 0.82166E-01    rms(broyden)= 0.81604E-01
  rms(prec ) = 0.92339E-01
  weight for this iteration     100.00

 eigenvalues of (default mixing * dielectric matrix)
  average eigenvalue GAMMA=   0.7586
  2.0774  1.0962  1.0962  0.7136  0.7136  0.3940  0.3014  0.2072  0.2280

 Free energy of the ion-electron system (eV)
  ---------------------------------------------------
  alpha Z        PSCENC =        10.32874244
  Ewald energy   TEWEN  =      8813.26870327
  -Hartree energ DENC   =    -16636.21572168
  -exchange      EXHF   =         0.00000000
  -V(xc)+E(xc)   XCENC  =      -299.87938433
  PAW double counting   =      9218.89925632    -8609.74072031
  entropy T*S    EENTRO =         0.00000000
  eigenvalues    EBANDS =      -626.92464205
  atomic energy  EATOM  =      8096.87741396
  ---------------------------------------------------
  free energy    TOTEN  =       -33.38635239 eV

  energy without entropy =      -33.38635239  energy(sigma->0) =      -33.38635239


--------------------------------------------------------------------------------------------------------




----------------------------------------- Iteration    1(  15)  ---------------------------------------


    POTLOK:  cpu time    0.17: real time    0.17
    SETDIJ:  cpu time    0.01: real time    0.01
     EDDAV:  cpu time    0.48: real time    0.48
       DOS:  cpu time    0.00: real time    0.00
    CHARGE:  cpu time    0.04: real time    0.03
    MIXING:  cpu time    0.00: real time    0.01
    --------------------------------------------
      LOOP:  cpu time    0.70: real time    0.75

 eigenvalue-minimisations  :   280
 total energy-change (2. order) :-0.4933015E+00  (-0.8627068E-02)
 number of electron     100.0000020 magnetization       6.7014767
 augmentation part       42.4936870 magnetization       3.4525203

 Broyden mixing:
  rms(total) = 0.74501E-01    rms(broyden)= 0.74236E-01
  rms(prec ) = 0.85082E-01
  weight for this iteration     100.00

 eigenvalues of (default mixing * dielectric matrix)
  average eigenvalue GAMMA=   0.7616
  2.1064  1.2609  1.2609  0.7291  0.7291  0.4930  0.2089  0.2286  0.3112  0.2879

 Free energy of the ion-electron system (eV)
  ---------------------------------------------------
  alpha Z        PSCENC =        10.32874244
  Ewald energy   TEWEN  =      8813.26870327
  -Hartree energ DENC   =    -16638.63081762
  -exchange      EXHF   =         0.00000000
  -V(xc)+E(xc)   XCENC  =      -300.26953596
  PAW double counting   =      9217.91321056    -8608.87284736
  entropy T*S    EENTRO =         0.00000000
  eigenvalues    EBANDS =      -624.49452320
  atomic energy  EATOM  =      8096.87741396
  ---------------------------------------------------
  free energy    TOTEN  =       -33.87965392 eV

  energy without entropy =      -33.87965392  energy(sigma->0) =      -33.87965392


--------------------------------------------------------------------------------------------------------




----------------------------------------- Iteration    1(  16)  ---------------------------------------


    POTLOK:  cpu time    0.17: real time    0.17
    SETDIJ:  cpu time    0.01: real time    0.01
     EDDAV:  cpu time    0.51: real time    0.51
       DOS:  cpu time    0.00: real time    0.00
    CHARGE:  cpu time    0.04: real time    0.03
    MIXING:  cpu time    0.00: real time    0.01
    --------------------------------------------
      LOOP:  cpu time    0.73: real time    0.74

 eigenvalue-minimisations  :   300
 total energy-change (2. order) :-0.2567522E+00  (-0.3155332E-02)
 number of electron     100.0000020 magnetization       6.5359455
 augmentation part       42.5083958 magnetization       3.3282155

 Broyden mixing:
  rms(total) = 0.53013E-01    rms(broyden)= 0.52798E-01
  rms(prec ) = 0.60000E-01
  weight for this iteration     100.00

 eigenvalues of (default mixing * dielectric matrix)
  average eigenvalue GAMMA=   0.7954
  2.1223  1.8009  1.1319  0.8621  0.8621  0.6041  0.3384  0.3384  0.2571  0.2081
  0.2245

 Free energy of the ion-electron system (eV)
  ---------------------------------------------------
  alpha Z        PSCENC =        10.32874244
  Ewald energy   TEWEN  =      8813.26870327
  -Hartree energ DENC   =    -16639.56753627
  -exchange      EXHF   =         0.00000000
  -V(xc)+E(xc)   XCENC  =      -300.49501422
  PAW double counting   =      9215.15324049    -8606.18603375
  entropy T*S    EENTRO =         0.00000000
  eigenvalues    EBANDS =      -623.51592202
  atomic energy  EATOM  =      8096.87741396
  ---------------------------------------------------
  free energy    TOTEN  =       -34.13640609 eV

  energy without entropy =      -34.13640609  energy(sigma->0) =      -34.13640609


--------------------------------------------------------------------------------------------------------




----------------------------------------- Iteration    1(  17)  ---------------------------------------


    POTLOK:  cpu time    0.17: real time    0.17
    SETDIJ:  cpu time    0.00: real time    0.01
     EDDAV:  cpu time    0.47: real time    0.47
       DOS:  cpu time    0.00: real time    0.00
    CHARGE:  cpu time    0.03: real time    0.03
    MIXING:  cpu time    0.01: real time    0.01
    --------------------------------------------
      LOOP:  cpu time    0.70: real time    0.70

 eigenvalue-minimisations  :   272
 total energy-change (2. order) :-0.3718714E+00  (-0.3880484E-02)
 number of electron     100.0000020 magnetization       6.3909592
 augmentation part       42.5156766 magnetization       3.2404975

 Broyden mixing:
  rms(total) = 0.35393E-01    rms(broyden)= 0.35219E-01
  rms(prec ) = 0.39910E-01
  weight for this iteration     100.00

 eigenvalues of (default mixing * dielectric matrix)
  average eigenvalue GAMMA=   0.8309
  2.1769  2.1769  1.3045  0.8866  0.8866  0.5849  0.5849  0.3816  0.3056  0.2083
  0.2264  0.2472

 Free energy of the ion-electron system (eV)
  ---------------------------------------------------
  alpha Z        PSCENC =        10.32874244
  Ewald energy   TEWEN  =      8813.26870327
  -Hartree energ DENC   =    -16641.28892189
  -exchange      EXHF   =         0.00000000
  -V(xc)+E(xc)   XCENC  =      -300.81532887
  PAW double counting   =      9210.78520929    -8601.90036203
  entropy T*S    EENTRO =        -0.00000000
  eigenvalues    EBANDS =      -621.76373364
  atomic energy  EATOM  =      8096.87741396
  ---------------------------------------------------
  free energy    TOTEN  =       -34.50827747 eV

  energy without entropy =      -34.50827747  energy(sigma->0) =      -34.50827747


--------------------------------------------------------------------------------------------------------




----------------------------------------- Iteration    1(  18)  ---------------------------------------


    POTLOK:  cpu time    0.17: real time    0.17
    SETDIJ:  cpu time    0.00: real time    0.01
     EDDAV:  cpu time    0.50: real time    0.50
       DOS:  cpu time    0.00: real time    0.00
    CHARGE:  cpu time    0.04: real time    0.03
    MIXING:  cpu time    0.01: real time    0.01
    --------------------------------------------
      LOOP:  cpu time    0.72: real time    0.72

 eigenvalue-minimisations  :   292
 total energy-change (2. order) :-0.2818705E+00  (-0.2458804E-02)
 number of electron     100.0000020 magnetization       6.2638253
 augmentation part       42.5110591 magnetization       3.1555047

 Broyden mixing:
  rms(total) = 0.26230E-01    rms(broyden)= 0.26091E-01
  rms(prec ) = 0.30090E-01
  weight for this iteration     100.00

 eigenvalues of (default mixing * dielectric matrix)
  average eigenvalue GAMMA=   0.9026
  2.4606  2.4606  1.6746  0.9797  0.9797  0.6752  0.6752  0.4653  0.3617  0.3187
  0.2083  0.2483  0.2255

 Free energy of the ion-electron system (eV)
  ---------------------------------------------------
  alpha Z        PSCENC =        10.32874244
  Ewald energy   TEWEN  =      8813.26870327
  -Hartree energ DENC   =    -16643.23776955
  -exchange      EXHF   =         0.00000000
  -V(xc)+E(xc)   XCENC  =      -301.05732235
  PAW double counting   =      9207.63966503    -8598.78491180
  entropy T*S    EENTRO =         0.00000000
  eigenvalues    EBANDS =      -619.82466895
  atomic energy  EATOM  =      8096.87741396
  ---------------------------------------------------
  free energy    TOTEN  =       -34.79014794 eV

  energy without entropy =      -34.79014794  energy(sigma->0) =      -34.79014794


--------------------------------------------------------------------------------------------------------




----------------------------------------- Iteration    1(  19)  ---------------------------------------


    POTLOK:  cpu time    0.17: real time    0.17
    SETDIJ:  cpu time    0.01: real time    0.01
     EDDAV:  cpu time    0.50: real time    0.50
       DOS:  cpu time    0.00: real time    0.00
    CHARGE:  cpu time    0.03: real time    0.03
    MIXING:  cpu time    0.01: real time    0.01
    --------------------------------------------
      LOOP:  cpu time    0.72: real time    0.75

 eigenvalue-minimisations  :   296
 total energy-change (2. order) :-0.2100158E+00  (-0.1639516E-02)
 number of electron     100.0000020 magnetization       6.1740034
 augmentation part       42.5120877 magnetization       3.0999918

 Broyden mixing:
  rms(total) = 0.20210E-01    rms(broyden)= 0.20070E-01
  rms(prec ) = 0.23378E-01
  weight for this iteration     100.00

 eigenvalues of (default mixing * dielectric matrix)
  average eigenvalue GAMMA=   0.9372
  3.3906  2.2552  1.5616  0.9687  0.9687  0.8063  0.8063  0.6061  0.3924  0.3685
  0.3139  0.2083  0.2257  0.2483

 Free energy of the ion-electron system (eV)
  ---------------------------------------------------
  alpha Z        PSCENC =        10.32874244
  Ewald energy   TEWEN  =      8813.26870327
  -Hartree energ DENC   =    -16644.84565339
  -exchange      EXHF   =         0.00000000
  -V(xc)+E(xc)   XCENC  =      -301.24227325
  PAW double counting   =      9205.16665039    -8596.31211556
  entropy T*S    EENTRO =         0.00000000
  eigenvalues    EBANDS =      -618.24163161
  atomic energy  EATOM  =      8096.87741396
  ---------------------------------------------------
  free energy    TOTEN  =       -35.00016375 eV

  energy without entropy =      -35.00016375  energy(sigma->0) =      -35.00016375


--------------------------------------------------------------------------------------------------------




----------------------------------------- Iteration    1(  20)  ---------------------------------------


    POTLOK:  cpu time    0.17: real time    0.17
    SETDIJ:  cpu time    0.00: real time    0.01
     EDDAV:  cpu time    0.50: real time    0.50
       DOS:  cpu time    0.00: real time    0.00
    CHARGE:  cpu time    0.03: real time    0.03
    MIXING:  cpu time    0.01: real time    0.01
    --------------------------------------------
      LOOP:  cpu time    0.72: real time    0.72

 eigenvalue-minimisations  :   292
 total energy-change (2. order) :-0.1155247E+00  (-0.7350117E-03)
 number of electron     100.0000020 magnetization       6.1161406
 augmentation part       42.5090758 magnetization       3.0607448

 Broyden mixing:
  rms(total) = 0.14372E-01    rms(broyden)= 0.14311E-01
  rms(prec ) = 0.16857E-01
  weight for this iteration     100.00

 eigenvalues of (default mixing * dielectric matrix)
  average eigenvalue GAMMA=   0.9513
  3.6997  2.1205  1.9103  0.9540  0.9540  0.8808  0.7897  0.7404  0.4744  0.4029
  0.3442  0.3169  0.2083  0.2256  0.2479

 Free energy of the ion-electron system (eV)
  ---------------------------------------------------
  alpha Z        PSCENC =        10.32874244
  Ewald energy   TEWEN  =      8813.26870327
  -Hartree energ DENC   =    -16645.95137720
  -exchange      EXHF   =         0.00000000
  -V(xc)+E(xc)   XCENC  =      -301.34255426
  PAW double counting   =      9204.02650481    -8595.15924177
  entropy T*S    EENTRO =         0.00000000
  eigenvalues    EBANDS =      -617.16387972
  atomic energy  EATOM  =      8096.87741396
  ---------------------------------------------------
  free energy    TOTEN  =       -35.11568847 eV

  energy without entropy =      -35.11568847  energy(sigma->0) =      -35.11568847


--------------------------------------------------------------------------------------------------------




----------------------------------------- Iteration    1(  21)  ---------------------------------------


    POTLOK:  cpu time    0.17: real time    0.17
    SETDIJ:  cpu time    0.01: real time    0.01
     EDDAV:  cpu time    0.50: real time    0.50
       DOS:  cpu time    0.00: real time    0.00
    CHARGE:  cpu time    0.03: real time    0.03
    MIXING:  cpu time    0.01: real time    0.01
    --------------------------------------------
      LOOP:  cpu time    0.73: real time    2.28

 eigenvalue-minimisations  :   296
 total energy-change (2. order) :-0.5723819E-01  (-0.2915733E-03)
 number of electron     100.0000020 magnetization       6.0659929
 augmentation part       42.5102133 magnetization       3.0217792

 Broyden mixing:
  rms(total) = 0.99472E-02    rms(broyden)= 0.99005E-02
  rms(prec ) = 0.11757E-01
  weight for this iteration     100.00

 eigenvalues of (default mixing * dielectric matrix)
  average eigenvalue GAMMA=   0.9938
  4.1756  2.0947  2.0947  1.2901  0.9937  0.9937  0.7334  0.7334  0.6603  0.4201
  0.2083  0.2257  0.2480  0.3783  0.3174  0.3333

 Free energy of the ion-electron system (eV)
  ---------------------------------------------------
  alpha Z        PSCENC =        10.32874244
  Ewald energy   TEWEN  =      8813.26870327
  -Hartree energ DENC   =    -16646.63398816
  -exchange      EXHF   =         0.00000000
  -V(xc)+E(xc)   XCENC  =      -301.39806036
  PAW double counting   =      9203.95793638    -8595.08400545
  entropy T*S    EENTRO =         0.00000000
  eigenvalues    EBANDS =      -616.48966874
  atomic energy  EATOM  =      8096.87741396
  ---------------------------------------------------
  free energy    TOTEN  =       -35.17292666 eV

  energy without entropy =      -35.17292666  energy(sigma->0) =      -35.17292666


--------------------------------------------------------------------------------------------------------




----------------------------------------- Iteration    1(  22)  ---------------------------------------


    POTLOK:  cpu time    0.17: real time    0.17
    SETDIJ:  cpu time    0.01: real time    0.01
     EDDAV:  cpu time    0.48: real time    0.48
       DOS:  cpu time    0.00: real time    0.00
    CHARGE:  cpu time    0.04: real time    0.03
    MIXING:  cpu time    0.01: real time    0.01
    --------------------------------------------
      LOOP:  cpu time    0.70: real time    0.71

 eigenvalue-minimisations  :   276
 total energy-change (2. order) :-0.3541671E-01  (-0.1686626E-03)
 number of electron     100.0000020 magnetization       6.0304608
 augmentation part       42.5091754 magnetization       2.9924280

 Broyden mixing:
  rms(total) = 0.45461E-02    rms(broyden)= 0.45183E-02
  rms(prec ) = 0.60155E-02
  weight for this iteration     100.00

 eigenvalues of (default mixing * dielectric matrix)
  average eigenvalue GAMMA=   1.0309
  4.6668  2.0300  1.9969  1.7074  1.0482  1.0482  0.8087  0.8087  0.6635  0.6201
  0.4270  0.2083  0.2257  0.2480  0.3687  0.3170  0.3324

 Free energy of the ion-electron system (eV)
  ---------------------------------------------------
  alpha Z        PSCENC =        10.32874244
  Ewald energy   TEWEN  =      8813.26870327
  -Hartree energ DENC   =    -16647.27108215
  -exchange      EXHF   =         0.00000000
  -V(xc)+E(xc)   XCENC  =      -301.43259987
  PAW double counting   =      9204.23589725    -8595.35051135
  entropy T*S    EENTRO =         0.00000000
  eigenvalues    EBANDS =      -615.86490692
  atomic energy  EATOM  =      8096.87741396
  ---------------------------------------------------
  free energy    TOTEN  =       -35.20834337 eV

  energy without entropy =      -35.20834337  energy(sigma->0) =      -35.20834337


--------------------------------------------------------------------------------------------------------




----------------------------------------- Iteration    1(  23)  ---------------------------------------


    POTLOK:  cpu time    0.17: real time    0.17
    SETDIJ:  cpu time    0.00: real time    0.01
     EDDAV:  cpu time    0.48: real time    0.48
       DOS:  cpu time    0.00: real time    0.00
    CHARGE:  cpu time    0.04: real time    0.03
    MIXING:  cpu time    0.01: real time    0.01
    --------------------------------------------
      LOOP:  cpu time    0.70: real time    1.66

 eigenvalue-minimisations  :   272
 total energy-change (2. order) :-0.1552660E-01  (-0.8198679E-04)
 number of electron     100.0000020 magnetization       6.0145303
 augmentation part       42.5098630 magnetization       2.9816604

 Broyden mixing:
  rms(total) = 0.31391E-02    rms(broyden)= 0.31171E-02
  rms(prec ) = 0.42609E-02
  weight for this iteration     100.00

 eigenvalues of (default mixing * dielectric matrix)
  average eigenvalue GAMMA=   1.0432
  4.9709  2.1261  2.1261  1.6375  1.0453  1.0453  0.8920  0.8920  0.7465  0.6355
  0.5285  0.4318  0.2083  0.2257  0.2480  0.3698  0.3172  0.3307

 Free energy of the ion-electron system (eV)
  ---------------------------------------------------
  alpha Z        PSCENC =        10.32874244
  Ewald energy   TEWEN  =      8813.26870327
  -Hartree energ DENC   =    -16647.73576911
  -exchange      EXHF   =         0.00000000
  -V(xc)+E(xc)   XCENC  =      -301.44872864
  PAW double counting   =      9204.38227819    -8595.49382934
  entropy T*S    EENTRO =         0.00000000
  eigenvalues    EBANDS =      -615.40268075
  atomic energy  EATOM  =      8096.87741396
  ---------------------------------------------------
  free energy    TOTEN  =       -35.22386997 eV

  energy without entropy =      -35.22386997  energy(sigma->0) =      -35.22386997


--------------------------------------------------------------------------------------------------------




----------------------------------------- Iteration    1(  24)  ---------------------------------------


    POTLOK:  cpu time    0.17: real time    0.17
    SETDIJ:  cpu time    0.01: real time    0.01
     EDDAV:  cpu time    0.41: real time    0.41
       DOS:  cpu time    0.00: real time    0.00
    CHARGE:  cpu time    0.04: real time    0.03
    MIXING:  cpu time    0.01: real time    0.01
    --------------------------------------------
      LOOP:  cpu time    0.64: real time    0.64

 eigenvalue-minimisations  :   224
 total energy-change (2. order) :-0.4748370E-02  (-0.2341434E-04)
 number of electron     100.0000020 magnetization       6.0051120
 augmentation part       42.5097735 magnetization       2.9738210

 Broyden mixing:
  rms(total) = 0.23146E-02    rms(broyden)= 0.23041E-02
  rms(prec ) = 0.32419E-02
  weight for this iteration     100.00

 eigenvalues of (default mixing * dielectric matrix)
  average eigenvalue GAMMA=   1.0457
  5.1141  2.3300  2.1176  1.4433  1.4433  1.0283  1.0283  0.7885  0.7885  0.6791
  0.5754  0.2083  0.2257  0.2480  0.4372  0.3817  0.3817  0.3169  0.3326

 Free energy of the ion-electron system (eV)
  ---------------------------------------------------
  alpha Z        PSCENC =        10.32874244
  Ewald energy   TEWEN  =      8813.26870327
  -Hartree energ DENC   =    -16647.99935309
  -exchange      EXHF   =         0.00000000
  -V(xc)+E(xc)   XCENC  =      -301.45372673
  PAW double counting   =      9204.54124436    -8595.65177615
  entropy T*S    EENTRO =         0.00000000
  eigenvalues    EBANDS =      -615.13986640
  atomic energy  EATOM  =      8096.87741396
  ---------------------------------------------------
  free energy    TOTEN  =       -35.22861834 eV

  energy without entropy =      -35.22861834  energy(sigma->0) =      -35.22861834


--------------------------------------------------------------------------------------------------------




----------------------------------------- Iteration    1(  25)  ---------------------------------------


    POTLOK:  cpu time    0.17: real time    0.17
    SETDIJ:  cpu time    0.01: real time    0.01
     EDDAV:  cpu time    0.41: real time    0.41
       DOS:  cpu time    0.00: real time    0.00
    CHARGE:  cpu time    0.04: real time    0.03
    MIXING:  cpu time    0.01: real time    0.01
    --------------------------------------------
      LOOP:  cpu time    0.64: real time    0.64

 eigenvalue-minimisations  :   224
 total energy-change (2. order) :-0.1980280E-02  (-0.1626683E-04)
 number of electron     100.0000020 magnetization       5.9975482
 augmentation part       42.5093016 magnetization       2.9667083

 Broyden mixing:
  rms(total) = 0.15292E-02    rms(broyden)= 0.15245E-02
  rms(prec ) = 0.22932E-02
  weight for this iteration     100.00

 eigenvalues of (default mixing * dielectric matrix)
  average eigenvalue GAMMA=   1.0735
  5.3279  2.4662  2.0787  2.0787  1.0575  1.0575  1.0246  1.0246  0.8161  0.8161
  0.6131  0.6131  0.2083  0.2257  0.2480  0.4303  0.3170  0.3319  0.3701  0.3646

 Free energy of the ion-electron system (eV)
  ---------------------------------------------------
  alpha Z        PSCENC =        10.32874244
  Ewald energy   TEWEN  =      8813.26870327
  -Hartree energ DENC   =    -16648.20836950
  -exchange      EXHF   =         0.00000000
  -V(xc)+E(xc)   XCENC  =      -301.45585231
  PAW double counting   =      9204.69886725    -8595.80866742
  entropy T*S    EENTRO =         0.00000000
  eigenvalues    EBANDS =      -614.93143632
  atomic energy  EATOM  =      8096.87741396
  ---------------------------------------------------
  free energy    TOTEN  =       -35.23059862 eV

  energy without entropy =      -35.23059862  energy(sigma->0) =      -35.23059862


--------------------------------------------------------------------------------------------------------




----------------------------------------- Iteration    1(  26)  ---------------------------------------


    POTLOK:  cpu time    0.17: real time    0.17
    SETDIJ:  cpu time    0.01: real time    0.01
     EDDAV:  cpu time    0.39: real time    0.39
       DOS:  cpu time    0.00: real time    0.00
    CHARGE:  cpu time    0.03: real time    0.03
    MIXING:  cpu time    0.01: real time    0.01
    --------------------------------------------
      LOOP:  cpu time    0.62: real time    0.62

 eigenvalue-minimisations  :   208
 total energy-change (2. order) :-0.8090714E-03  (-0.1493496E-04)
 number of electron     100.0000020 magnetization       5.9929343
 augmentation part       42.5094407 magnetization       2.9628153

 Broyden mixing:
  rms(total) = 0.10747E-02    rms(broyden)= 0.10726E-02
  rms(prec ) = 0.16107E-02
  weight for this iteration     100.00

 eigenvalues of (default mixing * dielectric matrix)
  average eigenvalue GAMMA=   1.0959
  5.6076  2.3929  2.3186  2.3186  1.2612  1.2612  0.9882  0.9882  0.7685  0.7685
  0.6950  0.5728  0.5728  0.2083  0.2257  0.2480  0.4336  0.3171  0.3307  0.3710
  0.3646

 Free energy of the ion-electron system (eV)
  ---------------------------------------------------
  alpha Z        PSCENC =        10.32874244
  Ewald energy   TEWEN  =      8813.26870327
  -Hartree energ DENC   =    -16648.40725033
  -exchange      EXHF   =         0.00000000
  -V(xc)+E(xc)   XCENC  =      -301.45643106
  PAW double counting   =      9204.73673355    -8595.84758696
  entropy T*S    EENTRO =         0.00000000
  eigenvalues    EBANDS =      -614.73173256
  atomic energy  EATOM  =      8096.87741396
  ---------------------------------------------------
  free energy    TOTEN  =       -35.23140769 eV

  energy without entropy =      -35.23140769  energy(sigma->0) =      -35.23140769


--------------------------------------------------------------------------------------------------------




----------------------------------------- Iteration    1(  27)  ---------------------------------------


    POTLOK:  cpu time    0.18: real time    0.17
    SETDIJ:  cpu time    0.00: real time    0.01
     EDDAV:  cpu time    0.39: real time    0.39
       DOS:  cpu time    0.00: real time    0.00
    CHARGE:  cpu time    0.03: real time    0.03
    MIXING:  cpu time    0.01: real time    0.01
    --------------------------------------------
      LOOP:  cpu time    0.62: real time    0.62

 eigenvalue-minimisations  :   204
 total energy-change (2. order) :-0.2691186E-03  (-0.7376772E-05)
 number of electron     100.0000020 magnetization       5.9920763
 augmentation part       42.5097386 magnetization       2.9630055

 Broyden mixing:
  rms(total) = 0.99713E-03    rms(broyden)= 0.99342E-03
  rms(prec ) = 0.13482E-02
  weight for this iteration     100.00

 eigenvalues of (default mixing * dielectric matrix)
  average eigenvalue GAMMA=   1.0950
  5.7563  2.6193  2.2832  2.2832  1.2907  1.2907  1.0162  1.0162  0.8154  0.8154
  0.6789  0.6318  0.5848  0.5180  0.2083  0.2257  0.2480  0.4303  0.3170  0.3310
  0.3704  0.3599

 Free energy of the ion-electron system (eV)
  ---------------------------------------------------
  alpha Z        PSCENC =        10.32874244
  Ewald energy   TEWEN  =      8813.26870327
  -Hartree energ DENC   =    -16648.55825601
  -exchange      EXHF   =         0.00000000
  -V(xc)+E(xc)   XCENC  =      -301.45644647
  PAW double counting   =      9204.66359038    -8595.77546732
  entropy T*S    EENTRO =         0.00000000
  eigenvalues    EBANDS =      -614.57995707
  atomic energy  EATOM  =      8096.87741396
  ---------------------------------------------------
  free energy    TOTEN  =       -35.23167681 eV

  energy without entropy =      -35.23167681  energy(sigma->0) =      -35.23167681


--------------------------------------------------------------------------------------------------------




----------------------------------------- Iteration    1(  28)  ---------------------------------------


    POTLOK:  cpu time    0.17: real time    0.17
    SETDIJ:  cpu time    0.00: real time    0.01
     EDDAV:  cpu time    0.39: real time    0.39
       DOS:  cpu time    0.00: real time    0.00
    CHARGE:  cpu time    0.04: real time    0.03
    MIXING:  cpu time    0.01: real time    0.01
    --------------------------------------------
      LOOP:  cpu time    0.62: real time    0.62

 eigenvalue-minimisations  :   200
 total energy-change (2. order) :-0.4223211E-03  (-0.3791981E-05)
 number of electron     100.0000020 magnetization       5.9928306
 augmentation part       42.5093865 magnetization       2.9637433

 Broyden mixing:
  rms(total) = 0.70244E-03    rms(broyden)= 0.70080E-03
  rms(prec ) = 0.95826E-03
  weight for this iteration     100.00

 eigenvalues of (default mixing * dielectric matrix)
  average eigenvalue GAMMA=   1.1200
  5.9212  3.0006  2.2559  2.2559  1.5047  1.1600  1.1600  1.0006  1.0006  0.9036
  0.7585  0.7585  0.5851  0.5851  0.2083  0.2257  0.2480  0.4377  0.4129  0.3171
  0.3307  0.3696  0.3597

 Free energy of the ion-electron system (eV)
  ---------------------------------------------------
  alpha Z        PSCENC =        10.32874244
  Ewald energy   TEWEN  =      8813.26870327
  -Hartree energ DENC   =    -16648.65767325
  -exchange      EXHF   =         0.00000000
  -V(xc)+E(xc)   XCENC  =      -301.45668212
  PAW double counting   =      9204.63272718    -8595.74434238
  entropy T*S    EENTRO =         0.00000000
  eigenvalues    EBANDS =      -614.48098824
  atomic energy  EATOM  =      8096.87741396
  ---------------------------------------------------
  free energy    TOTEN  =       -35.23209913 eV

  energy without entropy =      -35.23209913  energy(sigma->0) =      -35.23209913


--------------------------------------------------------------------------------------------------------




----------------------------------------- Iteration    1(  29)  ---------------------------------------


    POTLOK:  cpu time    0.18: real time    0.17
    SETDIJ:  cpu time    0.00: real time    0.01
     EDDAV:  cpu time    0.37: real time    0.37
       DOS:  cpu time    0.00: real time    0.00
    CHARGE:  cpu time    0.03: real time    0.03
    MIXING:  cpu time    0.01: real time    0.01
    --------------------------------------------
      LOOP:  cpu time    0.60: real time    0.60

 eigenvalue-minimisations  :   188
 total energy-change (2. order) :-0.7478860E-03  (-0.3575395E-05)
 number of electron     100.0000020 magnetization       5.9951522
 augmentation part       42.5093646 magnetization       2.9658761

 Broyden mixing:
  rms(total) = 0.47712E-03    rms(broyden)= 0.47609E-03
  rms(prec ) = 0.62861E-03
  weight for this iteration     100.00

 eigenvalues of (default mixing * dielectric matrix)
  average eigenvalue GAMMA=   1.1415
  6.0410  3.2710  2.3127  2.3127  1.6853  1.0755  1.0755  1.1163  1.1163  0.9331
  0.9331  0.7246  0.7246  0.5884  0.5884  0.2083  0.2257  0.2480  0.4347  0.4033
  0.3171  0.3308  0.3713  0.3588

 Free energy of the ion-electron system (eV)
  ---------------------------------------------------
  alpha Z        PSCENC =        10.32874244
  Ewald energy   TEWEN  =      8813.26870327
  -Hartree energ DENC   =    -16648.73767582
  -exchange      EXHF   =         0.00000000
  -V(xc)+E(xc)   XCENC  =      -301.45730224
  PAW double counting   =      9204.59294961    -8595.70519908
  entropy T*S    EENTRO =         0.00000000
  eigenvalues    EBANDS =      -614.40047915
  atomic energy  EATOM  =      8096.87741396
  ---------------------------------------------------
  free energy    TOTEN  =       -35.23284702 eV

  energy without entropy =      -35.23284702  energy(sigma->0) =      -35.23284702


--------------------------------------------------------------------------------------------------------




----------------------------------------- Iteration    1(  30)  ---------------------------------------


    POTLOK:  cpu time    0.17: real time    0.17
    SETDIJ:  cpu time    0.01: real time    0.01
     EDDAV:  cpu time    0.39: real time    0.39
       DOS:  cpu time    0.00: real time    0.00
    CHARGE:  cpu time    0.04: real time    0.03
    MIXING:  cpu time    0.01: real time    0.01
    --------------------------------------------
      LOOP:  cpu time    0.62: real time    0.62

 eigenvalue-minimisations  :   204
 total energy-change (2. order) :-0.8897270E-03  (-0.3226053E-05)
 number of electron     100.0000020 magnetization       5.9969151
 augmentation part       42.5094753 magnetization       2.9674378

 Broyden mixing:
  rms(total) = 0.31563E-03    rms(broyden)= 0.31404E-03
  rms(prec ) = 0.39642E-03
  weight for this iteration     100.00

 eigenvalues of (default mixing * dielectric matrix)
  average eigenvalue GAMMA=   1.1749
  6.1738  3.7057  2.4172  2.1428  2.1428  1.2892  1.2892  1.0896  1.0896  0.9114
  0.9114  0.7416  0.7416  0.6400  0.5940  0.5940  0.2083  0.2257  0.2480  0.4344
  0.4059  0.3171  0.3308  0.3710  0.3583

 Free energy of the ion-electron system (eV)
  ---------------------------------------------------
  alpha Z        PSCENC =        10.32874244
  Ewald energy   TEWEN  =      8813.26870327
  -Hartree energ DENC   =    -16648.78771735
  -exchange      EXHF   =         0.00000000
  -V(xc)+E(xc)   XCENC  =      -301.45801565
  PAW double counting   =      9204.52305743    -8595.63552518
  entropy T*S    EENTRO =         0.00000000
  eigenvalues    EBANDS =      -614.35039567
  atomic energy  EATOM  =      8096.87741396
  ---------------------------------------------------
  free energy    TOTEN  =       -35.23373674 eV

  energy without entropy =      -35.23373674  energy(sigma->0) =      -35.23373674


--------------------------------------------------------------------------------------------------------




----------------------------------------- Iteration    1(  31)  ---------------------------------------


    POTLOK:  cpu time    0.17: real time    0.17
    SETDIJ:  cpu time    0.00: real time    0.01
     EDDAV:  cpu time    0.38: real time    0.39
       DOS:  cpu time    0.00: real time    0.00
    CHARGE:  cpu time    0.04: real time    0.03
    MIXING:  cpu time    0.01: real time    0.01
    --------------------------------------------
      LOOP:  cpu time    0.62: real time    0.62

 eigenvalue-minimisations  :   200
 total energy-change (2. order) :-0.3833924E-03  (-0.1731200E-05)
 number of electron     100.0000020 magnetization       5.9984602
 augmentation part       42.5093721 magnetization       2.9686636

 Broyden mixing:
  rms(total) = 0.21310E-03    rms(broyden)= 0.21061E-03
  rms(prec ) = 0.26154E-03
  weight for this iteration     100.00

 eigenvalues of (default mixing * dielectric matrix)
  average eigenvalue GAMMA=   1.2102
  6.1988  4.4756  2.5279  2.2295  2.2295  1.3995  1.3995  1.0911  1.0911  0.9049
  0.9049  0.8746  0.7340  0.7340  0.5950  0.5950  0.5779  0.2083  0.2257  0.2480
  0.4351  0.4079  0.3171  0.3308  0.3709  0.3584

 Free energy of the ion-electron system (eV)
  ---------------------------------------------------
  alpha Z        PSCENC =        10.32874244
  Ewald energy   TEWEN  =      8813.26870327
  -Hartree energ DENC   =    -16648.80979468
  -exchange      EXHF   =         0.00000000
  -V(xc)+E(xc)   XCENC  =      -301.45833504
  PAW double counting   =      9204.50642451    -8595.61847765
  entropy T*S    EENTRO =         0.00000000
  eigenvalues    EBANDS =      -614.32879695
  atomic energy  EATOM  =      8096.87741396
  ---------------------------------------------------
  free energy    TOTEN  =       -35.23412014 eV

  energy without entropy =      -35.23412014  energy(sigma->0) =      -35.23412014


--------------------------------------------------------------------------------------------------------




----------------------------------------- Iteration    1(  32)  ---------------------------------------


    POTLOK:  cpu time    0.18: real time    0.17
    SETDIJ:  cpu time    0.00: real time    0.01
     EDDAV:  cpu time    0.38: real time    0.38
       DOS:  cpu time    0.00: real time    0.00
    CHARGE:  cpu time    0.04: real time    0.03
    MIXING:  cpu time    0.01: real time    0.01
    --------------------------------------------
      LOOP:  cpu time    0.61: real time    0.61

 eigenvalue-minimisations  :   196
 total energy-change (2. order) :-0.1831297E-03  (-0.1190160E-05)
 number of electron     100.0000020 magnetization       5.9993837
 augmentation part       42.5094149 magnetization       2.9692154

 Broyden mixing:
  rms(total) = 0.15101E-03    rms(broyden)= 0.14769E-03
  rms(prec ) = 0.18581E-03
  weight for this iteration     100.00

 eigenvalues of (default mixing * dielectric matrix)
  average eigenvalue GAMMA=   1.2808
  6.5148  5.5918  2.6597  2.3485  2.3485  1.5542  1.5542  1.1071  1.1071  0.9328
  0.9328  0.9694  0.8080  0.7258  0.7258  0.6118  0.6118  0.5767  0.2083  0.2257
  0.2480  0.4353  0.4077  0.3171  0.3308  0.3710  0.3584

 Free energy of the ion-electron system (eV)
  ---------------------------------------------------
  alpha Z        PSCENC =        10.32874244
  Ewald energy   TEWEN  =      8813.26870327
  -Hartree energ DENC   =    -16648.81267983
  -exchange      EXHF   =         0.00000000
  -V(xc)+E(xc)   XCENC  =      -301.45872950
  PAW double counting   =      9204.49290335    -8595.60487070
  entropy T*S    EENTRO =         0.00000000
  eigenvalues    EBANDS =      -614.32578626
  atomic energy  EATOM  =      8096.87741396
  ---------------------------------------------------
  free energy    TOTEN  =       -35.23430327 eV

  energy without entropy =      -35.23430327  energy(sigma->0) =      -35.23430327


--------------------------------------------------------------------------------------------------------




----------------------------------------- Iteration    1(  33)  ---------------------------------------


    POTLOK:  cpu time    0.17: real time    0.17
    SETDIJ:  cpu time    0.01: real time    0.01
     EDDAV:  cpu time    0.38: real time    0.39
       DOS:  cpu time    0.00: real time    0.00
    --------------------------------------------
      LOOP:  cpu time    0.56: real time    0.57

 eigenvalue-minimisations  :   200
 total energy-change (2. order) :-0.5678806E-04  (-0.6120154E-06)
 number of electron     100.0000020 magnetization       5.9993837
 augmentation part       42.5094149 magnetization       2.9692154

 Free energy of the ion-electron system (eV)
  ---------------------------------------------------
  alpha Z        PSCENC =        10.32874244
  Ewald energy   TEWEN  =      8813.26870327
  -Hartree energ DENC   =    -16648.81331598
  -exchange      EXHF   =         0.00000000
  -V(xc)+E(xc)   XCENC  =      -301.45897938
  PAW double counting   =      9204.47617413    -8595.58806696
  entropy T*S    EENTRO =         0.00000000
  eigenvalues    EBANDS =      -614.32503153
  atomic energy  EATOM  =      8096.87741396
  ---------------------------------------------------
  free energy    TOTEN  =       -35.23436005 eV

  energy without entropy =      -35.23436005  energy(sigma->0) =      -35.23436005


--------------------------------------------------------------------------------------------------------




 average (electrostatic) potential at core
  the test charge radii are     1.1199
  (the norm of the test charge is              1.0000)
       1 -83.5360       2 -84.3496       3 -84.1864       4 -84.3004       5 -84.0794
       6 -83.6715       7 -83.5616       8 -84.2655       9 -84.1640      10 -83.7151
 
 
 
[...]
 
 
 
 E-fermi :  -4.2954     XC(G=0):  -0.7049     alpha+bet : -0.3902


 spin component 1

 k-point     1 :       0.0000    0.0000    0.0000
  band No.  band energies     occupation 
      1      -8.6114      1.00000
      2      -8.3858      1.00000
      3      -8.2482      1.00000
      4      -8.0619      1.00000
      5      -7.8423      1.00000
      6      -7.7762      1.00000
      7      -7.6259      1.00000
      8      -7.5090      1.00000
      9      -7.4046      1.00000
     10      -7.3675      1.00000
     11      -7.3048      1.00000
     12      -7.2310      1.00000
     13      -7.2032      1.00000
     14      -7.0107      1.00000
     15      -6.9688      1.00000
     16      -6.9484      1.00000
     17      -6.8407      1.00000
     18      -6.3661      1.00000
     19      -6.3129      1.00000
     20      -6.2608      1.00000
     21      -6.1076      1.00000
     22      -5.9537      1.00000
     23      -5.8763      1.00000
     24      -5.7743      1.00000
     25      -5.7504      1.00000
     26      -5.6646      1.00000
     27      -5.6433      1.00000
     28      -5.6061      1.00000
     29      -5.5368      1.00000
     30      -5.5034      1.00000
     31      -5.4069      1.00000
     32      -5.3602      1.00000
     33      -5.2542      1.00000
     34      -5.2029      1.00000
     35      -5.1975      1.00000
     36      -5.1926      1.00000
     37      -5.1250      1.00000
     38      -5.1097      1.00000
     39      -5.0476      1.00000
     40      -5.0293      1.00000
     41      -5.0113      1.00000
     42      -4.9953      1.00000
     43      -4.9070      1.00000
     44      -4.8358      1.00000
     45      -4.7991      1.00000
     46      -4.7173      1.00000
     47      -4.7014      1.00000
     48      -4.6332      1.00000
     49      -4.5957      1.00000
     50      -4.5053      1.00000
     51      -4.3950      1.00000
     52      -4.3458      1.00000
     53      -4.3096      1.00000
     54      -3.9585      0.00000
     55      -2.8747      0.00000
     56      -2.2493      0.00000
     57      -2.0377      0.00000
     58      -1.9401      0.00000
     59      -1.8614      0.00000
     60      -1.4116      0.00000
     61      -0.8664      0.00000
     62      -0.4483      0.00000
     63      -0.2687      0.00000
     64      -0.1796      0.00000
     65       0.0440      0.00000
     66       0.1043      0.00000
     67       0.2390      0.00000
     68       0.2690      0.00000

 spin component 2

 k-point     1 :       0.0000    0.0000    0.0000
  band No.  band energies     occupation 
      1      -8.4584      1.00000
      2      -8.1189      1.00000
      3      -8.0042      1.00000
      4      -7.7355      1.00000
      5      -7.5131      1.00000
      6      -7.4021      1.00000
      7      -7.2459      1.00000
      8      -7.2146      1.00000
      9      -6.9999      1.00000
     10      -6.9421      1.00000
     11      -6.9016      1.00000
     12      -6.8692      1.00000
     13      -6.7646      1.00000
     14      -6.6275      1.00000
     15      -6.5749      1.00000
     16      -6.5516      1.00000
     17      -6.3962      1.00000
     18      -6.0582      1.00000
     19      -5.9774      1.00000
     20      -5.9705      1.00000
     21      -5.7906      1.00000
     22      -5.6341      1.00000
     23      -5.5835      1.00000
     24      -5.4529      1.00000
     25      -5.3882      1.00000
     26      -5.3620      1.00000
     27      -5.3262      1.00000
     28      -5.2439      1.00000
     29      -5.2328      1.00000
     30      -5.1837      1.00000
     31      -5.0299      1.00000
     32      -5.0201      1.00000
     33      -4.9593      1.00000
     34      -4.9176      1.00000
     35      -4.8835      1.00000
     36      -4.8468      1.00000
     37      -4.7752      1.00000
     38      -4.7676      1.00000
     39      -4.7494      1.00000
     40      -4.7001      1.00000
     41      -4.6886      1.00000
     42      -4.6658      1.00000
     43      -4.5795      1.00000
     44      -4.5164      1.00000
     45      -4.4699      1.00000
     46      -4.3667      1.00000
     47      -4.3188      1.00000
     48      -4.2144      0.00000
     49      -4.1227      0.00000
     50      -4.0275      0.00000
     51      -3.8930      0.00000
     52      -3.8129      0.00000
     53      -3.7701      0.00000
     54      -3.6609      0.00000
     55      -2.6288      0.00000
     56      -1.9966      0.00000
     57      -1.8005      0.00000
     58      -1.7327      0.00000
     59      -1.6297      0.00000
     60      -1.2382      0.00000
     61      -0.7047      0.00000
     62      -0.2658      0.00000
     63      -0.1260      0.00000
     64      -0.0165      0.00000
     65       0.1668      0.00000
     66       0.2129      0.00000
     67       0.2999      0.00000
     68       0.4006      0.00000


--------------------------------------------------------------------------------------------------------


 soft charge-density along one line, spin component           1
         0         1         2         3         4         5         6         7         8         9
 total charge-density along one line
 
 soft charge-density along one line, spin component           2
         0         1         2         3         4         5         6         7         8         9
 total charge-density along one line
 
 pseudopotential strength for first ion, spin component:           1
 -8.465  -0.035  -0.019  -0.063  -0.023  -8.438  -0.033  -0.018
 -0.035  -8.335  -0.025   0.013   0.007  -0.033  -8.313  -0.024
 -0.019  -0.025  -8.309  -0.001  -0.021  -0.018  -0.024  -8.288
 -0.063   0.013  -0.001  -8.373  -0.017  -0.060   0.012  -0.001
 -0.023   0.007  -0.021  -0.017  -8.474  -0.022   0.006  -0.020
 -8.438  -0.033  -0.018  -0.060  -0.022  -8.388  -0.032  -0.017
 -0.033  -8.313  -0.024   0.012   0.006  -0.032  -8.269  -0.023
 -0.018  -0.024  -8.288  -0.001  -0.020  -0.017  -0.023  -8.246
 -0.060   0.012  -0.001  -8.350  -0.016  -0.058   0.012  -0.001
 -0.022   0.006  -0.020  -0.016  -8.446  -0.021   0.006  -0.019
 -0.009   0.016  -0.035   0.013   0.000  -0.009   0.016  -0.034
 -0.015   0.027  -0.059   0.022   0.000  -0.015   0.027  -0.058
 -0.025  -0.009  -0.008   0.001  -0.015  -0.024  -0.009  -0.008
  0.001   0.017  -0.011  -0.027   0.001   0.001   0.016  -0.011
  0.016   0.001   0.015  -0.008  -0.027   0.016   0.001   0.014
 -0.027  -0.011  -0.009   0.001  -0.017  -0.026  -0.011  -0.009
  0.001   0.019  -0.013  -0.029   0.001   0.001   0.019  -0.013
  0.019   0.001   0.016  -0.009  -0.029   0.018   0.001   0.015
 pseudopotential strength for first ion, spin component:           2
 -8.303  -0.022  -0.025  -0.018  -0.003  -8.283  -0.021  -0.024
 -0.022  -8.229  -0.011   0.027   0.022  -0.021  -8.212  -0.011
 -0.025  -0.011  -8.190  -0.012   0.006  -0.024  -0.011  -8.175
 -0.018   0.027  -0.012  -8.219  -0.020  -0.017   0.026  -0.011
 -0.003   0.022   0.006  -0.020  -8.287  -0.003   0.021   0.006
 -8.283  -0.021  -0.024  -0.017  -0.003  -8.240  -0.020  -0.022
 -0.021  -8.212  -0.011   0.026   0.021  -0.020  -8.173  -0.010
 -0.024  -0.011  -8.175  -0.011   0.006  -0.022  -0.010  -8.137
 -0.017   0.026  -0.011  -8.203  -0.019  -0.016   0.025  -0.011
 -0.003   0.021   0.006  -0.019  -8.267  -0.003   0.020   0.005
 -0.017   0.007  -0.018   0.010   0.004  -0.017   0.006  -0.018
 -0.029   0.011  -0.030   0.017   0.007  -0.028   0.011  -0.030
 -0.028  -0.010  -0.009   0.001  -0.017  -0.027  -0.010  -0.009
  0.001   0.017  -0.011  -0.030   0.001   0.001   0.016  -0.011
  0.015   0.001   0.016  -0.008  -0.029   0.015   0.001   0.015
 -0.031  -0.012  -0.011   0.001  -0.020  -0.030  -0.011  -0.010
  0.001   0.019  -0.013  -0.033   0.001   0.001   0.019  -0.012
  0.017   0.001   0.017  -0.010  -0.032   0.017   0.001   0.016
 total augmentation occupancy for first ion, spin component:           1
  1.745  -0.072   0.246  -0.184  -0.200  -0.623  -0.033  -0.327  -0.011   0.043   0.762  -0.128  -0.112   0.002   0.117  -0.019
 -0.072   1.514  -0.083  -0.043  -0.103  -0.023  -0.047   0.048   0.084   0.048  -0.228   0.073   0.010   0.011  -0.015  -0.009
  0.246  -0.083   1.775   0.021  -0.228  -0.335   0.044  -0.261  -0.008   0.205   0.837  -0.194  -0.052  -0.012   0.126  -0.005
 -0.184  -0.043   0.021   1.655   0.153  -0.003   0.081  -0.003  -0.351  -0.231  -0.526   0.105   0.003  -0.075  -0.079   0.004
 -0.200  -0.103  -0.228   0.153   1.786   0.044   0.043   0.202  -0.229  -0.522  -0.376   0.063  -0.006  -0.030  -0.124  -0.015
 -0.623  -0.023  -0.335  -0.003   0.044   1.305   0.078   0.417   0.123   0.067  -0.459   0.038   0.237   0.021  -0.131  -0.030
 -0.033  -0.047   0.044   0.081   0.043   0.078   0.467  -0.037  -0.105  -0.019   0.169  -0.011   0.016  -0.039   0.035  -0.005
 -0.327   0.048  -0.261  -0.003   0.202   0.417  -0.037   0.673   0.004  -0.214  -0.540   0.042   0.089   0.020  -0.180  -0.011
 -0.011   0.084  -0.008  -0.351  -0.229   0.123  -0.105   0.004   0.879   0.313   0.367  -0.040   0.021   0.165   0.113  -0.003
  0.043   0.048   0.205  -0.231  -0.522   0.067  -0.019  -0.214   0.313   1.054   0.284  -0.044   0.072   0.039   0.200  -0.012
  0.762  -0.228   0.837  -0.526  -0.376  -0.459   0.169  -0.540   0.367   0.284   1.510  -0.208  -0.112   0.063   0.274   0.001
 -0.128   0.073  -0.194   0.105   0.063   0.038  -0.011   0.042  -0.040  -0.044  -0.208   0.042   0.009  -0.008  -0.030   0.002
 -0.112   0.010  -0.052   0.003  -0.006   0.237   0.016   0.089   0.021   0.072  -0.112   0.009   0.057   0.005  -0.019  -0.007
  0.002   0.011  -0.012  -0.075  -0.030   0.021  -0.039   0.020   0.165   0.039   0.063  -0.008   0.005   0.035   0.015  -0.000
  0.117  -0.015   0.126  -0.079  -0.124  -0.131   0.035  -0.180   0.113   0.200   0.274  -0.030  -0.019   0.015   0.088   0.001
 -0.019  -0.009  -0.005   0.004  -0.015  -0.030  -0.005  -0.011  -0.003  -0.012   0.001   0.002  -0.007  -0.000   0.001   0.002
  0.003   0.019  -0.013  -0.032   0.004  -0.002   0.007  -0.002  -0.022  -0.003  -0.004   0.001  -0.000  -0.004  -0.002  -0.000
  0.010   0.001   0.012  -0.003  -0.028   0.014  -0.002   0.019  -0.012  -0.023  -0.009  -0.002   0.002  -0.002  -0.009  -0.000
 total augmentation occupancy for first ion, spin component:           2
  0.412   0.058  -0.030   0.221   0.136  -0.164  -0.017   0.004  -0.084  -0.069  -0.116   0.009  -0.019  -0.009  -0.013  -0.009
  0.058   0.088   0.056   0.078   0.056  -0.021  -0.028  -0.018  -0.030  -0.024   0.018   0.020  -0.001  -0.006   0.002  -0.002
 -0.030   0.056   0.110  -0.028   0.122   0.012  -0.019  -0.035   0.012  -0.048   0.103  -0.039  -0.007   0.006   0.001  -0.002
  0.221   0.078  -0.028   0.243   0.053  -0.096  -0.027   0.004  -0.077  -0.035  -0.079   0.006  -0.012  -0.012  -0.006  -0.004
  0.136   0.056   0.122   0.053   0.518  -0.069  -0.020  -0.042  -0.039  -0.210   0.143  -0.012  -0.025  -0.002  -0.018  -0.007
 -0.164  -0.021   0.012  -0.096  -0.069   0.028  -0.003   0.005   0.031   0.030   0.027   0.001   0.003   0.003   0.006   0.003
 -0.017  -0.028  -0.019  -0.027  -0.020  -0.003  -0.014   0.006   0.002   0.004  -0.022   0.007  -0.001   0.002  -0.002   0.001
  0.004  -0.018  -0.035   0.004  -0.042   0.005   0.006  -0.005  -0.005   0.006   0.002  -0.005   0.002  -0.002   0.002   0.000
 -0.084  -0.030   0.012  -0.077  -0.039   0.031   0.002  -0.005   0.005   0.013   0.015  -0.002   0.004  -0.001   0.002   0.002
 -0.069  -0.024  -0.048  -0.035  -0.210   0.030   0.004   0.006   0.013   0.052  -0.050   0.007   0.009   0.001   0.004   0.003
 -0.116   0.018   0.103  -0.079   0.143   0.027  -0.022   0.002   0.015  -0.050   0.056  -0.011  -0.004   0.008  -0.012   0.000
  0.009   0.020  -0.039   0.006  -0.012   0.001   0.007  -0.005  -0.002   0.007  -0.011   0.007   0.001  -0.001   0.002   0.000
 -0.019  -0.001  -0.007  -0.012  -0.025   0.003  -0.001   0.002   0.004   0.009  -0.004   0.001   0.001   0.000   0.001   0.001
 -0.009  -0.006   0.006  -0.012  -0.002   0.003   0.002  -0.002  -0.001   0.001   0.008  -0.001   0.000  -0.000   0.001   0.000
 -0.013   0.002   0.001  -0.006  -0.018   0.006  -0.002   0.002   0.002   0.004  -0.012   0.002   0.001   0.001  -0.001   0.000
 -0.009  -0.002  -0.002  -0.004  -0.007   0.003   0.001   0.000   0.002   0.003   0.000   0.000   0.001   0.000   0.000   0.000
 -0.003  -0.001   0.000  -0.004  -0.001   0.001   0.000   0.000   0.001   0.000   0.001   0.001   0.000   0.000   0.000   0.000
  0.001  -0.001  -0.000   0.000  -0.008  -0.000   0.000   0.001   0.000   0.003  -0.002  -0.001   0.000  -0.000   0.000   0.000


------------------------ aborting loop because EDIFF is reached ----------------------------------------


    CHARGE:  cpu time    0.04: real time    0.03
    FORLOC:  cpu time    0.00: real time    0.01
    FORNL :  cpu time    0.20: real time    0.20
    STRESS:  cpu time    0.25: real time    0.25
    FORCOR:  cpu time    0.17: real time    0.17
    FORHAR:  cpu time    0.02: real time    0.02
    MIXING:  cpu time    0.01: real time    0.01
    OFIELD:  cpu time    0.00: real time    0.00

  FORCE on cell =-STRESS in cart. coord.  units (eV):
  Direction    XX          YY          ZZ          XY          YZ          ZX
  --------------------------------------------------------------------------------------
  Alpha Z    10.32874    10.32874    10.32874
  Ewald    3940.76199  3012.35769  1647.44452  -479.23638   856.68449  -189.18619
  Hartree  6367.51258  5638.92816  4454.89087  -423.17658   730.34214  -187.94094
  E(xc)    -521.30156  -522.35602  -523.32074    -0.00610     0.30045     0.04416
  Local  -11824.75599-10176.92072 -7636.29650   901.13366 -1588.27113   378.22775
  n-local   -79.77621   -85.02836   -90.84501     1.21141     4.35338    -0.76419
  augment   736.58210   741.76494   747.74729    -0.40282    -1.31346     0.12172
  Kinetic  1367.91409  1378.11319  1386.98436     0.45599    -2.04268    -0.55636
  Fock        0.00000     0.00000     0.00000     0.00000     0.00000     0.00000
  -------------------------------------------------------------------------------------
  Total      -2.73426    -2.81237    -3.06647    -0.02081     0.05318    -0.05404
  in kB      -0.69425    -0.71408    -0.77860    -0.00528     0.01350    -0.01372
  external pressure =       -0.73 kB  Pullay stress =        0.00 kB


 VOLUME and BASIS-vectors are now :
 -----------------------------------------------------------------------------
  energy-cutoff  :      250.93
  volume of cell :     6310.08
      direct lattice vectors                 reciprocal lattice vectors
    18.478995674  0.000000000  0.000000000     0.054115495  0.000000000  0.000000000
     0.000000000 18.478995674  0.000000000     0.000000000  0.054115495  0.000000000
     0.000000000  0.000000000 18.478995674     0.000000000  0.000000000  0.054115495

  length of vectors
    18.478995674 18.478995674 18.478995674     0.054115495  0.054115495  0.054115495


 FORCES acting on ions
    electron-ion (+dipol)            ewald-force                    non-local-force                 convergence-correction
 -----------------------------------------------------------------------------------------------
   0.648E+03 -.313E+03 0.179E+03   -.641E+03 0.311E+03 -.178E+03   -.660E+01 0.291E+01 -.149E+01   -.150E-01 0.837E-02 0.455E-01
   0.491E+03 0.103E+03 0.410E+03   -.490E+03 -.103E+03 -.407E+03   -.871E+00 -.278E+00 -.296E+01   0.609E-01 -.419E-02 0.272E-01
   0.210E+03 -.727E+03 -.660E+02   -.209E+03 0.722E+03 0.664E+02   -.157E+01 0.512E+01 -.403E+00   0.546E-01 -.186E-02 -.224E-01
   -.487E+03 -.384E+03 0.229E+03   0.485E+03 0.381E+03 -.227E+03   0.140E+01 0.233E+01 -.230E+01   0.252E-02 -.105E-01 -.732E-02
   -.190E+02 0.222E+03 0.799E+03   0.207E+02 -.221E+03 -.792E+03   -.168E+01 -.705E+00 -.724E+01   0.361E-01 0.380E-03 0.189E-02
   -.449E+03 -.481E+03 -.484E+03   0.444E+03 0.477E+03 0.479E+03   0.494E+01 0.401E+01 0.477E+01   0.150E-01 -.466E-02 -.712E-02
   -.745E+03 0.222E+03 0.193E+03   0.737E+03 -.220E+03 -.192E+03   0.790E+01 -.171E+01 -.641E+00   0.174E-02 0.638E-02 0.377E-01
   0.784E+02 0.676E+02 -.765E+03   -.778E+02 -.662E+02 0.760E+03   -.609E+00 -.137E+01 0.515E+01   0.285E-01 -.127E-01 -.362E-01
   -.241E+03 0.716E+03 -.181E+03   0.240E+03 -.712E+03 0.178E+03   0.143E+01 -.443E+01 0.256E+01   0.370E-01 -.182E-02 0.170E-01
   0.514E+03 0.573E+03 -.315E+03   -.509E+03 -.568E+03 0.312E+03   -.512E+01 -.506E+01 0.302E+01   0.373E-01 0.124E-01 -.126E-02
 -----------------------------------------------------------------------------------------------
   0.483E+00 -.759E+00 -.508E+00   0.000E+00 -.227E-12 0.568E-13   -.783E+00 0.821E+00 0.445E+00   0.259E+00 -.821E-02 0.550E-01
 
 
 POSITION                                       TOTAL-FORCE (eV/Angst)
 -----------------------------------------------------------------------------------
      6.20236     10.79780      8.55953        -0.023789     -0.012762      0.047136
      7.85967      8.94071      8.42630         0.006279      0.013346     -0.024527
      8.43654     11.39471      9.64818         0.021952      0.004236     -0.008635
     10.48504      9.87331      8.80646         0.005464     -0.010358     -0.003791
      9.82115      8.12476      6.88955         0.026555     -0.008946      0.007262
     10.61852     11.20604     11.00372        -0.021836     -0.010737     -0.006765
     12.09858      7.99284      8.07655        -0.026328      0.002709      0.015959
      8.97178      9.20209     10.98623         0.014957      0.027624     -0.002607
      9.94548      7.22757      9.32933         0.024659      0.000813     -0.025162
      7.51053      7.18508     10.22351        -0.027913     -0.005925      0.001129
 -----------------------------------------------------------------------------------
    total drift:                               -0.041387      0.052898     -0.008214


--------------------------------------------------------------------------------------------------------



  FREE ENERGIE OF THE ION-ELECTRON SYSTEM (eV)
  ---------------------------------------------------
  free  energy   TOTEN  =       -35.72585778 eV

  energy  without entropy=      -35.72585778  energy(sigma->0) =      -35.72585778
 
 d Force = 0.1114606E-03[-0.104E-04, 0.233E-03]  d Energy = 0.2297026E-03-0.118E-03
 d Force = 0.3322235E+00[ 0.331E+00, 0.334E+00]  d Ewald  = 0.3322240E+00-0.480E-06


--------------------------------------------------------------------------------------------------------


    POTLOK:  cpu time    0.18: real time    0.19


--------------------------------------------------------------------------------------------------------




--------------------------------------------------------------------------------------------------------


  
 reached required accuracy - stopping structural energy minimisation
     LOOP+:  cpu time    3.58: real time    6.97
    4ORBIT:  cpu time    0.00: real time    0.00

 total amount of memory used by VASP on root node    48839. kBytes
========================================================================

   base      :      30000. kBytes
   nonl-proj :       1083. kBytes
   fftplans  :       4479. kBytes
   grid      :      11298. kBytes
   one-center:         31. kBytes
   wavefun   :       1948. kBytes
 
  
  
 General timing and accounting informations for this job:
 ========================================================
  
                  Total CPU time used (sec):      538.342
                            User time (sec):      526.909
                          System time (sec):       11.433
                         Elapsed time (sec):      763.356
  
                   Maximum memory used (kb):       55724.
                   Average memory used (kb):           0.
  
                          Minor page faults:      1811532
                          Major page faults:            0
                 Voluntary context switches:        17516
