<?xml version="1.0" encoding="ISO-8859-1"?>
<modeling>
 <generator>
  <i name="program" type="string">vasp </i>
  <i name="version" type="string">5.3.5  </i>
  <i name="subversion" type="string">31Mar14 (build Feb 01 2018 12:10:03) gamma-only                       parallel </i>
  <i name="platform" type="string">LinuxIFC </i>
  <i name="date" type="string">2019 03 23 </i>
  <i name="time" type="string">01:58:14 </i>
 </generator>
 <incar>
  <i type="string" name="PREC">normal</i>
  <i type="int" name="ISPIN">     2</i>
  <i type="int" name="IBRION">     2</i>
  <i type="int" name="NSW">  1000</i>
  <i type="int" name="ISIF">     2</i>
  <i name="POTIM">      0.10000000</i>
  <i type="logical" name="LPLANE"> T  </i>
  <i type="int" name="ISMEAR">     0</i>
  <i name="SIGMA">      0.00010000</i>
  <i type="logical" name="LWAVE"> F  </i>
  <i type="logical" name="LCHARG"> F  </i>
  <i type="logical" name="LVTOT"> F  </i>
  <i type="string" name="GGA"> PE</i>
 </incar>
 <kpoints>
  <varray name="kpointlist" >
   <v>       0.00000000       0.00000000       0.00000000 </v>
  </varray>
  <varray name="weights" >
   <v>       1.00000000 </v>
  </varray>
 </kpoints>
 <parameters>
  <separator name="general" >
   <i type="string" name="SYSTEM">unknown system</i>
   <i type="logical" name="LCOMPAT"> F  </i>
  </separator>
  <separator name="electronic" >
   <i type="string" name="PREC">normal</i>
   <i name="ENMAX">    249.84400000</i>
   <i name="ENAUG">    412.49600000</i>
   <i name="EDIFF">      0.00010000</i>
   <i type="int" name="IALGO">    38</i>
   <i type="int" name="IWAVPR">    11</i>
   <i type="int" name="NBANDS">   252</i>
   <i name="NELECT">    385.00000000</i>
   <i type="int" name="TURBO">     0</i>
   <i type="int" name="IRESTART">     0</i>
   <i type="int" name="NREBOOT">     0</i>
   <i type="int" name="NMIN">     0</i>
   <i name="EREF">      0.00000000</i>
   <separator name="electronic smearing" >
    <i type="int" name="ISMEAR">     0</i>
    <i name="SIGMA">      0.00010000</i>
    <i name="KSPACING">      0.50000000</i>
    <i type="logical" name="KGAMMA"> T  </i>
   </separator>
   <separator name="electronic projectors" >
    <i type="logical" name="LREAL"> F  </i>
    <v name="ROPT">      0.00000000</v>
    <i type="int" name="LMAXPAW">  -100</i>
    <i type="int" name="LMAXMIX">     2</i>
    <i type="logical" name="NLSPLINE"> F  </i>
   </separator>
   <separator name="electronic startup" >
    <i type="int" name="ISTART">     0</i>
    <i type="int" name="ICHARG">     2</i>
    <i type="int" name="INIWAV">     1</i>
   </separator>
   <separator name="electronic spin" >
    <i type="int" name="ISPIN">     2</i>
    <i type="logical" name="LNONCOLLINEAR"> F  </i>
    <v name="MAGMOM">      1.00000000      1.00000000      1.00000000      1.00000000      1.00000000      1.00000000      1.00000000      1.00000000      1.00000000      1.00000000      1.00000000      1.00000000      1.00000000      1.00000000      1.00000000      1.00000000      1.00000000      1.00000000      1.00000000      1.00000000
      1.00000000      1.00000000      1.00000000      1.00000000      1.00000000      1.00000000      1.00000000      1.00000000      1.00000000      1.00000000      1.00000000      1.00000000      1.00000000      1.00000000      1.00000000</v>
    <i name="NUPDOWN">     -1.00000000</i>
    <i type="logical" name="LSORBIT"> F  </i>
    <v name="SAXIS">      0.00000000      0.00000000      1.00000000</v>
    <i type="logical" name="LSPIRAL"> F  </i>
    <v name="QSPIRAL">      0.00000000      0.00000000      0.00000000</v>
    <i type="logical" name="LZEROZ"> F  </i>
   </separator>
   <separator name="electronic exchange-correlation" >
    <i type="logical" name="LASPH"> F  </i>
    <i type="logical" name="LMETAGGA"> F  </i>
   </separator>
   <separator name="electronic convergence" >
    <i type="int" name="NELM">    60</i>
    <i type="int" name="NELMDL">    -5</i>
    <i type="int" name="NELMIN">     2</i>
    <i name="ENINI">    249.84400000</i>
    <separator name="electronic convergence detail" >
     <i type="logical" name="LDIAG"> T  </i>
     <i type="logical" name="LSUBROT"> F  </i>
     <i name="WEIMIN">      0.00100000</i>
     <i name="EBREAK">      0.00000010</i>
     <i name="DEPER">      0.30000000</i>
     <i type="int" name="NRMM">     4</i>
     <i name="TIME">      0.40000000</i>
    </separator>
   </separator>
   <separator name="electronic mixer" >
    <i name="AMIX">      0.40000000</i>
    <i name="BMIX">      1.00000000</i>
    <i name="AMIN">      0.10000000</i>
    <i name="AMIX_MAG">      1.60000000</i>
    <i name="BMIX_MAG">      1.00000000</i>
    <separator name="electronic mixer details" >
     <i type="int" name="IMIX">     4</i>
     <i type="int" name="MAXMIX">   -45</i>
     <i name="WC">    100.00000000</i>
     <i type="int" name="INIMIX">     1</i>
     <i type="int" name="MIXPRE">     1</i>
     <i type="int" name="MREMOVE">     5</i>
    </separator>
   </separator>
   <separator name="electronic dipolcorrection" >
    <i type="logical" name="LDIPOL"> F  </i>
    <i type="logical" name="LMONO"> F  </i>
    <i type="int" name="IDIPOL">     0</i>
    <i name="EPSILON">      1.00000000</i>
    <v name="DIPOL">   -100.00000000   -100.00000000   -100.00000000</v>
    <i name="EFIELD">      0.00000000</i>
   </separator>
  </separator>
  <separator name="grids" >
   <i type="int" name="NGX">    90</i>
   <i type="int" name="NGY">    90</i>
   <i type="int" name="NGZ">    90</i>
   <i type="int" name="NGXF">   180</i>
   <i type="int" name="NGYF">   180</i>
   <i type="int" name="NGZF">   180</i>
   <i type="logical" name="ADDGRID"> F  </i>
  </separator>
  <separator name="ionic" >
   <i type="int" name="NSW">  1000</i>
   <i type="int" name="IBRION">     2</i>
   <i type="int" name="ISIF">     2</i>
   <i name="PSTRESS">      0.00000000</i>
   <i name="EDIFFG">      0.00100000</i>
   <i type="int" name="NFREE">     1</i>
   <i name="POTIM">      0.10000000</i>
   <i name="SMASS">     -3.00000000</i>
   <i name="SCALEE">      1.00000000</i>
  </separator>
  <separator name="ionic md" >
   <i name="TEBEG">      0.00010000</i>
   <i name="TEEND">      0.00010000</i>
   <i type="int" name="NBLOCK">     1</i>
   <i type="int" name="KBLOCK">  1000</i>
   <i type="int" name="NPACO">   256</i>
   <i name="APACO">     16.00000000</i>
  </separator>
  <separator name="symmetry" >
   <i type="int" name="ISYM">     2</i>
   <i name="SYMPREC">      0.00001000</i>
  </separator>
  <separator name="dos" >
   <i type="logical" name="LORBIT"> F  </i>
   <v name="RWIGS">     -1.00000000</v>
   <i type="int" name="NEDOS">   301</i>
   <i name="EMIN">     10.00000000</i>
   <i name="EMAX">    -10.00000000</i>
   <i name="EFERMI">      0.00000000</i>
  </separator>
  <separator name="writing" >
   <i type="int" name="NWRITE">     2</i>
   <i type="logical" name="LWAVE"> F  </i>
   <i type="logical" name="LCHARG"> F  </i>
   <i type="logical" name="LPARD"> F  </i>
   <i type="logical" name="LVTOT"> F  </i>
   <i type="logical" name="LVHAR"> F  </i>
   <i type="logical" name="LELF"> F  </i>
   <i type="logical" name="LOPTICS"> F  </i>
   <v name="STM">      0.00000000      0.00000000      0.00000000      0.00000000      0.00000000      0.00000000      0.00000000</v>
  </separator>
  <separator name="performance" >
   <i type="int" name="NPAR">     4</i>
   <i type="int" name="NSIM">     4</i>
   <i type="int" name="NBLK">    -1</i>
   <i type="logical" name="LPLANE"> T  </i>
   <i type="logical" name="LSCALAPACK"> T  </i>
   <i type="logical" name="LSCAAWARE"> F  </i>
   <i type="logical" name="LSCALU"> F  </i>
   <i type="logical" name="LASYNC"> F  </i>
   <i type="logical" name="LORBITALREAL"> F  </i>
  </separator>
  <separator name="miscellaneous" >
   <i type="int" name="IDIOT">     3</i>
   <i type="logical" name="LMUSIC"> F  </i>
   <v name="POMASS">    107.86800000</v>
   <v name="DARWINR">      0.00000000</v>
   <v name="DARWINV">      1.00000000</v>
   <i type="logical" name="LCORR"> T  </i>
  </separator>
  <i type="logical" name="GGA_COMPAT"> T  </i>
  <i type="logical" name="LBERRY"> F  </i>
  <i type="int" name="ICORELEVEL">     0</i>
  <i type="logical" name="LDAU"> F  </i>
  <i type="int" name="I_CONSTRAINED_M">     0</i>
  <separator name="electronic exchange-correlation" >
   <i type="string" name="GGA">PE</i>
   <i type="int" name="VOSKOWN">     0</i>
   <i type="logical" name="LHFCALC"> F  </i>
   <i type="string" name="PRECFOCK"></i>
   <i type="logical" name="LSYMGRAD"> F  </i>
   <i type="logical" name="LHFONE"> F  </i>
   <i type="logical" name="LRHFCALC"> F  </i>
   <i type="logical" name="LTHOMAS"> F  </i>
   <i type="logical" name="LMODELHF"> F  </i>
   <i name="ENCUT4O">     -1.00000000</i>
   <i type="int" name="EXXOEP">     0</i>
   <i type="int" name="FOURORBIT">     0</i>
   <i name="AEXX">      0.00000000</i>
   <i name="HFALPHA">      0.00000000</i>
   <i name="MCALPHA">      0.00000000</i>
   <i name="ALDAX">      1.00000000</i>
   <i name="AGGAX">      1.00000000</i>
   <i name="ALDAC">      1.00000000</i>
   <i name="AGGAC">      1.00000000</i>
   <i type="int" name="NKREDX">     1</i>
   <i type="int" name="NKREDY">     1</i>
   <i type="int" name="NKREDZ">     1</i>
   <i type="logical" name="SHIFTRED"> F  </i>
   <i type="logical" name="ODDONLY"> F  </i>
   <i type="logical" name="EVENONLY"> F  </i>
   <i type="int" name="LMAXFOCK">     0</i>
   <i type="int" name="NMAXFOCKAE">     0</i>
   <i type="logical" name="LFOCKAEDFT"> F  </i>
   <i name="HFSCREEN">      0.00000000</i>
   <i name="HFSCREENC">      0.00000000</i>
   <i type="int" name="NBANDSGWLOW">     0</i>
  </separator>
  <separator name="vdW DFT" >
   <i type="logical" name="LUSE_VDW"> F  </i>
   <i name="Zab_VDW">     -0.84910000</i>
   <i name="PARAM1">      0.12340000</i>
   <i name="PARAM2">      1.00000000</i>
   <i name="PARAM3">      0.00000000</i>
  </separator>
  <separator name="model GW" >
   <i type="int" name="MODEL_GW">     0</i>
   <i name="MODEL_EPS0">    186.35691926</i>
   <i name="MODEL_ALPHA">      1.00000000</i>
  </separator>
  <separator name="linear response parameters" >
   <i type="logical" name="LEPSILON"> F  </i>
   <i type="logical" name="LRPA"> F  </i>
   <i type="logical" name="LNABLA"> F  </i>
   <i type="logical" name="LVEL"> F  </i>
   <i type="int" name="KINTER">     0</i>
   <i name="CSHIFT">      0.10000000</i>
   <i name="OMEGAMAX">     -1.00000000</i>
   <i name="DEG_THRESHOLD">      0.00200000</i>
  </separator>
  <separator name="orbital magnetization" >
   <i type="logical" name="NUCIND"> F  </i>
   <v name="MAGPOS">      0.00000000      0.00000000      0.00000000</v>
   <i type="logical" name="LNICSALL"> T  </i>
   <i type="logical" name="ORBITALMAG"> F  </i>
   <i type="logical" name="LMAGBLOCH"> F  </i>
   <i type="logical" name="LCHIMAG"> F  </i>
   <i type="logical" name="LGAUGE"> T  </i>
   <i type="int" name="MAGATOM">     0</i>
   <v name="MAGDIPOL">      0.00000000      0.00000000      0.00000000</v>
   <v name="AVECCONST">      0.00000000      0.00000000      0.00000000</v>
  </separator>
  <separator name="response functions" >
   <i type="logical" name="LADDER"> F  </i>
   <i type="logical" name="LFXC"> F  </i>
   <i type="logical" name="LHARTREE"> T  </i>
   <i type="int" name="IBSE">     0</i>
   <i type="logical" name="LTCTE"> F  </i>
   <i type="logical" name="LTETE"> F  </i>
   <i type="logical" name="LTRIPLET"> F  </i>
   <i type="logical" name="LFXCEPS"> F  </i>
   <i type="logical" name="LFXHEG"> F  </i>
   <i type="logical" name="L2ORDER"> F  </i>
   <i type="logical" name="LUSEW"> F  </i>
   <i name="ENCUTGW">     -2.00000000</i>
   <i name="ENCUTGWSOFT">     -2.00000000</i>
   <i name="ENCUTLF">     -1.00000000</i>
   <i type="int" name="LMAXMP2">    -1</i>
   <i name="SCISSOR">      0.00000000</i>
   <i type="int" name="NOMEGA">     0</i>
   <i type="int" name="NOMEGAR">     0</i>
   <i type="int" name="NBANDSGW">    -1</i>
   <i type="int" name="NBANDSO">    -1</i>
   <i type="int" name="NBANDSV">    -1</i>
   <i type="int" name="NELM">     1</i>
   <i type="int" name="DIM">     3</i>
   <i type="int" name="ANTIRES">     0</i>
   <i name="OMEGAMAX">    -30.00000000</i>
   <i name="OMEGAMIN">    -30.00000000</i>
   <i name="OMEGATL">   -200.00000000</i>
   <i type="int" name="OMEGAGRID">     0</i>
   <i name="CSHIFT">     -0.10000000</i>
   <i type="logical" name="SELFENERGY"> F  </i>
   <i type="logical" name="LSPECTRAL"> F  </i>
   <i type="logical" name="ODDONLYGW"> F  </i>
   <i type="logical" name="EVENONLYGW"> F  </i>
   <i type="int" name="NKREDLFX">     1</i>
   <i type="int" name="NKREDLFY">     1</i>
   <i type="int" name="NKREDLFZ">     1</i>
   <i type="int" name="MAXMEM">  1800</i>
   <i type="int" name="TELESCOPE">     0</i>
   <i type="int" name="TAUPAR">     1</i>
  </separator>
  <separator name="External order field" >
   <i name="OFIELD_KAPPA">      0.00000000</i>
   <v name="OFIELD_K">      0.00000000      0.00000000      0.00000000</v>
   <i name="OFIELD_Q6_NEAR">      0.00000000</i>
   <i name="OFIELD_Q6_FAR">      0.00000000</i>
   <i name="OFIELD_A">      0.00000000</i>
  </separator>
 </parameters>
 <atominfo>
  <atoms>      35 </atoms>
  <types>       1 </types>
  <array name="atoms" >
   <dimension dim="1">ion</dimension>
   <field type="string">element</field>
   <field type="int">atomtype</field>
   <set>
    <rc><c>Ag</c><c>   1</c></rc>
    <rc><c>Ag</c><c>   1</c></rc>
    <rc><c>Ag</c><c>   1</c></rc>
    <rc><c>Ag</c><c>   1</c></rc>
    <rc><c>Ag</c><c>   1</c></rc>
    <rc><c>Ag</c><c>   1</c></rc>
    <rc><c>Ag</c><c>   1</c></rc>
    <rc><c>Ag</c><c>   1</c></rc>
    <rc><c>Ag</c><c>   1</c></rc>
    <rc><c>Ag</c><c>   1</c></rc>
    <rc><c>Ag</c><c>   1</c></rc>
    <rc><c>Ag</c><c>   1</c></rc>
    <rc><c>Ag</c><c>   1</c></rc>
    <rc><c>Ag</c><c>   1</c></rc>
    <rc><c>Ag</c><c>   1</c></rc>
    <rc><c>Ag</c><c>   1</c></rc>
    <rc><c>Ag</c><c>   1</c></rc>
    <rc><c>Ag</c><c>   1</c></rc>
    <rc><c>Ag</c><c>   1</c></rc>
    <rc><c>Ag</c><c>   1</c></rc>
    <rc><c>Ag</c><c>   1</c></rc>
    <rc><c>Ag</c><c>   1</c></rc>
    <rc><c>Ag</c><c>   1</c></rc>
    <rc><c>Ag</c><c>   1</c></rc>
    <rc><c>Ag</c><c>   1</c></rc>
    <rc><c>Ag</c><c>   1</c></rc>
    <rc><c>Ag</c><c>   1</c></rc>
    <rc><c>Ag</c><c>   1</c></rc>
    <rc><c>Ag</c><c>   1</c></rc>
    <rc><c>Ag</c><c>   1</c></rc>
    <rc><c>Ag</c><c>   1</c></rc>
    <rc><c>Ag</c><c>   1</c></rc>
    <rc><c>Ag</c><c>   1</c></rc>
    <rc><c>Ag</c><c>   1</c></rc>
    <rc><c>Ag</c><c>   1</c></rc>
   </set>
  </array>
  <array name="atomtypes" >
   <dimension dim="1">type</dimension>
   <field type="int">atomspertype</field>
   <field type="string">element</field>
   <field>mass</field>
   <field>valence</field>
   <field type="string">pseudopotential</field>
   <set>
    <rc><c>  35</c><c>Ag</c><c>    107.86800000</c><c>     11.00000000</c><c>  PAW_PBE Ag 02Apr2005                  </c></rc>
   </set>
  </array>
 </atominfo>
 <structure name="initialpos" >
  <crystal>
   <varray name="basis" >
    <v>      22.15239936       0.00000000       0.00000000 </v>
    <v>       0.00000000      22.15239936       0.00000000 </v>
    <v>       0.00000000       0.00000000      22.15239936 </v>
   </varray>
   <i name="volume">  10870.82029037 </i>
   <varray name="rec_basis" >
    <v>       0.04514184       0.00000000       0.00000000 </v>
    <v>       0.00000000       0.04514184       0.00000000 </v>
    <v>       0.00000000       0.00000000       0.04514184 </v>
   </varray>
  </crystal>
  <varray name="positions" >
   <v>       0.69877911       0.52920616       0.63816141 </v>
   <v>       0.64700748       0.56888222       0.53176447 </v>
   <v>       0.65704780       0.43606925       0.55130279 </v>
   <v>       0.75388433       0.50392389       0.53211498 </v>
   <v>       0.60419929       0.60505302       0.42133562 </v>
   <v>       0.59814265       0.34716713       0.47194983 </v>
   <v>       0.68292805       0.50644686       0.42899790 </v>
   <v>       0.60193536       0.60989920       0.64248982 </v>
   <v>       0.61599518       0.41429313       0.37014257 </v>
   <v>       0.53143435       0.62828224       0.32387664 </v>
   <v>       0.59060999       0.47710371       0.67111110 </v>
   <v>       0.56555481       0.66029315       0.53374091 </v>
   <v>       0.53175416       0.51047535       0.35592606 </v>
   <v>       0.54876591       0.39573230       0.58124519 </v>
   <v>       0.53037301       0.53014581       0.57178419 </v>
   <v>       0.56614023       0.47362459       0.47192276 </v>
   <v>       0.49630894       0.39395806       0.39614355 </v>
   <v>       0.51586375       0.70424130       0.64646826 </v>
   <v>       0.48069861       0.31498628       0.49888511 </v>
   <v>       0.50784008       0.69098913       0.43001011 </v>
   <v>       0.48452253       0.57176899       0.46404775 </v>
   <v>       0.46721298       0.46136776       0.66497302 </v>
   <v>       0.47693905       0.58698118       0.67023930 </v>
   <v>       0.44638120       0.34451596       0.61857379 </v>
   <v>       0.44743836       0.43549968       0.51587709 </v>
   <v>       0.41545620       0.61255892       0.36262623 </v>
   <v>       0.44132553       0.65536737       0.55562887 </v>
   <v>       0.40928669       0.49172792       0.39503524 </v>
   <v>       0.38059405       0.37271202       0.42217278 </v>
   <v>       0.40311504       0.53726444       0.57959214 </v>
   <v>       0.38816390       0.70303175       0.45151042 </v>
   <v>       0.35578756       0.32677802       0.53373387 </v>
   <v>       0.35307417       0.42740980       0.60838692 </v>
   <v>       0.35794635       0.58594403       0.47185228 </v>
   <v>       0.32981528       0.46840904       0.49388541 </v>
  </varray>
 </structure>
 <calculation>
  <scstep>
   <time name="dav">    3.19    3.19</time>
   <time name="total">    3.44    3.46</time>
   <energy>
    <i name="alphaZ">     95.84908100 </i>
    <i name="ewald">  86300.25041963 </i>
    <i name="hartreedc">-121153.23948674 </i>
    <i name="XCdc">   -382.27054886 </i>
    <i name="pawpsdc">  35118.02623244 </i>
    <i name="pawaedc"> -33504.26131076 </i>
    <i name="eentropy">      0.00000000 </i>
    <i name="bandstr">    535.09697132 </i>
    <i name="atom">  36301.95205302 </i>
    <i name="e_fr_energy">   3311.40341105 </i>
    <i name="e_wo_entrp">   3311.40341105 </i>
    <i name="e_0_energy">   3311.40341105 </i>
   </energy>
  </scstep>
  <scstep>
   <time name="dav">    4.77    4.78</time>
   <time name="total">    4.78    4.78</time>
   <energy>
    <i name="e_fr_energy">    619.83970836 </i>
    <i name="e_wo_entrp">    619.83970836 </i>
    <i name="e_0_energy">    619.83970836 </i>
   </energy>
  </scstep>
  <scstep>
   <time name="dav">    3.92    3.93</time>
   <time name="total">    3.92    3.93</time>
   <energy>
    <i name="e_fr_energy">    -45.14709997 </i>
    <i name="e_wo_entrp">    -45.14709997 </i>
    <i name="e_0_energy">    -45.14709997 </i>
   </energy>
  </scstep>
  <scstep>
   <time name="dav">    3.36    3.36</time>
   <time name="total">    3.36    3.37</time>
   <energy>
    <i name="e_fr_energy">    -74.12311890 </i>
    <i name="e_wo_entrp">    -74.12311890 </i>
    <i name="e_0_energy">    -74.12311890 </i>
   </energy>
  </scstep>
  <scstep>
   <time name="dav">    3.44    3.44</time>
   <time name="total">    3.55    3.56</time>
   <energy>
    <i name="e_fr_energy">    -74.54330317 </i>
    <i name="e_wo_entrp">    -74.54330317 </i>
    <i name="e_0_energy">    -74.54330317 </i>
   </energy>
  </scstep>
  <scstep>
   <time name="dav">    3.17    3.17</time>
   <time name="total">    3.50    3.51</time>
   <energy>
    <i name="e_fr_energy">    -28.61517967 </i>
    <i name="e_wo_entrp">    -28.61517967 </i>
    <i name="e_0_energy">    -28.61517967 </i>
   </energy>
  </scstep>
  <scstep>
   <time name="dav">    3.33    3.33</time>
   <time name="total">    3.71    3.72</time>
   <energy>
    <i name="e_fr_energy">    -22.12947623 </i>
    <i name="e_wo_entrp">    -22.12947623 </i>
    <i name="e_0_energy">    -22.12947623 </i>
   </energy>
  </scstep>
  <scstep>
   <time name="dav">    3.36    3.36</time>
   <time name="total">    3.72    3.72</time>
   <energy>
    <i name="e_fr_energy">    -17.37081297 </i>
    <i name="e_wo_entrp">    -17.37081297 </i>
    <i name="e_0_energy">    -17.37081297 </i>
   </energy>
  </scstep>
  <scstep>
   <time name="dav">    3.35    3.35</time>
   <time name="total">    3.69    3.69</time>
   <energy>
    <i name="e_fr_energy">    -23.61595221 </i>
    <i name="e_wo_entrp">    -23.61595221 </i>
    <i name="e_0_energy">    -23.61595221 </i>
   </energy>
  </scstep>
  <scstep>
   <time name="dav">    3.37    3.37</time>
   <time name="total">    3.70    3.92</time>
   <energy>
    <i name="e_fr_energy">    -36.38409192 </i>
    <i name="e_wo_entrp">    -36.38409192 </i>
    <i name="e_0_energy">    -36.38409192 </i>
   </energy>
  </scstep>
  <scstep>
   <time name="dav">    3.24    3.24</time>
   <time name="total">    3.58    3.59</time>
   <energy>
    <i name="e_fr_energy">    -51.90179845 </i>
    <i name="e_wo_entrp">    -51.90179845 </i>
    <i name="e_0_energy">    -51.90179845 </i>
   </energy>
  </scstep>
  <scstep>
   <time name="dav">    3.45    3.45</time>
   <time name="total">    3.78    3.78</time>
   <energy>
    <i name="e_fr_energy">    -54.40016963 </i>
    <i name="e_wo_entrp">    -54.40016963 </i>
    <i name="e_0_energy">    -54.40016963 </i>
   </energy>
  </scstep>
  <scstep>
   <time name="dav">    3.30    3.30</time>
   <time name="total">    3.64    5.51</time>
   <energy>
    <i name="e_fr_energy">    -60.94643802 </i>
    <i name="e_wo_entrp">    -60.94643802 </i>
    <i name="e_0_energy">    -60.94643802 </i>
   </energy>
  </scstep>
  <scstep>
   <time name="dav">    3.31    3.31</time>
   <time name="total">    3.64    3.66</time>
   <energy>
    <i name="e_fr_energy">    -63.13675867 </i>
    <i name="e_wo_entrp">    -63.13675867 </i>
    <i name="e_0_energy">    -63.13675867 </i>
   </energy>
  </scstep>
  <scstep>
   <time name="dav">    3.30    3.31</time>
   <time name="total">    3.64    3.64</time>
   <energy>
    <i name="e_fr_energy">    -67.14895997 </i>
    <i name="e_wo_entrp">    -67.14895997 </i>
    <i name="e_0_energy">    -67.14895997 </i>
   </energy>
  </scstep>
  <scstep>
   <time name="dav">    3.25    3.25</time>
   <time name="total">    3.60    3.60</time>
   <energy>
    <i name="e_fr_energy">    -69.82080631 </i>
    <i name="e_wo_entrp">    -69.82080631 </i>
    <i name="e_0_energy">    -69.82080631 </i>
   </energy>
  </scstep>
  <scstep>
   <time name="dav">    3.31    3.32</time>
   <time name="total">    3.64    3.67</time>
   <energy>
    <i name="e_fr_energy">    -71.29421089 </i>
    <i name="e_wo_entrp">    -71.29421089 </i>
    <i name="e_0_energy">    -71.29421089 </i>
   </energy>
  </scstep>
  <scstep>
   <time name="dav">    3.33    3.33</time>
   <time name="total">    3.68    3.69</time>
   <energy>
    <i name="e_fr_energy">    -72.73840396 </i>
    <i name="e_wo_entrp">    -72.73840396 </i>
    <i name="e_0_energy">    -72.73840396 </i>
   </energy>
  </scstep>
  <scstep>
   <time name="dav">    3.39    3.39</time>
   <time name="total">    3.78    3.79</time>
   <energy>
    <i name="e_fr_energy">    -73.16340610 </i>
    <i name="e_wo_entrp">    -73.16340610 </i>
    <i name="e_0_energy">    -73.16340610 </i>
   </energy>
  </scstep>
  <scstep>
   <time name="dav">    3.32    3.33</time>
   <time name="total">    3.67    3.68</time>
   <energy>
    <i name="e_fr_energy">    -73.29113772 </i>
    <i name="e_wo_entrp">    -73.29113772 </i>
    <i name="e_0_energy">    -73.29113772 </i>
   </energy>
  </scstep>
  <scstep>
   <time name="dav">    3.34    3.35</time>
   <time name="total">    3.72    3.78</time>
   <energy>
    <i name="e_fr_energy">    -73.39834434 </i>
    <i name="e_wo_entrp">    -73.39834434 </i>
    <i name="e_0_energy">    -73.39834434 </i>
   </energy>
  </scstep>
  <scstep>
   <time name="dav">    2.77    2.77</time>
   <time name="total">    3.11    4.65</time>
   <energy>
    <i name="e_fr_energy">    -73.41042401 </i>
    <i name="e_wo_entrp">    -73.41042401 </i>
    <i name="e_0_energy">    -73.41042401 </i>
   </energy>
  </scstep>
  <scstep>
   <time name="dav">    2.56    2.56</time>
   <time name="total">    2.91    2.91</time>
   <energy>
    <i name="e_fr_energy">    -73.42347334 </i>
    <i name="e_wo_entrp">    -73.42347334 </i>
    <i name="e_0_energy">    -73.42347334 </i>
   </energy>
  </scstep>
  <scstep>
   <time name="dav">    2.54    2.55</time>
   <time name="total">    2.89    2.98</time>
   <energy>
    <i name="e_fr_energy">    -73.42980027 </i>
    <i name="e_wo_entrp">    -73.42980027 </i>
    <i name="e_0_energy">    -73.42980027 </i>
   </energy>
  </scstep>
  <scstep>
   <time name="dav">    2.53    2.54</time>
   <time name="total">    2.88    2.89</time>
   <energy>
    <i name="e_fr_energy">    -73.43365952 </i>
    <i name="e_wo_entrp">    -73.43365952 </i>
    <i name="e_0_energy">    -73.43365952 </i>
   </energy>
  </scstep>
  <scstep>
   <time name="dav">    2.46    2.46</time>
   <time name="total">    2.80    2.81</time>
   <energy>
    <i name="e_fr_energy">    -73.43625862 </i>
    <i name="e_wo_entrp">    -73.43625862 </i>
    <i name="e_0_energy">    -73.43625862 </i>
   </energy>
  </scstep>
  <scstep>
   <time name="dav">    2.49    2.49</time>
   <time name="total">    2.84    2.85</time>
   <energy>
    <i name="e_fr_energy">    -73.43736709 </i>
    <i name="e_wo_entrp">    -73.43736709 </i>
    <i name="e_0_energy">    -73.43736709 </i>
   </energy>
  </scstep>
  <scstep>
   <time name="dav">    2.50    2.50</time>
   <time name="total">    2.86    3.15</time>
   <energy>
    <i name="e_fr_energy">    -73.43760542 </i>
    <i name="e_wo_entrp">    -73.43760542 </i>
    <i name="e_0_energy">    -73.43760542 </i>
   </energy>
  </scstep>
  <scstep>
   <time name="dav">    2.46    2.46</time>
   <time name="total">    2.68    3.92</time>
   <energy>
    <i name="alphaZ">     95.84908100 </i>
    <i name="ewald">  86300.25041963 </i>
    <i name="hartreedc">-121108.02197474 </i>
    <i name="XCdc">   -395.84682137 </i>
    <i name="pawpsdc">  38000.72011587 </i>
    <i name="pawaedc"> -36452.91956208 </i>
    <i name="eentropy">      0.00000000 </i>
    <i name="bandstr">  -2815.42093239 </i>
    <i name="atom">  36301.95205302 </i>
    <i name="e_fr_energy">    -73.43762106 </i>
    <i name="e_wo_entrp">    -73.43762106 </i>
    <i name="e_0_energy">    -73.43762106 </i>
   </energy>
  </scstep>
  <structure>
   <crystal>
    <varray name="basis" >
     <v>      22.15239936       0.00000000       0.00000000 </v>
     <v>       0.00000000      22.15239936       0.00000000 </v>
     <v>       0.00000000       0.00000000      22.15239936 </v>
    </varray>
    <i name="volume">  10870.82029037 </i>
    <varray name="rec_basis" >
     <v>       0.04514184       0.00000000       0.00000000 </v>
     <v>       0.00000000       0.04514184       0.00000000 </v>
     <v>       0.00000000       0.00000000       0.04514184 </v>
    </varray>
   </crystal>
   <varray name="positions" >
    <v>       0.69877911       0.52920616       0.63816141 </v>
    <v>       0.64700748       0.56888222       0.53176447 </v>
    <v>       0.65704780       0.43606925       0.55130279 </v>
    <v>       0.75388433       0.50392389       0.53211498 </v>
    <v>       0.60419929       0.60505302       0.42133562 </v>
    <v>       0.59814265       0.34716713       0.47194983 </v>
    <v>       0.68292805       0.50644686       0.42899790 </v>
    <v>       0.60193536       0.60989920       0.64248982 </v>
    <v>       0.61599518       0.41429313       0.37014257 </v>
    <v>       0.53143435       0.62828224       0.32387664 </v>
    <v>       0.59060999       0.47710371       0.67111110 </v>
    <v>       0.56555481       0.66029315       0.53374091 </v>
    <v>       0.53175416       0.51047535       0.35592606 </v>
    <v>       0.54876591       0.39573230       0.58124519 </v>
    <v>       0.53037301       0.53014581       0.57178419 </v>
    <v>       0.56614023       0.47362459       0.47192276 </v>
    <v>       0.49630894       0.39395806       0.39614355 </v>
    <v>       0.51586375       0.70424130       0.64646826 </v>
    <v>       0.48069861       0.31498628       0.49888511 </v>
    <v>       0.50784008       0.69098913       0.43001011 </v>
    <v>       0.48452253       0.57176899       0.46404775 </v>
    <v>       0.46721298       0.46136776       0.66497302 </v>
    <v>       0.47693905       0.58698118       0.67023930 </v>
    <v>       0.44638120       0.34451596       0.61857379 </v>
    <v>       0.44743836       0.43549968       0.51587709 </v>
    <v>       0.41545620       0.61255892       0.36262623 </v>
    <v>       0.44132553       0.65536737       0.55562887 </v>
    <v>       0.40928669       0.49172792       0.39503524 </v>
    <v>       0.38059405       0.37271202       0.42217278 </v>
    <v>       0.40311504       0.53726444       0.57959214 </v>
    <v>       0.38816390       0.70303175       0.45151042 </v>
    <v>       0.35578756       0.32677802       0.53373387 </v>
    <v>       0.35307417       0.42740980       0.60838692 </v>
    <v>       0.35794635       0.58594403       0.47185228 </v>
    <v>       0.32981528       0.46840904       0.49388541 </v>
   </varray>
  </structure>
  <varray name="forces" >
   <v>      -0.02239959      -0.10698428       0.18459228 </v>
   <v>       0.35801099      -0.12685608       0.03213339 </v>
   <v>       0.21312951       0.02573404       0.15346958 </v>
   <v>       0.55275180       0.17057839      -0.18776905 </v>
   <v>      -0.01799394      -0.01046477      -0.11063503 </v>
   <v>      -0.03661329       0.05895290       0.19191864 </v>
   <v>      -0.09345441      -0.07581109      -0.07998675 </v>
   <v>       0.01572274       0.03458337       0.34462337 </v>
   <v>       0.04891422       0.23114877      -0.13994280 </v>
   <v>       0.12217539       0.22668751      -0.13858999 </v>
   <v>       0.11292799       0.03933164      -0.13302530 </v>
   <v>      -0.07900659       0.25578322       0.14654427 </v>
   <v>       0.07621287       0.00672399      -0.02896748 </v>
   <v>       0.00924251      -0.19558083       0.19116380 </v>
   <v>      -0.14480832       0.02081376       0.47655093 </v>
   <v>       0.20516241      -0.31310374      -0.44073982 </v>
   <v>       0.27216631      -0.05566228       0.08142827 </v>
   <v>       0.06806652      -0.08082050      -0.26112541 </v>
   <v>      -0.15516749      -0.13384967      -0.03980127 </v>
   <v>      -0.05518663       0.16059181      -0.15938113 </v>
   <v>      -0.09779294       0.00300191      -0.08433715 </v>
   <v>      -0.13868708      -0.20116713      -0.19471434 </v>
   <v>       0.06648216       0.14665546      -0.10500992 </v>
   <v>      -0.13656890      -0.22032129       0.20202167 </v>
   <v>      -0.00408158       0.01450484      -0.09888262 </v>
   <v>      -0.01204270       0.22370967       0.04778915 </v>
   <v>      -0.01815005       0.05226290       0.01472225 </v>
   <v>      -0.03011734      -0.08122828       0.00998446 </v>
   <v>      -0.31874359      -0.16046914       0.10173258 </v>
   <v>      -0.30798817       0.17912062       0.00139047 </v>
   <v>      -0.01238833       0.09193627      -0.11898310 </v>
   <v>       0.00979768       0.06094406      -0.04270042 </v>
   <v>       0.02169401      -0.09314441       0.25322536 </v>
   <v>      -0.15082923       0.02478644       0.07541228 </v>
   <v>      -0.32043696      -0.17238808      -0.14411118 </v>
  </varray>
  <varray name="stress" >
   <v>      -0.60231097       0.16337936      -0.03648590 </v>
   <v>       0.16337935      -1.09253418      -0.40625271 </v>
   <v>      -0.03648590      -0.40625271      -1.43185265 </v>
  </varray>
  <energy>
   <i name="e_fr_energy">    -73.43762106 </i>
   <i name="e_wo_entrp">    -73.43762106 </i>
   <i name="e_0_energy">      0.00000000 </i>
  </energy>
  <time name="totalsc">  106.22  111.78</time>
 </calculation>
 <calculation>
  <scstep>
   <time name="dav">    3.32    3.32</time>
   <time name="total">    3.66    3.67</time>
   <energy>
    <i name="alphaZ">     95.84908100 </i>
    <i name="ewald">  86242.71968152 </i>
    <i name="hartreedc">-121050.72818551 </i>
    <i name="XCdc">   -395.90288100 </i>
    <i name="pawpsdc">  38000.72202578 </i>
    <i name="pawaedc"> -36452.92217279 </i>
    <i name="eentropy">      0.00000000 </i>
    <i name="bandstr">  -2815.15367362 </i>
    <i name="atom">  36301.95205302 </i>
    <i name="e_fr_energy">    -73.46407160 </i>
    <i name="e_wo_entrp">    -73.46407160 </i>
    <i name="e_0_energy">    -73.46407160 </i>
   </energy>
  </scstep>
  <scstep>
   <time name="dav">    3.28    3.29</time>
   <time name="total">    3.63    5.62</time>
   <energy>
    <i name="e_fr_energy">    -73.46494761 </i>
    <i name="e_wo_entrp">    -73.46494761 </i>
    <i name="e_0_energy">    -73.46494761 </i>
   </energy>
  </scstep>
  <scstep>
   <time name="dav">    2.37    2.38</time>
   <time name="total">    2.61    2.63</time>
   <energy>
    <i name="alphaZ">     95.84908100 </i>
    <i name="ewald">  86242.71968152 </i>
    <i name="hartreedc">-121051.05370612 </i>
    <i name="XCdc">   -395.89568121 </i>
    <i name="pawpsdc">  37996.17647916 </i>
    <i name="pawaedc"> -36448.30120949 </i>
    <i name="eentropy">      0.00000000 </i>
    <i name="bandstr">  -2814.91164447 </i>
    <i name="atom">  36301.95205302 </i>
    <i name="e_fr_energy">    -73.46494660 </i>
    <i name="e_wo_entrp">    -73.46494660 </i>
    <i name="e_0_energy">    -73.46494660 </i>
   </energy>
  </scstep>
  <structure>
   <crystal>
    <varray name="basis" >
     <v>      22.15239936       0.00000000       0.00000000 </v>
     <v>       0.00000000      22.15239936       0.00000000 </v>
     <v>       0.00000000       0.00000000      22.15239936 </v>
    </varray>
    <i name="volume">  10870.82029037 </i>
    <varray name="rec_basis" >
     <v>       0.04514184       0.00000000       0.00000000 </v>
     <v>       0.00000000       0.04514184       0.00000000 </v>
     <v>       0.00000000       0.00000000       0.04514184 </v>
    </varray>
   </crystal>
   <varray name="positions" >
    <v>       0.69876936       0.52915957       0.63824181 </v>
    <v>       0.64716341       0.56882697       0.53177847 </v>
    <v>       0.65714063       0.43608046       0.55136963 </v>
    <v>       0.75412509       0.50399818       0.53203320 </v>
    <v>       0.60419146       0.60504846       0.42128743 </v>
    <v>       0.59812670       0.34719280       0.47203343 </v>
    <v>       0.68288735       0.50641384       0.42896306 </v>
    <v>       0.60194221       0.60991426       0.64263992 </v>
    <v>       0.61601648       0.41439381       0.37008162 </v>
    <v>       0.53148757       0.62838098       0.32381627 </v>
    <v>       0.59065917       0.47712084       0.67105316 </v>
    <v>       0.56552040       0.66040456       0.53380474 </v>
    <v>       0.53178736       0.51047828       0.35591344 </v>
    <v>       0.54876994       0.39564712       0.58132845 </v>
    <v>       0.53030994       0.53015487       0.57199175 </v>
    <v>       0.56622959       0.47348822       0.47173079 </v>
    <v>       0.49642748       0.39393381       0.39617901 </v>
    <v>       0.51589340       0.70420610       0.64635452 </v>
    <v>       0.48063103       0.31492799       0.49886778 </v>
    <v>       0.50781604       0.69105908       0.42994069 </v>
    <v>       0.48447993       0.57177030       0.46401101 </v>
    <v>       0.46715258       0.46128014       0.66488821 </v>
    <v>       0.47696801       0.58704505       0.67019356 </v>
    <v>       0.44632172       0.34442000       0.61866178 </v>
    <v>       0.44743658       0.43550599       0.51583402 </v>
    <v>       0.41545095       0.61265635       0.36264705 </v>
    <v>       0.44131762       0.65539013       0.55563529 </v>
    <v>       0.40927357       0.49169255       0.39503959 </v>
    <v>       0.38045522       0.37264212       0.42221709 </v>
    <v>       0.40298090       0.53734246       0.57959274 </v>
    <v>       0.38815851       0.70307180       0.45145860 </v>
    <v>       0.35579182       0.32680456       0.53371527 </v>
    <v>       0.35308361       0.42736923       0.60849721 </v>
    <v>       0.35788065       0.58595482       0.47188513 </v>
    <v>       0.32967571       0.46833396       0.49382264 </v>
   </varray>
  </structure>
  <varray name="forces" >
   <v>      -0.01008530      -0.10484150       0.16500802 </v>
   <v>       0.32190251      -0.10943634       0.03454909 </v>
   <v>       0.20576409       0.03254418       0.14689200 </v>
   <v>       0.51490373       0.16212553      -0.17269750 </v>
   <v>      -0.01961691      -0.00970196      -0.09337318 </v>
   <v>      -0.03373829       0.05737978       0.18128427 </v>
   <v>      -0.08037686      -0.07036340      -0.07251865 </v>
   <v>       0.02231260       0.03031148       0.32095619 </v>
   <v>       0.05429356       0.21159859      -0.14016277 </v>
   <v>       0.11466582       0.21379272      -0.13215994 </v>
   <v>       0.10192925       0.03243341      -0.12471716 </v>
   <v>      -0.06295986       0.22743524       0.13216910 </v>
   <v>       0.06744722       0.01868572      -0.03376742 </v>
   <v>       0.01085279      -0.18570331       0.17904782 </v>
   <v>      -0.12492107       0.00595972       0.40076517 </v>
   <v>       0.18140962      -0.27395063      -0.37024824 </v>
   <v>       0.23500642      -0.06091532       0.08241447 </v>
   <v>       0.06651809      -0.06943188      -0.24850615 </v>
   <v>      -0.14948336      -0.12566526      -0.03573869 </v>
   <v>      -0.04814241       0.14951890      -0.14911842 </v>
   <v>      -0.08313872      -0.00341942      -0.06860655 </v>
   <v>      -0.12875459      -0.18664425      -0.18647509 </v>
   <v>       0.05487515       0.13600085      -0.09551426 </v>
   <v>      -0.12910971      -0.21463459       0.19001869 </v>
   <v>      -0.00540548       0.01845820      -0.09198159 </v>
   <v>      -0.00781940       0.21143050       0.04784737 </v>
   <v>      -0.02281273       0.04960000       0.00719605 </v>
   <v>      -0.02770666      -0.07719053       0.01145212 </v>
   <v>      -0.28665744      -0.14680929       0.08688090 </v>
   <v>      -0.29788062       0.16371667       0.00148634 </v>
   <v>      -0.01352414       0.08728246      -0.11252929 </v>
   <v>       0.00684043       0.05851864      -0.03290982 </v>
   <v>       0.02004344      -0.08441805       0.23276371 </v>
   <v>      -0.14556207       0.02252025       0.06894758 </v>
   <v>      -0.30106910      -0.16618714      -0.12865419 </v>
  </varray>
  <varray name="stress" >
   <v>      -0.64937728       0.16503402      -0.03142889 </v>
   <v>       0.16503403      -1.13417141      -0.39985378 </v>
   <v>      -0.03142889      -0.39985379      -1.47517937 </v>
  </varray>
  <energy>
   <i name="e_fr_energy">    -73.46494660 </i>
   <i name="e_wo_entrp">    -73.46494660 </i>
   <i name="e_0_energy">      0.00000000 </i>
  </energy>
  <time name="totalsc">   15.40   17.48</time>
 </calculation>
 <calculation>
  <scstep>
   <time name="dav">    3.20    3.20</time>
   <time name="total">    3.53    3.54</time>
   <energy>
    <i name="alphaZ">     95.84908100 </i>
    <i name="ewald">  86070.61470236 </i>
    <i name="hartreedc">-120879.88734132 </i>
    <i name="XCdc">   -396.05786937 </i>
    <i name="pawpsdc">  37992.85043006 </i>
    <i name="pawaedc"> -36444.92619810 </i>
    <i name="eentropy">      0.00000000 </i>
    <i name="bandstr">  -2813.92295457 </i>
    <i name="atom">  36301.95205302 </i>
    <i name="e_fr_energy">    -73.52809692 </i>
    <i name="e_wo_entrp">    -73.52809692 </i>
    <i name="e_0_energy">    -73.52809692 </i>
   </energy>
  </scstep>
  <scstep>
   <time name="dav">    3.41    3.41</time>
   <time name="total">    3.74    4.57</time>
   <energy>
    <i name="e_fr_energy">    -73.53565911 </i>
    <i name="e_wo_entrp">    -73.53565911 </i>
    <i name="e_0_energy">    -73.53565911 </i>
   </energy>
  </scstep>
  <scstep>
   <time name="dav">    3.37    3.37</time>
   <time name="total">    3.71    4.42</time>
   <energy>
    <i name="e_fr_energy">    -73.53550322 </i>
    <i name="e_wo_entrp">    -73.53550322 </i>
    <i name="e_0_energy">    -73.53550322 </i>
   </energy>
  </scstep>
  <scstep>
   <time name="dav">    3.29    3.30</time>
   <time name="total">    3.66    3.68</time>
   <energy>
    <i name="e_fr_energy">    -73.53537165 </i>
    <i name="e_wo_entrp">    -73.53537165 </i>
    <i name="e_0_energy">    -73.53537165 </i>
   </energy>
  </scstep>
  <scstep>
   <time name="dav">    2.38    2.39</time>
   <time name="total">    2.61    2.62</time>
   <energy>
    <i name="alphaZ">     95.84908100 </i>
    <i name="ewald">  86070.61470236 </i>
    <i name="hartreedc">-120881.14295528 </i>
    <i name="XCdc">   -396.03001946 </i>
    <i name="pawpsdc">  37968.83776004 </i>
    <i name="pawaedc"> -36420.53038769 </i>
    <i name="eentropy">      0.00000000 </i>
    <i name="bandstr">  -2813.08560284 </i>
    <i name="atom">  36301.95205302 </i>
    <i name="e_fr_energy">    -73.53536885 </i>
    <i name="e_wo_entrp">    -73.53536885 </i>
    <i name="e_0_energy">    -73.53536885 </i>
   </energy>
  </scstep>
  <structure>
   <crystal>
    <varray name="basis" >
     <v>      22.15239936       0.00000000       0.00000000 </v>
     <v>       0.00000000      22.15239936       0.00000000 </v>
     <v>       0.00000000       0.00000000      22.15239936 </v>
    </varray>
    <i name="volume">  10870.82029037 </i>
    <varray name="rec_basis" >
     <v>       0.04514184       0.00000000       0.00000000 </v>
     <v>       0.00000000       0.04514184       0.00000000 </v>
     <v>       0.00000000       0.00000000       0.04514184 </v>
    </varray>
   </crystal>
   <varray name="positions" >
    <v>       0.69874009       0.52901977       0.63848300 </v>
    <v>       0.64763121       0.56866121       0.53182045 </v>
    <v>       0.65741912       0.43611408       0.55157017 </v>
    <v>       0.75484734       0.50422107       0.53178785 </v>
    <v>       0.60416794       0.60503479       0.42114287 </v>
    <v>       0.59807886       0.34726984       0.47228420 </v>
    <v>       0.68276523       0.50631478       0.42885855 </v>
    <v>       0.60196276       0.60995945       0.64309022 </v>
    <v>       0.61608039       0.41469584       0.36989876 </v>
    <v>       0.53164721       0.62867718       0.32363518 </v>
    <v>       0.59080673       0.47717223       0.67087934 </v>
    <v>       0.56541717       0.66073878       0.53399622 </v>
    <v>       0.53188694       0.51048707       0.35587559 </v>
    <v>       0.54878201       0.39539156       0.58157824 </v>
    <v>       0.53012073       0.53018207       0.57261444 </v>
    <v>       0.56649766       0.47307910       0.47115489 </v>
    <v>       0.49678311       0.39386108       0.39628541 </v>
    <v>       0.51598234       0.70410050       0.64601332 </v>
    <v>       0.48042828       0.31475309       0.49881577 </v>
    <v>       0.50774393       0.69126892       0.42973243 </v>
    <v>       0.48435215       0.57177422       0.46390081 </v>
    <v>       0.46697136       0.46101729       0.66463378 </v>
    <v>       0.47705488       0.58723668       0.67005635 </v>
    <v>       0.44614327       0.34413211       0.61892575 </v>
    <v>       0.44743125       0.43552495       0.51570482 </v>
    <v>       0.41543522       0.61294867       0.36270949 </v>
    <v>       0.44129390       0.65545842       0.55565452 </v>
    <v>       0.40923421       0.49158641       0.39505263 </v>
    <v>       0.38003873       0.37243245       0.42235002 </v>
    <v>       0.40257846       0.53757651       0.57959456 </v>
    <v>       0.38814232       0.70319192       0.45130313 </v>
    <v>       0.35580463       0.32688420       0.53365948 </v>
    <v>       0.35311196       0.42724752       0.60882809 </v>
    <v>       0.35768357       0.58598721       0.47198366 </v>
    <v>       0.32925701       0.46810871       0.49363433 </v>
   </varray>
  </structure>
  <varray name="forces" >
   <v>       0.02274246      -0.10617719       0.12383969 </v>
   <v>       0.24800312      -0.07033570       0.04240698 </v>
   <v>       0.19893860       0.05189959       0.13939896 </v>
   <v>       0.44524285       0.15145898      -0.14505623 </v>
   <v>      -0.02465286      -0.00830441      -0.05404548 </v>
   <v>      -0.02855398       0.05581924       0.17055902 </v>
   <v>      -0.04932954      -0.06057932      -0.05859524 </v>
   <v>       0.04132849       0.02039371       0.27903187 </v>
   <v>       0.07403606       0.17430327      -0.15325876 </v>
   <v>       0.10251901       0.19470348      -0.12347473 </v>
   <v>       0.08025845       0.01453572      -0.11115971 </v>
   <v>      -0.02476370       0.16706450       0.10196497 </v>
   <v>       0.04916632       0.05241238      -0.04950551 </v>
   <v>       0.01592608      -0.17126331       0.15921639 </v>
   <v>      -0.08104664      -0.03205933       0.22303218 </v>
   <v>       0.12873411      -0.18535711      -0.20393909 </v>
   <v>       0.15133927      -0.08101828       0.09138282 </v>
   <v>       0.06803658      -0.04267613      -0.23091890 </v>
   <v>      -0.14386493      -0.11218667      -0.02721475 </v>
   <v>      -0.03276056       0.13017130      -0.13270523 </v>
   <v>      -0.05106631      -0.02091272      -0.03240196 </v>
   <v>      -0.11040744      -0.16129532      -0.17544570 </v>
   <v>       0.02644683       0.11821291      -0.07535105 </v>
   <v>      -0.11736183      -0.21352945       0.17056963 </v>
   <v>      -0.00911664       0.03052751      -0.08149996 </v>
   <v>       0.00322477       0.19381160       0.05126200 </v>
   <v>      -0.03736307       0.04482390      -0.01218418 </v>
   <v>      -0.02343111      -0.07197227       0.01684786 </v>
   <v>      -0.22098888      -0.12046744       0.05265676 </v>
   <v>      -0.28888004       0.13260065       0.00210547 </v>
   <v>      -0.01724647       0.08006444      -0.10421981 </v>
   <v>      -0.00059452       0.05546013      -0.00766585 </v>
   <v>       0.01663050      -0.06705336       0.19428040 </v>
   <v>      -0.14084362       0.01768164       0.05724901 </v>
   <v>      -0.27030137      -0.16075695      -0.09716188 </v>
  </varray>
  <varray name="stress" >
   <v>      -0.76480793       0.16717108      -0.02065213 </v>
   <v>       0.16717108      -1.22962549      -0.38326612 </v>
   <v>      -0.02065212      -0.38326613      -1.57373916 </v>
  </varray>
  <energy>
   <i name="e_fr_energy">    -73.53536885 </i>
   <i name="e_wo_entrp">    -73.53536885 </i>
   <i name="e_0_energy">      0.00000000 </i>
  </energy>
  <time name="totalsc">   22.69   24.50</time>
 </calculation>
 <calculation>
  <scstep>
   <time name="dav">    3.21    3.21</time>
   <time name="total">    3.54    3.56</time>
   <energy>
    <i name="alphaZ">     95.84908100 </i>
    <i name="ewald">  85728.57059442 </i>
    <i name="hartreedc">-120540.53167932 </i>
    <i name="XCdc">   -396.33706729 </i>
    <i name="pawpsdc">  37969.01582302 </i>
    <i name="pawaedc"> -36420.71200278 </i>
    <i name="eentropy">      0.00000000 </i>
    <i name="bandstr">  -2811.40583809 </i>
    <i name="atom">  36301.95205302 </i>
    <i name="e_fr_energy">    -73.59903603 </i>
    <i name="e_wo_entrp">    -73.59903603 </i>
    <i name="e_0_energy">    -73.59903603 </i>
   </energy>
  </scstep>
  <scstep>
   <time name="dav">    3.34    3.34</time>
   <time name="total">    3.68    3.69</time>
   <energy>
    <i name="e_fr_energy">    -73.62936862 </i>
    <i name="e_wo_entrp">    -73.62936862 </i>
    <i name="e_0_energy">    -73.62936862 </i>
   </energy>
  </scstep>
  <scstep>
   <time name="dav">    3.39    3.39</time>
   <time name="total">    3.72    3.73</time>
   <energy>
    <i name="e_fr_energy">    -73.62881164 </i>
    <i name="e_wo_entrp">    -73.62881164 </i>
    <i name="e_0_energy">    -73.62881164 </i>
   </energy>
  </scstep>
  <scstep>
   <time name="dav">    3.34    3.35</time>
   <time name="total">    3.68    3.69</time>
   <energy>
    <i name="e_fr_energy">    -73.62819262 </i>
    <i name="e_wo_entrp">    -73.62819262 </i>
    <i name="e_0_energy">    -73.62819262 </i>
   </energy>
  </scstep>
  <scstep>
   <time name="dav">    2.43    2.43</time>
   <time name="total">    2.66    2.66</time>
   <energy>
    <i name="alphaZ">     95.84908100 </i>
    <i name="ewald">  85728.57059442 </i>
    <i name="hartreedc">-120543.01101629 </i>
    <i name="XCdc">   -396.28420753 </i>
    <i name="pawpsdc">  37927.08679860 </i>
    <i name="pawaedc"> -36378.08738386 </i>
    <i name="eentropy">      0.00000000 </i>
    <i name="bandstr">  -2809.70412183 </i>
    <i name="atom">  36301.95205302 </i>
    <i name="e_fr_energy">    -73.62820246 </i>
    <i name="e_wo_entrp">    -73.62820246 </i>
    <i name="e_0_energy">    -73.62820246 </i>
   </energy>
  </scstep>
  <structure>
   <crystal>
    <varray name="basis" >
     <v>      22.15239936       0.00000000       0.00000000 </v>
     <v>       0.00000000      22.15239936       0.00000000 </v>
     <v>       0.00000000       0.00000000      22.15239936 </v>
    </varray>
    <i name="volume">  10870.82029037 </i>
    <varray name="rec_basis" >
     <v>       0.04514184       0.00000000       0.00000000 </v>
     <v>       0.00000000       0.04514184       0.00000000 </v>
     <v>       0.00000000       0.00000000       0.04514184 </v>
    </varray>
   </crystal>
   <varray name="positions" >
    <v>       0.69868155       0.52874019       0.63896540 </v>
    <v>       0.64856680       0.56832970       0.53190443 </v>
    <v>       0.65797609       0.43618134       0.55197123 </v>
    <v>       0.75629186       0.50466684       0.53129715 </v>
    <v>       0.60412092       0.60500744       0.42085375 </v>
    <v>       0.59798318       0.34742390       0.47278574 </v>
    <v>       0.68252101       0.50611666       0.42864952 </v>
    <v>       0.60200384       0.61004983       0.64399083 </v>
    <v>       0.61620822       0.41529991       0.36953305 </v>
    <v>       0.53196649       0.62926959       0.32327301 </v>
    <v>       0.59110185       0.47727502       0.67053170 </v>
    <v>       0.56521070       0.66140722       0.53437919 </v>
    <v>       0.53208611       0.51050464       0.35579989 </v>
    <v>       0.54880617       0.39488045       0.58207781 </v>
    <v>       0.52974230       0.53023646       0.57385982 </v>
    <v>       0.56703382       0.47226086       0.47000310 </v>
    <v>       0.49749437       0.39371562       0.39649821 </v>
    <v>       0.51616022       0.70388929       0.64533092 </v>
    <v>       0.48002278       0.31440330       0.49871176 </v>
    <v>       0.50759971       0.69168859       0.42931592 </v>
    <v>       0.48409659       0.57178207       0.46368041 </v>
    <v>       0.46660893       0.46049157       0.66412493 </v>
    <v>       0.47722861       0.58761994       0.66978192 </v>
    <v>       0.44578637       0.34355634       0.61945370 </v>
    <v>       0.44742058       0.43556285       0.51544641 </v>
    <v>       0.41540375       0.61353329       0.36283438 </v>
    <v>       0.44124647       0.65559500       0.55569300 </v>
    <v>       0.40915551       0.49137413       0.39507872 </v>
    <v>       0.37920576       0.37201309       0.42261587 </v>
    <v>       0.40177359       0.53804460       0.57959819 </v>
    <v>       0.38810995       0.70343218       0.45099219 </v>
    <v>       0.35583023       0.32704346       0.53354789 </v>
    <v>       0.35316865       0.42700410       0.60948985 </v>
    <v>       0.35728941       0.58605199       0.47218074 </v>
    <v>       0.32841961       0.46765820       0.49325773 </v>
   </varray>
  </structure>
  <varray name="forces" >
   <v>       0.08960978      -0.10031726       0.04383256 </v>
   <v>       0.10100350       0.00627569       0.05443075 </v>
   <v>       0.17727614       0.08556315       0.11733113 </v>
   <v>       0.28997082       0.12597477      -0.08809968 </v>
   <v>      -0.03389867      -0.00523388       0.02544091 </v>
   <v>      -0.01602297       0.04483404       0.13900968 </v>
   <v>       0.01954486      -0.03468960      -0.02698001 </v>
   <v>       0.07900873      -0.00040089       0.18463190 </v>
   <v>       0.11648107       0.08530745      -0.18514525 </v>
   <v>       0.07469893       0.14977873      -0.10151822 </v>
   <v>       0.03315662      -0.02585516      -0.07713072 </v>
   <v>       0.05116662       0.04571803       0.03102676 </v>
   <v>       0.00720793       0.12016241      -0.08077360 </v>
   <v>       0.02325091      -0.13514402       0.11625642 </v>
   <v>       0.00085886      -0.09503267      -0.11783771 </v>
   <v>       0.02528232      -0.00671267       0.11986048 </v>
   <v>      -0.01811816      -0.12083685       0.09820962 </v>
   <v>       0.06689845       0.01786040      -0.17876035 </v>
   <v>      -0.12688572      -0.08080830      -0.00928270 </v>
   <v>       0.00013814       0.08621399      -0.09373959 </v>
   <v>       0.01272065      -0.05233170       0.03849618 </v>
   <v>      -0.06860503      -0.10447695      -0.14252510 </v>
   <v>      -0.03796160       0.08116291      -0.02331316 </v>
   <v>      -0.08772040      -0.20580685       0.12349036 </v>
   <v>      -0.01570088       0.05233078      -0.05719617 </v>
   <v>       0.02519205       0.15103010       0.05462735 </v>
   <v>      -0.06701488       0.03292459      -0.05285247 </v>
   <v>      -0.01409111      -0.05957086       0.02774330 </v>
   <v>      -0.09043035      -0.06394169      -0.01979339 </v>
   <v>      -0.25767506       0.06348458       0.00718534 </v>
   <v>      -0.02551030       0.06138858      -0.08021685 </v>
   <v>      -0.01643793       0.04620105       0.04887097 </v>
   <v>       0.00584543      -0.03116432       0.10886987 </v>
   <v>      -0.12547300       0.00770453       0.03021023 </v>
   <v>      -0.19776575      -0.14159213      -0.03435885 </v>
  </varray>
  <varray name="stress" >
   <v>      -0.98350250       0.16992847      -0.00404959 </v>
   <v>       0.16992848      -1.40761290      -0.34410626 </v>
   <v>      -0.00404959      -0.34410625      -1.74795148 </v>
  </varray>
  <energy>
   <i name="e_fr_energy">    -73.62820246 </i>
   <i name="e_wo_entrp">    -73.62820246 </i>
   <i name="e_0_energy">      0.00000000 </i>
  </energy>
  <time name="totalsc">   22.76   25.20</time>
 </calculation>
 <calculation>
  <scstep>
   <time name="dav">    3.21    3.22</time>
   <time name="total">    3.57    3.59</time>
   <energy>
    <i name="alphaZ">     95.84908100 </i>
    <i name="ewald">  85052.92801118 </i>
    <i name="hartreedc">-119869.63086603 </i>
    <i name="XCdc">   -396.82010350 </i>
    <i name="pawpsdc">  37927.32725601 </i>
    <i name="pawaedc"> -36378.33351789 </i>
    <i name="eentropy">      0.00000000 </i>
    <i name="bandstr">  -2806.79156490 </i>
    <i name="atom">  36301.95205302 </i>
    <i name="e_fr_energy">    -73.51965110 </i>
    <i name="e_wo_entrp">    -73.51965110 </i>
    <i name="e_0_energy">    -73.51965110 </i>
   </energy>
  </scstep>
  <scstep>
   <time name="dav">    3.26    3.27</time>
   <time name="total">    3.60    3.61</time>
   <energy>
    <i name="e_fr_energy">    -73.64310428 </i>
    <i name="e_wo_entrp">    -73.64310428 </i>
    <i name="e_0_energy">    -73.64310428 </i>
   </energy>
  </scstep>
  <scstep>
   <time name="dav">    3.45    3.45</time>
   <time name="total">    3.79    3.80</time>
   <energy>
    <i name="e_fr_energy">    -73.64134047 </i>
    <i name="e_wo_entrp">    -73.64134047 </i>
    <i name="e_0_energy">    -73.64134047 </i>
   </energy>
  </scstep>
  <scstep>
   <time name="dav">    3.31    3.31</time>
   <time name="total">    3.67    3.67</time>
   <energy>
    <i name="e_fr_energy">    -73.63860231 </i>
    <i name="e_wo_entrp">    -73.63860231 </i>
    <i name="e_0_energy">    -73.63860231 </i>
   </energy>
  </scstep>
  <scstep>
   <time name="dav">    3.46    3.46</time>
   <time name="total">    3.79    3.80</time>
   <energy>
    <i name="e_fr_energy">    -73.63870364 </i>
    <i name="e_wo_entrp">    -73.63870364 </i>
    <i name="e_0_energy">    -73.63870364 </i>
   </energy>
  </scstep>
  <scstep>
   <time name="dav">    2.46    2.47</time>
   <time name="total">    2.68    2.69</time>
   <energy>
    <i name="alphaZ">     95.84908100 </i>
    <i name="ewald">  85052.92801118 </i>
    <i name="hartreedc">-119873.91460195 </i>
    <i name="XCdc">   -396.72130163 </i>
    <i name="pawpsdc">  37863.52409393 </i>
    <i name="pawaedc"> -36313.38290330 </i>
    <i name="eentropy">      0.00000000 </i>
    <i name="bandstr">  -2803.87308681 </i>
    <i name="atom">  36301.95205302 </i>
    <i name="e_fr_energy">    -73.63865455 </i>
    <i name="e_wo_entrp">    -73.63865455 </i>
    <i name="e_0_energy">    -73.63865455 </i>
   </energy>
  </scstep>
  <structure>
   <crystal>
    <varray name="basis" >
     <v>      22.15239936       0.00000000       0.00000000 </v>
     <v>       0.00000000      22.15239936       0.00000000 </v>
     <v>       0.00000000       0.00000000      22.15239936 </v>
    </varray>
    <i name="volume">  10870.82029037 </i>
    <varray name="rec_basis" >
     <v>       0.04514184       0.00000000       0.00000000 </v>
     <v>       0.00000000       0.04514184       0.00000000 </v>
     <v>       0.00000000       0.00000000       0.04514184 </v>
    </varray>
   </crystal>
   <varray name="positions" >
    <v>       0.69856448       0.52818102       0.63993020 </v>
    <v>       0.65043799       0.56766667       0.53207238 </v>
    <v>       0.65909004       0.43631584       0.55277336 </v>
    <v>       0.75918089       0.50555839       0.53031575 </v>
    <v>       0.60402687       0.60495274       0.42027550 </v>
    <v>       0.59779182       0.34773202       0.47378883 </v>
    <v>       0.68203255       0.50572042       0.42823146 </v>
    <v>       0.60208602       0.61023059       0.64579205 </v>
    <v>       0.61646388       0.41650804       0.36880162 </v>
    <v>       0.53260505       0.63045440       0.32254865 </v>
    <v>       0.59169208       0.47748059       0.66983643 </v>
    <v>       0.56479776       0.66274411       0.53514512 </v>
    <v>       0.53248445       0.51053978       0.35564849 </v>
    <v>       0.54885447       0.39385822       0.58307695 </v>
    <v>       0.52898544       0.53034525       0.57635057 </v>
    <v>       0.56810612       0.47062438       0.46769952 </v>
    <v>       0.49891688       0.39342469       0.39692381 </v>
    <v>       0.51651597       0.70346687       0.64396611 </v>
    <v>       0.47921178       0.31370372       0.49850373 </v>
    <v>       0.50731127       0.69252795       0.42848290 </v>
    <v>       0.48358546       0.57179776       0.46323961 </v>
    <v>       0.46588406       0.45944015       0.66310723 </v>
    <v>       0.47757609       0.58838645       0.66923308 </v>
    <v>       0.44507258       0.34240481       0.62050959 </v>
    <v>       0.44739925       0.43563866       0.51492958 </v>
    <v>       0.41534080       0.61470254       0.36308416 </v>
    <v>       0.44115161       0.65586816       0.55576994 </v>
    <v>       0.40899810       0.49094958       0.39513091 </v>
    <v>       0.37753980       0.37117438       0.42314759 </v>
    <v>       0.40016385       0.53898080       0.57960546 </v>
    <v>       0.38804520       0.70391270       0.45037031 </v>
    <v>       0.35588144       0.32736199       0.53332471 </v>
    <v>       0.35328204       0.42651727       0.61081337 </v>
    <v>       0.35650108       0.58618154       0.47257489 </v>
    <v>       0.32674480       0.46675720       0.49250451 </v>
   </varray>
  </structure>
  <varray name="forces" >
   <v>       0.22057982      -0.06991305      -0.08931072 </v>
   <v>      -0.14278137       0.13181673       0.06711297 </v>
   <v>       0.12895505       0.13537208       0.06889192 </v>
   <v>       0.02521029       0.07890232       0.00179089 </v>
   <v>      -0.05191636       0.00128600       0.16433993 </v>
   <v>       0.01194456       0.00198083       0.09169136 </v>
   <v>       0.16603754       0.03108817       0.03245708 </v>
   <v>       0.14664379      -0.03684830       0.01773018 </v>
   <v>       0.21560819      -0.11155907      -0.29519857 </v>
   <v>       0.01945322       0.06588129      -0.05816953 </v>
   <v>      -0.05580368      -0.11612017       0.00364907 </v>
   <v>       0.18880680      -0.17459478      -0.13019870 </v>
   <v>      -0.08418185       0.25436324      -0.14605575 </v>
   <v>       0.03285578      -0.06952062       0.03744538 </v>
   <v>       0.12856144      -0.18209492      -0.69926916 </v>
   <v>      -0.15234888       0.31605249       0.70694611 </v>
   <v>      -0.33032743      -0.20804841       0.08645349 </v>
   <v>       0.05832494       0.15396681      -0.04204659 </v>
   <v>      -0.08891724      -0.01742497       0.02234892 </v>
   <v>       0.06342019       0.00119316      -0.01796022 </v>
   <v>       0.11846303      -0.09987048       0.15641646 </v>
   <v>       0.01201501      -0.00333407      -0.07174409 </v>
   <v>      -0.18684343       0.02949092       0.10976898 </v>
   <v>      -0.03083632      -0.19921946       0.03193795 </v>
   <v>      -0.02698922       0.08943001      -0.01520085 </v>
   <v>       0.06384544       0.06907342       0.05646482 </v>
   <v>      -0.13040644       0.00726753      -0.13672078 </v>
   <v>       0.00120107      -0.03751718       0.04907024 </v>
   <v>       0.12871035       0.04350665      -0.16700864 </v>
   <v>      -0.18327987      -0.06973305       0.02542127 </v>
   <v>      -0.04621841       0.03383024      -0.02661688 </v>
   <v>      -0.05021310       0.02512511       0.17510868 </v>
   <v>      -0.02759945       0.02921704      -0.05767486 </v>
   <v>      -0.09306654      -0.00880667      -0.02743052 </v>
   <v>      -0.04890691      -0.09423884       0.07556018 </v>
  </varray>
  <varray name="stress" >
   <v>      -1.31799403       0.17092960       0.00790894 </v>
   <v>       0.17092962      -1.66317667      -0.25041455 </v>
   <v>       0.00790895      -0.25041454      -1.97715548 </v>
  </varray>
  <energy>
   <i name="e_fr_energy">    -73.63865455 </i>
   <i name="e_wo_entrp">    -73.63865455 </i>
   <i name="e_0_energy">      0.00000000 </i>
  </energy>
  <time name="totalsc">   26.57   26.70</time>
 </calculation>
 <calculation>
  <scstep>
   <time name="dav">    3.23    3.23</time>
   <time name="total">    3.58    3.59</time>
   <energy>
    <i name="alphaZ">     95.84908100 </i>
    <i name="ewald">  85347.38537423 </i>
    <i name="hartreedc">-120167.75953507 </i>
    <i name="XCdc">   -396.48995883 </i>
    <i name="pawpsdc">  37863.09178954 </i>
    <i name="pawaedc"> -36312.94865859 </i>
    <i name="eentropy">      0.00000000 </i>
    <i name="bandstr">  -2804.71865325 </i>
    <i name="atom">  36301.95205302 </i>
    <i name="e_fr_energy">    -73.63850794 </i>
    <i name="e_wo_entrp">    -73.63850794 </i>
    <i name="e_0_energy">    -73.63850794 </i>
   </energy>
  </scstep>
  <scstep>
   <time name="dav">    3.34    3.34</time>
   <time name="total">    3.68    3.69</time>
   <energy>
    <i name="e_fr_energy">    -73.66215685 </i>
    <i name="e_wo_entrp">    -73.66215685 </i>
    <i name="e_0_energy">    -73.66215685 </i>
   </energy>
  </scstep>
  <scstep>
   <time name="dav">    3.41    3.41</time>
   <time name="total">    3.80    7.81</time>
   <energy>
    <i name="e_fr_energy">    -73.66180171 </i>
    <i name="e_wo_entrp">    -73.66180171 </i>
    <i name="e_0_energy">    -73.66180171 </i>
   </energy>
  </scstep>
  <scstep>
   <time name="dav">    3.29    3.29</time>
   <time name="total">    3.67    3.69</time>
   <energy>
    <i name="e_fr_energy">    -73.66146237 </i>
    <i name="e_wo_entrp">    -73.66146237 </i>
    <i name="e_0_energy">    -73.66146237 </i>
   </energy>
  </scstep>
  <scstep>
   <time name="dav">    2.48    2.49</time>
   <time name="total">    2.73    2.77</time>
   <energy>
    <i name="alphaZ">     95.84908100 </i>
    <i name="ewald">  85347.38537423 </i>
    <i name="hartreedc">-120166.06807670 </i>
    <i name="XCdc">   -396.53816123 </i>
    <i name="pawpsdc">  37888.20830704 </i>
    <i name="pawaedc"> -36338.53336993 </i>
    <i name="eentropy">      0.00000000 </i>
    <i name="bandstr">  -2805.91673011 </i>
    <i name="atom">  36301.95205302 </i>
    <i name="e_fr_energy">    -73.66152268 </i>
    <i name="e_wo_entrp">    -73.66152268 </i>
    <i name="e_0_energy">    -73.66152268 </i>
   </energy>
  </scstep>
  <structure>
   <crystal>
    <varray name="basis" >
     <v>      22.15239936       0.00000000       0.00000000 </v>
     <v>       0.00000000      22.15239936       0.00000000 </v>
     <v>       0.00000000       0.00000000      22.15239936 </v>
    </varray>
    <i name="volume">  10870.82029037 </i>
    <varray name="rec_basis" >
     <v>       0.04514184       0.00000000       0.00000000 </v>
     <v>       0.00000000       0.04514184       0.00000000 </v>
     <v>       0.00000000       0.00000000       0.04514184 </v>
    </varray>
   </crystal>
   <varray name="positions" >
    <v>       0.69861574       0.52842585       0.63950777 </v>
    <v>       0.64961872       0.56795697       0.53199884 </v>
    <v>       0.65860231       0.43625695       0.55242216 </v>
    <v>       0.75791596       0.50516804       0.53074545 </v>
    <v>       0.60406805       0.60497669       0.42052868 </v>
    <v>       0.59787560       0.34759711       0.47334964 </v>
    <v>       0.68224642       0.50589391       0.42841450 </v>
    <v>       0.60205004       0.61015144       0.64500341 </v>
    <v>       0.61635194       0.41597907       0.36912187 </v>
    <v>       0.53232547       0.62993564       0.32286580 </v>
    <v>       0.59143366       0.47739058       0.67014084 </v>
    <v>       0.56497856       0.66215877       0.53480977 </v>
    <v>       0.53231004       0.51052440       0.35571478 </v>
    <v>       0.54883332       0.39430579       0.58263949 </v>
    <v>       0.52931682       0.53029762       0.57526002 </v>
    <v>       0.56763663       0.47134089       0.46870812 </v>
    <v>       0.49829405       0.39355207       0.39673746 </v>
    <v>       0.51636021       0.70365182       0.64456368 </v>
    <v>       0.47956686       0.31401002       0.49859481 </v>
    <v>       0.50743756       0.69216045       0.42884763 </v>
    <v>       0.48380925       0.57179089       0.46343261 </v>
    <v>       0.46620143       0.45990050       0.66355282 </v>
    <v>       0.47742395       0.58805084       0.66947338 </v>
    <v>       0.44538511       0.34290899       0.62004728 </v>
    <v>       0.44740859       0.43560547       0.51515587 </v>
    <v>       0.41536836       0.61419060       0.36297480 </v>
    <v>       0.44119314       0.65574856       0.55573625 </v>
    <v>       0.40906702       0.49113547       0.39510806 </v>
    <v>       0.37826922       0.37154160       0.42291479 </v>
    <v>       0.40086866       0.53857090       0.57960228 </v>
    <v>       0.38807355       0.70370231       0.45064259 </v>
    <v>       0.35585902       0.32722253       0.53342243 </v>
    <v>       0.35323240       0.42673043       0.61023388 </v>
    <v>       0.35684624       0.58612481       0.47240232 </v>
    <v>       0.32747810       0.46715169       0.49283430 </v>
   </varray>
  </structure>
  <varray name="forces" >
   <v>       0.16392396      -0.08494164      -0.03570799 </v>
   <v>      -0.04803686       0.08168515       0.06274664 </v>
   <v>       0.15064171       0.11748488       0.08914967 </v>
   <v>       0.12969353       0.09539863      -0.03139083 </v>
   <v>      -0.04448698      -0.00135378       0.10796665 </v>
   <v>      -0.00027414       0.02384448       0.10789112 </v>
   <v>       0.10089641       0.00098590       0.00744449 </v>
   <v>       0.11835961      -0.02200416       0.08229480 </v>
   <v>       0.16923871      -0.02499687      -0.23813471 </v>
   <v>       0.04306337       0.10098040      -0.07649595 </v>
   <v>      -0.01896201      -0.07529336      -0.03302692 </v>
   <v>       0.13188266      -0.08638488      -0.05815936 </v>
   <v>      -0.04391104       0.19652061      -0.11702449 </v>
   <v>       0.02858337      -0.09495197       0.06893284 </v>
   <v>       0.07850693      -0.14881155      -0.45888616 </v>
   <v>      -0.08021522       0.18117764       0.46159932 </v>
   <v>      -0.19810651      -0.16791281       0.09496287 </v>
   <v>       0.06194094       0.09232265      -0.10431467 </v>
   <v>      -0.10576257      -0.04405725       0.00963105 </v>
   <v>       0.03644459       0.03609232      -0.04974799 </v>
   <v>       0.07637131      -0.08102533       0.10922398 </v>
   <v>      -0.02118028      -0.04286359      -0.10155416 </v>
   <v>      -0.11920456       0.04730099       0.04753750 </v>
   <v>      -0.05433080      -0.19910001       0.06868765 </v>
   <v>      -0.02254574       0.07433335      -0.03189942 </v>
   <v>       0.04795555       0.10279451       0.05653277 </v>
   <v>      -0.10180642       0.01860473      -0.10066919 </v>
   <v>      -0.00457277      -0.04615724       0.03950845 </v>
   <v>       0.04084180      -0.00116218      -0.10297651 </v>
   <v>      -0.21557032      -0.01525938       0.01606083 </v>
   <v>      -0.03681306       0.04432533      -0.04967307 </v>
   <v>      -0.03528583       0.03483227       0.11815145 </v>
   <v>      -0.01080773       0.00548710       0.01196918 </v>
   <v>      -0.10569144      -0.00231796      -0.00108649 </v>
   <v>      -0.11078016      -0.11557698       0.03045662 </v>
  </varray>
  <varray name="stress" >
   <v>      -1.18397959       0.17325118       0.00807610 </v>
   <v>       0.17325118      -1.56294966      -0.29344413 </v>
   <v>       0.00807609      -0.29344413      -1.89584800 </v>
  </varray>
  <energy>
   <i name="e_fr_energy">    -73.66152268 </i>
   <i name="e_wo_entrp">    -73.66152268 </i>
   <i name="e_0_energy">      0.00000000 </i>
  </energy>
  <time name="totalsc">   22.95   27.22</time>
 </calculation>
 <calculation>
  <scstep>
   <time name="dav">    3.31    3.31</time>
   <time name="total">    3.64    3.65</time>
   <energy>
    <i name="alphaZ">     95.84908100 </i>
    <i name="ewald">  85157.24200855 </i>
    <i name="hartreedc">-119977.06042125 </i>
    <i name="XCdc">   -396.76123698 </i>
    <i name="pawpsdc">  37887.89995549 </i>
    <i name="pawaedc"> -36338.22085817 </i>
    <i name="eentropy">      0.00000000 </i>
    <i name="bandstr">  -2804.59729442 </i>
    <i name="atom">  36301.95205302 </i>
    <i name="e_fr_energy">    -73.69671277 </i>
    <i name="e_wo_entrp">    -73.69671277 </i>
    <i name="e_0_energy">    -73.69671277 </i>
   </energy>
  </scstep>
  <scstep>
   <time name="dav">    3.28    3.29</time>
   <time name="total">    3.64    3.65</time>
   <energy>
    <i name="e_fr_energy">    -73.70573338 </i>
    <i name="e_wo_entrp">    -73.70573338 </i>
    <i name="e_0_energy">    -73.70573338 </i>
   </energy>
  </scstep>
  <scstep>
   <time name="dav">    3.42    3.43</time>
   <time name="total">    3.77    3.80</time>
   <energy>
    <i name="e_fr_energy">    -73.70554515 </i>
    <i name="e_wo_entrp">    -73.70554515 </i>
    <i name="e_0_energy">    -73.70554515 </i>
   </energy>
  </scstep>
  <scstep>
   <time name="dav">    3.29    3.29</time>
   <time name="total">    3.65    4.96</time>
   <energy>
    <i name="e_fr_energy">    -73.70530333 </i>
    <i name="e_wo_entrp">    -73.70530333 </i>
    <i name="e_0_energy">    -73.70530333 </i>
   </energy>
  </scstep>
  <scstep>
   <time name="dav">    2.40    2.40</time>
   <time name="total">    2.63    2.68</time>
   <energy>
    <i name="alphaZ">     95.84908100 </i>
    <i name="ewald">  85157.24200855 </i>
    <i name="hartreedc">-119978.60996948 </i>
    <i name="XCdc">   -396.72096907 </i>
    <i name="pawpsdc">  37857.03332131 </i>
    <i name="pawaedc"> -36306.86019623 </i>
    <i name="eentropy">      0.00000000 </i>
    <i name="bandstr">  -2803.59063541 </i>
    <i name="atom">  36301.95205302 </i>
    <i name="e_fr_energy">    -73.70530631 </i>
    <i name="e_wo_entrp">    -73.70530631 </i>
    <i name="e_0_energy">    -73.70530631 </i>
   </energy>
  </scstep>
  <structure>
   <crystal>
    <varray name="basis" >
     <v>      22.15239936       0.00000000       0.00000000 </v>
     <v>       0.00000000      22.15239936       0.00000000 </v>
     <v>       0.00000000       0.00000000      22.15239936 </v>
    </varray>
    <i name="volume">  10870.82029037 </i>
    <varray name="rec_basis" >
     <v>       0.04514184       0.00000000       0.00000000 </v>
     <v>       0.00000000       0.04514184       0.00000000 </v>
     <v>       0.00000000       0.00000000       0.04514184 </v>
    </varray>
   </crystal>
   <varray name="positions" >
    <v>       0.69889373       0.52818521       0.63959359 </v>
    <v>       0.64982350       0.56800127       0.53213841 </v>
    <v>       0.65904814       0.43649022       0.55270827 </v>
    <v>       0.75860055       0.50547938       0.53053578 </v>
    <v>       0.60397300       0.60496572       0.42063368 </v>
    <v>       0.59784529       0.34768822       0.47370093 </v>
    <v>       0.68235264       0.50583395       0.42836281 </v>
    <v>       0.60227675       0.61013985       0.64543282 </v>
    <v>       0.61669763       0.41612216       0.36857753 </v>
    <v>       0.53250280       0.63030277       0.32261468 </v>
    <v>       0.59149137       0.47728655       0.66997281 </v>
    <v>       0.56515255       0.66221099       0.53482402 </v>
    <v>       0.53229276       0.51088502       0.35547970 </v>
    <v>       0.54889251       0.39397490       0.58291977 </v>
    <v>       0.52934075       0.53004564       0.57481887 </v>
    <v>       0.56765876       0.47141330       0.46918334 </v>
    <v>       0.49815771       0.39320329       0.39697540 </v>
    <v>       0.51652759       0.70375284       0.64416248 </v>
    <v>       0.47924935       0.31382138       0.49857980 </v>
    <v>       0.50745848       0.69235647       0.42862791 </v>
    <v>       0.48386762       0.57164691       0.46356131 </v>
    <v>       0.46605020       0.45965919       0.66321070 </v>
    <v>       0.47726268       0.58825577       0.66947376 </v>
    <v>       0.44517569       0.34236973       0.62033595 </v>
    <v>       0.44736452       0.43575162       0.51501768 </v>
    <v>       0.41544522       0.61455857       0.36311588 </v>
    <v>       0.44099438       0.65582475       0.55556632 </v>
    <v>       0.40903422       0.49098589       0.39518759 </v>
    <v>       0.37808342       0.37140880       0.42281155 </v>
    <v>       0.40022823       0.53868921       0.57963244 </v>
    <v>       0.38799693       0.70385730       0.45045591 </v>
    <v>       0.35580323       0.32733511       0.53360117 </v>
    <v>       0.35323053       0.42666448       0.61046176 </v>
    <v>       0.35653239       0.58614081       0.47246178 </v>
    <v>       0.32701690       0.46680241       0.49277196 </v>
   </varray>
  </structure>
  <varray name="forces" >
   <v>       0.15991537      -0.07632748      -0.04378500 </v>
   <v>      -0.03743057       0.07528411       0.06033397 </v>
   <v>       0.12165184       0.10458747       0.08489646 </v>
   <v>       0.08604211       0.09605134      -0.02475285 </v>
   <v>      -0.04592318      -0.00439734       0.10477412 </v>
   <v>      -0.00623775       0.04720970       0.07735793 </v>
   <v>       0.08884262       0.00371028       0.02656177 </v>
   <v>       0.09083773      -0.04050299       0.04565725 </v>
   <v>       0.08021418      -0.00922111      -0.15261789 </v>
   <v>       0.03820583       0.09598470      -0.06353267 </v>
   <v>      -0.02787819      -0.06263156      -0.04062953 </v>
   <v>       0.11440150      -0.09626401      -0.06444872 </v>
   <v>      -0.03606313       0.13922755      -0.06038477 </v>
   <v>       0.02535265      -0.09083461       0.05512534 </v>
   <v>       0.04507556      -0.10391661      -0.34374419 </v>
   <v>      -0.05407941       0.13191943       0.32976909 </v>
   <v>      -0.12251797      -0.11163792       0.08494914 </v>
   <v>       0.06096647       0.08301828      -0.09494982 </v>
   <v>      -0.09231099      -0.02965961       0.02113041 </v>
   <v>       0.03441016       0.01679555      -0.02781683 </v>
   <v>       0.04633623      -0.05946457       0.08295206 </v>
   <v>      -0.00125231      -0.01656308      -0.10313563 </v>
   <v>      -0.09464249       0.00984789      -0.00961542 </v>
   <v>      -0.03241461      -0.17754427       0.05390651 </v>
   <v>      -0.02911082       0.06536074      -0.01728370 </v>
   <v>       0.06009900       0.07687377       0.06394392 </v>
   <v>      -0.08687389       0.01026621      -0.09762904 </v>
   <v>      -0.00046636      -0.02113493       0.04116185 </v>
   <v>       0.03680877      -0.00583924      -0.08835633 </v>
   <v>      -0.16744135      -0.01929091       0.02681395 </v>
   <v>      -0.03470341       0.03793704      -0.04558002 </v>
   <v>      -0.03999692       0.03736786       0.10082559 </v>
   <v>      -0.01317651       0.00397992      -0.00342799 </v>
   <v>      -0.08497025      -0.01022796      -0.01744430 </v>
   <v>      -0.08166992      -0.09996365       0.03897533 </v>
  </varray>
  <varray name="stress" >
   <v>      -1.35440524       0.16056203       0.01898767 </v>
   <v>       0.16056204      -1.68626026      -0.27102339 </v>
   <v>       0.01898767      -0.27102339      -1.99904820 </v>
  </varray>
  <energy>
   <i name="e_fr_energy">    -73.70530631 </i>
   <i name="e_wo_entrp">    -73.70530631 </i>
   <i name="e_0_energy">      0.00000000 </i>
  </energy>
  <time name="totalsc">   22.88   24.52</time>
 </calculation>
 <calculation>
  <scstep>
   <time name="dav">    3.22    3.23</time>
   <time name="total">    3.57    3.58</time>
   <energy>
    <i name="alphaZ">     95.84908100 </i>
    <i name="ewald">  84589.87196090 </i>
    <i name="hartreedc">-119414.23078193 </i>
    <i name="XCdc">   -397.35641172 </i>
    <i name="pawpsdc">  37857.26580115 </i>
    <i name="pawaedc"> -36307.09492927 </i>
    <i name="eentropy">      0.00000000 </i>
    <i name="bandstr">  -2799.94500392 </i>
    <i name="atom">  36301.95205302 </i>
    <i name="e_fr_energy">    -73.68823077 </i>
    <i name="e_wo_entrp">    -73.68823077 </i>
    <i name="e_0_energy">    -73.68823077 </i>
   </energy>
  </scstep>
  <scstep>
   <time name="dav">    3.27    3.27</time>
   <time name="total">    3.62    3.63</time>
   <energy>
    <i name="e_fr_energy">    -73.77008395 </i>
    <i name="e_wo_entrp">    -73.77008395 </i>
    <i name="e_0_energy">    -73.77008395 </i>
   </energy>
  </scstep>
  <scstep>
   <time name="dav">    3.40    3.41</time>
   <time name="total">    3.78    3.79</time>
   <energy>
    <i name="e_fr_energy">    -73.76907839 </i>
    <i name="e_wo_entrp">    -73.76907839 </i>
    <i name="e_0_energy">    -73.76907839 </i>
   </energy>
  </scstep>
  <scstep>
   <time name="dav">    3.31    3.32</time>
   <time name="total">    3.67    3.69</time>
   <energy>
[...]
       <r>     0.1098     0.0000   224.0000 </r>
       <r>     0.1504     0.0000   225.0000 </r>
       <r>     0.1910     0.0000   225.0000 </r>
       <r>     0.2316     0.0000   226.0000 </r>
       <r>     0.2723     0.0000   227.0000 </r>
       <r>     0.3129     0.0000   227.0000 </r>
       <r>     0.3535     0.0000   228.0000 </r>
       <r>     0.3941     0.0000   228.0000 </r>
       <r>     0.4347     0.0000   228.0000 </r>
       <r>     0.4753     0.0000   228.0000 </r>
       <r>     0.5159     0.0000   228.0000 </r>
       <r>     0.5565     0.0000   229.0000 </r>
       <r>     0.5971     0.0000   230.0000 </r>
       <r>     0.6377     0.0000   230.0000 </r>
       <r>     0.6783     0.0000   231.0000 </r>
       <r>     0.7189     0.0000   231.0000 </r>
       <r>     0.7595     0.0000   232.0000 </r>
       <r>     0.8001     0.0000   233.0000 </r>
       <r>     0.8408     0.0000   234.0000 </r>
       <r>     0.8814     0.0000   234.0000 </r>
       <r>     0.9220     0.0000   235.0000 </r>
       <r>     0.9626     0.0000   235.0000 </r>
       <r>     1.0032     0.0000   237.0000 </r>
       <r>     1.0438     0.0000   239.0000 </r>
       <r>     1.0844     0.0000   241.0000 </r>
       <r>     1.1250     0.0000   243.0000 </r>
       <r>     1.1656     0.0000   245.0000 </r>
       <r>     1.2062     0.0000   246.0000 </r>
       <r>     1.2468     0.0000   248.0000 </r>
       <r>     1.2874     0.0000   249.0000 </r>
       <r>     1.3280     0.0000   250.0000 </r>
       <r>     1.3686     0.0000   250.0000 </r>
       <r>     1.4092     0.0000   252.0000 </r>
       <r>     1.4499     0.0000   252.0000 </r>
       <r>     1.4905     0.0000   252.0000 </r>
       <r>     1.5311     0.0000   252.0000 </r>
       <r>     1.5717     0.0000   252.0000 </r>
       <r>     1.6123     0.0000   252.0000 </r>
       <r>     1.6529     0.0000   252.0000 </r>
       <r>     1.6935     0.0000   252.0000 </r>
       <r>     1.7341     0.0000   252.0000 </r>
       <r>     1.7747     0.0000   252.0000 </r>
       <r>     1.8153     0.0000   252.0000 </r>
       <r>     1.8559     0.0000   252.0000 </r>
       <r>     1.8965     0.0000   252.0000 </r>
       <r>     1.9371     0.0000   252.0000 </r>
      </set>
      <set comment="spin 2">
       <r>   -10.2449     0.0000     0.0000 </r>
       <r>   -10.2043     0.0000     0.0000 </r>
       <r>   -10.1637     0.0000     0.0000 </r>
       <r>   -10.1231     0.0000     0.0000 </r>
       <r>   -10.0825     0.0000     0.0000 </r>
       <r>   -10.0419     0.0000     0.0000 </r>
       <r>   -10.0013     0.0000     0.0000 </r>
       <r>    -9.9607     0.0000     0.0000 </r>
       <r>    -9.9201     0.0000     0.0000 </r>
       <r>    -9.8794     0.0000     0.0000 </r>
       <r>    -9.8388     0.0000     0.0000 </r>
       <r>    -9.7982     0.0000     0.0000 </r>
       <r>    -9.7576     0.0000     0.0000 </r>
       <r>    -9.7170     0.0000     0.0000 </r>
       <r>    -9.6764     0.0000     0.0000 </r>
       <r>    -9.6358     0.0000     1.0000 </r>
       <r>    -9.5952     0.0000     1.0000 </r>
       <r>    -9.5546     0.0000     1.0000 </r>
       <r>    -9.5140     0.0000     1.0000 </r>
       <r>    -9.4734     0.0000     1.0000 </r>
       <r>    -9.4328     0.0000     1.0000 </r>
       <r>    -9.3922     0.0000     1.0000 </r>
       <r>    -9.3516     0.0000     1.0000 </r>
       <r>    -9.3110     0.0000     1.0000 </r>
       <r>    -9.2703     0.0000     1.0000 </r>
       <r>    -9.2297     0.0000     1.0000 </r>
       <r>    -9.1891     0.0000     1.0000 </r>
       <r>    -9.1485     0.0000     2.0000 </r>
       <r>    -9.1079     0.0000     3.0000 </r>
       <r>    -9.0673     0.0000     4.0000 </r>
       <r>    -9.0267     0.0000     5.0000 </r>
       <r>    -8.9861     0.0000     7.0000 </r>
       <r>    -8.9455     0.0000     7.0000 </r>
       <r>    -8.9049     0.0000     9.0000 </r>
       <r>    -8.8643     0.0000    10.0000 </r>
       <r>    -8.8237     0.0000    11.0000 </r>
       <r>    -8.7831     0.0000    13.0000 </r>
       <r>    -8.7425     0.0000    14.0000 </r>
       <r>    -8.7019     0.0000    16.0000 </r>
       <r>    -8.6612     0.0000    17.0000 </r>
       <r>    -8.6206    24.6264    19.0000 </r>
       <r>    -8.5800     0.0000    20.0000 </r>
       <r>    -8.5394     0.0000    22.0000 </r>
       <r>    -8.4988     0.0000    26.0000 </r>
       <r>    -8.4582    24.6264    29.0000 </r>
       <r>    -8.4176     0.0000    31.0000 </r>
       <r>    -8.3770     0.0000    32.0000 </r>
       <r>    -8.3364     0.0000    35.0000 </r>
       <r>    -8.2958     0.0000    36.0000 </r>
       <r>    -8.2552    12.7075    38.5160 </r>
       <r>    -8.2146     0.0000    41.0000 </r>
       <r>    -8.1740     0.0000    43.0000 </r>
       <r>    -8.1334     0.0000    46.0000 </r>
       <r>    -8.0927     0.0000    49.0000 </r>
       <r>    -8.0521     0.0000    50.0000 </r>
       <r>    -8.0115     0.0000    53.0000 </r>
       <r>    -7.9709     0.0000    56.0000 </r>
       <r>    -7.9303    24.6264    58.0000 </r>
       <r>    -7.8897     0.0000    60.0000 </r>
       <r>    -7.8491     0.0000    62.0000 </r>
       <r>    -7.8085     0.0000    64.0000 </r>
       <r>    -7.7679     0.0000    66.0000 </r>
       <r>    -7.7273     0.0000    68.0000 </r>
       <r>    -7.6867     0.0000    71.0000 </r>
       <r>    -7.6461     0.0000    73.0000 </r>
       <r>    -7.6055    24.6264    76.0000 </r>
       <r>    -7.5649     0.0000    78.0000 </r>
       <r>    -7.5243     0.0000    79.0000 </r>
       <r>    -7.4836     0.0000    82.0000 </r>
       <r>    -7.4430     0.0000    84.0000 </r>
       <r>    -7.4024     0.0000    87.0000 </r>
       <r>    -7.3618     0.0000    87.0000 </r>
       <r>    -7.3212     0.0000    91.0000 </r>
       <r>    -7.2806     0.0000    94.0000 </r>
       <r>    -7.2400     0.0000    96.0000 </r>
       <r>    -7.1994     0.0000    98.0000 </r>
       <r>    -7.1588     0.0000   100.0000 </r>
       <r>    -7.1182     0.0000   102.0000 </r>
       <r>    -7.0776     0.0000   105.0000 </r>
       <r>    -7.0370     0.0000   108.0000 </r>
       <r>    -6.9964     0.0000   112.0000 </r>
       <r>    -6.9558     0.0000   113.0000 </r>
       <r>    -6.9152     0.0000   116.0000 </r>
       <r>    -6.8745     0.0000   120.0000 </r>
       <r>    -6.8339     0.0000   123.0000 </r>
       <r>    -6.7933     0.0000   126.0000 </r>
       <r>    -6.7527     0.0000   131.0000 </r>
       <r>    -6.7121     0.0000   134.0000 </r>
       <r>    -6.6715     0.0000   138.0000 </r>
       <r>    -6.6309     0.0000   142.0000 </r>
       <r>    -6.5903    24.6264   145.0000 </r>
       <r>    -6.5497     0.0000   150.0000 </r>
       <r>    -6.5091     0.0000   153.0000 </r>
       <r>    -6.4685     0.0000   157.0000 </r>
       <r>    -6.4279    24.6263   160.0000 </r>
       <r>    -6.3873     0.0000   164.0000 </r>
       <r>    -6.3467     0.0000   167.0000 </r>
       <r>    -6.3060     0.0000   169.0000 </r>
       <r>    -6.2654     0.0000   172.0000 </r>
       <r>    -6.2248     0.0000   175.0000 </r>
       <r>    -6.1842     0.0000   176.0000 </r>
       <r>    -6.1436     0.0000   177.0000 </r>
       <r>    -6.1030     0.0000   179.0000 </r>
       <r>    -6.0624     0.0000   179.0000 </r>
       <r>    -6.0218     0.0000   179.0000 </r>
       <r>    -5.9812     0.0000   179.0000 </r>
       <r>    -5.9406     0.0000   179.0000 </r>
       <r>    -5.9000     0.0000   179.0000 </r>
       <r>    -5.8594     0.0000   180.0000 </r>
       <r>    -5.8188     0.0000   180.0000 </r>
       <r>    -5.7782     0.0000   180.0000 </r>
       <r>    -5.7376     0.0000   180.0000 </r>
       <r>    -5.6969     0.0000   181.0000 </r>
       <r>    -5.6563     0.0000   181.0000 </r>
       <r>    -5.6157     0.0000   181.0000 </r>
       <r>    -5.5751     0.0000   182.0000 </r>
       <r>    -5.5345     0.0000   182.0000 </r>
       <r>    -5.4939     0.0000   183.0000 </r>
       <r>    -5.4533     0.0000   183.0000 </r>
       <r>    -5.4127     0.0000   184.0000 </r>
       <r>    -5.3721     0.0000   184.0000 </r>
       <r>    -5.3315     0.0000   184.0000 </r>
       <r>    -5.2909     0.0000   184.0000 </r>
       <r>    -5.2503     0.0000   184.0000 </r>
       <r>    -5.2097     0.0000   184.0000 </r>
       <r>    -5.1691     0.0000   184.0000 </r>
       <r>    -5.1285     0.0000   184.0000 </r>
       <r>    -5.0878     0.0000   184.0000 </r>
       <r>    -5.0472     0.0000   184.0000 </r>
       <r>    -5.0066     0.0000   184.0000 </r>
       <r>    -4.9660     0.0000   185.0000 </r>
       <r>    -4.9254     0.0000   185.0000 </r>
       <r>    -4.8848     0.0000   185.0000 </r>
       <r>    -4.8442     0.0000   185.0000 </r>
       <r>    -4.8036     0.0000   185.0000 </r>
       <r>    -4.7630     0.0000   185.0000 </r>
       <r>    -4.7224     0.0000   185.0000 </r>
       <r>    -4.6818     0.0000   185.0000 </r>
       <r>    -4.6412     0.0000   185.0000 </r>
       <r>    -4.6006     0.0000   185.0000 </r>
       <r>    -4.5600     0.0000   185.0000 </r>
       <r>    -4.5193     0.0000   185.0000 </r>
       <r>    -4.4787     0.0000   185.0000 </r>
       <r>    -4.4381     0.0000   185.0000 </r>
       <r>    -4.3975     0.0000   185.0000 </r>
       <r>    -4.3569     0.0000   186.0000 </r>
       <r>    -4.3163     0.0000   186.0000 </r>
       <r>    -4.2757     0.0000   186.0000 </r>
       <r>    -4.2351     0.0000   187.0000 </r>
       <r>    -4.1945     0.0000   187.0000 </r>
       <r>    -4.1539     0.0000   188.0000 </r>
       <r>    -4.1133     0.0000   189.0000 </r>
       <r>    -4.0727     0.0000   189.0000 </r>
       <r>    -4.0321     0.0000   189.0000 </r>
       <r>    -3.9915     0.0000   189.0000 </r>
       <r>    -3.9509     0.0000   189.0000 </r>
       <r>    -3.9102     0.0000   190.0000 </r>
       <r>    -3.8696     0.0000   190.0000 </r>
       <r>    -3.8290     0.0000   190.0000 </r>
       <r>    -3.7884     0.0000   190.0000 </r>
       <r>    -3.7478     0.0000   191.0000 </r>
       <r>    -3.7072     0.0000   191.0000 </r>
       <r>    -3.6666     0.0000   192.0000 </r>
       <r>    -3.6260     0.0000   192.0000 </r>
       <r>    -3.5854     0.0000   192.0000 </r>
       <r>    -3.5448     0.0000   192.0000 </r>
       <r>    -3.5042     0.0000   192.0000 </r>
       <r>    -3.4636     0.0000   192.0000 </r>
       <r>    -3.4230     0.0000   192.0000 </r>
       <r>    -3.3824     0.0000   192.0000 </r>
       <r>    -3.3418     0.0000   192.0000 </r>
       <r>    -3.3011     0.0000   193.0000 </r>
       <r>    -3.2605     0.0000   193.0000 </r>
       <r>    -3.2199     0.0000   193.0000 </r>
       <r>    -3.1793     0.0000   194.0000 </r>
       <r>    -3.1387     0.0000   194.0000 </r>
       <r>    -3.0981     0.0000   194.0000 </r>
       <r>    -3.0575     0.0000   194.0000 </r>
       <r>    -3.0169     0.0000   194.0000 </r>
       <r>    -2.9763     0.0000   194.0000 </r>
       <r>    -2.9357     0.0000   194.0000 </r>
       <r>    -2.8951     0.0000   195.0000 </r>
       <r>    -2.8545     0.0000   195.0000 </r>
       <r>    -2.8139     0.0000   195.0000 </r>
       <r>    -2.7733     0.0000   195.0000 </r>
       <r>    -2.7326     0.0000   195.0000 </r>
       <r>    -2.6920     0.0000   195.0000 </r>
       <r>    -2.6514     0.0000   195.0000 </r>
       <r>    -2.6108     0.0000   195.0000 </r>
       <r>    -2.5702     0.0000   196.0000 </r>
       <r>    -2.5296     0.0000   196.0000 </r>
       <r>    -2.4890     0.0000   196.0000 </r>
       <r>    -2.4484     0.0000   197.0000 </r>
       <r>    -2.4078     0.0000   197.0000 </r>
       <r>    -2.3672     0.0000   198.0000 </r>
       <r>    -2.3266     0.0000   199.0000 </r>
       <r>    -2.2860     0.0000   199.0000 </r>
       <r>    -2.2454     0.0000   199.0000 </r>
       <r>    -2.2048     0.0000   199.0000 </r>
       <r>    -2.1642     0.0000   201.0000 </r>
       <r>    -2.1235     0.0000   202.0000 </r>
       <r>    -2.0829     0.0000   202.0000 </r>
       <r>    -2.0423     0.0000   202.0000 </r>
       <r>    -2.0017     0.0000   202.0000 </r>
       <r>    -1.9611     0.0000   204.0000 </r>
       <r>    -1.9205     0.0000   204.0000 </r>
       <r>    -1.8799     0.0000   204.0000 </r>
       <r>    -1.8393     0.0000   204.0000 </r>
       <r>    -1.7987     0.0000   205.0000 </r>
       <r>    -1.7581     0.0000   205.0000 </r>
       <r>    -1.7175     0.0000   206.0000 </r>
       <r>    -1.6769     0.0000   206.0000 </r>
       <r>    -1.6363     0.0000   207.0000 </r>
       <r>    -1.5957     0.0000   207.0000 </r>
       <r>    -1.5551     0.0000   207.0000 </r>
       <r>    -1.5144     0.0000   207.0000 </r>
       <r>    -1.4738     0.0000   207.0000 </r>
       <r>    -1.4332     0.0000   207.0000 </r>
       <r>    -1.3926     0.0000   209.0000 </r>
       <r>    -1.3520     0.0000   209.0000 </r>
       <r>    -1.3114     0.0000   209.0000 </r>
       <r>    -1.2708     0.0000   209.0000 </r>
       <r>    -1.2302     0.0000   209.0000 </r>
       <r>    -1.1896     0.0000   209.0000 </r>
       <r>    -1.1490     0.0000   209.0000 </r>
       <r>    -1.1084     0.0000   210.0000 </r>
       <r>    -1.0678     0.0000   210.0000 </r>
       <r>    -1.0272     0.0000   210.0000 </r>
       <r>    -0.9866     0.0000   211.0000 </r>
       <r>    -0.9459     0.0000   211.0000 </r>
       <r>    -0.9053     0.0000   211.0000 </r>
       <r>    -0.8647     0.0000   211.0000 </r>
       <r>    -0.8241     0.0000   211.0000 </r>
       <r>    -0.7835     0.0000   212.0000 </r>
       <r>    -0.7429     0.0000   212.0000 </r>
       <r>    -0.7023     0.0000   212.0000 </r>
       <r>    -0.6617     0.0000   213.0000 </r>
       <r>    -0.6211     0.0000   214.0000 </r>
       <r>    -0.5805     0.0000   214.0000 </r>
       <r>    -0.5399     0.0000   214.0000 </r>
       <r>    -0.4993     0.0000   214.0000 </r>
       <r>    -0.4587     0.0000   215.0000 </r>
       <r>    -0.4181     0.0000   215.0000 </r>
       <r>    -0.3775     0.0000   216.0000 </r>
       <r>    -0.3368     0.0000   216.0000 </r>
       <r>    -0.2962     0.0000   216.0000 </r>
       <r>    -0.2556     0.0000   218.0000 </r>
       <r>    -0.2150     0.0000   219.0000 </r>
       <r>    -0.1744     0.0000   219.0000 </r>
       <r>    -0.1338     0.0000   219.0000 </r>
       <r>    -0.0932     0.0000   220.0000 </r>
       <r>    -0.0526     0.0000   221.0000 </r>
       <r>    -0.0120     0.0000   221.0000 </r>
       <r>     0.0286     0.0000   222.0000 </r>
       <r>     0.0692     0.0000   222.0000 </r>
       <r>     0.1098     0.0000   223.0000 </r>
       <r>     0.1504     0.0000   224.0000 </r>
       <r>     0.1910     0.0000   225.0000 </r>
       <r>     0.2316     0.0000   225.0000 </r>
       <r>     0.2723     0.0000   226.0000 </r>
       <r>     0.3129     0.0000   227.0000 </r>
       <r>     0.3535     0.0000   227.0000 </r>
       <r>     0.3941     0.0000   228.0000 </r>
       <r>     0.4347     0.0000   228.0000 </r>
       <r>     0.4753     0.0000   228.0000 </r>
       <r>     0.5159     0.0000   228.0000 </r>
       <r>     0.5565     0.0000   229.0000 </r>
       <r>     0.5971     0.0000   229.0000 </r>
       <r>     0.6377     0.0000   230.0000 </r>
       <r>     0.6783     0.0000   230.0000 </r>
       <r>     0.7189     0.0000   231.0000 </r>
       <r>     0.7595     0.0000   231.0000 </r>
       <r>     0.8001     0.0000   232.0000 </r>
       <r>     0.8408     0.0000   234.0000 </r>
       <r>     0.8814     0.0000   234.0000 </r>
       <r>     0.9220     0.0000   235.0000 </r>
       <r>     0.9626     0.0000   236.0000 </r>
       <r>     1.0032     0.0000   237.0000 </r>
       <r>     1.0438     0.0000   238.0000 </r>
       <r>     1.0844     0.0000   241.0000 </r>
       <r>     1.1250     0.0000   242.0000 </r>
       <r>     1.1656    24.6264   245.0000 </r>
       <r>     1.2062     0.0000   246.0000 </r>
       <r>     1.2468     0.0000   248.0000 </r>
       <r>     1.2874     0.0000   249.0000 </r>
       <r>     1.3280     0.0000   249.0000 </r>
       <r>     1.3686     0.0000   251.0000 </r>
       <r>     1.4092     0.0000   252.0000 </r>
       <r>     1.4499     0.0000   252.0000 </r>
       <r>     1.4905     0.0000   252.0000 </r>
       <r>     1.5311     0.0000   252.0000 </r>
       <r>     1.5717     0.0000   252.0000 </r>
       <r>     1.6123     0.0000   252.0000 </r>
       <r>     1.6529     0.0000   252.0000 </r>
       <r>     1.6935     0.0000   252.0000 </r>
       <r>     1.7341     0.0000   252.0000 </r>
       <r>     1.7747     0.0000   252.0000 </r>
       <r>     1.8153     0.0000   252.0000 </r>
       <r>     1.8559     0.0000   252.0000 </r>
       <r>     1.8965     0.0000   252.0000 </r>
       <r>     1.9371     0.0000   252.0000 </r>
      </set>
     </set>
    </array>
   </total>
  </dos>
 </calculation>
 <structure name="finalpos" >
  <crystal>
   <varray name="basis" >
    <v>      22.15239936       0.00000000       0.00000000 </v>
    <v>       0.00000000      22.15239936       0.00000000 </v>
    <v>       0.00000000       0.00000000      22.15239936 </v>
   </varray>
   <i name="volume">  10870.82029037 </i>
   <varray name="rec_basis" >
    <v>       0.04514184       0.00000000       0.00000000 </v>
    <v>       0.00000000       0.04514184       0.00000000 </v>
    <v>       0.00000000       0.00000000       0.04514184 </v>
   </varray>
  </crystal>
  <varray name="positions" >
   <v>       0.70575864       0.52410031       0.64412576 </v>
   <v>       0.65607052       0.56790341       0.53766057 </v>
   <v>       0.66368277       0.43809391       0.55451351 </v>
   <v>       0.76664245       0.50959081       0.53461597 </v>
   <v>       0.60117524       0.59629499       0.42530284 </v>
   <v>       0.59773905       0.35495966       0.46840798 </v>
   <v>       0.68878788       0.50069252       0.43612890 </v>
   <v>       0.60329343       0.60414450       0.64975311 </v>
   <v>       0.61118014       0.43520899       0.36071173 </v>
   <v>       0.54280997       0.63976202       0.32351166 </v>
   <v>       0.59665563       0.46980533       0.66693289 </v>
   <v>       0.56638314       0.65264812       0.53525795 </v>
   <v>       0.51832884       0.52026711       0.35533229 </v>
   <v>       0.55201970       0.38955678       0.58108493 </v>
   <v>       0.53221826       0.52729325       0.57494025 </v>
   <v>       0.56897633       0.47616634       0.47035373 </v>
   <v>       0.49634278       0.39848337       0.39927720 </v>
   <v>       0.52159408       0.70608411       0.63546657 </v>
   <v>       0.47812264       0.31536651       0.49875995 </v>
   <v>       0.50624639       0.68723769       0.43286626 </v>
   <v>       0.47398330       0.56301483       0.47040190 </v>
   <v>       0.46820853       0.46111857       0.65925908 </v>
   <v>       0.47197215       0.59452463       0.65924378 </v>
   <v>       0.44642815       0.34085625       0.62211427 </v>
   <v>       0.44703621       0.43643557       0.51986264 </v>
   <v>       0.42459274       0.61009411       0.36092990 </v>
   <v>       0.43804077       0.66031318       0.54656811 </v>
   <v>       0.40008453       0.48741814       0.39533999 </v>
   <v>       0.37871446       0.36665522       0.42298742 </v>
   <v>       0.39428451       0.54057890       0.57710176 </v>
   <v>       0.38370223       0.70044603       0.43677385 </v>
   <v>       0.35460725       0.33435689       0.53817690 </v>
   <v>       0.35289891       0.42881721       0.61951364 </v>
   <v>       0.34848789       0.58320560       0.46650165 </v>
   <v>       0.32525246       0.46061483       0.49772943 </v>
  </varray>
 </structure>
</modeling>
