17
Energy = -16.76140203 eV
Sr 2.1005811696136356 11.175926342741441 11.204053068420308
Sr 17.846594594299805 10.68965197702677 10.532348965686255
Sr 19.253825286351322 14.186297656433736 11.856347455588176
Sr 19.43882273973004 11.00367242219693 14.458572272266107
Sr 16.9754964930352 12.84416269206467 17.333760019556582
Sr 17.40463006526834 16.931780991569944 17.522980777195126
Sr 13.819628070477393 15.57250595902321 19.034379213288517
Sr 14.504198641510175 15.085550054441365 15.148811936871166
Sr 0.45046569138391324 14.876811421658635 15.603646691367693
Sr 17.171654790347304 17.33256686910889 13.437010380791426
Sr 15.419852560337844 11.36072870724986 13.811881350644565
Sr 12.613057358975976 12.185821576052456 16.922977967173946
Sr 13.979559548326442 18.846237728025123 16.235829892859886
Sr 15.30574009465504 14.314307016644294 11.025441431008556
Sr 10.799341356682936 16.014944214995786 16.08424460524746
Sr 11.697024686892298 13.34154423034318 12.99813248793582
Sr 12.75085926790279 17.407808128925378 12.505206603651358
