11
Energy = -9.22471027 eV
Sr 18.780152414618758 15.987546446166684 15.663672821412082
Sr 17.54799831140231 13.638702460917548 12.57556261993108
Sr 15.129393568561142 16.74788940335363 13.815057108843238
Sr 15.546205213558952 13.24419611563519 16.152179364363864
Sr 14.76024776716368 10.761884958939007 12.904120845280739
Sr 13.987338297651618 14.129816124183144 10.58544629831503
Sr 11.686655569302847 10.445211578755051 15.632947201517617
Sr 11.023626644194973 11.373533113923248 11.47728930267222
Sr 12.287903802483838 14.037444173549115 14.168150746158252
Sr 10.004853297115654 15.412138773571282 11.207282563467459
Sr 8.416967562332596 12.836831167648976 14.179503063083184
