12
Energy = -10.31180934 eV
Sr 14.51149487751436 11.707606354099418 12.022278966094774
Sr 15.586848410176806 14.743530300796563 9.6279201085194
Sr 15.568871435681954 15.078071929891324 13.85330043227567
Sr 13.181066266734465 9.538744881432661 9.071797314588125
Sr 14.210949819756749 11.998257787003102 16.11005715558236
Sr 13.081408334621033 8.522506383915058 13.881902915400556
Sr 12.653319131002187 15.960667145713868 16.674025672385348
Sr 12.766680414008258 17.08083245334972 11.864357904077572
Sr 11.727514333985157 13.539838337826843 9.611741200458168
Sr 10.301985935045282 10.913079895681586 16.140169275254355
Sr 10.290222528230153 10.495720722700854 11.882140233998948
Sr 11.485673647449898 13.810583576242983 13.669805836763965
