25
Energy = -27.77425138 eV
Sr 9.024335599766061 15.274450511567947 17.817502218880815
Sr 10.322237414722055 11.38251931941123 18.689551429003547
Sr 8.17606230650279 12.061200255562241 15.056936919794062
Sr 11.530400650015963 9.57681463643138 14.995902655051065
Sr 9.206991955492471 15.8351044501614 13.703514211302348
Sr 12.374031641501379 17.421558345014816 16.060339933943123
Sr 11.790671262102936 13.43452510413018 15.661594535348781
Sr 11.83316930360043 12.956553332573307 11.739949740486384
Sr 14.41911027914327 11.134051842436167 17.861015298653186
Sr 13.048986990233614 14.791146686534013 19.32802371671136
Sr 15.483336621265343 14.621272143069255 15.924262478792011
Sr 15.11435836322818 11.28136577160584 13.772268802459264
Sr 15.478455922368521 11.525612319467866 9.653302205904168
Sr 12.579901146546636 17.217360226966687 11.90918718140184
Sr 13.66170895460516 15.05190988410224 8.33107935684553
Sr 18.322772470720878 11.625408785901586 16.34067246496732
Sr 15.711569400845702 14.868014466737991 11.744149129391788
Sr 16.072119710748204 17.753895638033683 18.227362372994598
Sr 17.203179717124584 14.018883224982913 19.523913262815874
Sr 18.893308909081128 12.699266920970999 12.330453075105188
Sr 16.105543677645965 18.196433598310563 14.008721529810225
Sr 17.917839457921126 14.646421734765639 8.460009090291587
Sr 19.216974750497062 15.707937322317928 15.789992276376383
Sr 16.04818018748835 18.265069958989148 9.680346614749892
Sr 19.367330451687288 16.81029688960342 11.740546564742697
