28
Energy = -31.32037449 eV
Sr 0.4155751506485969 13.927390310819716 12.142840929792769
Sr 20.255988094595164 11.62306128354379 15.508557504707884
Sr 20.250599366108407 15.894086581679844 15.891121045813716
Sr 17.98941148870925 10.381797962330365 12.026811286144072
Sr 17.816407057305504 14.167483318883269 9.677842797831802
Sr 18.764685224751503 17.546310997313807 12.24637940109974
Sr 16.516564824808416 9.76461984025811 16.198154120749578
Sr 17.519469453939216 13.88952000847693 13.60502206370095
Sr 17.343833264266696 13.619759842630522 17.7504388941609
Sr 14.349851494648071 12.400412681713117 11.18792155083624
Sr 14.067557890351871 8.862856376900018 13.022433091835248
Sr 16.287662381050524 17.051058524394676 15.551197672972158
Sr 14.05752829862663 11.564185155898032 19.229202702175666
Sr 14.82200877197908 16.50437036379166 11.566997055639362
Sr 14.56773347661368 20.197081205386812 13.532347498827273
Sr 17.52046084445429 17.52543578598326 19.28605859502446
Sr 10.636378229648953 11.611121336217185 13.370426155517812
Sr 14.012532014008027 12.800633790169247 15.293464505043051
Sr 11.148054837402892 18.85065003205962 11.522441650155553
Sr 13.844936334549466 19.600669524579292 17.667688789042966
Sr 12.382221568850996 16.81995130334291 14.826420380682956
Sr 12.109643163123044 9.317174651444212 16.550996585734175
Sr 11.10612122522218 14.843592969876406 11.053132286509774
Sr 13.828173318205964 15.610372023765253 18.574819315751945
Sr 10.5673490402097 20.468434976255615 15.199521920325788
Sr 10.522578638340848 13.355980563200383 17.200663713813835
Sr 8.638399765223834 16.05596557371747 14.191715385910962
Sr 10.119032488488866 17.502101735297586 18.072345492679705
