29
Energy = -32.9038349 eV
Sr 16.00510925507753 17.015051534821215 9.286695569071636
Sr 19.198155923600417 16.87107094143895 12.116902036614198
Sr 15.734339180895795 18.81103576784303 13.392548164712865
Sr 12.475661108339645 18.996907514240895 10.892047972494687
Sr 19.104828809356118 18.18579681793443 15.926972052902519
Sr 11.728196778800493 15.624624151632293 8.64494505530247
Sr 14.791397744149878 12.971457908772251 8.53958335331529
Sr 17.4390677404959 13.320586072799692 11.544698647276627
Sr 18.40898432462727 15.302734935689084 18.761441855712377
Sr 13.867343413681606 15.335697153425166 12.03062414376999
Sr 20.150390300677067 13.868119030474876 15.010835841296846
Sr 16.498296382347984 15.17442793522603 15.20865337989446
Sr 15.168476850162588 18.112143465903205 17.547262204166724
Sr 11.77666528249976 18.857155390590407 15.029200935228562
Sr 11.368689590954382 17.527973950071335 19.1454493700655
Sr 18.486682203638065 10.144694195540714 13.6996718940815
Sr 14.386491852268575 11.808254855201195 14.085417004659126
Sr 9.998596663643667 15.829823891032623 12.557127239955792
Sr 15.168779309890166 9.483806369396993 11.09552279769652
Sr 12.398095175983752 15.057378496609592 16.100339733484596
Sr 11.576397746839286 12.067022165710576 11.048860078576833
Sr 8.536972407334193 16.23684915099005 16.425240298233103
Sr 14.382688777101823 14.361512254461758 19.42868021045996
Sr 16.978904274453225 11.681605992538719 17.245786686971456
Sr 10.121880597376405 13.592810069587799 19.15924344076152
Sr 15.39098639893103 8.137852891088697 15.38917429077672
Sr 11.741574266056933 8.811500228289871 13.702569063631595
Sr 9.785377324431725 12.298621865686997 15.009601313359392
Sr 12.799057342870215 10.819568835559116 17.54930073490203
