24
Energy = -25.46933696 eV
Sr 14.643180171096226 19.065312989432396 10.165493807886872
Sr 16.033723757182862 19.601521131739446 14.103084762674909
Sr 18.52332753949666 17.184913248536688 11.239198731208395
Sr 17.745394804317037 16.28257932546834 16.12611425950013
Sr 12.001892094727976 18.375481530369612 13.292075777704476
Sr 13.649257477813812 16.720031341809772 16.461984047917543
Sr 15.088338984811685 15.295792322053371 8.760877266059286
Sr 11.233360161728436 16.127301340613872 10.022795207213672
Sr 15.350302717489186 16.052218938620094 12.76148138034729
Sr 18.74104507748987 13.437853851073502 13.618503174483434
Sr 15.779718438492642 15.051160332273376 19.56585768585164
Sr 15.026958498978448 12.858149181591017 15.702295511013844
Sr 9.636037036569126 15.653223295104434 15.562879995775432
Sr 12.298759012216856 14.024718044761558 13.162661649030145
Sr 15.667576688454565 12.280805211434023 11.34080482191867
Sr 11.551138108526096 14.729489834017809 19.25829759943029
Sr 17.088356891480768 9.617189278715069 14.09892451324206
Sr 17.943609528497344 11.773345360034773 17.821557565048323
Sr 12.055950512345987 12.185646009760518 9.487169928622974
Sr 8.98933918746471 12.392801664549156 12.54706196049552
Sr 14.33054647132657 8.892370323793166 16.836176144331095
Sr 13.958995336209474 11.52259372791761 19.7514277929133
Sr 11.1068012233285 11.79888842394998 16.444499564028668
Sr 12.796293009766984 9.997153248313595 13.094090443651163
