39
Energy = -45.43549434 eV
Sr 13.570448284799708 11.473335793738743 9.720051146018797
Sr 17.68366336284859 13.096723637213637 9.892107951590505
Sr 14.235890781620038 15.564971426569986 10.055077762968388
Sr 10.920194569156077 13.777481651658563 11.99430229854258
Sr 16.082389637055343 9.068830147814163 11.899543348043043
Sr 15.293305023044212 20.416057888336656 12.743353394570882
Sr 17.726808282452478 17.568313838039387 10.55003769171729
Sr 15.435984929825844 12.843166070861857 13.00037017192402
Sr 12.445289444196442 10.210222108837929 13.836846385794134
Sr 19.292339923066514 11.05162610624211 13.394480813231718
Sr 12.380547623469528 17.41373505031542 13.011405354464078
Sr 18.230410751155635 0.8195827743422519 14.740968643403605
Sr 19.17453965027648 19.09701561560681 14.202563097493666
Sr 9.446717711224629 16.603635260358434 15.545434052472032
Sr 14.2078997550805 1.511380004199299 15.525094969156775
Sr 16.017057375412136 10.259349082100835 16.081762576144627
Sr 11.543028807267826 20.724491528530034 15.210360209374011
Sr 16.08256327038286 16.507641311902752 14.309077747126597
Sr 19.923528818985993 15.144690542714823 13.002736191218572
Sr 12.621412139121766 13.959796664645278 15.560528766609261
Sr 18.35069321052417 13.585692972396759 16.380725134653414
Sr 0.020648856638543326 12.925395969959744 15.663300894464882
Sr 16.047665527592482 20.465765457989182 16.659288338487197
Sr 12.854184762360804 11.072428740384614 18.631947667418505
Sr 20.023716585886426 10.083474393904247 17.542562327416977
Sr 13.166024460064998 17.700019191621596 17.107925571916113
Sr 21.710375615245713 16.873079568661062 16.53224726851242
Sr 16.88969210288827 1.38253209756558 18.737023493266918
Sr 19.947993347667033 20.78203870323186 17.893870933234417
Sr 10.938788326083003 14.810311350093366 19.28729152587486
Sr 14.981898713183563 14.512706910205758 18.608228494523548
Sr 13.1661516349828 21.502725147142893 19.139966199965812
Sr 17.968389017675186 17.172908618927835 18.047063418142734
Sr 17.068309485117833 11.597734452086339 20.074048601107485
Sr 20.651735044600418 13.982260799241871 19.537498037909295
Sr 13.65409843205651 17.48984022006713 21.089829931814556
Sr 13.678267582842949 13.344344452895497 22.17881102187475
Sr 16.87566347117576 19.975163876826855 20.732703718303828
Sr 17.318789733091304 15.619753111583083 21.765554739868954
