32
Energy = -36.52678244 eV
Sr 15.344485121747221 17.15722496793486 8.256079773566503
Sr 15.11357059508758 20.39862353338293 10.815178795841032
Sr 11.629383759571136 18.083237633477378 9.965660834524032
Sr 18.479284046474074 17.63828723114246 11.473923324996793
Sr 12.835939763324305 13.873910200216068 10.026932234427205
Sr 17.38661750871856 14.070381983434341 9.829632438063099
Sr 16.388204920744123 19.352164018125105 14.651618565526906
Sr 12.29637262133483 19.66609125220338 13.843273339151667
Sr 14.635463231081514 16.582755200209743 12.173784042426417
Sr 20.262298157666958 14.030117518888707 12.869564461846156
Sr 10.761905934026583 15.660326407077704 13.370668969066783
Sr 20.205917572607618 17.93690958785052 15.541351375482032
Sr 17.290806833913088 15.208337300426491 15.052217676355685
Sr 11.636020283452225 11.682775945851045 14.007080832300078
Sr 15.507659040568175 12.294489228947183 12.795622979677956
Sr 13.552590587418845 16.5431896217918 16.163071653944215
Sr 14.085879634505996 20.553631716644944 17.755987472762882
Sr 18.485286400684597 21.02488182191344 17.94795433233226
Sr 14.70683908154389 8.865805097283928 15.107030957361127
Sr 14.497367435289384 12.533820475731922 16.6344812327982
Sr 10.745393247136992 14.059228696161634 17.562963165982403
Sr 21.02310649659695 14.2789368684357 17.04019852026439
Sr 18.307758918192455 11.238867744531213 15.696983224529232
Sr 11.87055185327977 9.966404549006628 18.041034803735716
Sr 16.68249778856016 17.522470423503155 18.308330182032762
Sr 13.028402313252228 17.178684525252653 20.151367361928873
Sr 20.091776233024202 17.407118160966885 19.936452960475986
Sr 16.330568319271592 19.969822864547364 21.353101475749057
Sr 15.986217917327735 9.732845593261878 19.010655253451382
Sr 13.728494061013416 13.09742749322023 20.475671161414393
Sr 17.595671462120468 13.625279758909176 19.05169893168075
Sr 16.493713651074767 15.929031686087635 0.3956941323459217
