43
Energy = -50.78833671 eV
Sr 9.725419128397583 17.21000858977503 13.779096652621012
Sr 12.10894376360599 19.865761799086492 15.938775829543873
Sr 11.48179722897355 20.82952641954893 11.839179286015856
Sr 11.174399561887954 16.713197758726494 18.7654978299443
Sr 15.351397674427268 22.228424379600458 17.430386772215343
Sr 11.20195498048639 17.37715513148285 9.457581699001082
Sr 12.88796808863225 15.439067024558637 15.529059261338409
Sr 13.852634695450865 19.405078767696015 20.22899689492341
Sr 9.60238135825689 13.548184839562857 16.396644839809593
Sr 11.680457197677311 13.949289096789892 12.01950360532127
Sr 9.672665251648935 13.364108846113428 20.828835913946893
Sr 15.547039502561484 18.297097928091148 16.660819536215417
Sr 13.097675561246204 15.290637308247392 0.12002524546827313
Sr 15.467654218430534 20.969729306227883 13.417707423604902
Sr 13.5381418413942 17.57598678893189 12.553708981485832
Sr 18.0656862181221 19.81243722083506 19.666223595846038
Sr 10.263171706528984 10.043699900460028 18.5440744680525
Sr 15.10769264177157 19.593529065847182 9.546723772522219
Sr 16.216875704866524 16.072686757986048 19.960116955718018
Sr 15.114904376807981 15.441639062238455 9.461081900942666
Sr 18.926836085877035 20.554922963585284 15.593109720391393
Sr 12.973678596443818 11.274131156187565 15.240201391467599
Sr 16.267827484111503 14.197378624699995 16.520203124299062
Sr 19.183009345100047 16.793319399237106 17.221636878012138
Sr 13.204148799356226 13.026414828190454 18.847429678991244
Sr 19.253407204502842 20.257912339190113 11.289316893440473
Sr 18.46511515643777 17.57554553748797 8.283562888356808
Sr 22.075064468363895 19.196652198037075 18.118087896573982
Sr 14.052509282215526 8.776308234665265 18.4051585056437
Sr 17.391285976148055 17.069625382705787 13.086339635573323
Sr 15.82772715777614 13.181180890376961 12.797476151477412
Sr 20.288247268576583 16.364521827355127 21.016417718635203
Sr 17.139017588713934 10.388027728377804 16.22778014768669
Sr 13.25168961832523 10.800964983060625 22.05829254933591
Sr 19.164214038075215 13.020681402920715 18.941455517056486
Sr 16.896688540316216 13.20713191644125 0.3857477029148114
Sr 21.40015135276833 17.589626857632457 13.958688738846584
Sr 0.03483971744640513 17.450915898776262 9.943077753879209
Sr 17.243000410601148 9.723855616346508 20.53155876091507
Sr 0.4938106863978486 15.06922055287778 17.15475616070816
Sr 19.70935521970311 13.639519484682133 14.680552387429758
Sr 19.400661889355185 14.45946331985763 10.671277630707678
Sr 1.0000712128050995 14.227452700106321 12.616827486850578
