9
Energy = -7.04149913 eV
Sr 10.623633291837502 17.093588274393575 15.353632502838185
Sr 12.128643808304588 13.10379258824737 16.263322753709094
Sr 14.083339732925651 13.655580767944079 11.100690011281209
Sr 12.32178255507085 10.436790079192201 12.984361699941664
Sr 14.315890515422412 15.932680405812171 14.387680357118027
Sr 10.448640348271914 14.094948832520377 12.725266383428906
Sr 15.845132254450968 12.112124425882126 14.498444479021236
Sr 12.151962940180233 17.50906953515915 11.33881554725487
Sr 15.89416244130133 9.981298016428367 10.962734344525273
