 vasp.5.3.5 31Mar14 (build Feb 01 2018 12:10:03) gamma-only                     
  
 executed on             LinuxIFC date 2019.03.23  01:43:34
 running on   64 total cores
 distrk:  each k-point on   64 cores,    1 groups
 distr:  one band on NCORES_PER_BAND=  16 cores,    4 groups


--------------------------------------------------------------------------------------------------------


 INCAR:
 POTCAR:    PAW_PBE Ag 02Apr2005                  
 POTCAR:    PAW_PBE Ag 02Apr2005                  
   VRHFIN =Ag : s1 d10                                                          
   LEXCH  = PE                                                                  
   EATOM  =  1037.2675 eV,   76.2370 Ry                                         
                                                                                
   TITEL  = PAW_PBE Ag 02Apr2005                                                
   LULTRA =        F    use ultrasoft PP ?                                      
   IUNSCR =        1    unscreen: 0-lin 1-nonlin 2-no                           
   RPACOR =    2.000    partial core radius                                     
   POMASS =  107.868; ZVAL   =   11.000    mass and valenz                      
   RCORE  =    2.500    outmost cutoff radius                                   
   RWIGS  =    2.840; RWIGS  =    1.503    wigner-seitz radius (au A)           
   ENMAX  =  249.844; ENMIN  =  187.383 eV                                      
   ICORE  =        3    local potential                                         
   LCOR   =        T    correct aug charges                                     
   LPAW   =        T    paw PP                                                  
   EAUG   =  412.496                                                            
   DEXC   =    0.000                                                            
   RMAX   =    2.560    core radius for proj-oper                               
   RAUG   =    1.300    factor for augmentation sphere                          
   RDEP   =    2.576    radius for radial grids                                 
   RDEPT  =    2.072    core radius for aug-charge                              
                                                                                
   Atomic configuration                                                         
   12 entries                                                                   
     n  l   j            E        occ.                                          
     1  0  0.50    -25324.9161   2.0000                                         
     2  0  0.50     -3728.5341   2.0000                                         
     2  1  1.50     -3344.0404   6.0000                                         
     3  0  0.50      -683.5581   2.0000                                         
     3  1  1.50      -557.3225   6.0000                                         
     3  2  2.50      -358.3853  10.0000                                         
     4  0  0.50       -95.0341   2.0000                                         
     4  1  1.50       -58.5511   6.0000                                         
     4  2  2.50        -7.4440  10.0000                                         
     5  0  0.50        -4.4045   1.0000                                         
     5  1  0.50        -1.3606   0.0000                                         
     4  3  2.50        -1.3606   0.0000                                         
   Description                                                                  
     l       E           TYP  RCUT    TYP  RCUT                                 
     2     -7.4439781     23  2.400                                             
     2     -8.8045607     23  2.400                                             
     0     -4.4044681     23  2.400                                             
     0      1.9520038     23  2.400                                             
     1     -1.3605826     23  2.500                                             
     1     27.2116520     23  2.500                                             
     3     -4.0817478     23  2.400                                             
  local pseudopotential read in
  partial core-charges read in
  partial kinetic energy density read in
  atomic valenz-charges read in
  non local Contribution for L=           2  read in
    real space projection operators read in
  non local Contribution for L=           2  read in
    real space projection operators read in
  non local Contribution for L=           0  read in
    real space projection operators read in
  non local Contribution for L=           0  read in
    real space projection operators read in
  non local Contribution for L=           1  read in
    real space projection operators read in
  non local Contribution for L=           1  read in
    real space projection operators read in
    PAW grid and wavefunctions read in
 
   number of l-projection  operators is LMAX  =           6
   number of lm-projection operators is LMMAX =          18
 

 ----------------------------------------------------------------------------- 
|                                                                             |
|  ADVICE TO THIS USER RUNNING 'VASP/VAMP'   (HEAR YOUR MASTER'S VOICE ...):  |
|                                                                             |
|      You have a (more or less) 'large supercell' and for larger cells       |
|      it might be more efficient to use real space projection opertators     |
|      So try LREAL= Auto  in the INCAR   file.                               |
|      Mind: At the moment your POTCAR file does not contain real space       |
|       projectors, and has to be modified,  BUT if you                       |
|      want to do an extremely  accurate calculation you might also keep the  |
|      reciprocal projection scheme          (i.e. LREAL=.FALSE.)             |
|                                                                             |
 ----------------------------------------------------------------------------- 

  PAW_PBE Ag 02Apr2005                  :
 energy of atom  1       EATOM=-1037.2675
 kinetic energy error for atom=    0.0689 (will be added to EATOM!!)
 
 
 POSCAR: Au35, -92.48629201 <s> Ag </s>          
  positions in direct lattice
  No initial velocities read in
 exchange correlation table for  LEXCH =        8
   RHO(1)=    0.500       N(1)  =     2000
   RHO(2)=  100.500       N(2)  =     4000
 


--------------------------------------------------------------------------------------------------------


 ion  position               nearest neighbor table
   1  0.568  0.351  0.647-   2 2.73   8 2.73   5 2.74   9 2.74  12 2.80
   2  0.512  0.460  0.673-   6 2.71   1 2.73   7 2.73   4 2.74   5 2.77   8 2.86
   3  0.610  0.675  0.588-   6 2.73  16 2.76  35 2.76  10 2.79  23 2.81
   4  0.387  0.444  0.687-   8 2.72  11 2.74   2 2.74   7 2.79  15 2.81
   5  0.623  0.458  0.609-  10 2.71   1 2.74   2 2.77  13 2.77   6 2.78   9 2.86
   6  0.563  0.568  0.636-   2 2.71   3 2.73  16 2.76   5 2.78  10 2.78   7 2.80
   7  0.436  0.559  0.654-   2 2.73  16 2.73  17 2.76   4 2.79   6 2.80  11 2.83
   8  0.447  0.362  0.613-  12 2.72   4 2.72  18 2.73   1 2.73  15 2.73   2 2.86
   9  0.653  0.342  0.554-  13 2.72  19 2.73   1 2.74  12 2.78   5 2.86
  10  0.658  0.562  0.549-   5 2.71  35 2.75  13 2.75   6 2.78   3 2.79  25 2.81
  11  0.312  0.527  0.628-  17 2.67   4 2.74  21 2.74  15 2.75   7 2.83
  12  0.529  0.321  0.527-   8 2.72  19 2.73  18 2.76   9 2.78   1 2.80  26 2.80
  13  0.683  0.450  0.496-   9 2.72  25 2.73  10 2.75   5 2.77  20 2.78  19 2.85
  14  0.415  0.712  0.501-  23 2.69  17 2.70  22 2.74  32 2.78  16 2.80
  15  0.347  0.422  0.565-   8 2.73  21 2.74  11 2.75  27 2.76  18 2.78   4 2.81
  16  0.484  0.660  0.597-   7 2.73   3 2.76   6 2.76  17 2.78  23 2.78  14 2.80
  17  0.364  0.624  0.572-  11 2.67  14 2.70   7 2.76  16 2.78  22 2.82  21 2.85
  18  0.406  0.331  0.498-   8 2.73  24 2.76  12 2.76  26 2.77  15 2.78  27 2.78
  19  0.609  0.358  0.437-  20 2.71  26 2.72  12 2.73   9 2.73  29 2.75  13 2.85
  20  0.678  0.436  0.369-  19 2.71  25 2.72  13 2.78  33 2.79  29 2.79
  21  0.312  0.525  0.501-  27 2.70  22 2.73  15 2.74  11 2.74  30 2.76  17 2.85
  22  0.327  0.638  0.447-  21 2.73  14 2.74  30 2.74  32 2.81  17 2.82
  23  0.535  0.689  0.483-  14 2.69  35 2.70  28 2.74  16 2.78  32 2.79   3 2.81
  24  0.370  0.313  0.377-  26 2.73  18 2.76  27 2.77  31 2.79
  25  0.673  0.550  0.421-  35 2.66  20 2.72  13 2.73  33 2.80  10 2.81  28 2.83
  26  0.492  0.329  0.404-  19 2.72  24 2.73  29 2.74  18 2.77  12 2.80  31 2.80
  27  0.336  0.420  0.439-  21 2.70  31 2.74  15 2.76  24 2.77  18 2.78  30 2.82
  28  0.572  0.623  0.381-  33 2.70  32 2.72  23 2.74  34 2.79  35 2.79  25 2.83
  29  0.552  0.424  0.346-  31 2.73  33 2.74  26 2.74  19 2.75  34 2.77  20 2.79
  30  0.374  0.535  0.391-  34 2.73  22 2.74  31 2.75  21 2.76  32 2.76  27 2.82
  31  0.426  0.426  0.350-  34 2.73  29 2.73  27 2.74  30 2.75  24 2.79  26 2.80
  32  0.449  0.637  0.402-  28 2.72  34 2.75  30 2.76  14 2.78  23 2.79  22 2.81
  33  0.612  0.529  0.309-  28 2.70  29 2.74  34 2.75  20 2.79  25 2.80
  34  0.488  0.535  0.338-  30 2.73  31 2.73  33 2.75  32 2.75  29 2.77  28 2.79
  35  0.656  0.662  0.470-  25 2.66  23 2.70  10 2.75   3 2.76  28 2.79
 
  LATTYP: Found a simple cubic cell.
 ALAT       =    21.6719709771
  
  Lattice vectors:
  
 A1 = (  21.6719709771,   0.0000000000,   0.0000000000)
 A2 = (   0.0000000000,  21.6719709771,   0.0000000000)
 A3 = (   0.0000000000,   0.0000000000,  21.6719709771)


Analysis of symmetry for initial positions (statically):
=====================================================================
 Subroutine PRICEL returns:
 Original cell was already a primitive cell.
 

 Routine SETGRP: Setting up the symmetry group for a 
 simple cubic supercell.


 Subroutine GETGRP returns: Found  1 space group operations
 (whereof  1 operations were pure point group operations)
 out of a pool of 48 trial point group operations.


The static configuration has the point symmetry C_1 .


Analysis of symmetry for dynamics (positions and initial velocities):
=====================================================================
 Subroutine PRICEL returns:
 Original cell was already a primitive cell.
 

 Routine SETGRP: Setting up the symmetry group for a 
 simple cubic supercell.


 Subroutine GETGRP returns: Found  1 space group operations
 (whereof  1 operations were pure point group operations)
 out of a pool of 48 trial point group operations.


The dynamic configuration has the point symmetry C_1 .


Analysis of magnetic symmetry:
=====================================================================
 Subroutine PRICEL returns:
 Original cell was already a primitive cell.
 

 Subroutine MAGSYM returns: Found  1 space group operations
 (whereof  1 operations were pure point group operations)
 out of a pool of  1 trial space group operations
 (whereof  1 operations were pure point group operations)
 and found also     1 'primitive' translations


The magnetic configuration has the point symmetry C_1 .
 
 
 KPOINTS: Gamma-point only                        
  k-points in reciprocal lattice
Space group operators:
 irot       det(A)        alpha          n_x          n_y          n_z        tau_x        tau_y        tau_z
    1     1.000000     0.000001     1.000000     0.000000     0.000000     0.000000     0.000000     0.000000


--------------------------------------------------------------------------------------------------------




 Dimension of arrays:
   k-points           NKPTS =      1   k-points in BZ     NKDIM =      1   number of bands    NBANDS=    252
   number of dos      NEDOS =    301   number of ions     NIONS =     35
   non local maximal  LDIM  =      6   non local SUM 2l+1 LMDIM =     18
   total plane-waves  NPLWV = 592704
   max r-space proj   IRMAX =      1   max aug-charges    IRDMAX=   3062
   dimension x,y,z NGX =    84 NGY =   84 NGZ =   84
   dimension x,y,z NGXF=   168 NGYF=  168 NGZF=  168
   support grid    NGXF=   168 NGYF=  168 NGZF=  168
   ions per type =              35
 NGX,Y,Z   is equivalent  to a cutoff of   6.44,  6.44,  6.44 a.u.
 NGXF,Y,Z  is equivalent  to a cutoff of  12.89, 12.89, 12.89 a.u.


 I would recommend the setting:
   dimension x,y,z NGX =    84 NGY =   84 NGZ =   84
 SYSTEM =  unknown system                          
 POSCAR =  Au35, -92.48629201 <s> Ag </s>          

 Startparameter for this run:
   NWRITE =      2    write-flag & timer
   PREC   = normal    normal or accurate (medium, high low for compatibility)
   ISTART =      0    job   : 0-new  1-cont  2-samecut
   ICHARG =      2    charge: 1-file 2-atom 10-const
   ISPIN  =      2    spin polarized calculation?
   LNONCOLLINEAR =      F non collinear calculations
   LSORBIT =      F    spin-orbit coupling
   INIWAV =      1    electr: 0-lowe 1-rand  2-diag
   LASPH  =      F    aspherical Exc in radial PAW
   METAGGA=      F    non-selfconsistent MetaGGA calc.

 Electronic Relaxation 1
   ENCUT  =  249.8 eV  18.36 Ry    4.29 a.u.  27.93 27.93 27.93*2*pi/ulx,y,z
   ENINI  =  249.8     initial cutoff
   ENAUG  =  412.5 eV  augmentation charge cutoff
   NELM   =     60;   NELMIN=  2; NELMDL= -5     # of ELM steps 
   EDIFF  = 0.1E-03   stopping-criterion for ELM
   LREAL  =      F    real-space projection
   NLSPLINE    = F    spline interpolate recip. space projectors
   LCOMPAT=      F    compatible to vasp.4.4
   GGA_COMPAT  = T    GGA compatible to vasp.4.4-vasp.4.6
   LMAXPAW     = -100 max onsite density
   LMAXMIX     =    2 max onsite mixed and CHGCAR
   VOSKOWN=      0    Vosko Wilk Nusair interpolation
   ROPT   =    0.00000
 Ionic relaxation
   EDIFFG = 0.1E-02   stopping-criterion for IOM
   NSW    =   1000    number of steps for IOM
   NBLOCK =      1;   KBLOCK =   1000    inner block; outer block 
   IBRION =      2    ionic relax: 0-MD 1-quasi-New 2-CG
   NFREE  =      1    steps in history (QN), initial steepest desc. (CG)
   ISIF   =      2    stress and relaxation
   IWAVPR =     11    prediction:  0-non 1-charg 2-wave 3-comb
   ISYM   =      2    0-nonsym 1-usesym 2-fastsym
   LCORR  =      T    Harris-Foulkes like correction to forces

   POTIM  = 0.1000    time-step for ionic-motion
   TEIN   =    0.0    initial temperature
   TEBEG  =    0.0;   TEEND  =   0.0 temperature during run
   SMASS  =  -3.00    Nose mass-parameter (am)
   estimated Nose-frequenzy (Omega)   =  0.10E-29 period in steps =****** mass=  -0.107E-25a.u.
   SCALEE = 1.0000    scale energy and forces
   NPACO  =    256;   APACO  = 16.0  distance and # of slots for P.C.
   PSTRESS=    0.0 pullay stress

  Mass of Ions in am
   POMASS = 107.87
  Ionic Valenz
   ZVAL   =  11.00
  Atomic Wigner-Seitz radii
   RWIGS  =  -1.00
  virtual crystal weights 
   VCA    =   1.00
   NELECT =     385.0000    total number of electrons
   NUPDOWN=      -1.0000    fix difference up-down

 DOS related values:
   EMIN   =  10.00;   EMAX   =-10.00  energy-range for DOS
   EFERMI =   0.00
   ISMEAR =     0;   SIGMA  =   0.00  broadening in eV -4-tet -1-fermi 0-gaus

 Electronic relaxation 2 (details)
   IALGO  =     38    algorithm
   LDIAG  =      T    sub-space diagonalisation (order eigenvalues)
   LSUBROT=      F    optimize rotation matrix (better conditioning)
   TURBO    =      0    0=normal 1=particle mesh
   IRESTART =      0    0=no restart 2=restart with 2 vectors
   NREBOOT  =      0    no. of reboots
   NMIN     =      0    reboot dimension
   EREF     =   0.00    reference energy to select bands
   IMIX   =      4    mixing-type and parameters
     AMIX     =   0.40;   BMIX     =  1.00
     AMIX_MAG =   1.60;   BMIX_MAG =  1.00
     AMIN     =   0.10
     WC   =   100.;   INIMIX=   1;  MIXPRE=   1;  MAXMIX= -45

 Intra band minimization:
   WEIMIN = 0.0010     energy-eigenvalue tresh-hold
   EBREAK =  0.99E-07  absolut break condition
   DEPER  =   0.30     relativ break condition  

   TIME   =   0.40     timestep for ELM

  volume/ion in A,a.u.               =     290.82      1962.56
  Fermi-wavevector in a.u.,A,eV,Ry     =   0.549537  1.038474  4.108831  0.301991
  Thomas-Fermi vector in A             =   1.580710
 
 Write flags
   LWAVE  =      F    write WAVECAR
   LCHARG =      F    write CHGCAR
   LVTOT  =      F    write LOCPOT, total local potential
   LVHAR  =      F    write LOCPOT, Hartree potential only
   LELF   =      F    write electronic localiz. function (ELF)
   LORBIT =      0    0 simple, 1 ext, 2 COOP (PROOUT)


 Dipole corrections
   LMONO  =      F    monopole corrections only (constant potential shift)
   LDIPOL =      F    correct potential (dipole corrections)
   IDIPOL =      0    1-x, 2-y, 3-z, 4-all directions 
   EPSILON=  1.0000000 bulk dielectric constant

 Exchange correlation treatment:
   GGA     =    PE    GGA type
   LEXCH   =     8    internal setting for exchange type
   VOSKOWN=      0    Vosko Wilk Nusair interpolation
   LHFCALC =     F    Hartree Fock is set to
   LHFONE  =     F    Hartree Fock one center treatment
   AEXX    =    0.0000 exact exchange contribution

 Linear response parameters
   LEPSILON=     F    determine dielectric tensor
   LRPA    =     F    only Hartree local field effects (RPA)
   LNABLA  =     F    use nabla operator in PAW spheres
   LVEL    =     F    velocity operator in full k-point grid
   LINTERFAST=   F  fast interpolation
   KINTER  =     0    interpolate to denser k-point grid
   CSHIFT  =0.1000    complex shift for real part using Kramers Kronig
   OMEGAMAX=  -1.0    maximum frequency
   DEG_THRESHOLD= 0.2000000E-02 threshold for treating states as degnerate
   RTIME   =    0.100 relaxation time in fs

 Orbital magnetization related:
   ORBITALMAG=     F  switch on orbital magnetization
   LCHIMAG   =     F  perturbation theory with respect to B field
   DQ        =  0.001000  dq finite difference perturbation B field



--------------------------------------------------------------------------------------------------------


 conjugate gradient relaxation of ions
 charge density and potential will be updated during run
 spin polarized calculation
 Variant of blocked Davidson
 Davidson routine will perform the subspace rotation
 perform sub-space diagonalisation
    after iterative eigenvector-optimisation
 modified Broyden-mixing scheme, WC =      100.0
 initial mixing is a Kerker type mixing with AMIX =  0.4000 and BMIX =      1.0000
 Hartree-type preconditioning will be used
 using additional bands           59
 reciprocal scheme for non local part
 use partial core corrections
 calculate Harris-corrections to forces 
   (improved forces if not selfconsistent)
 use gradient corrections 
 use of overlap-Matrix (Vanderbilt PP)
 Gauss-broadening in eV      SIGMA  =   0.00


--------------------------------------------------------------------------------------------------------


  energy-cutoff  :      249.84
  volume of cell :    10178.77
      direct lattice vectors                 reciprocal lattice vectors
    21.671970977  0.000000000  0.000000000     0.046142550  0.000000000  0.000000000
     0.000000000 21.671970977  0.000000000     0.000000000  0.046142550  0.000000000
     0.000000000  0.000000000 21.671970977     0.000000000  0.000000000  0.046142550

  length of vectors
    21.671970977 21.671970977 21.671970977     0.046142550  0.046142550  0.046142550


 
 k-points in units of 2pi/SCALE and weight: Gamma-point only                        
   0.00000000  0.00000000  0.00000000       1.000
 
 k-points in reciprocal lattice and weights: Gamma-point only                        
   0.00000000  0.00000000  0.00000000       1.000
 
 position of ions in fractional coordinates (direct lattice) 
   0.56785859  0.35067445  0.64682504
   0.51212122  0.46034536  0.67285284
   0.60979018  0.67510637  0.58820046
   0.38728181  0.44420015  0.68688480
   0.62271604  0.45790668  0.60904776
   0.56325557  0.56834104  0.63594499
   0.43589995  0.55860565  0.65381682
   0.44717763  0.36232556  0.61277729
   0.65320533  0.34205512  0.55413641
   0.65772265  0.56220339  0.54921617
   0.31201551  0.52704975  0.62795005
   0.52937274  0.32142900  0.52711716
   0.68253349  0.44962345  0.49624469
   0.41469564  0.71238755  0.50071522
   0.34686788  0.42222380  0.56549682
   0.48383835  0.65989268  0.59660903
   0.36356792  0.62380930  0.57150109
   0.40581354  0.33059375  0.49814999
   0.60948892  0.35773025  0.43716546
   0.67817330  0.43638772  0.36875470
   0.31222282  0.52524485  0.50133708
   0.32734267  0.63783226  0.44742295
   0.53537713  0.68879208  0.48273988
   0.36988911  0.31331411  0.37742113
   0.67309965  0.55030831  0.42096469
   0.49220172  0.32896235  0.40370418
   0.33583342  0.42009411  0.43875532
   0.57191421  0.62289610  0.38114128
   0.55193525  0.42432205  0.34567131
   0.37416904  0.53477659  0.39065339
   0.42583614  0.42615688  0.34995514
   0.44881327  0.63748355  0.40207994
   0.61188824  0.52923841  0.30906095
   0.48846864  0.53504817  0.33817735
   0.65649117  0.66152211  0.47040016
 
 position of ions in cartesian coordinates  (Angst):
  12.30661491  7.59980652 14.01797354
  11.09867619  9.97659128 14.58204718
  13.21535498 14.63088559 12.74746337
   8.39316012  9.62669269 14.88614745
  13.49548396  9.92374026 13.19926532
  12.20685838 12.31707054 13.78218144
   9.44681115 12.10608536 14.16949913
   9.69122060  7.85230905 13.28009164
  14.15624693  7.41300860 12.00922829
  14.25414617 12.18405558 11.90259693
   6.76199108 11.42220695 13.60891520
  11.47255067  6.96600001 11.42366788
  14.79184600  9.74422636 10.75460047
   8.98727185 15.43884234 10.85148569
   7.51731052  9.15042190 12.25543057
  10.48573057 14.30117492 12.92969366
   7.87923331 13.51917712 12.38555510
   8.79477928  7.16461823 10.79589218
  13.20882611  7.75271960  9.47423712
  14.69735203  9.45738189  7.99164110
   6.76648385 11.38309109 10.86496274
   7.09416081 13.82308220  9.69653715
  11.60267769 14.92748202 10.46192478
   8.01622602  6.79013436  8.17945976
  14.58739599 11.92626573  9.12313458
  10.66698148  7.12926257  8.74906522
   7.27817224  9.10426730  9.50869251
  12.39450817 13.49938627  8.26008281
  11.96152481  9.19589518  7.49137850
   8.10898050 11.58966269  8.46622886
   9.22870854  9.23565954  7.58421769
   9.72666815 13.81552496  8.71386472
  13.26082427 11.46963945  6.69795995
  10.58607822 11.59554848  7.32896972
  14.22745754 14.33648805 10.19449861
 


--------------------------------------------------------------------------------------------------------


 use parallel FFT for wavefunctions z direction half grid
 k-point  1 :   0.0000 0.0000 0.0000  plane waves:   45692

 maximum and minimum number of plane-waves per node :      2861     2851

 maximum number of plane-waves:     45692
 maximum index in each direction: 
   IXMAX=   27   IYMAX=   27   IZMAX=   27
   IXMIN=  -27   IYMIN=  -27   IZMIN=    0

 WARNING: aliasing errors must be expected set NGX to 110 to avoid them
 WARNING: aliasing errors must be expected set NGY to 110 to avoid them
 WARNING: aliasing errors must be expected set NGZ to 110 to avoid them
 aliasing errors are usually negligible using standard VASP settings
 and one can safely disregard these warnings

 parallel 3D FFT for wavefunctions:
    minimum data exchange during FFTs selected (reduces bandwidth)
 parallel 3D FFT for charge:
    minimum data exchange during FFTs selected (reduces bandwidth)


 total amount of memory used by VASP on root node    51185. kBytes
========================================================================

   base      :      30000. kBytes
   nonl-proj :       2016. kBytes
   fftplans  :       3738. kBytes
   grid      :       9555. kBytes
   one-center:         46. kBytes
   wavefun   :       5830. kBytes
 
     INWAV:  cpu time    0.00: real time    0.00
 Broyden mixing: mesh for mixing (old mesh)
   NGX = 55   NGY = 55   NGZ = 55
  (NGX  =168   NGY  =168   NGZ  =168)
  gives a total of 166375 points

 initial charge density was supplied:
 charge density of overlapping atoms calculated
 number of electron     385.0000000 magnetization      35.0000000
 keeping initial charge density in first step


--------------------------------------------------------------------------------------------------------


 Maximum index for augmentation-charges          236 (set IRDMAX)


--------------------------------------------------------------------------------------------------------


 First call to EWALD:  gamma=   0.082
 Maximum number of real-space cells 3x 3x 3
 Maximum number of reciprocal cells 3x 3x 3

 FEWALD executed in parallel
    FEWALD:  cpu time    0.00: real time    0.00


----------------------------------------- Iteration    1(   1)  ---------------------------------------


    POTLOK:  cpu time    0.20: real time    0.21
    SETDIJ:  cpu time    0.01: real time    0.01
     EDDAV:  cpu time    2.87: real time    2.87
       DOS:  cpu time    0.00: real time    0.00
    --------------------------------------------
      LOOP:  cpu time    3.08: real time    3.11

 eigenvalue-minimisations  :  1008
 total energy-change (2. order) : 0.3267496E+04  (-0.7650741E+04)
 number of electron     385.0000000 magnetization      35.0000000
 augmentation part      385.0000000 magnetization      35.0000000

 Free energy of the ion-electron system (eV)
  ---------------------------------------------------
  alpha Z        PSCENC =       102.36583616
  Ewald energy   TEWEN  =     70188.52941564
  -Hartree energ DENC   =   -105074.31327491
  -exchange      EXHF   =         0.00000000
  -V(xc)+E(xc)   XCENC  =      -384.45585347
  PAW double counting   =     35118.02623244   -33504.26131076
  entropy T*S    EENTRO =        -0.00000000
  eigenvalues    EBANDS =       519.65272867
  atomic energy  EATOM  =     36301.95205302
  ---------------------------------------------------
  free energy    TOTEN  =      3267.49582679 eV

  energy without entropy =     3267.49582679  energy(sigma->0) =     3267.49582679


--------------------------------------------------------------------------------------------------------




----------------------------------------- Iteration    1(   2)  ---------------------------------------


     EDDAV:  cpu time    4.29: real time    4.30
       DOS:  cpu time    0.00: real time    0.00
    --------------------------------------------
      LOOP:  cpu time    4.30: real time    4.31

 eigenvalue-minimisations  :  1664
 total energy-change (2. order) :-0.2652551E+04  (-0.2373700E+04)
 number of electron     385.0000000 magnetization      35.0000000
 augmentation part      385.0000000 magnetization      35.0000000

 Free energy of the ion-electron system (eV)
  ---------------------------------------------------
  alpha Z        PSCENC =       102.36583616
  Ewald energy   TEWEN  =     70188.52941564
  -Hartree energ DENC   =   -105074.31327491
  -exchange      EXHF   =         0.00000000
  -V(xc)+E(xc)   XCENC  =      -384.45585347
  PAW double counting   =     35118.02623244   -33504.26131076
  entropy T*S    EENTRO =         0.00000000
  eigenvalues    EBANDS =     -2132.89820874
  atomic energy  EATOM  =     36301.95205302
  ---------------------------------------------------
  free energy    TOTEN  =       614.94488938 eV

  energy without entropy =      614.94488938  energy(sigma->0) =      614.94488938


--------------------------------------------------------------------------------------------------------




----------------------------------------- Iteration    1(   3)  ---------------------------------------


     EDDAV:  cpu time    3.40: real time    3.41
       DOS:  cpu time    0.00: real time    0.00
    --------------------------------------------
      LOOP:  cpu time    3.41: real time    3.43

 eigenvalue-minimisations  :  1280
 total energy-change (2. order) :-0.6563826E+03  (-0.5999653E+03)
 number of electron     385.0000000 magnetization      35.0000000
 augmentation part      385.0000000 magnetization      35.0000000

 Free energy of the ion-electron system (eV)
  ---------------------------------------------------
  alpha Z        PSCENC =       102.36583616
  Ewald energy   TEWEN  =     70188.52941564
  -Hartree energ DENC   =   -105074.31327491
  -exchange      EXHF   =         0.00000000
  -V(xc)+E(xc)   XCENC  =      -384.45585347
  PAW double counting   =     35118.02623244   -33504.26131076
  entropy T*S    EENTRO =         0.00000000
  eigenvalues    EBANDS =     -2789.28079040
  atomic energy  EATOM  =     36301.95205302
  ---------------------------------------------------
  free energy    TOTEN  =       -41.43769228 eV

  energy without entropy =      -41.43769228  energy(sigma->0) =      -41.43769228


--------------------------------------------------------------------------------------------------------




----------------------------------------- Iteration    1(   4)  ---------------------------------------


     EDDAV:  cpu time    3.06: real time    3.07
       DOS:  cpu time    0.00: real time    0.00
    --------------------------------------------
      LOOP:  cpu time    3.06: real time    3.07

 eigenvalue-minimisations  :  1112
 total energy-change (2. order) :-0.3098062E+02  (-0.3062328E+02)
 number of electron     385.0000000 magnetization      35.0000000
 augmentation part      385.0000000 magnetization      35.0000000

 Free energy of the ion-electron system (eV)
  ---------------------------------------------------
  alpha Z        PSCENC =       102.36583616
  Ewald energy   TEWEN  =     70188.52941564
  -Hartree energ DENC   =   -105074.31327491
  -exchange      EXHF   =         0.00000000
  -V(xc)+E(xc)   XCENC  =      -384.45585347
  PAW double counting   =     35118.02623244   -33504.26131076
  entropy T*S    EENTRO =         0.00000000
  eigenvalues    EBANDS =     -2820.26140885
  atomic energy  EATOM  =     36301.95205302
  ---------------------------------------------------
  free energy    TOTEN  =       -72.41831073 eV

  energy without entropy =      -72.41831073  energy(sigma->0) =      -72.41831073


--------------------------------------------------------------------------------------------------------




----------------------------------------- Iteration    1(   5)  ---------------------------------------


     EDDAV:  cpu time    3.09: real time    3.09
       DOS:  cpu time    0.00: real time    0.00
    CHARGE:  cpu time    0.09: real time    0.09
    MIXING:  cpu time    0.00: real time    0.00
    --------------------------------------------
      LOOP:  cpu time    3.18: real time    4.07

 eigenvalue-minimisations  :  1120
 total energy-change (2. order) :-0.4432045E+00  (-0.4425325E+00)
 number of electron     384.9999870 magnetization      30.7819614
 augmentation part      180.5332949 magnetization      30.5545581

 Broyden mixing:
  rms(total) = 0.33763E+01    rms(broyden)= 0.33757E+01
  rms(prec ) = 0.34321E+01
  weight for this iteration     100.00

 Free energy of the ion-electron system (eV)
  ---------------------------------------------------
  alpha Z        PSCENC =       102.36583616
  Ewald energy   TEWEN  =     70188.52941564
  -Hartree energ DENC   =   -105074.31327491
  -exchange      EXHF   =         0.00000000
  -V(xc)+E(xc)   XCENC  =      -384.45585347
  PAW double counting   =     35118.02623244   -33504.26131076
  entropy T*S    EENTRO =         0.00000000
  eigenvalues    EBANDS =     -2820.70461334
  atomic energy  EATOM  =     36301.95205302
  ---------------------------------------------------
  free energy    TOTEN  =       -72.86151522 eV

  energy without entropy =      -72.86151522  energy(sigma->0) =      -72.86151522


--------------------------------------------------------------------------------------------------------




----------------------------------------- Iteration    1(   6)  ---------------------------------------


    POTLOK:  cpu time    0.19: real time    0.19
    SETDIJ:  cpu time    0.00: real time    0.01
     EDDAV:  cpu time    2.91: real time    2.91
       DOS:  cpu time    0.00: real time    0.00
    CHARGE:  cpu time    0.09: real time    0.09
    MIXING:  cpu time    0.00: real time    0.00
    --------------------------------------------
      LOOP:  cpu time    3.20: real time    3.83

 eigenvalue-minimisations  :  1028
 total energy-change (2. order) : 0.5579656E+02  (-0.1756516E+02)
 number of electron     384.9999864 magnetization      28.0444612
 augmentation part      184.8458303 magnetization      18.3229128

 Broyden mixing:
  rms(total) = 0.17775E+01    rms(broyden)= 0.17773E+01
  rms(prec ) = 0.17955E+01
  weight for this iteration     100.00

 eigenvalues of (default mixing * dielectric matrix)
  average eigenvalue GAMMA=   0.8582
  0.8582

 Free energy of the ion-electron system (eV)
  ---------------------------------------------------
  alpha Z        PSCENC =       102.36583616
  Ewald energy   TEWEN  =     70188.52941564
  -Hartree energ DENC   =   -104921.51574485
  -exchange      EXHF   =         0.00000000
  -V(xc)+E(xc)   XCENC  =      -356.80328426
  PAW double counting   =     36388.95252556   -34803.20440386
  entropy T*S    EENTRO =         0.00000000
  eigenvalues    EBANDS =     -2917.34135220
  atomic energy  EATOM  =     36301.95205302
  ---------------------------------------------------
  free energy    TOTEN  =       -17.06495479 eV

  energy without entropy =      -17.06495479  energy(sigma->0) =      -17.06495479


--------------------------------------------------------------------------------------------------------




----------------------------------------- Iteration    1(   7)  ---------------------------------------


    POTLOK:  cpu time    0.18: real time    0.19
    SETDIJ:  cpu time    0.01: real time    0.01
     EDDAV:  cpu time    2.96: real time    2.97
       DOS:  cpu time    0.00: real time    0.00
    CHARGE:  cpu time    0.09: real time    0.09
    MIXING:  cpu time    0.00: real time    0.00
    --------------------------------------------
      LOOP:  cpu time    3.25: real time    3.26

 eigenvalue-minimisations  :  1060
 total energy-change (2. order) : 0.6128178E+01  (-0.8563710E+00)
 number of electron     384.9999868 magnetization      23.5340277
 augmentation part      184.6802420 magnetization      16.0667525

 Broyden mixing:
  rms(total) = 0.11115E+01    rms(broyden)= 0.11115E+01
  rms(prec ) = 0.11252E+01
  weight for this iteration     100.00

 eigenvalues of (default mixing * dielectric matrix)
  average eigenvalue GAMMA=   0.9861
  0.7471  1.2252

 Free energy of the ion-electron system (eV)
  ---------------------------------------------------
  alpha Z        PSCENC =       102.36583616
  Ewald energy   TEWEN  =     70188.52941564
  -Hartree energ DENC   =   -104998.27279021
  -exchange      EXHF   =         0.00000000
  -V(xc)+E(xc)   XCENC  =      -351.01776380
  PAW double counting   =     37144.37156750   -35576.73482787
  entropy T*S    EENTRO =         0.00000000
  eigenvalues    EBANDS =     -2822.13026678
  atomic energy  EATOM  =     36301.95205302
  ---------------------------------------------------
  free energy    TOTEN  =       -10.93677634 eV

  energy without entropy =      -10.93677634  energy(sigma->0) =      -10.93677634


--------------------------------------------------------------------------------------------------------




----------------------------------------- Iteration    1(   8)  ---------------------------------------


    POTLOK:  cpu time    0.19: real time    0.19
    SETDIJ:  cpu time    0.01: real time    0.01
     EDDAV:  cpu time    2.98: real time    2.99
       DOS:  cpu time    0.00: real time    0.00
    CHARGE:  cpu time    0.09: real time    0.09
    MIXING:  cpu time    0.00: real time    0.00
    --------------------------------------------
      LOOP:  cpu time    3.27: real time    3.28

 eigenvalue-minimisations  :  1072
 total energy-change (2. order) :-0.1455213E+01  (-0.2047272E+00)
 number of electron     384.9999870 magnetization      19.9698337
 augmentation part      184.3451133 magnetization      14.7258387

 Broyden mixing:
  rms(total) = 0.66002E+00    rms(broyden)= 0.65998E+00
  rms(prec ) = 0.66839E+00
  weight for this iteration     100.00

 eigenvalues of (default mixing * dielectric matrix)
  average eigenvalue GAMMA=   1.2324
  2.1820  0.9006  0.6146

 Free energy of the ion-electron system (eV)
  ---------------------------------------------------
  alpha Z        PSCENC =       102.36583616
  Ewald energy   TEWEN  =     70188.52941564
  -Hartree energ DENC   =   -105097.94440137
  -exchange      EXHF   =         0.00000000
  -V(xc)+E(xc)   XCENC  =      -350.60694767
  PAW double counting   =     38077.61084137   -36529.29134390
  entropy T*S    EENTRO =         0.00000000
  eigenvalues    EBANDS =     -2705.00744253
  atomic energy  EATOM  =     36301.95205302
  ---------------------------------------------------
  free energy    TOTEN  =       -12.39198928 eV

  energy without entropy =      -12.39198928  energy(sigma->0) =      -12.39198928


--------------------------------------------------------------------------------------------------------




----------------------------------------- Iteration    1(   9)  ---------------------------------------


    POTLOK:  cpu time    0.18: real time    0.19
    SETDIJ:  cpu time    0.01: real time    0.01
     EDDAV:  cpu time    3.04: real time    3.05
       DOS:  cpu time    0.00: real time    0.00
    CHARGE:  cpu time    0.09: real time    0.09
    MIXING:  cpu time    0.00: real time    0.00
    --------------------------------------------
      LOOP:  cpu time    3.33: real time    3.34

 eigenvalue-minimisations  :  1096
 total energy-change (2. order) :-0.6936758E+01  (-0.2246843E+00)
 number of electron     384.9999870 magnetization      16.7564095
 augmentation part      184.1983020 magnetization      11.8298681

 Broyden mixing:
  rms(total) = 0.43555E+00    rms(broyden)= 0.43553E+00
  rms(prec ) = 0.43999E+00
  weight for this iteration     100.00

 eigenvalues of (default mixing * dielectric matrix)
  average eigenvalue GAMMA=   1.1912
  2.0934  0.6061  0.7857  1.2797

 Free energy of the ion-electron system (eV)
  ---------------------------------------------------
  alpha Z        PSCENC =       102.36583616
  Ewald energy   TEWEN  =     70188.52941564
  -Hartree energ DENC   =   -105149.87788641
  -exchange      EXHF   =         0.00000000
  -V(xc)+E(xc)   XCENC  =      -354.63321191
  PAW double counting   =     38505.76656863   -36965.74451776
  entropy T*S    EENTRO =         0.00000000
  eigenvalues    EBANDS =     -2647.68700491
  atomic energy  EATOM  =     36301.95205302
  ---------------------------------------------------
  free energy    TOTEN  =       -19.32874753 eV

  energy without entropy =      -19.32874753  energy(sigma->0) =      -19.32874753


--------------------------------------------------------------------------------------------------------




----------------------------------------- Iteration    1(  10)  ---------------------------------------


    POTLOK:  cpu time    0.18: real time    0.19
    SETDIJ:  cpu time    0.01: real time    0.01
     EDDAV:  cpu time    3.09: real time    3.09
       DOS:  cpu time    0.00: real time    0.00
    CHARGE:  cpu time    0.09: real time    0.09
    MIXING:  cpu time    0.00: real time    0.00
    --------------------------------------------
      LOOP:  cpu time    3.39: real time    3.39

 eigenvalue-minimisations  :  1048
 total energy-change (2. order) :-0.1634298E+02  (-0.6679187E+00)
 number of electron     384.9999870 magnetization      11.4604804
 augmentation part      184.2175296 magnetization       7.0690142

 Broyden mixing:
  rms(total) = 0.32387E+00    rms(broyden)= 0.32385E+00
  rms(prec ) = 0.32638E+00
  weight for this iteration     100.00

 eigenvalues of (default mixing * dielectric matrix)
  average eigenvalue GAMMA=   1.4253
  2.4312  2.4312  0.8188  0.8188  0.6265

 Free energy of the ion-electron system (eV)
  ---------------------------------------------------
  alpha Z        PSCENC =       102.36583616
  Ewald energy   TEWEN  =     70188.52941564
  -Hartree energ DENC   =   -105158.25437812
  -exchange      EXHF   =         0.00000000
  -V(xc)+E(xc)   XCENC  =      -366.31573692
  PAW double counting   =     38495.69809587   -36955.38062205
  entropy T*S    EENTRO =         0.00000000
  eigenvalues    EBANDS =     -2644.26638872
  atomic energy  EATOM  =     36301.95205302
  ---------------------------------------------------
  free energy    TOTEN  =       -35.67172512 eV

  energy without entropy =      -35.67172512  energy(sigma->0) =      -35.67172512


--------------------------------------------------------------------------------------------------------




----------------------------------------- Iteration    1(  11)  ---------------------------------------


    POTLOK:  cpu time    0.19: real time    0.19
    SETDIJ:  cpu time    0.01: real time    0.01
     EDDAV:  cpu time    2.93: real time    2.93
       DOS:  cpu time    0.00: real time    0.00
    CHARGE:  cpu time    0.09: real time    0.09
    MIXING:  cpu time    0.00: real time    0.00
    --------------------------------------------
      LOOP:  cpu time    3.22: real time    3.34

 eigenvalue-minimisations  :  1040
 total energy-change (2. order) :-0.1822179E+02  (-0.1170132E+01)
 number of electron     384.9999870 magnetization       9.8697498
 augmentation part      184.2920121 magnetization       8.1117431

 Broyden mixing:
  rms(total) = 0.26421E+00    rms(broyden)= 0.26411E+00
  rms(prec ) = 0.27304E+00
  weight for this iteration     100.00

 eigenvalues of (default mixing * dielectric matrix)
  average eigenvalue GAMMA=   1.3278
  3.0589  2.1136  0.8266  0.8266  0.6118  0.5296

 Free energy of the ion-electron system (eV)
  ---------------------------------------------------
  alpha Z        PSCENC =       102.36583616
  Ewald energy   TEWEN  =     70188.52941564
  -Hartree energ DENC   =   -105166.12817400
  -exchange      EXHF   =         0.00000000
  -V(xc)+E(xc)   XCENC  =      -379.62161875
  PAW double counting   =     38459.85193161   -36919.55343344
  entropy T*S    EENTRO =         0.00000000
  eigenvalues    EBANDS =     -2641.28952358
  atomic energy  EATOM  =     36301.95205302
  ---------------------------------------------------
  free energy    TOTEN  =       -53.89351335 eV

  energy without entropy =      -53.89351335  energy(sigma->0) =      -53.89351335


--------------------------------------------------------------------------------------------------------




----------------------------------------- Iteration    1(  12)  ---------------------------------------


    POTLOK:  cpu time    0.19: real time    0.19
    SETDIJ:  cpu time    0.01: real time    0.01
     EDDAV:  cpu time    3.14: real time    3.14
       DOS:  cpu time    0.00: real time    0.00
    CHARGE:  cpu time    0.09: real time    0.09
    MIXING:  cpu time    0.01: real time    0.00
    --------------------------------------------
      LOOP:  cpu time    3.43: real time    3.43

 eigenvalue-minimisations  :  1144
 total energy-change (2. order) :-0.2955849E+01  (-0.8419520E-01)
 number of electron     384.9999870 magnetization       6.4963736
 augmentation part      184.2537545 magnetization       4.9350019

 Broyden mixing:
  rms(total) = 0.21317E+00    rms(broyden)= 0.21316E+00
  rms(prec ) = 0.22066E+00
  weight for this iteration     100.00

 eigenvalues of (default mixing * dielectric matrix)
  average eigenvalue GAMMA=   1.4063
  3.7880  2.1802  0.8605  0.8605  0.6220  0.7662  0.7662

 Free energy of the ion-electron system (eV)
  ---------------------------------------------------
  alpha Z        PSCENC =       102.36583616
  Ewald energy   TEWEN  =     70188.52941564
  -Hartree energ DENC   =   -105167.33561698
  -exchange      EXHF   =         0.00000000
  -V(xc)+E(xc)   XCENC  =      -381.71754378
  PAW double counting   =     38442.08498733   -36901.94525196
  entropy T*S    EENTRO =         0.00000000
  eigenvalues    EBANDS =     -2640.78324212
  atomic energy  EATOM  =     36301.95205302
  ---------------------------------------------------
  free energy    TOTEN  =       -56.84936269 eV

  energy without entropy =      -56.84936269  energy(sigma->0) =      -56.84936269


--------------------------------------------------------------------------------------------------------




----------------------------------------- Iteration    1(  13)  ---------------------------------------


    POTLOK:  cpu time    0.19: real time    0.19
    SETDIJ:  cpu time    0.01: real time    0.01
     EDDAV:  cpu time    2.93: real time    2.94
       DOS:  cpu time    0.00: real time    0.00
    CHARGE:  cpu time    0.12: real time    0.12
    MIXING:  cpu time    0.01: real time    0.00
    --------------------------------------------
      LOOP:  cpu time    3.26: real time    3.40

 eigenvalue-minimisations  :  1040
 total energy-change (2. order) :-0.6675696E+01  (-0.2373801E+00)
 number of electron     384.9999870 magnetization       4.3596423
 augmentation part      184.3078576 magnetization       3.0939568

 Broyden mixing:
  rms(total) = 0.14186E+00    rms(broyden)= 0.14185E+00
  rms(prec ) = 0.14726E+00
  weight for this iteration     100.00

 eigenvalues of (default mixing * dielectric matrix)
  average eigenvalue GAMMA=   1.5190
  4.8647  2.1020  1.2403  1.2403  0.7049  0.7049  0.7088  0.5862

 Free energy of the ion-electron system (eV)
  ---------------------------------------------------
  alpha Z        PSCENC =       102.36583616
  Ewald energy   TEWEN  =     70188.52941564
  -Hartree energ DENC   =   -105150.67754310
  -exchange      EXHF   =         0.00000000
  -V(xc)+E(xc)   XCENC  =      -387.32439330
  PAW double counting   =     38290.87697533   -36749.50929949
  entropy T*S    EENTRO =         0.00000000
  eigenvalues    EBANDS =     -2659.73810318
  atomic energy  EATOM  =     36301.95205302
  ---------------------------------------------------
  free energy    TOTEN  =       -63.52505893 eV

  energy without entropy =      -63.52505893  energy(sigma->0) =      -63.52505893


--------------------------------------------------------------------------------------------------------




----------------------------------------- Iteration    1(  14)  ---------------------------------------


    POTLOK:  cpu time    0.20: real time    0.20
    SETDIJ:  cpu time    0.01: real time    0.01
     EDDAV:  cpu time    2.92: real time    2.92
       DOS:  cpu time    0.00: real time    0.00
    CHARGE:  cpu time    0.09: real time    0.09
    MIXING:  cpu time    0.00: real time    0.01
    --------------------------------------------
      LOOP:  cpu time    3.22: real time    3.26

 eigenvalue-minimisations  :  1040
 total energy-change (2. order) :-0.3607703E+01  (-0.8288278E-01)
 number of electron     384.9999870 magnetization       3.3496053
 augmentation part      184.2905519 magnetization       2.2202763

 Broyden mixing:
  rms(total) = 0.88903E-01    rms(broyden)= 0.88885E-01
  rms(prec ) = 0.95465E-01
  weight for this iteration     100.00

 eigenvalues of (default mixing * dielectric matrix)
  average eigenvalue GAMMA=   1.6033
  5.7140  2.2529  1.4727  1.4727  0.8332  0.7235  0.7235  0.6433  0.5943

 Free energy of the ion-electron system (eV)
  ---------------------------------------------------
  alpha Z        PSCENC =       102.36583616
  Ewald energy   TEWEN  =     70188.52941564
  -Hartree energ DENC   =   -105133.36931232
  -exchange      EXHF   =         0.00000000
  -V(xc)+E(xc)   XCENC  =      -390.63290145
  PAW double counting   =     38205.64914913   -36663.63520041
  entropy T*S    EENTRO =         0.00000000
  eigenvalues    EBANDS =     -2677.99180207
  atomic energy  EATOM  =     36301.95205302
  ---------------------------------------------------
  free energy    TOTEN  =       -67.13276230 eV

  energy without entropy =      -67.13276230  energy(sigma->0) =      -67.13276230


--------------------------------------------------------------------------------------------------------




----------------------------------------- Iteration    1(  15)  ---------------------------------------


    POTLOK:  cpu time    0.18: real time    0.19
    SETDIJ:  cpu time    0.01: real time    0.01
     EDDAV:  cpu time    2.94: real time    2.94
       DOS:  cpu time    0.00: real time    0.00
    CHARGE:  cpu time    0.09: real time    0.09
    MIXING:  cpu time    0.00: real time    0.01
    --------------------------------------------
      LOOP:  cpu time    3.23: real time    3.26

 eigenvalue-minimisations  :  1048
 total energy-change (2. order) :-0.1775689E+01  (-0.2517366E-01)
 number of electron     384.9999870 magnetization       2.0601079
 augmentation part      184.2933375 magnetization       0.9795916

 Broyden mixing:
  rms(total) = 0.64469E-01    rms(broyden)= 0.64454E-01
  rms(prec ) = 0.70751E-01
  weight for this iteration     100.00

 eigenvalues of (default mixing * dielectric matrix)
  average eigenvalue GAMMA=   1.7045
  6.4055  2.6423  1.7407  1.5785  0.9930  0.9930  0.7196  0.7196  0.6607  0.5921

 Free energy of the ion-electron system (eV)
  ---------------------------------------------------
  alpha Z        PSCENC =       102.36583616
  Ewald energy   TEWEN  =     70188.52941564
  -Hartree energ DENC   =   -105115.47457966
  -exchange      EXHF   =         0.00000000
  -V(xc)+E(xc)   XCENC  =      -392.41636609
  PAW double counting   =     38167.74349080   -36625.13966010
  entropy T*S    EENTRO =         0.00000000
  eigenvalues    EBANDS =     -2696.46864058
  atomic energy  EATOM  =     36301.95205302
  ---------------------------------------------------
  free energy    TOTEN  =       -68.90845082 eV

  energy without entropy =      -68.90845082  energy(sigma->0) =      -68.90845082


--------------------------------------------------------------------------------------------------------




----------------------------------------- Iteration    1(  16)  ---------------------------------------


    POTLOK:  cpu time    0.19: real time    0.19
    SETDIJ:  cpu time    0.01: real time    0.01
     EDDAV:  cpu time    2.95: real time    2.96
       DOS:  cpu time    0.00: real time    0.00
    CHARGE:  cpu time    0.09: real time    0.09
    MIXING:  cpu time    0.00: real time    0.01
    --------------------------------------------
      LOOP:  cpu time    3.24: real time    3.27

 eigenvalue-minimisations  :  1048
 total energy-change (2. order) :-0.2303187E+01  (-0.2952794E-01)
 number of electron     384.9999870 magnetization       1.6459701
 augmentation part      184.3340597 magnetization       0.6034438

 Broyden mixing:
  rms(total) = 0.32723E-01    rms(broyden)= 0.32663E-01
  rms(prec ) = 0.36844E-01
  weight for this iteration     100.00

 eigenvalues of (default mixing * dielectric matrix)
  average eigenvalue GAMMA=   1.8068
  7.1271  3.3090  2.3380  1.3643  1.3643  0.8643  0.7549  0.7549  0.7503  0.6478
  0.5996

 Free energy of the ion-electron system (eV)
  ---------------------------------------------------
  alpha Z        PSCENC =       102.36583616
  Ewald energy   TEWEN  =     70188.52941564
  -Hartree energ DENC   =   -105081.29103402
  -exchange      EXHF   =         0.00000000
  -V(xc)+E(xc)   XCENC  =      -394.96604173
  PAW double counting   =     38147.89968227   -36604.63789794
  entropy T*S    EENTRO =         0.00000000
  eigenvalues    EBANDS =     -2731.06365075
  atomic energy  EATOM  =     36301.95205302
  ---------------------------------------------------
  free energy    TOTEN  =       -71.21163735 eV

  energy without entropy =      -71.21163735  energy(sigma->0) =      -71.21163735


--------------------------------------------------------------------------------------------------------




----------------------------------------- Iteration    1(  17)  ---------------------------------------


    POTLOK:  cpu time    0.18: real time    0.19
    SETDIJ:  cpu time    0.01: real time    0.01
     EDDAV:  cpu time    2.96: real time    2.96
       DOS:  cpu time    0.00: real time    0.00
    CHARGE:  cpu time    0.11: real time    0.11
    MIXING:  cpu time    0.01: real time    0.01
    --------------------------------------------
      LOOP:  cpu time    3.28: real time    3.43

 eigenvalue-minimisations  :  1052
 total energy-change (2. order) :-0.8886523E+00  (-0.4178915E-02)
 number of electron     384.9999870 magnetization       1.2848972
 augmentation part      184.3256850 magnetization       0.2443599

 Broyden mixing:
  rms(total) = 0.18184E-01    rms(broyden)= 0.18156E-01
  rms(prec ) = 0.22045E-01
  weight for this iteration     100.00

 eigenvalues of (default mixing * dielectric matrix)
  average eigenvalue GAMMA=   1.8398
  7.5496  3.7353  2.2998  1.5585  1.5585  0.9544  0.8784  0.8784  0.7173  0.7173
  0.5995  0.6308

 Free energy of the ion-electron system (eV)
  ---------------------------------------------------
  alpha Z        PSCENC =       102.36583616
  Ewald energy   TEWEN  =     70188.52941564
  -Hartree energ DENC   =   -105066.47375198
  -exchange      EXHF   =         0.00000000
  -V(xc)+E(xc)   XCENC  =      -395.93981292
  PAW double counting   =     38169.96968582   -36626.83684061
  entropy T*S    EENTRO =         0.00000000
  eigenvalues    EBANDS =     -2745.66687474
  atomic energy  EATOM  =     36301.95205302
  ---------------------------------------------------
  free energy    TOTEN  =       -72.10028962 eV

  energy without entropy =      -72.10028962  energy(sigma->0) =      -72.10028962


--------------------------------------------------------------------------------------------------------




----------------------------------------- Iteration    1(  18)  ---------------------------------------


    POTLOK:  cpu time    0.19: real time    0.19
    SETDIJ:  cpu time    0.01: real time    0.01
     EDDAV:  cpu time    2.96: real time    2.96
       DOS:  cpu time    0.00: real time    0.00
    CHARGE:  cpu time    0.09: real time    0.09
    MIXING:  cpu time    0.00: real time    0.01
    --------------------------------------------
      LOOP:  cpu time    3.24: real time    3.36

 eigenvalue-minimisations  :  1072
 total energy-change (2. order) :-0.4270426E+00  (-0.1700195E-02)
 number of electron     384.9999870 magnetization       1.1741938
 augmentation part      184.3391326 magnetization       0.1402666

 Broyden mixing:
  rms(total) = 0.10845E-01    rms(broyden)= 0.10835E-01
  rms(prec ) = 0.13556E-01
  weight for this iteration     100.00

 eigenvalues of (default mixing * dielectric matrix)
  average eigenvalue GAMMA=   1.8525
  7.7466  3.9811  2.4040  1.8217  1.8217  1.1300  1.0098  0.7539  0.7539  0.7185
  0.7185  0.5923  0.6307

 Free energy of the ion-electron system (eV)
  ---------------------------------------------------
  alpha Z        PSCENC =       102.36583616
  Ewald energy   TEWEN  =     70188.52941564
  -Hartree energ DENC   =   -105052.49768400
  -exchange      EXHF   =         0.00000000
  -V(xc)+E(xc)   XCENC  =      -396.46240332
  PAW double counting   =     38178.67716873   -36635.49333192
  entropy T*S    EENTRO =         0.00000000
  eigenvalues    EBANDS =     -2759.59838654
  atomic energy  EATOM  =     36301.95205302
  ---------------------------------------------------
  free energy    TOTEN  =       -72.52733222 eV

  energy without entropy =      -72.52733222  energy(sigma->0) =      -72.52733222


--------------------------------------------------------------------------------------------------------




----------------------------------------- Iteration    1(  19)  ---------------------------------------


    POTLOK:  cpu time    0.24: real time    0.24
    SETDIJ:  cpu time    0.01: real time    0.01
     EDDAV:  cpu time    2.93: real time    2.93
       DOS:  cpu time    0.00: real time    0.00
    CHARGE:  cpu time    0.09: real time    0.09
    MIXING:  cpu time    0.00: real time    0.01
    --------------------------------------------
      LOOP:  cpu time    3.27: real time    4.44

 eigenvalue-minimisations  :  1036
 total energy-change (2. order) :-0.1032424E+00  (-0.2904149E-03)
 number of electron     384.9999870 magnetization       1.0815763
 augmentation part      184.3373821 magnetization       0.0484357

 Broyden mixing:
  rms(total) = 0.48331E-02    rms(broyden)= 0.48288E-02
  rms(prec ) = 0.76097E-02
  weight for this iteration     100.00

 eigenvalues of (default mixing * dielectric matrix)
  average eigenvalue GAMMA=   1.8666
  7.9609  4.2190  2.7185  2.3195  1.4482  1.4482  0.9872  0.8326  0.8326  0.7198
  0.7198  0.6980  0.5973  0.6305

 Free energy of the ion-electron system (eV)
  ---------------------------------------------------
  alpha Z        PSCENC =       102.36583616
  Ewald energy   TEWEN  =     70188.52941564
  -Hartree energ DENC   =   -105046.70007162
  -exchange      EXHF   =         0.00000000
  -V(xc)+E(xc)   XCENC  =      -396.58081821
  PAW double counting   =     38185.29025988   -36642.16198856
  entropy T*S    EENTRO =         0.00000000
  eigenvalues    EBANDS =     -2765.32526087
  atomic energy  EATOM  =     36301.95205302
  ---------------------------------------------------
  free energy    TOTEN  =       -72.63057457 eV

  energy without entropy =      -72.63057457  energy(sigma->0) =      -72.63057457


--------------------------------------------------------------------------------------------------------




----------------------------------------- Iteration    1(  20)  ---------------------------------------


    POTLOK:  cpu time    0.18: real time    0.19
    SETDIJ:  cpu time    0.01: real time    0.01
     EDDAV:  cpu time    2.78: real time    2.78
       DOS:  cpu time    0.00: real time    0.00
    CHARGE:  cpu time    0.09: real time    0.09
    MIXING:  cpu time    0.00: real time    0.01
    --------------------------------------------
      LOOP:  cpu time    3.07: real time    3.11

 eigenvalue-minimisations  :   956
 total energy-change (2. order) :-0.3559351E-01  (-0.1809447E-03)
 number of electron     384.9999870 magnetization       1.0525971
 augmentation part      184.3388795 magnetization       0.0200378

 Broyden mixing:
  rms(total) = 0.29730E-02    rms(broyden)= 0.29697E-02
  rms(prec ) = 0.48843E-02
  weight for this iteration     100.00

 eigenvalues of (default mixing * dielectric matrix)
  average eigenvalue GAMMA=   1.8488
  8.0445  4.4917  2.9208  2.2517  1.5317  1.5317  1.0710  0.9743  0.7367  0.7367
  0.7806  0.7806  0.5970  0.6288  0.6540

 Free energy of the ion-electron system (eV)
  ---------------------------------------------------
  alpha Z        PSCENC =       102.36583616
  Ewald energy   TEWEN  =     70188.52941564
  -Hartree energ DENC   =   -105041.38671555
  -exchange      EXHF   =         0.00000000
  -V(xc)+E(xc)   XCENC  =      -396.63470040
  PAW double counting   =     38189.08458016   -36645.97948516
  entropy T*S    EENTRO =         0.00000000
  eigenvalues    EBANDS =     -2770.59715194
  atomic energy  EATOM  =     36301.95205302
  ---------------------------------------------------
  free energy    TOTEN  =       -72.66616808 eV

  energy without entropy =      -72.66616808  energy(sigma->0) =      -72.66616808


--------------------------------------------------------------------------------------------------------




----------------------------------------- Iteration    1(  21)  ---------------------------------------


    POTLOK:  cpu time    0.18: real time    0.19
    SETDIJ:  cpu time    0.01: real time    0.01
     EDDAV:  cpu time    2.44: real time    2.44
       DOS:  cpu time    0.00: real time    0.00
    CHARGE:  cpu time    0.09: real time    0.09
    MIXING:  cpu time    0.01: real time    0.01
    --------------------------------------------
      LOOP:  cpu time    2.73: real time    2.74

 eigenvalue-minimisations  :   792
 total energy-change (2. order) :-0.2632049E-02  (-0.4095688E-04)
 number of electron     384.9999870 magnetization       1.0261690
 augmentation part      184.3384993 magnetization      -0.0061129

 Broyden mixing:
  rms(total) = 0.21416E-02    rms(broyden)= 0.21410E-02
  rms(prec ) = 0.35333E-02
  weight for this iteration     100.00

 eigenvalues of (default mixing * dielectric matrix)
  average eigenvalue GAMMA=   1.8586
  8.1157  4.5879  3.1604  2.3707  1.7436  1.7436  1.1523  1.1523  0.8174  0.8174
  0.7319  0.7319  0.7651  0.5928  0.6276  0.6276

 Free energy of the ion-electron system (eV)
  ---------------------------------------------------
  alpha Z        PSCENC =       102.36583616
  Ewald energy   TEWEN  =     70188.52941564
  -Hartree energ DENC   =   -105038.48628164
  -exchange      EXHF   =         0.00000000
  -V(xc)+E(xc)   XCENC  =      -396.64639640
  PAW double counting   =     38190.21776033   -36647.12601097
  entropy T*S    EENTRO =        -0.00000000
  eigenvalues    EBANDS =     -2773.47517627
  atomic energy  EATOM  =     36301.95205302
  ---------------------------------------------------
  free energy    TOTEN  =       -72.66880013 eV

  energy without entropy =      -72.66880013  energy(sigma->0) =      -72.66880013


--------------------------------------------------------------------------------------------------------




----------------------------------------- Iteration    1(  22)  ---------------------------------------


    POTLOK:  cpu time    0.18: real time    0.19
    SETDIJ:  cpu time    0.01: real time    0.01
     EDDAV:  cpu time    2.36: real time    2.36
       DOS:  cpu time    0.00: real time    0.00
    CHARGE:  cpu time    0.11: real time    0.11
    MIXING:  cpu time    0.01: real time    0.01
    --------------------------------------------
      LOOP:  cpu time    2.67: real time    2.69

 eigenvalue-minimisations  :   756
 total energy-change (2. order) :-0.5720619E-02  (-0.4145283E-04)
 number of electron     384.9999870 magnetization       1.0128659
 augmentation part      184.3396303 magnetization      -0.0186637

 Broyden mixing:
  rms(total) = 0.12543E-02    rms(broyden)= 0.12539E-02
  rms(prec ) = 0.20902E-02
  weight for this iteration     100.00

 eigenvalues of (default mixing * dielectric matrix)
  average eigenvalue GAMMA=   1.8857
  8.1202  4.8600  3.6463  2.3254  2.3254  1.4917  1.4917  1.1767  0.9520  0.8342
  0.8342  0.7269  0.7269  0.6949  0.5952  0.6322  0.6236

 Free energy of the ion-electron system (eV)
  ---------------------------------------------------
  alpha Z        PSCENC =       102.36583616
  Ewald energy   TEWEN  =     70188.52941564
  -Hartree energ DENC   =   -105035.18074568
  -exchange      EXHF   =         0.00000000
  -V(xc)+E(xc)   XCENC  =      -396.66425981
  PAW double counting   =     38189.30845641   -36646.20921941
  entropy T*S    EENTRO =         0.00000000
  eigenvalues    EBANDS =     -2776.77605709
  atomic energy  EATOM  =     36301.95205302
  ---------------------------------------------------
  free energy    TOTEN  =       -72.67452075 eV

  energy without entropy =      -72.67452075  energy(sigma->0) =      -72.67452075


--------------------------------------------------------------------------------------------------------




----------------------------------------- Iteration    1(  23)  ---------------------------------------


    POTLOK:  cpu time    0.18: real time    0.19
    SETDIJ:  cpu time    0.01: real time    0.01
     EDDAV:  cpu time    2.28: real time    2.29
       DOS:  cpu time    0.00: real time    0.00
    CHARGE:  cpu time    0.09: real time    0.09
    MIXING:  cpu time    0.01: real time    0.01
    --------------------------------------------
      LOOP:  cpu time    2.57: real time    2.60

 eigenvalue-minimisations  :   732
 total energy-change (2. order) :-0.3517869E-02  (-0.1430156E-04)
 number of electron     384.9999870 magnetization       1.0041384
 augmentation part      184.3397647 magnetization      -0.0271732

 Broyden mixing:
  rms(total) = 0.81482E-03    rms(broyden)= 0.81446E-03
  rms(prec ) = 0.13032E-02
  weight for this iteration     100.00

 eigenvalues of (default mixing * dielectric matrix)
  average eigenvalue GAMMA=   1.8951
  8.1269  5.1656  3.9326  2.4804  2.4804  1.6179  1.6179  1.0866  1.0866  0.9189
  0.8091  0.8091  0.7293  0.7293  0.6650  0.5960  0.6360  0.6244

 Free energy of the ion-electron system (eV)
  ---------------------------------------------------
  alpha Z        PSCENC =       102.36583616
  Ewald energy   TEWEN  =     70188.52941564
  -Hartree energ DENC   =   -105033.12073490
  -exchange      EXHF   =         0.00000000
  -V(xc)+E(xc)   XCENC  =      -396.67517913
  PAW double counting   =     38189.26736241   -36646.17413506
  entropy T*S    EENTRO =         0.00000000
  eigenvalues    EBANDS =     -2778.82265676
  atomic energy  EATOM  =     36301.95205302
  ---------------------------------------------------
  free energy    TOTEN  =       -72.67803862 eV

  energy without entropy =      -72.67803862  energy(sigma->0) =      -72.67803862


--------------------------------------------------------------------------------------------------------




----------------------------------------- Iteration    1(  24)  ---------------------------------------


    POTLOK:  cpu time    0.24: real time    0.24
    SETDIJ:  cpu time    0.02: real time    0.02
     EDDAV:  cpu time    2.22: real time    2.22
       DOS:  cpu time    0.00: real time    0.00
    CHARGE:  cpu time    0.09: real time    0.09
    MIXING:  cpu time    0.01: real time    0.01
    --------------------------------------------
      LOOP:  cpu time    2.57: real time    2.58

 eigenvalue-minimisations  :   692
 total energy-change (2. order) :-0.2713808E-02  (-0.4932925E-05)
 number of electron     384.9999870 magnetization       1.0044554
 augmentation part      184.3403994 magnetization      -0.0265003

 Broyden mixing:
  rms(total) = 0.53521E-03    rms(broyden)= 0.53490E-03
  rms(prec ) = 0.83122E-03
  weight for this iteration     100.00

 eigenvalues of (default mixing * dielectric matrix)
  average eigenvalue GAMMA=   1.9467
  8.1008  5.8953  4.2172  2.6623  2.6623  1.8906  1.5347  1.5347  1.0279  1.0279
  0.8245  0.8245  0.8229  0.7309  0.7309  0.5954  0.6185  0.6427  0.6427

 Free energy of the ion-electron system (eV)
  ---------------------------------------------------
  alpha Z        PSCENC =       102.36583616
  Ewald energy   TEWEN  =     70188.52941564
  -Hartree energ DENC   =   -105031.92169857
  -exchange      EXHF   =         0.00000000
  -V(xc)+E(xc)   XCENC  =      -396.68388469
  PAW double counting   =     38189.10628810   -36646.01048711
  entropy T*S    EENTRO =         0.00000000
  eigenvalues    EBANDS =     -2780.01827497
  atomic energy  EATOM  =     36301.95205302
  ---------------------------------------------------
  free energy    TOTEN  =       -72.68075243 eV

  energy without entropy =      -72.68075243  energy(sigma->0) =      -72.68075243


--------------------------------------------------------------------------------------------------------




----------------------------------------- Iteration    1(  25)  ---------------------------------------


    POTLOK:  cpu time    0.19: real time    0.19
    SETDIJ:  cpu time    0.01: real time    0.01
     EDDAV:  cpu time    2.26: real time    2.27
       DOS:  cpu time    0.00: real time    0.00
    CHARGE:  cpu time    0.09: real time    0.09
    MIXING:  cpu time    0.01: real time    0.01
    --------------------------------------------
      LOOP:  cpu time    2.56: real time    2.65

 eigenvalue-minimisations  :   704
 total energy-change (2. order) :-0.1335109E-02  (-0.2413514E-05)
 number of electron     384.9999870 magnetization       1.0028531
 augmentation part      184.3401149 magnetization      -0.0281924

 Broyden mixing:
  rms(total) = 0.30303E-03    rms(broyden)= 0.30270E-03
  rms(prec ) = 0.47980E-03
  weight for this iteration     100.00

 eigenvalues of (default mixing * dielectric matrix)
  average eigenvalue GAMMA=   1.9706
  8.0778  6.5958  4.4041  2.8726  2.5602  2.3346  1.5697  1.5697  1.1105  1.1105
  0.8408  0.8408  0.8605  0.7281  0.7281  0.7213  0.5945  0.6174  0.6297  0.6451

 Free energy of the ion-electron system (eV)
  ---------------------------------------------------
  alpha Z        PSCENC =       102.36583616
  Ewald energy   TEWEN  =     70188.52941564
  -Hartree energ DENC   =   -105031.26858952
  -exchange      EXHF   =         0.00000000
  -V(xc)+E(xc)   XCENC  =      -396.68710839
  PAW double counting   =     38189.61444262   -36646.52191115
  entropy T*S    EENTRO =         0.00000000
  eigenvalues    EBANDS =     -2780.66622591
  atomic energy  EATOM  =     36301.95205302
  ---------------------------------------------------
  free energy    TOTEN  =       -72.68208753 eV

  energy without entropy =      -72.68208753  energy(sigma->0) =      -72.68208753


--------------------------------------------------------------------------------------------------------




----------------------------------------- Iteration    1(  26)  ---------------------------------------


    POTLOK:  cpu time    0.19: real time    0.19
    SETDIJ:  cpu time    0.00: real time    0.01
     EDDAV:  cpu time    2.29: real time    2.29
       DOS:  cpu time    0.00: real time    0.00
    --------------------------------------------
      LOOP:  cpu time    2.48: real time    4.42

 eigenvalue-minimisations  :   704
 total energy-change (2. order) :-0.2848825E-04  (-0.5818184E-06)
 number of electron     384.9999870 magnetization       1.0028531
 augmentation part      184.3401149 magnetization      -0.0281924

 Free energy of the ion-electron system (eV)
  ---------------------------------------------------
  alpha Z        PSCENC =       102.36583616
  Ewald energy   TEWEN  =     70188.52941564
  -Hartree energ DENC   =   -105031.01077111
  -exchange      EXHF   =         0.00000000
  -V(xc)+E(xc)   XCENC  =      -396.68840098
  PAW double counting   =     38189.68369403   -36646.58953676
  entropy T*S    EENTRO =         0.00000000
  eigenvalues    EBANDS =     -2780.92440601
  atomic energy  EATOM  =     36301.95205302
  ---------------------------------------------------
  free energy    TOTEN  =       -72.68211602 eV

  energy without entropy =      -72.68211602  energy(sigma->0) =      -72.68211602


--------------------------------------------------------------------------------------------------------




 average (electrostatic) potential at core
  the test charge radii are     1.1249
  (the norm of the test charge is              1.0000)
       1 -82.2363       2 -82.1428       3 -82.1145       4 -82.2082       5 -82.0952
       6 -82.0736       7 -82.0897       8 -82.2121       9 -82.2061      10 -82.0999
      11 -82.2168      12 -82.1558      13 -82.1646      14 -82.2397      15 -82.1316
      16 -82.1409      17 -82.1895      18 -82.1612      19 -82.2003      20 -82.2205
      21 -82.1790      22 -82.1602      23 -82.1842      24 -82.0290      25 -82.1880
      26 -82.1616      27 -82.1524      28 -82.1339      29 -82.0967      30 -82.0910
      31 -82.0829      32 -82.0801      33 -82.1673      34 -82.0741      35 -82.2558
 
 
 
 E-fermi :  -3.2857     XC(G=0):  -1.2361     alpha+bet : -0.7893


 spin component 1

 k-point     1 :       0.0000    0.0000    0.0000
  band No.  band energies     occupation 
      1      -9.1249      1.00000
      2      -8.9782      1.00000
      3      -8.9641      1.00000
      4      -8.9458      1.00000
      5      -8.9163      1.00000
      6      -8.8986      1.00000
      7      -8.8765      1.00000
      8      -8.8602      1.00000
      9      -8.8588      1.00000
     10      -8.8434      1.00000
     11      -8.8349      1.00000
     12      -8.8241      1.00000
     13      -8.7991      1.00000
     14      -8.7768      1.00000
     15      -8.7557      1.00000
     16      -8.6975      1.00000
     17      -8.6773      1.00000
     18      -8.6646      1.00000
     19      -8.6547      1.00000
     20      -8.6396      1.00000
     21      -8.6109      1.00000
     22      -8.5818      1.00000
     23      -8.5698      1.00000
     24      -8.5524      1.00000
     25      -8.5169      1.00000
     26      -8.4952      1.00000
     27      -8.4529      1.00000
     28      -8.4296      1.00000
     29      -8.4177      1.00000
     30      -8.4082      1.00000
     31      -8.3752      1.00000
     32      -8.3578      1.00000
     33      -8.3482      1.00000
     34      -8.3361      1.00000
     35      -8.3135      1.00000
     36      -8.3019      1.00000
     37      -8.2832      1.00000
     38      -8.2674      1.00000
     39      -8.2594      1.00000
     40      -8.2422      1.00000
     41      -8.2339      1.00000
     42      -8.1988      1.00000
     43      -8.1862      1.00000
     44      -8.1711      1.00000
     45      -8.1651      1.00000
     46      -8.1471      1.00000
     47      -8.1273      1.00000
     48      -8.1171      1.00000
     49      -8.1096      1.00000
     50      -8.1076      1.00000
     51      -8.0965      1.00000
     52      -8.0791      1.00000
     53      -8.0758      1.00000
     54      -8.0515      1.00000
     55      -8.0291      1.00000
     56      -8.0184      1.00000
     57      -8.0116      1.00000
     58      -7.9958      1.00000
     59      -7.9552      1.00000
     60      -7.9445      1.00000
     61      -7.9329      1.00000
     62      -7.9124      1.00000
     63      -7.8907      1.00000
     64      -7.8670      1.00000
     65      -7.8646      1.00000
     66      -7.8466      1.00000
     67      -7.7686      1.00000
     68      -7.7492      1.00000
     69      -7.7311      1.00000
     70      -7.6750      1.00000
     71      -7.6651      1.00000
     72      -7.6606      1.00000
     73      -7.6415      1.00000
     74      -7.6087      1.00000
     75      -7.5996      1.00000
     76      -7.5900      1.00000
     77      -7.5615      1.00000
     78      -7.5223      1.00000
     79      -7.5179      1.00000
     80      -7.4967      1.00000
     81      -7.4812      1.00000
     82      -7.4439      1.00000
     83      -7.4313      1.00000
     84      -7.3685      1.00000
     85      -7.3598      1.00000
     86      -7.3341      1.00000
     87      -7.3187      1.00000
     88      -7.2953      1.00000
     89      -7.2812      1.00000
     90      -7.2716      1.00000
     91      -7.2374      1.00000
     92      -7.2219      1.00000
     93      -7.2157      1.00000
     94      -7.1963      1.00000
     95      -7.1802      1.00000
     96      -7.1768      1.00000
     97      -7.1674      1.00000
     98      -7.1325      1.00000
     99      -7.1102      1.00000
    100      -7.0985      1.00000
    101      -7.0838      1.00000
    102      -7.0613      1.00000
    103      -7.0524      1.00000
    104      -7.0431      1.00000
    105      -7.0288      1.00000
    106      -7.0058      1.00000
    107      -6.9992      1.00000
    108      -6.9869      1.00000
    109      -6.9640      1.00000
    110      -6.9531      1.00000
    111      -6.9294      1.00000
    112      -6.9258      1.00000
    113      -6.9140      1.00000
    114      -6.9100      1.00000
    115      -6.9072      1.00000
    116      -6.9011      1.00000
    117      -6.8951      1.00000
    118      -6.8688      1.00000
    119      -6.8541      1.00000
    120      -6.8480      1.00000
    121      -6.8186      1.00000
    122      -6.7969      1.00000
    123      -6.7815      1.00000
    124      -6.7684      1.00000
    125      -6.7519      1.00000
    126      -6.7421      1.00000
    127      -6.7257      1.00000
    128      -6.7154      1.00000
    129      -6.6842      1.00000
    130      -6.6780      1.00000
    131      -6.6635      1.00000
    132      -6.6538      1.00000
    133      -6.6441      1.00000
    134      -6.6392      1.00000
    135      -6.6325      1.00000
    136      -6.6228      1.00000
    137      -6.6192      1.00000
    138      -6.6151      1.00000
    139      -6.6016      1.00000
    140      -6.5976      1.00000
    141      -6.5907      1.00000
    142      -6.5764      1.00000
    143      -6.5744      1.00000
    144      -6.5623      1.00000
    145      -6.5552      1.00000
    146      -6.5438      1.00000
    147      -6.5426      1.00000
    148      -6.5202      1.00000
    149      -6.5193      1.00000
    150      -6.5035      1.00000
    151      -6.4922      1.00000
    152      -6.4881      1.00000
    153      -6.4736      1.00000
    154      -6.4599      1.00000
    155      -6.4513      1.00000
    156      -6.4270      1.00000
    157      -6.4106      1.00000
    158      -6.3940      1.00000
    159      -6.3783      1.00000
    160      -6.3669      1.00000
    161      -6.3542      1.00000
    162      -6.3446      1.00000
    163      -6.3225      1.00000
    164      -6.3149      1.00000
    165      -6.3004      1.00000
    166      -6.2878      1.00000
    167      -6.2803      1.00000
    168      -6.2559      1.00000
    169      -6.2395      1.00000
    170      -6.2138      1.00000
    171      -6.1918      1.00000
    172      -6.1384      1.00000
    173      -6.1023      1.00000
    174      -6.0786      1.00000
    175      -6.0538      1.00000
    176      -6.0351      1.00000
    177      -6.0016      1.00000
    178      -5.9858      1.00000
    179      -5.9735      1.00000
    180      -5.9167      1.00000
    181      -5.9113      1.00000
    182      -5.6638      1.00000
    183      -5.5513      1.00000
    184      -5.4769      1.00000
    185      -4.8659      1.00000
    186      -4.6986      1.00000
    187      -4.6347      1.00000
    188      -4.5826      1.00000
    189      -4.3676      1.00000
    190      -4.2233      1.00000
    191      -4.1313      1.00000
    192      -3.5963      1.00000
    193      -3.3119      1.00000
    194      -3.0561      0.00000
    195      -2.8732      0.00000
    196      -2.7471      0.00000
    197      -2.6528      0.00000
    198      -2.5055      0.00000
    199      -2.4823      0.00000
    200      -2.4324      0.00000
    201      -2.2308      0.00000
    202      -2.1841      0.00000
    203      -2.0819      0.00000
    204      -2.0006      0.00000
    205      -1.4017      0.00000
    206      -1.3560      0.00000
    207      -1.3241      0.00000
    208      -1.2456      0.00000
    209      -1.1383      0.00000
    210      -1.0683      0.00000
    211      -0.9915      0.00000
    212      -0.8773      0.00000
    213      -0.8178      0.00000
    214      -0.7468      0.00000
    215      -0.6634      0.00000
    216      -0.5677      0.00000
    217      -0.4579      0.00000
    218      -0.4220      0.00000
    219      -0.2692      0.00000
    220      -0.2192      0.00000
    221      -0.0031      0.00000
    222       0.1026      0.00000
    223       0.1576      0.00000
    224       0.2241      0.00000
    225       0.3169      0.00000
    226       0.4353      0.00000
    227       0.4700      0.00000
    228       0.6195      0.00000
    229       0.6758      0.00000
    230       0.7263      0.00000
    231       0.7789      0.00000
    232       0.8305      0.00000
    233       0.8418      0.00000
    234       0.8895      0.00000
    235       0.9138      0.00000
    236       0.9395      0.00000
    237       0.9523      0.00000
    238       1.0221      0.00000
    239       1.0285      0.00000
    240       1.0564      0.00000
    241       1.1196      0.00000
    242       1.1260      0.00000
    243       1.1402      0.00000
[...]
 total charge-density along one line
 
 pseudopotential strength for first ion, spin component:           1
-10.300   0.004  -0.002  -0.001   0.001 -10.275   0.004  -0.002
  0.004 -10.295  -0.002   0.001  -0.000   0.004 -10.270  -0.002
 -0.002  -0.002 -10.298  -0.001   0.002  -0.002  -0.002 -10.273
 -0.001   0.001  -0.001 -10.301  -0.001  -0.001   0.001  -0.001
  0.001  -0.000   0.002  -0.001 -10.302   0.001  -0.000   0.002
-10.275   0.004  -0.002  -0.001   0.001 -10.226   0.004  -0.002
  0.004 -10.270  -0.002   0.001  -0.000   0.004 -10.221  -0.002
 -0.002  -0.002 -10.273  -0.001   0.002  -0.002  -0.002 -10.224
 -0.001   0.001  -0.001 -10.276  -0.001  -0.001   0.001  -0.001
  0.001  -0.000   0.002  -0.001 -10.277   0.001  -0.000   0.002
 -0.001   0.002  -0.002  -0.001   0.002  -0.001   0.002  -0.001
 -0.001   0.003  -0.003  -0.002   0.003  -0.001   0.003  -0.002
  0.011   0.021   0.011  -0.000   0.020   0.011   0.021   0.011
 -0.000  -0.020   0.025   0.012  -0.000  -0.000  -0.019   0.024
 -0.020  -0.000  -0.006   0.021   0.011  -0.019  -0.000  -0.006
  0.014   0.026   0.014  -0.000   0.024   0.014   0.025   0.013
 -0.000  -0.025   0.030   0.015  -0.000  -0.000  -0.024   0.029
 -0.024  -0.000  -0.008   0.025   0.014  -0.023  -0.000  -0.007
 pseudopotential strength for first ion, spin component:           2
-10.301   0.004  -0.002  -0.001   0.001 -10.276   0.004  -0.002
  0.004 -10.295  -0.003   0.001  -0.000   0.004 -10.270  -0.002
 -0.002  -0.003 -10.298  -0.002   0.002  -0.002  -0.002 -10.273
 -0.001   0.001  -0.002 -10.298  -0.001  -0.001   0.001  -0.002
  0.001  -0.000   0.002  -0.001 -10.303   0.001  -0.000   0.002
-10.276   0.004  -0.002  -0.001   0.001 -10.227   0.004  -0.002
  0.004 -10.270  -0.002   0.001  -0.000   0.004 -10.221  -0.002
 -0.002  -0.002 -10.273  -0.002   0.002  -0.002  -0.002 -10.224
 -0.001   0.001  -0.002 -10.273  -0.001  -0.001   0.001  -0.002
  0.001  -0.000   0.002  -0.001 -10.278   0.001  -0.000   0.002
 -0.001   0.001  -0.001  -0.002   0.002  -0.001   0.001  -0.001
 -0.001   0.003  -0.002  -0.003   0.002  -0.001   0.002  -0.002
  0.012   0.022   0.011  -0.000   0.020   0.011   0.021   0.011
 -0.000  -0.020   0.025   0.012  -0.000  -0.000  -0.019   0.024
 -0.020  -0.000  -0.007   0.021   0.012  -0.019  -0.000  -0.006
  0.015   0.026   0.014  -0.000   0.024   0.014   0.025   0.013
 -0.000  -0.025   0.030   0.015  -0.000  -0.000  -0.024   0.029
 -0.024  -0.000  -0.008   0.026   0.014  -0.023  -0.000  -0.008
 total augmentation occupancy for first ion, spin component:           1
  2.619  -0.019   0.125  -0.081  -0.016  -0.641   0.076  -0.131   0.061   0.024   0.095  -0.020   0.031   0.041  -0.093   0.005
 -0.019   2.542   0.004   0.060   0.071   0.076  -0.525  -0.039  -0.055  -0.066  -0.088  -0.009   0.049  -0.009   0.038   0.009
  0.125   0.004   2.828  -0.081   0.136  -0.131  -0.039  -0.821   0.058  -0.120   0.100   0.004   0.111   0.128  -0.069   0.001
 -0.081   0.060  -0.081   2.863   0.047   0.061  -0.055   0.058  -0.876  -0.052   0.146  -0.020   0.033  -0.023   0.168  -0.002
 -0.016   0.071   0.136   0.047   2.775   0.024  -0.066  -0.120  -0.052  -0.802  -0.132   0.012   0.108   0.055   0.055   0.007
 -0.641   0.076  -0.131   0.061   0.024   0.633  -0.123   0.137  -0.045  -0.032  -0.086   0.017  -0.035  -0.043   0.110   0.002
  0.076  -0.525  -0.039  -0.055  -0.066  -0.123   0.485   0.067   0.049   0.063   0.082   0.004  -0.068   0.023  -0.041   0.004
 -0.131  -0.039  -0.821   0.058  -0.120   0.137   0.067   0.785  -0.040   0.107  -0.088  -0.003  -0.125  -0.149   0.071   0.007
  0.061  -0.055   0.058  -0.876  -0.052  -0.045   0.049  -0.040   0.860   0.056  -0.137   0.024  -0.036   0.012  -0.191   0.002
  0.024  -0.066  -0.120  -0.052  -0.802  -0.032   0.063   0.107   0.056   0.795   0.123  -0.015  -0.130  -0.057  -0.066   0.007
  0.095  -0.088   0.100   0.146  -0.132  -0.086   0.082  -0.088  -0.137   0.123   1.894  -0.250   0.147  -0.175  -0.067  -0.014
 -0.020  -0.009   0.004  -0.020   0.012   0.017   0.004  -0.003   0.024  -0.015  -0.250   0.049  -0.027   0.037   0.008   0.002
  0.031   0.049   0.111   0.033   0.108  -0.035  -0.068  -0.125  -0.036  -0.130   0.147  -0.027   0.073   0.013  -0.002  -0.005
  0.041  -0.009   0.128  -0.023   0.055  -0.043   0.023  -0.149   0.012  -0.057  -0.175   0.037   0.013   0.071  -0.015  -0.000
 -0.093   0.038  -0.069   0.168   0.055   0.110  -0.041   0.071  -0.191  -0.066  -0.067   0.008  -0.002  -0.015   0.091   0.000
  0.005   0.009   0.001  -0.002   0.007   0.002   0.004   0.007   0.002   0.007  -0.014   0.002  -0.005  -0.000   0.000   0.001
 -0.002  -0.011   0.007   0.008  -0.003   0.003  -0.001   0.008  -0.001   0.003   0.017  -0.003  -0.000  -0.005   0.001  -0.000
 -0.006  -0.002   0.000   0.004   0.003  -0.007   0.003  -0.004   0.010   0.004   0.006  -0.001   0.000   0.000  -0.005  -0.000
 total augmentation occupancy for first ion, spin component:           2
 -0.016   0.005  -0.001   0.011  -0.000   0.007  -0.003   0.001  -0.009  -0.000  -0.005  -0.001  -0.001  -0.000   0.002  -0.000
  0.005  -0.018  -0.002   0.005  -0.000  -0.003   0.009   0.002  -0.004   0.000  -0.007  -0.001   0.001  -0.002   0.003   0.000
 -0.001  -0.002  -0.011  -0.022  -0.002   0.001   0.002   0.003   0.018   0.002   0.022   0.004  -0.000   0.006  -0.009  -0.000
  0.011   0.005  -0.022   0.039   0.008  -0.009  -0.004   0.017  -0.036  -0.005  -0.044  -0.009   0.001  -0.010   0.020   0.000
 -0.000  -0.000  -0.002   0.008  -0.015  -0.000   0.000   0.002  -0.005   0.005  -0.006   0.001   0.001  -0.000   0.001  -0.000
  0.007  -0.003   0.001  -0.009  -0.000   0.002   0.001  -0.001   0.007   0.001   0.004   0.001  -0.001   0.000  -0.002   0.000
 -0.003   0.009   0.002  -0.004   0.000   0.001   0.000  -0.002   0.003   0.000   0.005   0.000  -0.000   0.001  -0.002   0.000
  0.001   0.002   0.003   0.017   0.002  -0.001  -0.002   0.005  -0.014  -0.003  -0.018  -0.002   0.000  -0.003   0.007   0.000
 -0.009  -0.004   0.018  -0.036  -0.005   0.007   0.003  -0.014   0.035   0.003   0.034   0.005  -0.001   0.006  -0.015  -0.000
 -0.000   0.000   0.002  -0.005   0.005   0.001   0.000  -0.003   0.003   0.003   0.005  -0.001  -0.000   0.000  -0.002   0.000
 -0.005  -0.007   0.022  -0.044  -0.006   0.004   0.005  -0.018   0.034   0.005   0.049   0.002  -0.000   0.009  -0.020  -0.000
 -0.001  -0.001   0.004  -0.009   0.001   0.001   0.000  -0.002   0.005  -0.001   0.002   0.001  -0.000   0.001  -0.002   0.000
 -0.001   0.001  -0.000   0.001   0.001  -0.001  -0.000   0.000  -0.001  -0.000  -0.000  -0.000   0.000   0.000   0.000  -0.000
 -0.000  -0.002   0.006  -0.010  -0.000   0.000   0.001  -0.003   0.006   0.000   0.009   0.001   0.000   0.001  -0.003  -0.000
  0.002   0.003  -0.009   0.020   0.001  -0.002  -0.002   0.007  -0.015  -0.002  -0.020  -0.002   0.000  -0.003   0.007   0.000
 -0.000   0.000  -0.000   0.000  -0.000   0.000   0.000   0.000  -0.000   0.000  -0.000   0.000  -0.000  -0.000   0.000   0.000
 -0.000   0.000   0.000  -0.000   0.000   0.000  -0.000   0.000   0.000   0.000  -0.000  -0.000  -0.000  -0.000   0.000   0.000
 -0.000  -0.000   0.000  -0.000  -0.000  -0.000   0.000  -0.000   0.000   0.000   0.001   0.000   0.000   0.000  -0.000  -0.000


------------------------ aborting loop because EDIFF is reached ----------------------------------------


    CHARGE:  cpu time    0.09: real time    0.09
    FORLOC:  cpu time    0.01: real time    0.01
    FORNL :  cpu time    1.97: real time    1.97
    STRESS:  cpu time    2.24: real time    2.24
    FORCOR:  cpu time    0.19: real time    0.19
    FORHAR:  cpu time    0.03: real time    0.03
    MIXING:  cpu time    0.00: real time    0.00
    OFIELD:  cpu time    0.00: real time    0.00

  FORCE on cell =-STRESS in cart. coord.  units (eV):
  Direction    XX          YY          ZZ          XY          YZ          ZX
  --------------------------------------------------------------------------------------
  Alpha Z   102.36584   102.36584   102.36584
  Ewald   24393.03187 25494.01836 18020.57476  -316.68186   -17.60106 -2976.36671
  Hartree 35868.40418 36917.41124 30001.72076  -245.23419     9.92133 -2621.85262
  E(xc)   -2029.11543 -2029.03640 -2030.42602    -0.23987    -0.10790    -0.99959
  Local  -65988.30316-68137.75429-53761.60260   559.25774     5.69064  5588.35658
  n-local  -358.31045  -358.35905  -357.71212     0.00173     0.71480     0.32548
  augment  3212.22288  3212.11495  3216.08127     0.72966     0.25858     2.97983
  Kinetic  4787.85924  4787.59372  4797.40433     1.86802     1.29070     7.24029
  Fock        0.00000     0.00000     0.00000     0.00000     0.00000     0.00000
  -------------------------------------------------------------------------------------
  Total     -11.84504   -11.64563   -11.59379    -0.29878     0.16710    -0.31675
  in kB      -1.86446    -1.83307    -1.82491    -0.04703     0.02630    -0.04986
  external pressure =       -1.84 kB  Pullay stress =        0.00 kB


 VOLUME and BASIS-vectors are now :
 -----------------------------------------------------------------------------
  energy-cutoff  :      249.84
  volume of cell :    10178.77
      direct lattice vectors                 reciprocal lattice vectors
    21.671970977  0.000000000  0.000000000     0.046142550  0.000000000  0.000000000
     0.000000000 21.671970977  0.000000000     0.000000000  0.046142550  0.000000000
     0.000000000  0.000000000 21.671970977     0.000000000  0.000000000  0.046142550

  length of vectors
    21.671970977 21.671970977 21.671970977     0.046142550  0.046142550  0.046142550


 FORCES acting on ions
    electron-ion (+dipol)            ewald-force                    non-local-force                 convergence-correction
 -----------------------------------------------------------------------------------------------
   -.418E+03 0.862E+03 -.991E+03   0.416E+03 -.858E+03 0.987E+03   0.199E+01 -.352E+01 0.381E+01   -.550E-02 0.388E-02 -.124E-01
   -.168E+03 0.144E+03 -.113E+04   0.168E+03 -.143E+03 0.113E+04   -.129E+00 -.850E+00 0.233E+01   0.144E-02 -.468E-02 -.675E-02
   -.673E+03 -.975E+03 -.696E+03   0.670E+03 0.971E+03 0.693E+03   0.256E+01 0.389E+01 0.250E+01   0.311E-02 0.110E-02 -.741E-02
   0.604E+03 0.359E+03 -.117E+04   -.602E+03 -.358E+03 0.117E+04   -.206E+01 -.130E+01 0.458E+01   0.131E-01 0.496E-02 -.647E-02
   -.742E+03 0.131E+03 -.708E+03   0.741E+03 -.129E+03 0.707E+03   0.683E+00 -.168E+01 0.456E+00   0.197E-01 0.758E-02 0.128E-01
   -.414E+03 -.362E+03 -.935E+03   0.413E+03 0.360E+03 0.933E+03   0.689E+00 0.114E+01 0.142E+01   0.216E-01 0.137E-01 0.108E-01
   0.262E+03 -.390E+03 -.957E+03   -.261E+03 0.391E+03 0.956E+03   -.145E+01 -.512E+00 0.124E+01   0.224E-02 0.534E-02 0.227E-03
   0.327E+03 0.865E+03 -.687E+03   -.326E+03 -.864E+03 0.685E+03   -.531E+00 -.840E+00 0.203E+01   0.549E-02 0.158E-01 0.896E-02
   -.979E+03 0.897E+03 -.357E+03   0.975E+03 -.894E+03 0.355E+03   0.379E+01 -.317E+01 0.175E+01   -.671E-02 0.274E-02 -.550E-02
   -.932E+03 -.292E+03 -.401E+03   0.931E+03 0.290E+03 0.400E+03   0.737E+00 0.176E+01 0.290E+00   0.112E-01 0.396E-02 0.172E-01
   0.112E+04 -.188E+03 -.765E+03   -.111E+04 0.188E+03 0.762E+03   -.418E+01 0.960E-01 0.335E+01   0.779E-02 0.864E-03 -.474E-02
   -.146E+03 0.105E+04 -.147E+03   0.145E+03 -.105E+04 0.146E+03   0.104E+01 -.112E+01 0.686E+00   0.851E-03 -.159E-01 -.495E-02
   -.112E+04 0.233E+03 -.797E+02   0.111E+04 -.232E+03 0.795E+02   0.192E+01 -.117E+01 0.119E+00   0.693E-02 -.113E-01 0.829E-02
   0.451E+03 -.127E+04 0.974E+01   -.449E+03 0.126E+04 -.913E+01   -.143E+01 0.516E+01 -.594E+00   0.124E-02 0.174E-01 -.853E-02
   0.886E+03 0.504E+03 -.344E+03   -.885E+03 -.504E+03 0.343E+03   -.917E+00 -.224E+00 0.132E+01   -.156E-01 0.261E-02 0.316E-02
   0.860E+02 -.910E+03 -.719E+03   -.867E+02 0.907E+03 0.718E+03   0.681E+00 0.211E+01 0.122E+01   0.149E-01 0.208E-02 -.388E-02
   0.758E+03 -.716E+03 -.464E+03   -.757E+03 0.715E+03 0.464E+03   -.150E+01 0.135E+01 -.382E+00   0.505E-02 -.716E-02 0.506E-02
   0.552E+03 0.103E+04 -.107E+03   -.551E+03 -.103E+04 0.107E+03   -.178E+01 -.192E+01 -.244E+00   -.436E-02 0.133E-01 -.551E-01
   -.622E+03 0.889E+03 0.395E+03   0.621E+03 -.887E+03 -.395E+03   0.195E+01 -.116E+01 -.409E+00   0.840E-02 0.759E-02 0.153E-01
   -.104E+04 0.434E+03 0.775E+03   0.104E+04 -.432E+03 -.772E+03   0.379E+01 -.173E+01 -.332E+01   -.692E-02 -.343E-02 0.151E-01
   0.113E+04 -.106E+03 0.703E+02   -.113E+04 0.105E+03 -.701E+02   -.201E+01 0.113E+01 -.210E+00   -.591E-02 0.206E-01 0.119E-01
   0.104E+04 -.753E+03 0.461E+03   -.104E+04 0.750E+03 -.459E+03   -.409E+01 0.267E+01 -.172E+01   -.376E-02 -.177E-02 0.522E-02
   -.193E+03 -.108E+04 0.137E+03   0.192E+03 0.108E+04 -.138E+03   0.928E+00 0.128E+01 0.102E+01   -.582E-02 0.105E-01 -.139E-02
   0.705E+03 0.967E+03 0.696E+03   -.701E+03 -.963E+03 -.692E+03   -.333E+01 -.416E+01 -.363E+01   0.615E-02 0.239E-01 0.152E-01
   -.103E+04 -.309E+03 0.419E+03   0.102E+04 0.309E+03 -.418E+03   0.137E+01 -.293E+00 -.179E+01   0.517E-02 -.260E-01 0.344E-02
   -.541E+02 0.100E+04 0.589E+03   0.550E+02 -.100E+04 -.588E+03   -.777E+00 -.233E+01 -.125E+01   -.528E-01 -.249E-01 -.123E-01
   0.104E+04 0.382E+03 0.382E+03   -.104E+04 -.380E+03 -.380E+03   -.202E+01 -.169E+01 -.145E+01   -.256E-02 -.269E-01 -.221E-01
   -.324E+03 -.762E+03 0.778E+03   0.323E+03 0.761E+03 -.777E+03   0.861E+00 0.823E+00 -.150E+01   -.713E-02 -.612E-02 -.496E-03
   -.221E+03 0.441E+03 0.944E+03   0.219E+03 -.441E+03 -.943E+03   0.137E+01 0.274E+00 -.117E+01   0.675E-02 -.540E-03 -.207E-01
   0.733E+03 -.192E+03 0.774E+03   -.731E+03 0.192E+03 -.773E+03   -.136E+01 0.264E+00 -.879E+00   -.107E-01 0.283E-02 0.266E-02
   0.437E+03 0.313E+03 0.104E+04   -.435E+03 -.311E+03 -.104E+04   -.155E+01 -.157E+01 -.215E+01   -.147E-01 -.323E-01 0.159E-01
   0.281E+03 -.762E+03 0.714E+03   -.280E+03 0.761E+03 -.713E+03   -.161E+01 0.146E+01 -.968E-01   0.293E-02 -.190E-02 -.140E-02
   -.548E+03 -.233E+03 0.123E+04   0.546E+03 0.232E+03 -.122E+04   0.225E+01 0.643E+00 -.479E+01   -.107E-01 -.172E-01 0.154E-01
   0.174E+03 -.255E+03 0.105E+04   -.174E+03 0.254E+03 -.105E+04   0.112E+00 0.675E+00 -.190E+01   0.152E-01 0.132E-01 0.366E-02
   -.962E+03 -.953E+03 0.192E+03   0.958E+03 0.949E+03 -.192E+03   0.374E+01 0.438E+01 -.678E-01   0.757E-02 0.159E-01 0.107E-01
 -----------------------------------------------------------------------------------------------
   0.714E-01 0.229E+00 -.441E+00   -.227E-12 0.568E-12 0.185E-11   -.268E+00 -.127E+00 0.587E+00   0.136E-01 0.950E-02 0.660E-02
 
 
 POSITION                                       TOTAL-FORCE (eV/Angst)
 -----------------------------------------------------------------------------------
     12.34444      7.49503     14.12614         0.004274     -0.002769      0.012972
     11.07235      9.91058     14.65922        -0.007873     -0.004733      0.006845
     13.24231     14.67251     12.80528        -0.005751     -0.006532      0.007519
      8.31545      9.57786     14.98345        -0.012068     -0.005109      0.005307
     13.42279      9.87670     13.14960        -0.015074     -0.006949     -0.012828
     12.17718     12.30439     13.80575        -0.015333     -0.007799     -0.014491
      9.38506     12.06645     14.16262        -0.011901     -0.006290     -0.000104
      9.68923      7.77599     13.37241         0.001661     -0.007088      0.012155
     14.23836      7.39348     12.07134         0.007923      0.003027      0.000861
     14.18270     12.20948     11.83825        -0.013193     -0.003034     -0.006939
      6.68775     11.42061     13.66789        -0.007713      0.000069     -0.000365
     11.53055      6.95950     11.47910         0.010671      0.012709      0.011615
     14.80218      9.75222     10.70592        -0.009178      0.006551     -0.014406
      8.97068     15.53361     10.84697         0.000983     -0.010582      0.005986
      7.51197      9.13815     12.30653         0.010049      0.002044      0.005793
     10.45179     14.35351     12.95883        -0.012483     -0.003122      0.004818
      7.84389     13.54143     12.33574        -0.013543     -0.004154     -0.000717
      8.79240      7.11167     10.82919         0.002415     -0.017484      0.011474
     13.27660      7.72532      9.47352         0.015729      0.000254     -0.003503
     14.78063      9.44101      7.89665         0.004277      0.014927     -0.014401
      6.71699     11.39606     10.88356         0.004335     -0.005766     -0.003080
      7.04047     13.88966      9.61911         0.002065     -0.002259     -0.004675
     11.62863     14.94255     10.49477         0.001458     -0.009318      0.007236
      7.99080      6.72482      8.18450         0.016667     -0.000834      0.007970
     14.61806     11.93935      9.03287        -0.001386      0.009198     -0.014251
     10.66461      7.17920      8.78412         0.004839      0.017437      0.013080
      7.28274      9.07792      9.51097         0.017410     -0.005733      0.004356
     12.42157     13.52331      8.23161        -0.003886      0.003081     -0.007338
     12.02480      9.24134      7.48529         0.007464      0.014505      0.007907
      8.09060     11.58146      8.46532         0.004868      0.003460     -0.001314
      9.23300      9.20940      7.52031         0.002834      0.003763     -0.004033
      9.71750     13.85653      8.73605         0.002871      0.001440     -0.000581
     13.33941     11.51312      6.54601         0.007066      0.018556     -0.015619
     10.59883     11.62441      7.25398         0.001327      0.001292     -0.005637
     14.28200     14.40977     10.14569        -0.001805     -0.002754     -0.001612
 -----------------------------------------------------------------------------------
    total drift:                               -0.183233      0.111119      0.152412


--------------------------------------------------------------------------------------------------------



  FREE ENERGIE OF THE ION-ELECTRON SYSTEM (eV)
  ---------------------------------------------------
  free  energy   TOTEN  =       -72.98775744 eV

  energy  without entropy=      -72.98775744  energy(sigma->0) =      -72.98775744
 
 d Force =-0.1114504E-04[-0.174E-03, 0.152E-03]  d Energy =-0.2636866E-04 0.152E-04
 d Force =-0.4446831E-01[-0.471E-01,-0.418E-01]  d Ewald  =-0.4446760E-01-0.714E-06


--------------------------------------------------------------------------------------------------------


    POTLOK:  cpu time    0.20: real time    0.20


--------------------------------------------------------------------------------------------------------




--------------------------------------------------------------------------------------------------------


  
 reached required accuracy - stopping structural energy minimisation
     LOOP+:  cpu time   11.13: real time   11.40
    4ORBIT:  cpu time    0.00: real time    0.00

 total amount of memory used by VASP on root node    51185. kBytes
========================================================================

   base      :      30000. kBytes
   nonl-proj :       2016. kBytes
   fftplans  :       3738. kBytes
   grid      :       9555. kBytes
   one-center:         46. kBytes
   wavefun   :       5830. kBytes
 
  
  
 General timing and accounting informations for this job:
 ========================================================
  
                  Total CPU time used (sec):      449.028
                            User time (sec):      445.548
                          System time (sec):        3.480
                         Elapsed time (sec):      481.782
  
                   Maximum memory used (kb):       61664.
                   Average memory used (kb):           0.
  
                          Minor page faults:       286227
                          Major page faults:            0
                 Voluntary context switches:        18160
