 vasp.5.3.5 31Mar14 (build Feb 01 2018 12:10:03) gamma-only                     
  
 executed on             LinuxIFC date 2019.03.22  08:02:10
 running on   32 total cores
 distrk:  each k-point on   32 cores,    1 groups
 distr:  one band on NCORES_PER_BAND=   8 cores,    4 groups


--------------------------------------------------------------------------------------------------------


 INCAR:
 POTCAR:    PAW_PBE Ag 02Apr2005                  
 POTCAR:    PAW_PBE Ag 02Apr2005                  
   VRHFIN =Ag : s1 d10                                                          
   LEXCH  = PE                                                                  
   EATOM  =  1037.2675 eV,   76.2370 Ry                                         
                                                                                
   TITEL  = PAW_PBE Ag 02Apr2005                                                
   LULTRA =        F    use ultrasoft PP ?                                      
   IUNSCR =        1    unscreen: 0-lin 1-nonlin 2-no                           
   RPACOR =    2.000    partial core radius                                     
   POMASS =  107.868; ZVAL   =   11.000    mass and valenz                      
   RCORE  =    2.500    outmost cutoff radius                                   
   RWIGS  =    2.840; RWIGS  =    1.503    wigner-seitz radius (au A)           
   ENMAX  =  249.844; ENMIN  =  187.383 eV                                      
   ICORE  =        3    local potential                                         
   LCOR   =        T    correct aug charges                                     
   LPAW   =        T    paw PP                                                  
   EAUG   =  412.496                                                            
   DEXC   =    0.000                                                            
   RMAX   =    2.560    core radius for proj-oper                               
   RAUG   =    1.300    factor for augmentation sphere                          
   RDEP   =    2.576    radius for radial grids                                 
   RDEPT  =    2.072    core radius for aug-charge                              
                                                                                
   Atomic configuration                                                         
   12 entries                                                                   
     n  l   j            E        occ.                                          
     1  0  0.50    -25324.9161   2.0000                                         
     2  0  0.50     -3728.5341   2.0000                                         
     2  1  1.50     -3344.0404   6.0000                                         
     3  0  0.50      -683.5581   2.0000                                         
     3  1  1.50      -557.3225   6.0000                                         
     3  2  2.50      -358.3853  10.0000                                         
     4  0  0.50       -95.0341   2.0000                                         
     4  1  1.50       -58.5511   6.0000                                         
     4  2  2.50        -7.4440  10.0000                                         
     5  0  0.50        -4.4045   1.0000                                         
     5  1  0.50        -1.3606   0.0000                                         
     4  3  2.50        -1.3606   0.0000                                         
   Description                                                                  
     l       E           TYP  RCUT    TYP  RCUT                                 
     2     -7.4439781     23  2.400                                             
     2     -8.8045607     23  2.400                                             
     0     -4.4044681     23  2.400                                             
     0      1.9520038     23  2.400                                             
     1     -1.3605826     23  2.500                                             
     1     27.2116520     23  2.500                                             
     3     -4.0817478     23  2.400                                             
  local pseudopotential read in
  partial core-charges read in
  partial kinetic energy density read in
  atomic valenz-charges read in
  non local Contribution for L=           2  read in
    real space projection operators read in
  non local Contribution for L=           2  read in
    real space projection operators read in
  non local Contribution for L=           0  read in
    real space projection operators read in
  non local Contribution for L=           0  read in
    real space projection operators read in
  non local Contribution for L=           1  read in
    real space projection operators read in
  non local Contribution for L=           1  read in
    real space projection operators read in
    PAW grid and wavefunctions read in
 
   number of l-projection  operators is LMAX  =           6
   number of lm-projection operators is LMMAX =          18
 

 ----------------------------------------------------------------------------- 
|                                                                             |
|  ADVICE TO THIS USER RUNNING 'VASP/VAMP'   (HEAR YOUR MASTER'S VOICE ...):  |
|                                                                             |
|      You have a (more or less) 'large supercell' and for larger cells       |
|      it might be more efficient to use real space projection opertators     |
|      So try LREAL= Auto  in the INCAR   file.                               |
|      Mind: At the moment your POTCAR file does not contain real space       |
|       projectors, and has to be modified,  BUT if you                       |
|      want to do an extremely  accurate calculation you might also keep the  |
|      reciprocal projection scheme          (i.e. LREAL=.FALSE.)             |
|                                                                             |
 ----------------------------------------------------------------------------- 

  PAW_PBE Ag 02Apr2005                  :
 energy of atom  1       EATOM=-1037.2675
 kinetic energy error for atom=    0.0689 (will be added to EATOM!!)
 
 
 POSCAR: Ti27, -175.70315211 <s> Ag </s>         
  positions in direct lattice
  No initial velocities read in
 exchange correlation table for  LEXCH =        8
   RHO(1)=    0.500       N(1)  =     2000
   RHO(2)=  100.500       N(2)  =     4000
 


--------------------------------------------------------------------------------------------------------


 ion  position               nearest neighbor table
   1  0.323  0.497  0.408-   2 2.37   4 2.49   5 2.53   3 2.74   6 2.78   8 2.89
   2  0.410  0.458  0.346-   1 2.37  10 2.40   7 2.64   3 2.76   6 2.76   8 2.89
   3  0.380  0.388  0.453-  12 2.57   1 2.74   2 2.76   8 2.76   4 2.79   7 2.86   9 2.92
   4  0.314  0.479  0.525-   9 2.49   1 2.49   5 2.59  11 2.73   3 2.79   8 3.00
   5  0.339  0.592  0.481-  11 2.51   1 2.53  13 2.57   4 2.59   6 2.73   8 2.92
   6  0.414  0.588  0.375-  10 2.65   5 2.73   2 2.76   1 2.78   8 2.80  13 2.90  14 2.91
   7  0.506  0.396  0.400-  12 2.64   2 2.64  10 2.70  16 2.79  15 2.79   3 2.86   8 2.96
   8  0.445  0.501  0.473-   3 2.76   6 2.80   2 2.89   1 2.89   5 2.92  13 2.96   7 2.96  20 2.98
                             9 2.98   4 3.00  10 3.02  11 3.02  12 3.19  14 3.30
   9  0.402  0.426  0.586-   4 2.49  17 2.54  12 2.57  18 2.86   3 2.92  11 2.95   8 2.98
  10  0.512  0.512  0.344-   2 2.40  14 2.44  15 2.52   6 2.65   7 2.70   8 3.02
  11  0.388  0.567  0.588-   5 2.51  17 2.52   4 2.73  13 2.77  21 2.78   9 2.95   8 3.02
  12  0.481  0.360  0.518-  16 2.52  18 2.54   3 2.57   9 2.57   7 2.64   8 3.19
  13  0.451  0.641  0.498-  19 2.52   5 2.57  11 2.77  21 2.80  14 2.87   6 2.90   8 2.96
  14  0.548  0.603  0.409-  19 2.44  10 2.44  13 2.87  15 2.87   6 2.91  23 2.92   8 3.30  20 3.32

  15  0.610  0.480  0.408-  10 2.52  22 2.57  16 2.77   7 2.79  14 2.87  23 2.90  20 2.97
  16  0.598  0.381  0.496-  22 2.51  12 2.52  24 2.74  15 2.77   7 2.79  18 2.95  20 3.02
  17  0.468  0.503  0.653-  11 2.52   9 2.54  18 2.58  25 2.58  21 2.64  20 3.19
  18  0.533  0.404  0.619-  24 2.49  12 2.54  17 2.58   9 2.86  25 2.91  16 2.95  20 2.98
  19  0.569  0.657  0.510-  26 2.41  14 2.44  13 2.52  23 2.65  21 2.69  20 3.02
  20  0.571  0.516  0.540-  25 2.75  23 2.80  26 2.88  27 2.91  22 2.92  21 2.96  15 2.97  18 2.98
                             8 2.98  24 2.99  16 3.02  19 3.02  17 3.19  14 3.32
  21  0.508  0.617  0.616-  17 2.64  26 2.64  19 2.69  11 2.78  13 2.80  25 2.86  20 2.96
  22  0.691  0.457  0.498-  16 2.51  27 2.53  15 2.57  24 2.58  23 2.72  20 2.92
  23  0.668  0.584  0.478-  19 2.65  22 2.72  26 2.77  27 2.79  20 2.80  15 2.90  14 2.92
  24  0.651  0.419  0.609-  18 2.49  27 2.49  22 2.58  16 2.74  25 2.79  20 2.99
  25  0.589  0.521  0.670-  17 2.58  27 2.75  20 2.75  26 2.76  24 2.79  21 2.86  18 2.91
  26  0.633  0.623  0.600-  27 2.38  19 2.41  21 2.64  25 2.76  23 2.77  20 2.88
  27  0.697  0.529  0.596-  26 2.38  24 2.49  22 2.53  25 2.75  23 2.79  20 2.91
 
  LATTYP: Found a simple cubic cell.
 ALAT       =    20.8685223595
  
  Lattice vectors:
  
 A1 = (  20.8685223595,   0.0000000000,   0.0000000000)
 A2 = (   0.0000000000,  20.8685223595,   0.0000000000)
 A3 = (   0.0000000000,   0.0000000000,  20.8685223595)


Analysis of symmetry for initial positions (statically):
=====================================================================
 Subroutine PRICEL returns:
 Original cell was already a primitive cell.
 

 Routine SETGRP: Setting up the symmetry group for a 
 simple cubic supercell.


 Subroutine GETGRP returns: Found  1 space group operations
 (whereof  1 operations were pure point group operations)
 out of a pool of 48 trial point group operations.


The static configuration has the point symmetry C_1 .


Analysis of symmetry for dynamics (positions and initial velocities):
=====================================================================
 Subroutine PRICEL returns:
 Original cell was already a primitive cell.
 

 Routine SETGRP: Setting up the symmetry group for a 
 simple cubic supercell.


 Subroutine GETGRP returns: Found  1 space group operations
 (whereof  1 operations were pure point group operations)
 out of a pool of 48 trial point group operations.


The dynamic configuration has the point symmetry C_1 .


Analysis of magnetic symmetry:
=====================================================================
 Subroutine PRICEL returns:
 Original cell was already a primitive cell.
 

 Subroutine MAGSYM returns: Found  1 space group operations
 (whereof  1 operations were pure point group operations)
 out of a pool of  1 trial space group operations
 (whereof  1 operations were pure point group operations)
 and found also     1 'primitive' translations


The magnetic configuration has the point symmetry C_1 .
 
 
 KPOINTS: Gamma-point only                        
  k-points in reciprocal lattice
Space group operators:
 irot       det(A)        alpha          n_x          n_y          n_z        tau_x        tau_y        tau_z
    1     1.000000     0.000000     1.000000     0.000000     0.000000     0.000000     0.000000     0.000000


--------------------------------------------------------------------------------------------------------




 Dimension of arrays:
   k-points           NKPTS =      1   k-points in BZ     NKDIM =      1   number of bands    NBANDS=    192
   number of dos      NEDOS =    301   number of ions     NIONS =     27
   non local maximal  LDIM  =      6   non local SUM 2l+1 LMDIM =     18
   total plane-waves  NPLWV = 592704
   max r-space proj   IRMAX =      1   max aug-charges    IRDMAX=   3406
   dimension x,y,z NGX =    84 NGY =   84 NGZ =   84
   dimension x,y,z NGXF=   168 NGYF=  168 NGZF=  168
   support grid    NGXF=   168 NGYF=  168 NGZF=  168
   ions per type =              27
 NGX,Y,Z   is equivalent  to a cutoff of   6.69,  6.69,  6.69 a.u.
 NGXF,Y,Z  is equivalent  to a cutoff of  13.38, 13.38, 13.38 a.u.


 I would recommend the setting:
   dimension x,y,z NGX =    81 NGY =   81 NGZ =   81
 SYSTEM =  unknown system                          
 POSCAR =  Ti27, -175.70315211 <s> Ag </s>         

 Startparameter for this run:
   NWRITE =      2    write-flag & timer
   PREC   = normal    normal or accurate (medium, high low for compatibility)
   ISTART =      0    job   : 0-new  1-cont  2-samecut
   ICHARG =      2    charge: 1-file 2-atom 10-const
   ISPIN  =      2    spin polarized calculation?
   LNONCOLLINEAR =      F non collinear calculations
   LSORBIT =      F    spin-orbit coupling
   INIWAV =      1    electr: 0-lowe 1-rand  2-diag
   LASPH  =      F    aspherical Exc in radial PAW
   METAGGA=      F    non-selfconsistent MetaGGA calc.

 Electronic Relaxation 1
   ENCUT  =  249.8 eV  18.36 Ry    4.29 a.u.  26.90 26.90 26.90*2*pi/ulx,y,z
   ENINI  =  249.8     initial cutoff
   ENAUG  =  412.5 eV  augmentation charge cutoff
   NELM   =     60;   NELMIN=  2; NELMDL= -5     # of ELM steps 
   EDIFF  = 0.1E-03   stopping-criterion for ELM
   LREAL  =      F    real-space projection
   NLSPLINE    = F    spline interpolate recip. space projectors
   LCOMPAT=      F    compatible to vasp.4.4
   GGA_COMPAT  = T    GGA compatible to vasp.4.4-vasp.4.6
   LMAXPAW     = -100 max onsite density
   LMAXMIX     =    2 max onsite mixed and CHGCAR
   VOSKOWN=      0    Vosko Wilk Nusair interpolation
   ROPT   =    0.00000
 Ionic relaxation
   EDIFFG = 0.1E-02   stopping-criterion for IOM
   NSW    =   1000    number of steps for IOM
   NBLOCK =      1;   KBLOCK =   1000    inner block; outer block 
   IBRION =      2    ionic relax: 0-MD 1-quasi-New 2-CG
   NFREE  =      1    steps in history (QN), initial steepest desc. (CG)
   ISIF   =      2    stress and relaxation
   IWAVPR =     11    prediction:  0-non 1-charg 2-wave 3-comb
   ISYM   =      2    0-nonsym 1-usesym 2-fastsym
   LCORR  =      T    Harris-Foulkes like correction to forces

   POTIM  = 0.1000    time-step for ionic-motion
   TEIN   =    0.0    initial temperature
   TEBEG  =    0.0;   TEEND  =   0.0 temperature during run
   SMASS  =  -3.00    Nose mass-parameter (am)
   estimated Nose-frequenzy (Omega)   =  0.10E-29 period in steps =****** mass=  -0.995E-26a.u.
   SCALEE = 1.0000    scale energy and forces
   NPACO  =    256;   APACO  = 16.0  distance and # of slots for P.C.
   PSTRESS=    0.0 pullay stress

  Mass of Ions in am
   POMASS = 107.87
  Ionic Valenz
   ZVAL   =  11.00
  Atomic Wigner-Seitz radii
   RWIGS  =  -1.00
  virtual crystal weights 
   VCA    =   1.00
   NELECT =     297.0000    total number of electrons
   NUPDOWN=      -1.0000    fix difference up-down

 DOS related values:
   EMIN   =  10.00;   EMAX   =-10.00  energy-range for DOS
   EFERMI =   0.00
   ISMEAR =     0;   SIGMA  =   0.00  broadening in eV -4-tet -1-fermi 0-gaus

 Electronic relaxation 2 (details)
   IALGO  =     38    algorithm
   LDIAG  =      T    sub-space diagonalisation (order eigenvalues)
   LSUBROT=      F    optimize rotation matrix (better conditioning)
   TURBO    =      0    0=normal 1=particle mesh
   IRESTART =      0    0=no restart 2=restart with 2 vectors
   NREBOOT  =      0    no. of reboots
   NMIN     =      0    reboot dimension
   EREF     =   0.00    reference energy to select bands
   IMIX   =      4    mixing-type and parameters
     AMIX     =   0.40;   BMIX     =  1.00
     AMIX_MAG =   1.60;   BMIX_MAG =  1.00
     AMIN     =   0.10
     WC   =   100.;   INIMIX=   1;  MIXPRE=   1;  MAXMIX= -45

 Intra band minimization:
   WEIMIN = 0.0010     energy-eigenvalue tresh-hold
   EBREAK =  0.13E-06  absolut break condition
   DEPER  =   0.30     relativ break condition  

   TIME   =   0.40     timestep for ELM

  volume/ion in A,a.u.               =     336.60      2271.47
  Fermi-wavevector in a.u.,A,eV,Ry     =   0.523402  0.989086  3.727310  0.273950
  Thomas-Fermi vector in A             =   1.542665
 
 Write flags
   LWAVE  =      F    write WAVECAR
   LCHARG =      F    write CHGCAR
   LVTOT  =      F    write LOCPOT, total local potential
   LVHAR  =      F    write LOCPOT, Hartree potential only
   LELF   =      F    write electronic localiz. function (ELF)
   LORBIT =      0    0 simple, 1 ext, 2 COOP (PROOUT)


 Dipole corrections
   LMONO  =      F    monopole corrections only (constant potential shift)
   LDIPOL =      F    correct potential (dipole corrections)
   IDIPOL =      0    1-x, 2-y, 3-z, 4-all directions 
   EPSILON=  1.0000000 bulk dielectric constant

 Exchange correlation treatment:
   GGA     =    PE    GGA type
   LEXCH   =     8    internal setting for exchange type
   VOSKOWN=      0    Vosko Wilk Nusair interpolation
   LHFCALC =     F    Hartree Fock is set to
   LHFONE  =     F    Hartree Fock one center treatment
   AEXX    =    0.0000 exact exchange contribution

 Linear response parameters
   LEPSILON=     F    determine dielectric tensor
   LRPA    =     F    only Hartree local field effects (RPA)
   LNABLA  =     F    use nabla operator in PAW spheres
   LVEL    =     F    velocity operator in full k-point grid
   LINTERFAST=   F  fast interpolation
   KINTER  =     0    interpolate to denser k-point grid
   CSHIFT  =0.1000    complex shift for real part using Kramers Kronig
   OMEGAMAX=  -1.0    maximum frequency
   DEG_THRESHOLD= 0.2000000E-02 threshold for treating states as degnerate
   RTIME   =    0.100 relaxation time in fs

 Orbital magnetization related:
   ORBITALMAG=     F  switch on orbital magnetization
   LCHIMAG   =     F  perturbation theory with respect to B field
   DQ        =  0.001000  dq finite difference perturbation B field



--------------------------------------------------------------------------------------------------------


 conjugate gradient relaxation of ions
 charge density and potential will be updated during run
 spin polarized calculation
 Variant of blocked Davidson
 Davidson routine will perform the subspace rotation
 perform sub-space diagonalisation
    after iterative eigenvector-optimisation
 modified Broyden-mixing scheme, WC =      100.0
 initial mixing is a Kerker type mixing with AMIX =  0.4000 and BMIX =      1.0000
 Hartree-type preconditioning will be used
 using additional bands           43
 reciprocal scheme for non local part
 use partial core corrections
 calculate Harris-corrections to forces 
   (improved forces if not selfconsistent)
 use gradient corrections 
 use of overlap-Matrix (Vanderbilt PP)
 Gauss-broadening in eV      SIGMA  =   0.00


--------------------------------------------------------------------------------------------------------


  energy-cutoff  :      249.84
  volume of cell :     9088.14
      direct lattice vectors                 reciprocal lattice vectors
    20.868522360  0.000000000  0.000000000     0.047919061  0.000000000  0.000000000
     0.000000000 20.868522360  0.000000000     0.000000000  0.047919061  0.000000000
     0.000000000  0.000000000 20.868522360     0.000000000  0.000000000  0.047919061

  length of vectors
    20.868522360 20.868522360 20.868522360     0.047919061  0.047919061  0.047919061


 
 k-points in units of 2pi/SCALE and weight: Gamma-point only                        
   0.00000000  0.00000000  0.00000000       1.000
 
 k-points in reciprocal lattice and weights: Gamma-point only                        
   0.00000000  0.00000000  0.00000000       1.000
 
 position of ions in fractional coordinates (direct lattice) 
   0.32284790  0.49687291  0.40780263
   0.41008353  0.45849447  0.34568990
   0.38016647  0.38802057  0.45330324
   0.31387855  0.47871029  0.52540664
   0.33891518  0.59176045  0.48132697
   0.41421364  0.58764325  0.37461324
   0.50586689  0.39557067  0.39963386
   0.44539836  0.50140359  0.47254181
   0.40198202  0.42591310  0.58601211
   0.51196512  0.51215963  0.34442005
   0.38793221  0.56660597  0.58837741
   0.48087604  0.35971767  0.51836544
   0.45050431  0.64100157  0.49770236
   0.54832248  0.60283531  0.40874658
   0.60969671  0.47955763  0.40782030
   0.59759680  0.38063364  0.49579450
   0.46802434  0.50311334  0.65263234
   0.53297485  0.40354145  0.61949846
   0.56938643  0.65726568  0.51003649
   0.57065589  0.51566814  0.53977630
   0.50807618  0.61739274  0.61642677
   0.69052272  0.45711427  0.49812356
   0.66826709  0.58416269  0.47807791
   0.65083463  0.41935308  0.60921897
   0.58892819  0.52065608  0.67036257
   0.63340678  0.62313578  0.59983109
   0.69734579  0.52863714  0.59605369
 
 position of ions in cartesian coordinates  (Angst):
   6.73735871 10.36900354  8.51023828
   8.55783735  9.56810216  7.21403738
   7.93351252  8.09741584  9.45976880
   6.55018153  9.98997631 10.96446021
   7.07265907 12.34916617 10.04458256
   8.64402664 12.26324623  7.81762468
  10.55669447  8.25497529  8.33976818
   9.29480571 10.46355213  9.86124928
   8.38877087  8.88817710 12.22920674
  10.68395549 10.68801469  7.18753749
   8.09557197 11.82422940 12.27856705
  10.03517244  7.50677617 10.81752071
   9.40135934 13.37675562 10.38631273
  11.44268001 12.58028208  8.52993715
  12.72346933 10.00765921  8.51060702
  12.47096226  7.94326153 10.34649858
   9.76697646 10.49923200 13.61947251
  11.12239766  8.42131382 12.92801748
  11.88225347 13.71616357 10.64370798
  11.90874522 10.76123205 11.26433369
  10.60279913 12.88407429 12.86391591
  14.41018879  9.53929947 10.39510273
  13.94574669 12.19061214  9.97677961
  13.58195693  8.75127913 12.71349962
  12.29006114 10.86532311 13.98947636
  13.21826353 13.00392292 12.51758855
  14.55257615 11.03187603 12.43875974
 


--------------------------------------------------------------------------------------------------------


 use parallel FFT for wavefunctions z direction half grid
 k-point  1 :   0.0000 0.0000 0.0000  plane waves:   40657

 maximum and minimum number of plane-waves per node :      5085     5079

 maximum number of plane-waves:     40657
 maximum index in each direction: 
   IXMAX=   26   IYMAX=   26   IZMAX=   26
   IXMIN=  -26   IYMIN=  -26   IZMIN=    0

 WARNING: aliasing errors must be expected set NGX to 106 to avoid them
 WARNING: aliasing errors must be expected set NGY to 106 to avoid them
 WARNING: aliasing errors must be expected set NGZ to 106 to avoid them
 aliasing errors are usually negligible using standard VASP settings
 and one can safely disregard these warnings

 parallel 3D FFT for wavefunctions:
    minimum data exchange during FFTs selected (reduces bandwidth)
 parallel 3D FFT for charge:
    minimum data exchange during FFTs selected (reduces bandwidth)


 total amount of memory used by VASP on root node    66639. kBytes
========================================================================

   base      :      30000. kBytes
   nonl-proj :       2928. kBytes
   fftplans  :       7241. kBytes
   grid      :      18544. kBytes
   one-center:         62. kBytes
   wavefun   :       7864. kBytes
 
     INWAV:  cpu time    0.00: real time    0.00
 Broyden mixing: mesh for mixing (old mesh)
   NGX = 53   NGY = 53   NGZ = 53
  (NGX  =168   NGY  =168   NGZ  =168)
  gives a total of 148877 points

 initial charge density was supplied:
 charge density of overlapping atoms calculated
 number of electron     297.0000000 magnetization      27.0000000
 keeping initial charge density in first step


--------------------------------------------------------------------------------------------------------


 Maximum index for augmentation-charges          258 (set IRDMAX)


--------------------------------------------------------------------------------------------------------


 First call to EWALD:  gamma=   0.085
 Maximum number of real-space cells 3x 3x 3
 Maximum number of reciprocal cells 3x 3x 3

 FEWALD executed in parallel
    FEWALD:  cpu time    0.00: real time    0.00


----------------------------------------- Iteration    1(   1)  ---------------------------------------


    POTLOK:  cpu time    0.29: real time    0.29
    SETDIJ:  cpu time    0.01: real time    0.01
     EDDAV:  cpu time    3.09: real time    3.09
       DOS:  cpu time    0.00: real time    0.00
    --------------------------------------------
      LOOP:  cpu time    3.39: real time    3.41

 eigenvalue-minimisations  :   784
 total energy-change (2. order) : 0.2641123E+04  (-0.5636130E+04)
 number of electron     297.0000000 magnetization      27.0000000
 augmentation part      297.0000000 magnetization      27.0000000

 Free energy of the ion-electron system (eV)
  ---------------------------------------------------
  alpha Z        PSCENC =        68.22862391
  Ewald energy   TEWEN  =     61062.27004550
  -Hartree energ DENC   =    -87847.38460078
  -exchange      EXHF   =         0.00000000
  -V(xc)+E(xc)   XCENC  =      -288.14557388
  PAW double counting   =     27091.04880788   -25846.14443973
  entropy T*S    EENTRO =        -0.00000000
  eigenvalues    EBANDS =       396.88731474
  atomic energy  EATOM  =     28004.36301233
  ---------------------------------------------------
  free energy    TOTEN  =      2641.12318997 eV

  energy without entropy =     2641.12318997  energy(sigma->0) =     2641.12318997


--------------------------------------------------------------------------------------------------------




----------------------------------------- Iteration    1(   2)  ---------------------------------------


     EDDAV:  cpu time    4.74: real time    4.75
       DOS:  cpu time    0.00: real time    0.00
    --------------------------------------------
      LOOP:  cpu time    4.74: real time    4.76

 eigenvalue-minimisations  :  1320
 total energy-change (2. order) :-0.2098802E+04  (-0.1894026E+04)
 number of electron     297.0000000 magnetization      27.0000000
 augmentation part      297.0000000 magnetization      27.0000000

 Free energy of the ion-electron system (eV)
  ---------------------------------------------------
  alpha Z        PSCENC =        68.22862391
  Ewald energy   TEWEN  =     61062.27004550
  -Hartree energ DENC   =    -87847.38460078
  -exchange      EXHF   =         0.00000000
  -V(xc)+E(xc)   XCENC  =      -288.14557388
  PAW double counting   =     27091.04880788   -25846.14443973
  entropy T*S    EENTRO =         0.00000000
  eigenvalues    EBANDS =     -1701.91495790
  atomic energy  EATOM  =     28004.36301233
  ---------------------------------------------------
  free energy    TOTEN  =       542.32091734 eV

  energy without entropy =      542.32091734  energy(sigma->0) =      542.32091734


--------------------------------------------------------------------------------------------------------




----------------------------------------- Iteration    1(   3)  ---------------------------------------


     EDDAV:  cpu time    3.68: real time    3.68
       DOS:  cpu time    0.00: real time    0.00
    --------------------------------------------
      LOOP:  cpu time    3.68: real time    3.69

 eigenvalue-minimisations  :   968
 total energy-change (2. order) :-0.5605762E+03  (-0.5150073E+03)
 number of electron     297.0000000 magnetization      27.0000000
 augmentation part      297.0000000 magnetization      27.0000000

 Free energy of the ion-electron system (eV)
  ---------------------------------------------------
  alpha Z        PSCENC =        68.22862391
  Ewald energy   TEWEN  =     61062.27004550
  -Hartree energ DENC   =    -87847.38460078
  -exchange      EXHF   =         0.00000000
  -V(xc)+E(xc)   XCENC  =      -288.14557388
  PAW double counting   =     27091.04880788   -25846.14443973
  entropy T*S    EENTRO =        -0.00000000
  eigenvalues    EBANDS =     -2262.49116455
  atomic energy  EATOM  =     28004.36301233
  ---------------------------------------------------
  free energy    TOTEN  =       -18.25528932 eV

  energy without entropy =      -18.25528932  energy(sigma->0) =      -18.25528932


--------------------------------------------------------------------------------------------------------




----------------------------------------- Iteration    1(   4)  ---------------------------------------


     EDDAV:  cpu time    3.36: real time    3.36
       DOS:  cpu time    0.00: real time    0.00
    --------------------------------------------
      LOOP:  cpu time    3.36: real time    3.37

 eigenvalue-minimisations  :   864
 total energy-change (2. order) :-0.3177049E+02  (-0.3128888E+02)
 number of electron     297.0000000 magnetization      27.0000000
 augmentation part      297.0000000 magnetization      27.0000000

 Free energy of the ion-electron system (eV)
  ---------------------------------------------------
  alpha Z        PSCENC =        68.22862391
  Ewald energy   TEWEN  =     61062.27004550
  -Hartree energ DENC   =    -87847.38460078
  -exchange      EXHF   =         0.00000000
  -V(xc)+E(xc)   XCENC  =      -288.14557388
  PAW double counting   =     27091.04880788   -25846.14443973
  entropy T*S    EENTRO =         0.00000000
  eigenvalues    EBANDS =     -2294.26165768
  atomic energy  EATOM  =     28004.36301233
  ---------------------------------------------------
  free energy    TOTEN  =       -50.02578245 eV

  energy without entropy =      -50.02578245  energy(sigma->0) =      -50.02578245


--------------------------------------------------------------------------------------------------------




----------------------------------------- Iteration    1(   5)  ---------------------------------------


     EDDAV:  cpu time    3.41: real time    3.41
       DOS:  cpu time    0.00: real time    0.00
    CHARGE:  cpu time    0.13: real time    0.13
    MIXING:  cpu time    0.01: real time    0.01
    --------------------------------------------
      LOOP:  cpu time    3.55: real time    3.55

 eigenvalue-minimisations  :   880
 total energy-change (2. order) :-0.4575172E+00  (-0.4568067E+00)
 number of electron     296.9999599 magnetization      23.8083045
 augmentation part      138.7160664 magnetization      21.5365844

 Broyden mixing:
  rms(total) = 0.36647E+01    rms(broyden)= 0.36643E+01
  rms(prec ) = 0.37100E+01
  weight for this iteration     100.00

 Free energy of the ion-electron system (eV)
  ---------------------------------------------------
  alpha Z        PSCENC =        68.22862391
  Ewald energy   TEWEN  =     61062.27004550
  -Hartree energ DENC   =    -87847.38460078
  -exchange      EXHF   =         0.00000000
  -V(xc)+E(xc)   XCENC  =      -288.14557388
  PAW double counting   =     27091.04880788   -25846.14443973
  entropy T*S    EENTRO =         0.00000000
  eigenvalues    EBANDS =     -2294.71917487
  atomic energy  EATOM  =     28004.36301233
  ---------------------------------------------------
  free energy    TOTEN  =       -50.48329964 eV

  energy without entropy =      -50.48329964  energy(sigma->0) =      -50.48329964


--------------------------------------------------------------------------------------------------------




----------------------------------------- Iteration    1(   6)  ---------------------------------------


    POTLOK:  cpu time    0.29: real time    0.29
    SETDIJ:  cpu time    0.01: real time    0.01
     EDDAV:  cpu time    3.10: real time    3.11
       DOS:  cpu time    0.00: real time    0.00
    CHARGE:  cpu time    0.12: real time    0.12
    MIXING:  cpu time    0.01: real time    0.01
    --------------------------------------------
      LOOP:  cpu time    3.53: real time    3.54

 eigenvalue-minimisations  :   776
 total energy-change (2. order) : 0.3217303E+02  (-0.9205290E+01)
 number of electron     296.9999589 magnetization      21.3825165
 augmentation part      141.9982916 magnetization      12.4431202

 Broyden mixing:
  rms(total) = 0.20618E+01    rms(broyden)= 0.20617E+01
  rms(prec ) = 0.20791E+01
  weight for this iteration     100.00

 eigenvalues of (default mixing * dielectric matrix)
  average eigenvalue GAMMA=   0.9104
  0.9104

 Free energy of the ion-electron system (eV)
  ---------------------------------------------------
  alpha Z        PSCENC =        68.22862391
  Ewald energy   TEWEN  =     61062.27004550
  -Hartree energ DENC   =    -87710.16752771
  -exchange      EXHF   =         0.00000000
  -V(xc)+E(xc)   XCENC  =      -274.19870489
  PAW double counting   =     28577.23164284   -27360.82453512
  entropy T*S    EENTRO =         0.00000000
  eigenvalues    EBANDS =     -2385.21282311
  atomic energy  EATOM  =     28004.36301233
  ---------------------------------------------------
  free energy    TOTEN  =       -18.31026625 eV

  energy without entropy =      -18.31026625  energy(sigma->0) =      -18.31026625


--------------------------------------------------------------------------------------------------------




----------------------------------------- Iteration    1(   7)  ---------------------------------------


    POTLOK:  cpu time    0.28: real time    0.28
    SETDIJ:  cpu time    0.01: real time    0.01
     EDDAV:  cpu time    3.20: real time    3.20
       DOS:  cpu time    0.00: real time    0.00
    CHARGE:  cpu time    0.12: real time    0.12
    MIXING:  cpu time    0.01: real time    0.01
    --------------------------------------------
      LOOP:  cpu time    3.63: real time    3.63

 eigenvalue-minimisations  :   808
 total energy-change (2. order) : 0.6308431E+01  (-0.8661698E+00)
 number of electron     296.9999589 magnetization      17.9698174
 augmentation part      142.0336046 magnetization       9.3167634

 Broyden mixing:
  rms(total) = 0.11608E+01    rms(broyden)= 0.11608E+01
  rms(prec ) = 0.11680E+01
  weight for this iteration     100.00

 eigenvalues of (default mixing * dielectric matrix)
  average eigenvalue GAMMA=   1.1686
  0.7615  1.5757

 Free energy of the ion-electron system (eV)
  ---------------------------------------------------
  alpha Z        PSCENC =        68.22862391
  Ewald energy   TEWEN  =     61062.27004550
  -Hartree energ DENC   =    -87762.71197283
  -exchange      EXHF   =         0.00000000
  -V(xc)+E(xc)   XCENC  =      -269.10005343
  PAW double counting   =     29547.61455189   -28351.04895416
  entropy T*S    EENTRO =         0.00000000
  eigenvalues    EBANDS =     -2311.61708842
  atomic energy  EATOM  =     28004.36301233
  ---------------------------------------------------
  free energy    TOTEN  =       -12.00183521 eV

  energy without entropy =      -12.00183521  energy(sigma->0) =      -12.00183521


--------------------------------------------------------------------------------------------------------




----------------------------------------- Iteration    1(   8)  ---------------------------------------


    POTLOK:  cpu time    0.28: real time    0.28
    SETDIJ:  cpu time    0.01: real time    0.01
     EDDAV:  cpu time    3.25: real time    3.25
       DOS:  cpu time    0.00: real time    0.00
    CHARGE:  cpu time    0.12: real time    0.12
    MIXING:  cpu time    0.01: real time    0.01
    --------------------------------------------
      LOOP:  cpu time    3.68: real time    3.83

 eigenvalue-minimisations  :   824
 total energy-change (2. order) :-0.1722066E+01  (-0.1840237E+00)
 number of electron     296.9999588 magnetization      16.2766297
 augmentation part      141.9127744 magnetization       7.8220022

 Broyden mixing:
  rms(total) = 0.47653E+00    rms(broyden)= 0.47652E+00
  rms(prec ) = 0.48040E+00
  weight for this iteration     100.00

 eigenvalues of (default mixing * dielectric matrix)
  average eigenvalue GAMMA=   1.2850
  2.3173  0.9147  0.6228

 Free energy of the ion-electron system (eV)
  ---------------------------------------------------
  alpha Z        PSCENC =        68.22862391
  Ewald energy   TEWEN  =     61062.27004550
  -Hartree energ DENC   =    -87823.77745469
  -exchange      EXHF   =         0.00000000
  -V(xc)+E(xc)   XCENC  =      -270.46977400
  PAW double counting   =     30558.47213368   -29380.98825573
  entropy T*S    EENTRO =        -0.00000000
  eigenvalues    EBANDS =     -2231.82223252
  atomic energy  EATOM  =     28004.36301233
  ---------------------------------------------------
  free energy    TOTEN  =       -13.72390153 eV

  energy without entropy =      -13.72390153  energy(sigma->0) =      -13.72390153


--------------------------------------------------------------------------------------------------------




----------------------------------------- Iteration    1(   9)  ---------------------------------------


    POTLOK:  cpu time    0.28: real time    0.28
    SETDIJ:  cpu time    0.01: real time    0.01
     EDDAV:  cpu time    3.26: real time    3.26
       DOS:  cpu time    0.00: real time    0.00
    CHARGE:  cpu time    0.13: real time    0.13
    MIXING:  cpu time    0.01: real time    0.01
    --------------------------------------------
      LOOP:  cpu time    3.68: real time    5.87

 eigenvalue-minimisations  :   824
 total energy-change (2. order) :-0.4146303E+01  (-0.6630020E-01)
 number of electron     296.9999589 magnetization      15.7761855
 augmentation part      141.8804350 magnetization       9.3891313

 Broyden mixing:
  rms(total) = 0.35939E+00    rms(broyden)= 0.35930E+00
  rms(prec ) = 0.37193E+00
  weight for this iteration     100.00

 eigenvalues of (default mixing * dielectric matrix)
  average eigenvalue GAMMA=   1.0487
  2.3268  0.9184  0.6133  0.3362

 Free energy of the ion-electron system (eV)
  ---------------------------------------------------
  alpha Z        PSCENC =        68.22862391
  Ewald energy   TEWEN  =     61062.27004550
  -Hartree energ DENC   =    -87835.05160175
  -exchange      EXHF   =         0.00000000
  -V(xc)+E(xc)   XCENC  =      -273.54292045
  PAW double counting   =     30766.05732044   -29592.30012357
  entropy T*S    EENTRO =         0.00000000
  eigenvalues    EBANDS =     -2217.89456072
  atomic energy  EATOM  =     28004.36301233
  ---------------------------------------------------
  free energy    TOTEN  =       -17.87020430 eV

  energy without entropy =      -17.87020430  energy(sigma->0) =      -17.87020430


--------------------------------------------------------------------------------------------------------




----------------------------------------- Iteration    1(  10)  ---------------------------------------


    POTLOK:  cpu time    0.29: real time    0.29
    SETDIJ:  cpu time    0.01: real time    0.01
     EDDAV:  cpu time    3.33: real time    3.33
       DOS:  cpu time    0.00: real time    0.00
    CHARGE:  cpu time    0.13: real time    0.13
    MIXING:  cpu time    0.01: real time    0.01
    --------------------------------------------
      LOOP:  cpu time    3.76: real time    3.79

 eigenvalue-minimisations  :   848
 total energy-change (2. order) :-0.7171516E+00  (-0.9432987E-02)
 number of electron     296.9999589 magnetization      13.6444365
 augmentation part      141.8681858 magnetization       7.3367582

 Broyden mixing:
  rms(total) = 0.32820E+00    rms(broyden)= 0.32820E+00
  rms(prec ) = 0.33719E+00
  weight for this iteration     100.00

 eigenvalues of (default mixing * dielectric matrix)
  average eigenvalue GAMMA=   1.0781
  2.3063  0.9785  0.6417  0.7321  0.7321

 Free energy of the ion-electron system (eV)
  ---------------------------------------------------
  alpha Z        PSCENC =        68.22862391
  Ewald energy   TEWEN  =     61062.27004550
  -Hartree energ DENC   =    -87837.22732712
  -exchange      EXHF   =         0.00000000
  -V(xc)+E(xc)   XCENC  =      -273.98862848
  PAW double counting   =     30777.14440552   -29603.59141313
  entropy T*S    EENTRO =         0.00000000
  eigenvalues    EBANDS =     -2215.78607441
  atomic energy  EATOM  =     28004.36301233
  ---------------------------------------------------
  free energy    TOTEN  =       -18.58735589 eV

  energy without entropy =      -18.58735589  energy(sigma->0) =      -18.58735589


--------------------------------------------------------------------------------------------------------




----------------------------------------- Iteration    1(  11)  ---------------------------------------


    POTLOK:  cpu time    0.29: real time    0.29
    SETDIJ:  cpu time    0.01: real time    0.01
     EDDAV:  cpu time    3.16: real time    3.16
       DOS:  cpu time    0.00: real time    0.00
    CHARGE:  cpu time    0.12: real time    0.13
    MIXING:  cpu time    0.01: real time    0.01
    --------------------------------------------
      LOOP:  cpu time    3.59: real time    3.65

 eigenvalue-minimisations  :   792
 total energy-change (2. order) :-0.7484974E+01  (-0.2442338E+00)
 number of electron     296.9999588 magnetization      12.2771749
 augmentation part      141.8368628 magnetization       8.2078932

 Broyden mixing:
  rms(total) = 0.33982E+00    rms(broyden)= 0.33972E+00
  rms(prec ) = 0.35477E+00
  weight for this iteration     100.00

 eigenvalues of (default mixing * dielectric matrix)
  average eigenvalue GAMMA=   1.0266
  2.3160  0.9344  0.9344  0.9839  0.6359  0.3552

 Free energy of the ion-electron system (eV)
  ---------------------------------------------------
  alpha Z        PSCENC =        68.22862391
  Ewald energy   TEWEN  =     61062.27004550
  -Hartree energ DENC   =    -87843.43443494
  -exchange      EXHF   =         0.00000000
  -V(xc)+E(xc)   XCENC  =      -279.43879530
  PAW double counting   =     30769.41641999   -29596.02290488
  entropy T*S    EENTRO =         0.00000000
  eigenvalues    EBANDS =     -2211.45429686
  atomic energy  EATOM  =     28004.36301233
  ---------------------------------------------------
  free energy    TOTEN  =       -26.07233024 eV

  energy without entropy =      -26.07233024  energy(sigma->0) =      -26.07233024


--------------------------------------------------------------------------------------------------------




----------------------------------------- Iteration    1(  12)  ---------------------------------------


    POTLOK:  cpu time    0.28: real time    0.28
    SETDIJ:  cpu time    0.01: real time    0.01
     EDDAV:  cpu time    3.21: real time    3.21
       DOS:  cpu time    0.00: real time    0.00
    CHARGE:  cpu time    0.13: real time    0.13
    MIXING:  cpu time    0.01: real time    0.01
    --------------------------------------------
      LOOP:  cpu time    3.64: real time    3.65

 eigenvalue-minimisations  :   808
 total energy-change (2. order) :-0.2690549E+01  (-0.6564236E-01)
 number of electron     296.9999588 magnetization       8.8525098
 augmentation part      141.8049014 magnetization       4.9695519

 Broyden mixing:
  rms(total) = 0.26546E+00    rms(broyden)= 0.26545E+00
  rms(prec ) = 0.27375E+00
  weight for this iteration     100.00

 eigenvalues of (default mixing * dielectric matrix)
  average eigenvalue GAMMA=   1.1692
  2.0647  2.0647  1.1709  1.1709  0.6656  0.5239  0.5239

 Free energy of the ion-electron system (eV)
  ---------------------------------------------------
  alpha Z        PSCENC =        68.22862391
  Ewald energy   TEWEN  =     61062.27004550
  -Hartree energ DENC   =    -87847.55502008
  -exchange      EXHF   =         0.00000000
  -V(xc)+E(xc)   XCENC  =      -281.30365609
  PAW double counting   =     30776.21110570   -29603.08816146
  entropy T*S    EENTRO =         0.00000000
  eigenvalues    EBANDS =     -2207.88882946
  atomic energy  EATOM  =     28004.36301233
  ---------------------------------------------------
  free energy    TOTEN  =       -28.76287966 eV

  energy without entropy =      -28.76287966  energy(sigma->0) =      -28.76287966


--------------------------------------------------------------------------------------------------------




----------------------------------------- Iteration    1(  13)  ---------------------------------------


    POTLOK:  cpu time    0.28: real time    0.28
    SETDIJ:  cpu time    0.01: real time    0.01
     EDDAV:  cpu time    3.19: real time    3.19
       DOS:  cpu time    0.00: real time    0.00
    CHARGE:  cpu time    0.13: real time    0.13
    MIXING:  cpu time    0.01: real time    0.01
    --------------------------------------------
      LOOP:  cpu time    3.62: real time    3.63

 eigenvalue-minimisations  :   800
 total energy-change (2. order) :-0.8237754E+01  (-0.4088996E+00)
 number of electron     296.9999589 magnetization       6.4378882
 augmentation part      141.7859941 magnetization       2.9648995

 Broyden mixing:
  rms(total) = 0.14800E+00    rms(broyden)= 0.14798E+00
  rms(prec ) = 0.15047E+00
  weight for this iteration     100.00

 eigenvalues of (default mixing * dielectric matrix)
  average eigenvalue GAMMA=   1.3532
  3.6930  2.3065  1.1438  1.1438  0.6950  0.6950  0.6463  0.5025

 Free energy of the ion-electron system (eV)
  ---------------------------------------------------
  alpha Z        PSCENC =        68.22862391
  Ewald energy   TEWEN  =     61062.27004550
  -Hartree energ DENC   =    -87848.20597326
  -exchange      EXHF   =         0.00000000
  -V(xc)+E(xc)   XCENC  =      -287.49201217
  PAW double counting   =     30738.51644635   -29565.35805788
  entropy T*S    EENTRO =         0.00000000
  eigenvalues    EBANDS =     -2209.32271832
  atomic energy  EATOM  =     28004.36301233
  ---------------------------------------------------
  free energy    TOTEN  =       -37.00063354 eV

  energy without entropy =      -37.00063354  energy(sigma->0) =      -37.00063354


--------------------------------------------------------------------------------------------------------




----------------------------------------- Iteration    1(  14)  ---------------------------------------


    POTLOK:  cpu time    0.29: real time    0.29
    SETDIJ:  cpu time    0.00: real time    0.01
     EDDAV:  cpu time    3.14: real time    3.14
       DOS:  cpu time    0.00: real time    0.00
    CHARGE:  cpu time    0.13: real time    0.13
    MIXING:  cpu time    0.01: real time    0.01
    --------------------------------------------
      LOOP:  cpu time    3.57: real time    3.66

 eigenvalue-minimisations  :   784
 total energy-change (2. order) :-0.5759072E+01  (-0.2275799E+00)
 number of electron     296.9999589 magnetization       5.4924541
 augmentation part      141.7793064 magnetization       2.2773679

 Broyden mixing:
  rms(total) = 0.10669E+00    rms(broyden)= 0.10668E+00
  rms(prec ) = 0.11282E+00
  weight for this iteration     100.00

 eigenvalues of (default mixing * dielectric matrix)
  average eigenvalue GAMMA=   1.4194
  4.6490  2.2422  1.3143  1.3143  0.8371  0.6542  0.6542  0.6387  0.4708

 Free energy of the ion-electron system (eV)
  ---------------------------------------------------
  alpha Z        PSCENC =        68.22862391
  Ewald energy   TEWEN  =     61062.27004550
  -Hartree energ DENC   =    -87840.33654166
  -exchange      EXHF   =         0.00000000
  -V(xc)+E(xc)   XCENC  =      -292.21155691
  PAW double counting   =     30716.00823637   -29542.87558345
  entropy T*S    EENTRO =        -0.00000000
  eigenvalues    EBANDS =     -2218.20594148
  atomic energy  EATOM  =     28004.36301233
  ---------------------------------------------------
  free energy    TOTEN  =       -42.75970539 eV

  energy without entropy =      -42.75970539  energy(sigma->0) =      -42.75970539


--------------------------------------------------------------------------------------------------------




----------------------------------------- Iteration    1(  15)  ---------------------------------------


    POTLOK:  cpu time    0.28: real time    0.28
    SETDIJ:  cpu time    0.01: real time    0.01
     EDDAV:  cpu time    3.26: real time    3.27
       DOS:  cpu time    0.00: real time    0.00
    CHARGE:  cpu time    0.13: real time    0.13
    MIXING:  cpu time    0.01: real time    0.01
    --------------------------------------------
      LOOP:  cpu time    3.70: real time    3.70

 eigenvalue-minimisations  :   824
 total energy-change (2. order) :-0.2337926E+01  (-0.4389844E-01)
 number of electron     296.9999589 magnetization       5.3540161
 augmentation part      141.7946996 magnetization       4.1230710

 Broyden mixing:
  rms(total) = 0.16872E+00    rms(broyden)= 0.16850E+00
  rms(prec ) = 0.18299E+00
  weight for this iteration     100.00

 eigenvalues of (default mixing * dielectric matrix)
  average eigenvalue GAMMA=   1.2911
  4.7131  2.2363  1.3171  1.3171  0.8430  0.6504  0.6504  0.6446  0.4718  0.0669

 Free energy of the ion-electron system (eV)
  ---------------------------------------------------
  alpha Z        PSCENC =        68.22862391
  Ewald energy   TEWEN  =     61062.27004550
  -Hartree energ DENC   =    -87829.34857467
  -exchange      EXHF   =         0.00000000
  -V(xc)+E(xc)   XCENC  =      -294.28096272
  PAW double counting   =     30689.58923684   -29516.25984333
  entropy T*S    EENTRO =         0.00000000
  eigenvalues    EBANDS =     -2229.65916905
  atomic energy  EATOM  =     28004.36301233
  ---------------------------------------------------
  free energy    TOTEN  =       -45.09763119 eV

  energy without entropy =      -45.09763119  energy(sigma->0) =      -45.09763119


--------------------------------------------------------------------------------------------------------




----------------------------------------- Iteration    1(  16)  ---------------------------------------


    POTLOK:  cpu time    0.29: real time    0.29
    SETDIJ:  cpu time    0.01: real time    0.01
     EDDAV:  cpu time    3.38: real time    3.39
       DOS:  cpu time    0.00: real time    0.00
    CHARGE:  cpu time    0.12: real time    0.13
    MIXING:  cpu time    0.01: real time    0.01
    --------------------------------------------
      LOOP:  cpu time    3.82: real time    3.83

 eigenvalue-minimisations  :   864
 total energy-change (2. order) :-0.2417431E-01  (-0.1274502E-02)
 number of electron     296.9999589 magnetization       4.8277931
 augmentation part      141.7927467 magnetization       3.6115638

 Broyden mixing:
  rms(total) = 0.16039E+00    rms(broyden)= 0.16038E+00
  rms(prec ) = 0.17462E+00
  weight for this iteration     100.00

 eigenvalues of (default mixing * dielectric matrix)
  average eigenvalue GAMMA=   1.2364
  4.8266  2.2590  1.3051  1.3051  0.8448  0.6416  0.6416  0.6394  0.4630  0.3374
  0.3374

 Free energy of the ion-electron system (eV)
  ---------------------------------------------------
  alpha Z        PSCENC =        68.22862391
  Ewald energy   TEWEN  =     61062.27004550
  -Hartree energ DENC   =    -87828.44430831
  -exchange      EXHF   =         0.00000000
  -V(xc)+E(xc)   XCENC  =      -294.31052978
  PAW double counting   =     30687.22257738   -29513.87847577
  entropy T*S    EENTRO =         0.00000000
  eigenvalues    EBANDS =     -2230.57275076
  atomic energy  EATOM  =     28004.36301233
  ---------------------------------------------------
  free energy    TOTEN  =       -45.12180550 eV

  energy without entropy =      -45.12180550  energy(sigma->0) =      -45.12180550


--------------------------------------------------------------------------------------------------------




----------------------------------------- Iteration    1(  17)  ---------------------------------------


    POTLOK:  cpu time    0.29: real time    0.29
    SETDIJ:  cpu time    0.01: real time    0.01
     EDDAV:  cpu time    3.22: real time    3.22
       DOS:  cpu time    0.00: real time    0.00
    CHARGE:  cpu time    0.12: real time    0.13
    MIXING:  cpu time    0.01: real time    0.01
    --------------------------------------------
      LOOP:  cpu time    3.65: real time    3.68

 eigenvalue-minimisations  :   808
 total energy-change (2. order) :-0.4884553E+00  (-0.3350600E-02)
 number of electron     296.9999589 magnetization       3.0486580
 augmentation part      141.8118025 magnetization       1.8684492

 Broyden mixing:
  rms(total) = 0.14031E+00    rms(broyden)= 0.14030E+00
  rms(prec ) = 0.15294E+00
  weight for this iteration     100.00

 eigenvalues of (default mixing * dielectric matrix)
  average eigenvalue GAMMA=   1.3602
  5.4920  2.1053  1.5431  1.5431  0.9746  0.9746  0.7982  0.7018  0.7018  0.5878
  0.5194  0.3803

 Free energy of the ion-electron system (eV)
  ---------------------------------------------------
  alpha Z        PSCENC =        68.22862391
  Ewald energy   TEWEN  =     61062.27004550
  -Hartree energ DENC   =    -87823.22712326
  -exchange      EXHF   =         0.00000000
  -V(xc)+E(xc)   XCENC  =      -294.80808982
  PAW double counting   =     30669.38438802   -29495.83422927
  entropy T*S    EENTRO =        -0.00000000
  eigenvalues    EBANDS =     -2235.98688826
  atomic energy  EATOM  =     28004.36301233
  ---------------------------------------------------
  free energy    TOTEN  =       -45.61026085 eV

  energy without entropy =      -45.61026085  energy(sigma->0) =      -45.61026085


--------------------------------------------------------------------------------------------------------




----------------------------------------- Iteration    1(  18)  ---------------------------------------


    POTLOK:  cpu time    0.29: real time    0.28
    SETDIJ:  cpu time    0.00: real time    0.01
     EDDAV:  cpu time    3.14: real time    3.14
       DOS:  cpu time    0.00: real time    0.00
    CHARGE:  cpu time    0.12: real time    0.12
    MIXING:  cpu time    0.01: real time    0.01
    --------------------------------------------
      LOOP:  cpu time    3.57: real time    3.58

 eigenvalue-minimisations  :   784
 total energy-change (2. order) :-0.1760413E+01  (-0.4114793E-01)
 number of electron     296.9999589 magnetization       1.6651599
 augmentation part      141.8287832 magnetization       0.5737220

 Broyden mixing:
  rms(total) = 0.60101E-01    rms(broyden)= 0.60088E-01
  rms(prec ) = 0.65890E-01
  weight for this iteration     100.00

 eigenvalues of (default mixing * dielectric matrix)
  average eigenvalue GAMMA=   1.5535
  7.3069  2.2540  2.2540  1.8169  0.9828  0.9828  0.8156  0.8156  0.8153  0.6267
  0.5597  0.5597  0.4049

 Free energy of the ion-electron system (eV)
  ---------------------------------------------------
  alpha Z        PSCENC =        68.22862391
  Ewald energy   TEWEN  =     61062.27004550
  -Hartree energ DENC   =    -87803.31120937
  -exchange      EXHF   =         0.00000000
  -V(xc)+E(xc)   XCENC  =      -296.59736775
  PAW double counting   =     30631.61891249   -29457.66395398
  entropy T*S    EENTRO =         0.00000000
  eigenvalues    EBANDS =     -2256.27873700
  atomic energy  EATOM  =     28004.36301233
  ---------------------------------------------------
  free energy    TOTEN  =       -47.37067387 eV

  energy without entropy =      -47.37067387  energy(sigma->0) =      -47.37067387


--------------------------------------------------------------------------------------------------------




----------------------------------------- Iteration    1(  19)  ---------------------------------------


    POTLOK:  cpu time    0.29: real time    0.29
    SETDIJ:  cpu time    0.01: real time    0.01
     EDDAV:  cpu time    3.14: real time    3.15
       DOS:  cpu time    0.00: real time    0.00
    CHARGE:  cpu time    0.13: real time    0.13
    MIXING:  cpu time    0.01: real time    0.01
    --------------------------------------------
      LOOP:  cpu time    3.58: real time    3.63

 eigenvalue-minimisations  :   784
 total energy-change (2. order) :-0.1261201E+01  (-0.2200173E-01)
 number of electron     296.9999590 magnetization       1.3757501
 augmentation part      141.8549071 magnetization       0.3502162

 Broyden mixing:
  rms(total) = 0.37675E-01    rms(broyden)= 0.37652E-01
  rms(prec ) = 0.42420E-01
  weight for this iteration     100.00

 eigenvalues of (default mixing * dielectric matrix)
  average eigenvalue GAMMA=   1.5704
  8.1389  2.2273  2.2273  1.8738  0.9880  0.9880  0.9110  0.9110  0.8847  0.6609
  0.6609  0.5542  0.5542  0.4056

 Free energy of the ion-electron system (eV)
  ---------------------------------------------------
  alpha Z        PSCENC =        68.22862391
  Ewald energy   TEWEN  =     61062.27004550
  -Hartree energ DENC   =    -87782.28374632
  -exchange      EXHF   =         0.00000000
  -V(xc)+E(xc)   XCENC  =      -297.99798188
  PAW double counting   =     30600.77949662   -29426.26472014
  entropy T*S    EENTRO =         0.00000000
  eigenvalues    EBANDS =     -2277.72660493
  atomic energy  EATOM  =     28004.36301233
  ---------------------------------------------------
  free energy    TOTEN  =       -48.63187492 eV

  energy without entropy =      -48.63187492  energy(sigma->0) =      -48.63187492


--------------------------------------------------------------------------------------------------------




----------------------------------------- Iteration    1(  20)  ---------------------------------------


    POTLOK:  cpu time    0.29: real time    0.29
    SETDIJ:  cpu time    0.01: real time    0.01
     EDDAV:  cpu time    3.24: real time    3.24
       DOS:  cpu time    0.00: real time    0.00
    CHARGE:  cpu time    0.12: real time    0.13
    MIXING:  cpu time    0.01: real time    0.01
    --------------------------------------------
      LOOP:  cpu time    3.68: real time    3.71

 eigenvalue-minimisations  :   816
 total energy-change (2. order) :-0.3418339E+00  (-0.1924011E-02)
 number of electron     296.9999590 magnetization       1.3770198
 augmentation part      141.8535309 magnetization       0.3627335

 Broyden mixing:
  rms(total) = 0.27958E-01    rms(broyden)= 0.27954E-01
  rms(prec ) = 0.31739E-01
  weight for this iteration     100.00

 eigenvalues of (default mixing * dielectric matrix)
  average eigenvalue GAMMA=   1.5804
  8.2823  1.9731  1.9731  2.0073  2.0073  1.0636  1.0636  0.8354  0.8354  0.7521
  0.7521  0.6507  0.5529  0.5529  0.4048

 Free energy of the ion-electron system (eV)
  ---------------------------------------------------
  alpha Z        PSCENC =        68.22862391
  Ewald energy   TEWEN  =     61062.27004550
  -Hartree energ DENC   =    -87776.42064145
  -exchange      EXHF   =         0.00000000
  -V(xc)+E(xc)   XCENC  =      -298.36304190
  PAW double counting   =     30607.49816203   -29432.93577776
  entropy T*S    EENTRO =         0.00000000
  eigenvalues    EBANDS =     -2283.61409152
  atomic energy  EATOM  =     28004.36301233
  ---------------------------------------------------
  free energy    TOTEN  =       -48.97370886 eV

  energy without entropy =      -48.97370886  energy(sigma->0) =      -48.97370886


--------------------------------------------------------------------------------------------------------




----------------------------------------- Iteration    1(  21)  ---------------------------------------


    POTLOK:  cpu time    0.28: real time    0.29
    SETDIJ:  cpu time    0.01: real time    0.01
     EDDAV:  cpu time    3.32: real time    3.32
       DOS:  cpu time    0.00: real time    0.00
    CHARGE:  cpu time    0.12: real time    0.13
    MIXING:  cpu time    0.02: real time    0.01
    --------------------------------------------
      LOOP:  cpu time    3.75: real time    3.81

 eigenvalue-minimisations  :   840
 total energy-change (2. order) :-0.2581495E+00  (-0.1025238E-02)
 number of electron     296.9999590 magnetization       1.1937227
 augmentation part      141.8470900 magnetization       0.1667447

 Broyden mixing:
  rms(total) = 0.12415E-01    rms(broyden)= 0.12412E-01
  rms(prec ) = 0.16463E-01
  weight for this iteration     100.00

 eigenvalues of (default mixing * dielectric matrix)
  average eigenvalue GAMMA=   1.6568
  8.7151  3.1802  2.2906  2.2906  1.6769  1.0184  1.0184  1.0056  0.8945  0.8945
  0.6886  0.6886  0.6414  0.5503  0.5503  0.4049

 Free energy of the ion-electron system (eV)
  ---------------------------------------------------
  alpha Z        PSCENC =        68.22862391
  Ewald energy   TEWEN  =     61062.27004550
  -Hartree energ DENC   =    -87769.35292910
  -exchange      EXHF   =         0.00000000
  -V(xc)+E(xc)   XCENC  =      -298.64428493
  PAW double counting   =     30617.97871315   -29443.34161691
  entropy T*S    EENTRO =         0.00000000
  eigenvalues    EBANDS =     -2290.73342230
  atomic energy  EATOM  =     28004.36301233
  ---------------------------------------------------
  free energy    TOTEN  =       -49.23185834 eV

  energy without entropy =      -49.23185834  energy(sigma->0) =      -49.23185834


--------------------------------------------------------------------------------------------------------




----------------------------------------- Iteration    1(  22)  ---------------------------------------


    POTLOK:  cpu time    0.29: real time    0.29
    SETDIJ:  cpu time    0.00: real time    0.01
     EDDAV:  cpu time    3.25: real time    3.25
       DOS:  cpu time    0.00: real time    0.00
    CHARGE:  cpu time    0.12: real time    0.13
    MIXING:  cpu time    0.02: real time    0.01
    --------------------------------------------
      LOOP:  cpu time    3.68: real time    4.35

 eigenvalue-minimisations  :   816
 total energy-change (2. order) :-0.2160655E+00  (-0.9196983E-03)
 number of electron     296.9999590 magnetization       1.1312430
 augmentation part      141.8514525 magnetization       0.1046425

 Broyden mixing:
  rms(total) = 0.78706E-02    rms(broyden)= 0.78681E-02
  rms(prec ) = 0.10626E-01
  weight for this iteration     100.00

 eigenvalues of (default mixing * dielectric matrix)
  average eigenvalue GAMMA=   1.6301
  8.8169  3.4153  2.0352  2.0352  2.1006  0.9894  0.9894  1.0464  1.0464  0.9160
  0.7616  0.7616  0.6440  0.6440  0.5528  0.5528  0.4049

 Free energy of the ion-electron system (eV)
  ---------------------------------------------------
  alpha Z        PSCENC =        68.22862391
  Ewald energy   TEWEN  =     61062.27004550
  -Hartree energ DENC   =    -87759.84446785
  -exchange      EXHF   =         0.00000000
  -V(xc)+E(xc)   XCENC  =      -298.91800119
  PAW double counting   =     30620.98343738   -29446.22602559
  entropy T*S    EENTRO =         0.00000000
  eigenvalues    EBANDS =     -2300.30454838
  atomic energy  EATOM  =     28004.36301233
  ---------------------------------------------------
  free energy    TOTEN  =       -49.44792389 eV

  energy without entropy =      -49.44792389  energy(sigma->0) =      -49.44792389


--------------------------------------------------------------------------------------------------------




----------------------------------------- Iteration    1(  23)  ---------------------------------------


    POTLOK:  cpu time    0.28: real time    0.29
    SETDIJ:  cpu time    0.01: real time    0.01
     EDDAV:  cpu time    2.54: real time    2.54
       DOS:  cpu time    0.00: real time    0.00
    CHARGE:  cpu time    0.12: real time    0.13
    MIXING:  cpu time    0.02: real time    0.01
    --------------------------------------------
      LOOP:  cpu time    2.97: real time    3.01

 eigenvalue-minimisations  :   576
 total energy-change (2. order) :-0.4189558E-01  (-0.5890054E-04)
 number of electron     296.9999590 magnetization       1.0276235
 augmentation part      141.8510216 magnetization       0.0021226

 Broyden mixing:
  rms(total) = 0.55856E-02    rms(broyden)= 0.55851E-02
  rms(prec ) = 0.80227E-02
  weight for this iteration     100.00

 eigenvalues of (default mixing * dielectric matrix)
  average eigenvalue GAMMA=   1.6612
  8.9671  3.6964  2.4264  2.0856  2.0856  1.2985  1.2985  0.9813  0.9813  0.8541
  0.8541  0.8327  0.7038  0.7038  0.6246  0.5513  0.5513  0.4049

 Free energy of the ion-electron system (eV)
  ---------------------------------------------------
  alpha Z        PSCENC =        68.22862391
  Ewald energy   TEWEN  =     61062.27004550
  -Hartree energ DENC   =    -87756.36024070
  -exchange      EXHF   =         0.00000000
  -V(xc)+E(xc)   XCENC  =      -298.98143911
  PAW double counting   =     30625.36959900   -29450.67764821
  entropy T*S    EENTRO =        -0.00000000
  eigenvalues    EBANDS =     -2303.70177218
  atomic energy  EATOM  =     28004.36301233
  ---------------------------------------------------
  free energy    TOTEN  =       -49.48981947 eV

  energy without entropy =      -49.48981947  energy(sigma->0) =      -49.48981947


--------------------------------------------------------------------------------------------------------




----------------------------------------- Iteration    1(  24)  ---------------------------------------


    POTLOK:  cpu time    0.28: real time    0.28
    SETDIJ:  cpu time    0.00: real time    0.01
     EDDAV:  cpu time    3.15: real time    3.15
       DOS:  cpu time    0.00: real time    0.00
    CHARGE:  cpu time    0.13: real time    0.12
    MIXING:  cpu time    0.02: real time    0.02
    --------------------------------------------
      LOOP:  cpu time    3.59: real time    3.59

 eigenvalue-minimisations  :   784
 total energy-change (2. order) :-0.2946601E-01  (-0.1980655E-03)
 number of electron     296.9999590 magnetization       1.0256074
 augmentation part      141.8565869 magnetization       0.0030072

 Broyden mixing:
  rms(total) = 0.29443E-02    rms(broyden)= 0.29426E-02
  rms(prec ) = 0.43944E-02
  weight for this iteration     100.00

 eigenvalues of (default mixing * dielectric matrix)
  average eigenvalue GAMMA=   1.6954
  8.9935  4.5446  2.6830  2.1257  2.1257  1.3650  1.3650  0.9850  0.9850  0.9686
  0.9686  0.4049  0.8367  0.7401  0.7401  0.5519  0.5519  0.6536  0.6246

 Free energy of the ion-electron system (eV)
  ---------------------------------------------------
  alpha Z        PSCENC =        68.22862391
  Ewald energy   TEWEN  =     61062.27004550
  -Hartree energ DENC   =    -87749.53093628
  -exchange      EXHF   =         0.00000000
  -V(xc)+E(xc)   XCENC  =      -299.05233550
  PAW double counting   =     30628.80098451   -29454.14888905
  entropy T*S    EENTRO =         0.00000000
  eigenvalues    EBANDS =     -2310.44979090
  atomic energy  EATOM  =     28004.36301233
  ---------------------------------------------------
  free energy    TOTEN  =       -49.51928548 eV

  energy without entropy =      -49.51928548  energy(sigma->0) =      -49.51928548


--------------------------------------------------------------------------------------------------------




----------------------------------------- Iteration    1(  25)  ---------------------------------------


    POTLOK:  cpu time    0.28: real time    0.28
    SETDIJ:  cpu time    0.01: real time    0.01
     EDDAV:  cpu time    2.54: real time    2.54
       DOS:  cpu time    0.00: real time    0.00
    CHARGE:  cpu time    0.12: real time    0.12
    MIXING:  cpu time    0.02: real time    0.02
    --------------------------------------------
      LOOP:  cpu time    2.97: real time    2.97

 eigenvalue-minimisations  :   576
 total energy-change (2. order) :-0.4242068E-03  (-0.3764695E-04)
 number of electron     296.9999590 magnetization       1.0277653
 augmentation part      141.8561870 magnetization       0.0043203

 Broyden mixing:
  rms(total) = 0.17694E-02    rms(broyden)= 0.17689E-02
  rms(prec ) = 0.27828E-02
  weight for this iteration     100.00

 eigenvalues of (default mixing * dielectric matrix)
  average eigenvalue GAMMA=   1.6875
  8.9421  4.8747  2.6779  2.0182  2.0182  1.8388  1.2855  1.2855  0.9777  0.9777
  0.9046  0.9046  0.4049  0.8037  0.7335  0.7335  0.5519  0.5519  0.6326  0.6326

 Free energy of the ion-electron system (eV)
  ---------------------------------------------------
  alpha Z        PSCENC =        68.22862391
  Ewald energy   TEWEN  =     61062.27004550
  -Hartree energ DENC   =    -87747.12376765
  -exchange      EXHF   =         0.00000000
  -V(xc)+E(xc)   XCENC  =      -299.06109803
  PAW double counting   =     30630.88542749   -29456.25173546
  entropy T*S    EENTRO =         0.00000000
  eigenvalues    EBANDS =     -2312.83021778
  atomic energy  EATOM  =     28004.36301233
  ---------------------------------------------------
  free energy    TOTEN  =       -49.51970969 eV

  energy without entropy =      -49.51970969  energy(sigma->0) =      -49.51970969


--------------------------------------------------------------------------------------------------------




----------------------------------------- Iteration    1(  26)  ---------------------------------------


    POTLOK:  cpu time    0.28: real time    0.28
    SETDIJ:  cpu time    0.01: real time    0.01
     EDDAV:  cpu time    2.47: real time    2.47
       DOS:  cpu time    0.00: real time    0.00
    CHARGE:  cpu time    0.13: real time    0.12
    MIXING:  cpu time    0.02: real time    0.02
    --------------------------------------------
      LOOP:  cpu time    2.90: real time    3.51

 eigenvalue-minimisations  :   552
 total energy-change (2. order) :-0.4914222E-02  (-0.3279859E-04)
 number of electron     296.9999590 magnetization       1.0145775
 augmentation part      141.8554659 magnetization      -0.0096994

 Broyden mixing:
  rms(total) = 0.20967E-02    rms(broyden)= 0.20964E-02
  rms(prec ) = 0.26678E-02
  weight for this iteration     100.00

 eigenvalues of (default mixing * dielectric matrix)
  average eigenvalue GAMMA=   1.7164
  8.8979  5.2220  2.9764  2.3226  2.0401  2.0401  1.4368  1.4368  0.9827  0.9827
  0.9287  0.9287  0.9130  0.4049  0.7416  0.7416  0.5518  0.5518  0.6669  0.6560
  0.6219

 Free energy of the ion-electron system (eV)
  ---------------------------------------------------
  alpha Z        PSCENC =        68.22862391
  Ewald energy   TEWEN  =     61062.27004550
  -Hartree energ DENC   =    -87745.35977734
  -exchange      EXHF   =         0.00000000
  -V(xc)+E(xc)   XCENC  =      -299.06936945
  PAW double counting   =     30631.51837238   -29456.88895629
  entropy T*S    EENTRO =         0.00000000
  eigenvalues    EBANDS =     -2314.58657495
  atomic energy  EATOM  =     28004.36301233
  ---------------------------------------------------
  free energy    TOTEN  =       -49.52462391 eV

  energy without entropy =      -49.52462391  energy(sigma->0) =      -49.52462391


--------------------------------------------------------------------------------------------------------




----------------------------------------- Iteration    1(  27)  ---------------------------------------


    POTLOK:  cpu time    0.28: real time    0.28
    SETDIJ:  cpu time    0.01: real time    0.01
     EDDAV:  cpu time    2.54: real time    2.54
       DOS:  cpu time    0.00: real time    0.00
    CHARGE:  cpu time    0.12: real time    0.12
    MIXING:  cpu time    0.02: real time    0.02
    --------------------------------------------
      LOOP:  cpu time    2.98: real time    3.00

 eigenvalue-minimisations  :   576
 total energy-change (2. order) :-0.2581697E-02  (-0.1126454E-04)
 number of electron     296.9999590 magnetization       1.0045988
 augmentation part      141.8559119 magnetization      -0.0191700

 Broyden mixing:
  rms(total) = 0.15389E-02    rms(broyden)= 0.15388E-02
  rms(prec ) = 0.18578E-02
  weight for this iteration     100.00

 eigenvalues of (default mixing * dielectric matrix)
  average eigenvalue GAMMA=   1.7383
  8.8779  5.6918  3.5555  2.3531  2.1196  2.1196  1.4377  1.4377  0.9780  0.9780
  1.0361  1.0361  0.8299  0.8299  0.4049  0.7940  0.7100  0.7100  0.5518  0.5518
  0.6194  0.6194

 Free energy of the ion-electron system (eV)
  ---------------------------------------------------
  alpha Z        PSCENC =        68.22862391
  Ewald energy   TEWEN  =     61062.27004550
  -Hartree energ DENC   =    -87743.96182470
  -exchange      EXHF   =         0.00000000
  -V(xc)+E(xc)   XCENC  =      -299.07755225
  PAW double counting   =     30631.32762710   -29456.69885840
  entropy T*S    EENTRO =         0.00000000
  eigenvalues    EBANDS =     -2315.97827910
  atomic energy  EATOM  =     28004.36301233
  ---------------------------------------------------
  free energy    TOTEN  =       -49.52720561 eV

  energy without entropy =      -49.52720561  energy(sigma->0) =      -49.52720561


--------------------------------------------------------------------------------------------------------




----------------------------------------- Iteration    1(  28)  ---------------------------------------


    POTLOK:  cpu time    0.28: real time    0.28
    SETDIJ:  cpu time    0.01: real time    0.01
     EDDAV:  cpu time    2.42: real time    2.42
       DOS:  cpu time    0.00: real time    0.00
    CHARGE:  cpu time    0.12: real time    0.13
    MIXING:  cpu time    0.02: real time    0.02
    --------------------------------------------
      LOOP:  cpu time    2.86: real time    2.88

 eigenvalue-minimisations  :   536
 total energy-change (2. order) :-0.1053429E-02  (-0.3457174E-05)
 number of electron     296.9999590 magnetization       0.9975581
 augmentation part      141.8561573 magnetization      -0.0257059

 Broyden mixing:
  rms(total) = 0.62036E-03    rms(broyden)= 0.62019E-03
  rms(prec ) = 0.86350E-03
  weight for this iteration     100.00

 eigenvalues of (default mixing * dielectric matrix)
  average eigenvalue GAMMA=   1.7604
  8.8885  6.0662  3.9381  2.3962  2.1500  2.1500  1.5295  1.5295  1.2008  1.2008
  0.9780  0.9780  0.8854  0.8854  0.4049  0.8249  0.7320  0.7320  0.5518  0.5518
  0.6690  0.6237  0.6237

 Free energy of the ion-electron system (eV)
  ---------------------------------------------------
  alpha Z        PSCENC =        68.22862391
  Ewald energy   TEWEN  =     61062.27004550
  -Hartree energ DENC   =    -87743.29135681
  -exchange      EXHF   =         0.00000000
  -V(xc)+E(xc)   XCENC  =      -299.08168742
  PAW double counting   =     30631.02429384   -29456.39281622
  entropy T*S    EENTRO =         0.00000000
  eigenvalues    EBANDS =     -2316.64837417
  atomic energy  EATOM  =     28004.36301233
  ---------------------------------------------------
  free energy    TOTEN  =       -49.52825904 eV

  energy without entropy =      -49.52825904  energy(sigma->0) =      -49.52825904


--------------------------------------------------------------------------------------------------------




----------------------------------------- Iteration    1(  29)  ---------------------------------------


    POTLOK:  cpu time    0.28: real time    0.28
    SETDIJ:  cpu time    0.01: real time    0.01
     EDDAV:  cpu time    2.34: real time    2.35
       DOS:  cpu time    0.00: real time    0.00
    CHARGE:  cpu time    0.13: real time    0.13
    MIXING:  cpu time    0.02: real time    0.02
    --------------------------------------------
      LOOP:  cpu time    2.78: real time    2.80

 eigenvalue-minimisations  :   512
 total energy-change (2. order) :-0.5124153E-03  (-0.2531822E-05)
 number of electron     296.9999590 magnetization       0.9984320
 augmentation part      141.8566390 magnetization      -0.0242216

 Broyden mixing:
  rms(total) = 0.41199E-03    rms(broyden)= 0.41180E-03
  rms(prec ) = 0.54073E-03
  weight for this iteration     100.00

 eigenvalues of (default mixing * dielectric matrix)
  average eigenvalue GAMMA=   1.7873
  8.8304  6.8017  4.2846  2.3526  2.0740  2.0740  2.0213  1.4453  1.4453  1.2669
  0.9779  0.9779  0.9059  0.9059  0.4049  0.8558  0.7773  0.7335  0.7335  0.5518
  0.5518  0.6861  0.6184  0.6184

 Free energy of the ion-electron system (eV)
  ---------------------------------------------------
  alpha Z        PSCENC =        68.22862391
  Ewald energy   TEWEN  =     61062.27004550
  -Hartree energ DENC   =    -87742.78998366
  -exchange      EXHF   =         0.00000000
  -V(xc)+E(xc)   XCENC  =      -299.08446207
  PAW double counting   =     30630.78594105   -29456.14963343
  entropy T*S    EENTRO =         0.00000000
  eigenvalues    EBANDS =     -2317.15231508
  atomic energy  EATOM  =     28004.36301233
  ---------------------------------------------------
  free energy    TOTEN  =       -49.52877145 eV

  energy without entropy =      -49.52877145  energy(sigma->0) =      -49.52877145


--------------------------------------------------------------------------------------------------------




----------------------------------------- Iteration    1(  30)  ---------------------------------------


    POTLOK:  cpu time    0.28: real time    0.28
    SETDIJ:  cpu time    0.01: real time    0.01
     EDDAV:  cpu time    2.32: real time    2.32
       DOS:  cpu time    0.00: real time    0.00
    --------------------------------------------
      LOOP:  cpu time    2.61: real time    2.63

 eigenvalue-minimisations  :   504
 total energy-change (2. order) : 0.1964039E-04  (-0.5513970E-06)
 number of electron     296.9999590 magnetization       0.9984320
 augmentation part      141.8566390 magnetization      -0.0242216

 Free energy of the ion-electron system (eV)
  ---------------------------------------------------
  alpha Z        PSCENC =        68.22862391
  Ewald energy   TEWEN  =     61062.27004550
  -Hartree energ DENC   =    -87742.63098760
  -exchange      EXHF   =         0.00000000
  -V(xc)+E(xc)   XCENC  =      -299.08462475
  PAW double counting   =     30630.96755306   -29456.33227337
  entropy T*S    EENTRO =         0.00000000
  eigenvalues    EBANDS =     -2317.31010090
  atomic energy  EATOM  =     28004.36301233
  ---------------------------------------------------
  free energy    TOTEN  =       -49.52875181 eV

  energy without entropy =      -49.52875181  energy(sigma->0) =      -49.52875181


--------------------------------------------------------------------------------------------------------




 average (electrostatic) potential at core
  the test charge radii are     1.1249
  (the norm of the test charge is              1.0000)
       1 -82.6693       2 -82.7873       3 -82.6501       4 -82.6245       5 -82.7214
       6 -82.6432       7 -82.6824       8 -82.5288       9 -82.6809      10 -82.8059
      11 -82.6661      12 -82.7110      13 -82.6883      14 -82.6440      15 -82.6852
      16 -82.6653      17 -82.7121      18 -82.6779      19 -82.8044      20 -82.5330
      21 -82.6841      22 -82.7199      23 -82.6375      24 -82.6211      25 -82.6479
      26 -82.7823      27 -82.6534
 
 
 
 E-fermi :  -3.6949     XC(G=0):  -1.0412     alpha+bet : -0.6819


 spin component 1

 k-point     1 :       0.0000    0.0000    0.0000
  band No.  band energies     occupation 
      1     -10.2051      1.00000
      2     -10.1214      1.00000
      3      -9.9474      1.00000
      4      -9.8983      1.00000
      5      -9.8577      1.00000
      6      -9.8175      1.00000
      7      -9.7863      1.00000
      8      -9.7013      1.00000
      9      -9.6749      1.00000
     10      -9.6686      1.00000
     11      -9.6531      1.00000
     12      -9.6236      1.00000
     13      -9.6224      1.00000
     14      -9.5978      1.00000
     15      -9.5767      1.00000
     16      -9.5356      1.00000
     17      -9.5290      1.00000
     18      -9.4900      1.00000
     19      -9.4651      1.00000
     20      -9.4516      1.00000
     21      -9.4411      1.00000
     22      -9.4232      1.00000
     23      -9.3847      1.00000
     24      -9.3562      1.00000
     25      -9.3402      1.00000
     26      -9.3360      1.00000
     27      -9.3156      1.00000
     28      -9.2848      1.00000
     29      -9.2498      1.00000
     30      -9.2238      1.00000
     31      -9.2145      1.00000
     32      -9.1986      1.00000
     33      -9.1934      1.00000
     34      -9.1741      1.00000
     35      -9.1252      1.00000
     36      -9.0871      1.00000
     37      -9.0762      1.00000
     38      -9.0502      1.00000
     39      -9.0407      1.00000
     40      -9.0093      1.00000
[...]
    156      -2.1722      0.00000
    157      -2.1158      0.00000
    158      -2.0026      0.00000
    159      -1.8719      0.00000
    160      -1.6004      0.00000
    161      -1.3373      0.00000
    162      -1.1859      0.00000
    163      -1.1407      0.00000
    164      -0.8913      0.00000
    165      -0.7936      0.00000
    166      -0.7636      0.00000
    167      -0.5837      0.00000
    168      -0.4701      0.00000
    169      -0.4564      0.00000
    170      -0.2875      0.00000
    171      -0.2408      0.00000
    172       0.0095      0.00000
    173       0.0889      0.00000
    174       0.1973      0.00000
    175       0.3352      0.00000
    176       0.3933      0.00000
    177       0.5120      0.00000
    178       0.5545      0.00000
    179       0.6117      0.00000
    180       0.6254      0.00000
    181       0.7596      0.00000
    182       0.7809      0.00000
    183       0.7973      0.00000
    184       0.8059      0.00000
    185       0.8644      0.00000
    186       0.8871      0.00000
    187       0.9232      0.00000
    188       0.9904      0.00000
    189       1.0156      0.00000
    190       1.0664      0.00000
    191       1.0886      0.00000
    192       1.1207      0.00000


--------------------------------------------------------------------------------------------------------


 soft charge-density along one line, spin component           1
         0         1         2         3         4         5         6         7         8         9
 total charge-density along one line
 
 soft charge-density along one line, spin component           2
         0         1         2         3         4         5         6         7         8         9
 total charge-density along one line
 
 pseudopotential strength for first ion, spin component:           1
-10.279   0.005  -0.003  -0.002  -0.002 -10.255   0.005  -0.003
  0.005 -10.278  -0.002   0.005   0.003   0.005 -10.254  -0.002
 -0.003  -0.002 -10.275   0.004  -0.001  -0.003  -0.002 -10.251
 -0.002   0.005   0.004 -10.276   0.006  -0.002   0.005   0.004
 -0.002   0.003  -0.001   0.006 -10.277  -0.002   0.003  -0.001
-10.255   0.005  -0.003  -0.002  -0.002 -10.207   0.004  -0.003
  0.005 -10.254  -0.002   0.005   0.003   0.004 -10.206  -0.002
 -0.003  -0.002 -10.251   0.004  -0.001  -0.003  -0.002 -10.203
 -0.002   0.005   0.004 -10.252   0.006  -0.002   0.005   0.004
 -0.002   0.003  -0.001   0.006 -10.253  -0.002   0.003  -0.001
 -0.002   0.002   0.000  -0.005  -0.002  -0.002   0.002   0.000
 -0.003   0.003   0.000  -0.007  -0.003  -0.003   0.003   0.000
 -0.024  -0.011   0.001   0.000   0.002  -0.023  -0.011   0.001
  0.000  -0.002  -0.013  -0.024  -0.001   0.000  -0.002  -0.013
 -0.002   0.000   0.014  -0.012  -0.024  -0.002   0.000   0.013
 -0.029  -0.014   0.002   0.000   0.003  -0.028  -0.013   0.002
  0.000  -0.003  -0.016  -0.029  -0.001   0.000  -0.003  -0.016
 -0.003   0.000   0.017  -0.015  -0.030  -0.003   0.000   0.016
 pseudopotential strength for first ion, spin component:           2
-10.278   0.005  -0.003  -0.002  -0.001 -10.254   0.005  -0.003
  0.005 -10.278  -0.001   0.005   0.003   0.005 -10.254  -0.001
 -0.003  -0.001 -10.274   0.004  -0.000  -0.003  -0.001 -10.250
 -0.002   0.005   0.004 -10.275   0.005  -0.002   0.005   0.004
 -0.001   0.003  -0.000   0.005 -10.274  -0.001   0.003  -0.000
-10.254   0.005  -0.003  -0.002  -0.001 -10.206   0.005  -0.003
  0.005 -10.254  -0.001   0.005   0.003   0.005 -10.205  -0.001
 -0.003  -0.001 -10.250   0.004  -0.000  -0.003  -0.001 -10.202
 -0.002   0.005   0.004 -10.251   0.005  -0.002   0.004   0.003
 -0.001   0.003  -0.000   0.005 -10.250  -0.001   0.003  -0.000
 -0.002   0.002   0.000  -0.004  -0.002  -0.002   0.002   0.000
 -0.003   0.003   0.001  -0.007  -0.003  -0.003   0.003   0.001
 -0.024  -0.011   0.001   0.000   0.002  -0.023  -0.011   0.001
  0.000  -0.002  -0.013  -0.024  -0.000   0.000  -0.002  -0.013
 -0.002   0.000   0.014  -0.012  -0.024  -0.002   0.000   0.013
 -0.030  -0.014   0.002   0.000   0.002  -0.028  -0.013   0.001
  0.000  -0.003  -0.016  -0.030  -0.001   0.000  -0.002  -0.015
 -0.003   0.000   0.017  -0.015  -0.030  -0.003   0.000   0.016
 total augmentation occupancy for first ion, spin component:           1
  2.817   0.224  -0.036   0.050  -0.074  -0.832  -0.184   0.030  -0.057   0.054   0.132  -0.018  -0.188  -0.003   0.015  -0.004
  0.224   2.684  -0.039  -0.020  -0.069  -0.184  -0.725   0.029   0.052   0.088  -0.166   0.026  -0.138   0.002  -0.005   0.001
 -0.036  -0.039   2.885   0.143  -0.143   0.030   0.029  -0.877  -0.105   0.126  -0.051   0.009   0.017  -0.170   0.101   0.000
  0.050  -0.020   0.143   2.698  -0.085  -0.057   0.052  -0.105  -0.696   0.126   0.263  -0.007  -0.007  -0.111   0.034   0.000
 -0.074  -0.069  -0.143  -0.085   2.688   0.054   0.088   0.126   0.126  -0.660   0.073   0.019   0.042   0.081  -0.088  -0.001
 -0.832  -0.184   0.030  -0.057   0.054   0.816   0.152  -0.024   0.063  -0.039  -0.114   0.013   0.209   0.003  -0.014  -0.012
 -0.184  -0.725   0.029   0.052   0.088   0.152   0.729  -0.021  -0.079  -0.105   0.150  -0.024   0.150  -0.003   0.004  -0.008
  0.030   0.029  -0.877  -0.105   0.126  -0.024  -0.021   0.842   0.074  -0.114   0.056  -0.014  -0.018   0.178  -0.112   0.001
 -0.057   0.052  -0.105  -0.696   0.126   0.063  -0.079   0.074   0.667  -0.160  -0.233   0.007   0.006   0.128  -0.026  -0.000
  0.054   0.088   0.126   0.126  -0.660  -0.039  -0.105  -0.114  -0.160   0.607  -0.069  -0.012  -0.044  -0.084   0.104   0.002
  0.132  -0.166  -0.051   0.263   0.073  -0.114   0.150   0.056  -0.233  -0.069   1.862  -0.257   0.011   0.109   0.191  -0.001
 -0.018   0.026   0.009  -0.007   0.019   0.013  -0.024  -0.014   0.007  -0.012  -0.257   0.053  -0.002  -0.028  -0.040   0.000
 -0.188  -0.138   0.017  -0.007   0.042   0.209   0.150  -0.018   0.006  -0.044   0.011  -0.002   0.094   0.006  -0.007  -0.005
 -0.003   0.002  -0.170  -0.111   0.081   0.003  -0.003   0.178   0.128  -0.084   0.109  -0.028   0.006   0.097  -0.025  -0.000
  0.015  -0.005   0.101   0.034  -0.088  -0.014   0.004  -0.112  -0.026   0.104   0.191  -0.040  -0.007  -0.025   0.071   0.000
 -0.004   0.001   0.000   0.000  -0.001  -0.012  -0.008   0.001  -0.000   0.002  -0.001   0.000  -0.005  -0.000   0.000   0.000
  0.000  -0.000   0.002  -0.007  -0.004  -0.000  -0.000  -0.010  -0.007   0.005  -0.011   0.002  -0.000  -0.006   0.001   0.000
 -0.002   0.001   0.002  -0.008  -0.008   0.001  -0.000   0.006   0.002  -0.006  -0.018   0.003   0.000   0.001  -0.005  -0.000
 total augmentation occupancy for first ion, spin component:           2
  0.002   0.003   0.005  -0.006   0.016  -0.001  -0.002  -0.004   0.005  -0.012  -0.003  -0.000  -0.001   0.003  -0.003   0.000
  0.003  -0.000   0.005  -0.006   0.014  -0.002  -0.000  -0.004   0.004  -0.011   0.002  -0.001  -0.001   0.002  -0.002   0.000
  0.005   0.005   0.003  -0.008   0.014  -0.003  -0.004  -0.002   0.006  -0.011  -0.002  -0.001  -0.002   0.003  -0.003   0.000
 -0.006  -0.006  -0.008   0.013  -0.024   0.005   0.004   0.006  -0.010   0.019   0.005  -0.001   0.003  -0.004   0.005  -0.000
  0.016   0.014   0.014  -0.024   0.040  -0.012  -0.011  -0.011   0.019  -0.031  -0.005  -0.001  -0.008   0.008  -0.006   0.000
 -0.001  -0.002  -0.003   0.005  -0.012   0.001   0.001   0.002  -0.004   0.009   0.003  -0.000   0.001  -0.002   0.002  -0.000
 -0.002  -0.000  -0.004   0.004  -0.011   0.001   0.000   0.003  -0.003   0.009  -0.002   0.000   0.001  -0.002   0.002  -0.000
 -0.004  -0.004  -0.002   0.006  -0.011   0.002   0.003   0.002  -0.005   0.008   0.002   0.000   0.002  -0.003   0.002  -0.000
  0.005   0.004   0.006  -0.010   0.019  -0.004  -0.003  -0.005   0.008  -0.014  -0.003   0.000  -0.003   0.003  -0.003   0.000
 -0.012  -0.011  -0.011   0.019  -0.031   0.009   0.009   0.008  -0.014   0.023   0.004   0.000   0.006  -0.006   0.005  -0.000
 -0.003   0.002  -0.002   0.005  -0.005   0.003  -0.002   0.002  -0.003   0.004  -0.001  -0.001   0.001  -0.000   0.001  -0.000
 -0.000  -0.001  -0.001  -0.001  -0.001  -0.000   0.000   0.000   0.000   0.000  -0.001   0.000   0.000   0.000   0.000   0.000
 -0.001  -0.001  -0.002   0.003  -0.008   0.001   0.001   0.002  -0.003   0.006   0.001   0.000   0.001  -0.001   0.001  -0.000
  0.003   0.002   0.003  -0.004   0.008  -0.002  -0.002  -0.003   0.003  -0.006  -0.000   0.000  -0.001   0.001  -0.001   0.000
 -0.003  -0.002  -0.003   0.005  -0.006   0.002   0.002   0.002  -0.003   0.005   0.001   0.000   0.001  -0.001   0.001  -0.000
  0.000   0.000   0.000  -0.000   0.000  -0.000  -0.000  -0.000   0.000  -0.000  -0.000   0.000  -0.000   0.000  -0.000   0.000
 -0.000  -0.000  -0.000   0.000  -0.000   0.000   0.000   0.000  -0.000   0.000   0.000  -0.000   0.000  -0.000   0.000  -0.000
  0.000   0.000   0.000  -0.000   0.000  -0.000  -0.000  -0.000   0.000  -0.000  -0.000   0.000  -0.000   0.000  -0.000   0.000


------------------------ aborting loop because EDIFF is reached ----------------------------------------


    CHARGE:  cpu time    0.12: real time    0.12
    FORLOC:  cpu time    0.02: real time    0.02
    FORNL :  cpu time    2.05: real time    2.05
    STRESS:  cpu time    2.47: real time    2.47
    FORCOR:  cpu time    0.29: real time    0.29
    FORHAR:  cpu time    0.04: real time    0.05
    MIXING:  cpu time    0.01: real time    0.01
    OFIELD:  cpu time    0.00: real time    0.00

  FORCE on cell =-STRESS in cart. coord.  units (eV):
  Direction    XX          YY          ZZ          XY          YZ          ZX
  --------------------------------------------------------------------------------------
  Alpha Z    68.22862    68.22862    68.22862
  Ewald   27395.94953 12282.99692 14872.35787  -158.04177    92.69299  4796.43737
  Hartree 35735.07765 21605.37032 24048.34968  -117.69174    49.83296  4384.37548
  E(xc)   -1564.40816 -1566.13708 -1565.95164    -0.17309     0.18781     0.75453
  Local  -67532.35513-38293.61951-43326.44493   273.82401  -139.55737 -9178.73772
  n-local  -284.56672  -288.76851  -287.86703     0.08868    -0.59619     1.65469
  augment  2478.39969  2481.50321  2481.33526     0.63394    -0.71338    -1.36126
  Kinetic  3693.52393  3700.42667  3700.08712     1.37057    -1.77511    -3.11271
  Fock        0.00000     0.00000     0.00000     0.00000     0.00000     0.00000
  -------------------------------------------------------------------------------------
  Total     -10.15059    -9.99936    -9.90505     0.01060     0.07170     0.01039
  in kB      -1.78948    -1.76282    -1.74619     0.00187     0.01264     0.00183
  external pressure =       -1.77 kB  Pullay stress =        0.00 kB


 VOLUME and BASIS-vectors are now :
 -----------------------------------------------------------------------------
  energy-cutoff  :      249.84
  volume of cell :     9088.14
      direct lattice vectors                 reciprocal lattice vectors
    20.868522360  0.000000000  0.000000000     0.047919061  0.000000000  0.000000000
     0.000000000 20.868522360  0.000000000     0.000000000  0.047919061  0.000000000
     0.000000000  0.000000000 20.868522360     0.000000000  0.000000000  0.047919061

  length of vectors
    20.868522360 20.868522360 20.868522360     0.047919061  0.047919061  0.047919061


 FORCES acting on ions
    electron-ion (+dipol)            ewald-force                    non-local-force                 convergence-correction
 -----------------------------------------------------------------------------------------------
   0.117E+04 0.746E+02 0.736E+03   -.117E+04 -.744E+02 -.734E+03   -.396E+01 -.225E+00 -.181E+01   0.256E-01 0.176E-01 0.379E-01
   0.431E+03 0.527E+03 0.122E+04   -.431E+03 -.524E+03 -.122E+04   -.126E-01 -.291E+01 -.351E+01   -.544E-03 0.398E-02 0.384E-01
   0.809E+03 0.106E+04 0.351E+03   -.807E+03 -.105E+04 -.350E+03   -.166E+01 -.249E+01 -.731E+00   0.253E-02 0.177E-01 0.173E-01
   0.133E+04 0.254E+03 -.366E+03   -.132E+04 -.252E+03 0.365E+03   -.378E+01 -.112E+01 0.158E+01   0.468E-01 0.157E-02 -.107E-01
   0.111E+04 -.871E+03 0.123E+03   -.110E+04 0.869E+03 -.124E+03   -.315E+01 0.256E+01 0.911E+00   0.259E-01 -.559E-01 0.711E-02
   0.439E+03 -.739E+03 0.106E+04   -.440E+03 0.737E+03 -.106E+04   0.481E+00 0.167E+01 -.242E+01   -.142E-01 0.507E-02 0.154E-02
   -.124E+03 0.828E+03 0.801E+03   0.124E+03 -.827E+03 -.800E+03   -.345E+00 -.262E+00 -.887E+00   0.423E-01 0.754E-02 -.230E-02
   0.425E+03 -.307E+02 0.181E+02   -.423E+03 0.309E+02 -.180E+02   -.198E+01 -.304E+00 -.127E+00   -.637E-02 0.380E-01 -.210E-01
   0.787E+03 0.780E+03 -.813E+03   -.785E+03 -.779E+03 0.812E+03   -.202E+01 -.119E+01 0.135E+01   -.238E-01 0.288E-01 -.662E-02
   -.314E+03 -.122E+03 0.138E+04   0.313E+03 0.120E+03 -.138E+04   0.110E+01 0.139E+01 -.498E+01   0.319E-02 -.319E-01 0.693E-02
   0.887E+03 -.627E+03 -.922E+03   -.885E+03 0.625E+03 0.920E+03   -.230E+01 0.271E+01 0.212E+01   -.450E-01 -.127E-01 -.210E-01
   0.210E+03 0.140E+04 -.333E+02   -.210E+03 -.140E+04 0.334E+02   -.492E+00 -.400E+01 -.800E-01   -.806E-02 0.667E-02 -.405E-02
   0.412E+03 -.134E+04 0.117E+03   -.411E+03 0.134E+04 -.117E+03   -.126E+01 0.327E+01 0.390E+00   0.337E-01 -.323E-01 -.720E-02
   -.324E+03 -.737E+03 0.750E+03   0.323E+03 0.736E+03 -.749E+03   0.232E+00 0.595E+00 -.632E+00   -.258E-01 0.109E-01 0.187E-01
   -.919E+03 0.190E+03 0.105E+04   0.916E+03 -.189E+03 -.105E+04   0.218E+01 -.129E+01 -.256E+01   -.488E-02 0.176E-01 0.208E-01
   -.625E+03 0.125E+04 0.273E+03   0.623E+03 -.125E+04 -.271E+03   0.209E+01 -.320E+01 -.174E+01   0.228E-01 0.339E-01 0.256E-01
   0.391E+03 -.300E+02 -.136E+04   -.389E+03 0.297E+02 0.136E+04   -.110E+01 0.266E+00 0.388E+01   0.884E-02 -.175E-01 0.963E-02
   -.252E+02 0.981E+03 -.978E+03   0.246E+02 -.979E+03 0.976E+03   0.641E+00 -.211E+01 0.197E+01   0.350E-01 -.175E-01 -.283E-01
   -.351E+03 -.138E+04 0.142E+03   0.350E+03 0.137E+04 -.141E+03   0.164E+01 0.489E+01 -.139E+01   -.311E-01 -.311E-01 0.217E-01
   -.352E+03 0.177E+03 -.144E+03   0.351E+03 -.176E+03 0.143E+03   0.151E+01 -.799E+00 0.110E+01   0.573E-02 0.159E-01 -.131E-01
   0.997E+02 -.854E+03 -.752E+03   -.100E+03 0.853E+03 0.752E+03   0.559E+00 0.718E+00 0.390E+00   -.105E-01 0.591E-01 -.460E-01
   -.129E+04 0.416E+03 0.326E+03   0.129E+04 -.414E+03 -.325E+03   0.318E+01 -.232E+01 -.111E+01   -.308E-01 -.257E-02 0.283E-01
   -.106E+04 -.708E+03 0.406E+03   0.106E+04 0.706E+03 -.405E+03   0.104E+01 0.219E+01 -.129E+01   0.165E-01 -.139E-01 -.189E-02
   -.867E+03 0.834E+03 -.751E+03   0.865E+03 -.831E+03 0.749E+03   0.207E+01 -.275E+01 0.233E+01   -.319E-01 0.107E-01 -.168E-01
   -.400E+03 -.110E+03 -.130E+04   0.399E+03 0.110E+03 0.129E+04   0.611E+00 0.477E+00 0.286E+01   0.151E-01 -.241E-01 -.299E-01
   -.630E+03 -.101E+04 -.739E+03   0.630E+03 0.101E+04 0.736E+03   0.232E+00 0.360E+01 0.307E+01   -.185E-01 -.206E-01 0.779E-03
   -.122E+04 -.213E+03 -.603E+03   0.122E+04 0.213E+03 0.601E+03   0.402E+01 0.171E+00 0.195E+01   -.286E-01 -.914E-02 -.231E-01
 -----------------------------------------------------------------------------------------------
   0.445E+00 0.482E+00 -.557E+00   0.227E-11 0.256E-12 0.102E-11   -.484E+00 -.500E+00 0.625E+00   0.399E-02 0.583E-02 0.251E-02
 
 
 POSITION                                       TOTAL-FORCE (eV/Angst)
 -----------------------------------------------------------------------------------
      6.32973     10.41625      8.21272        -0.003207      0.002309     -0.003238
      8.51521      9.41769      6.89792        -0.002870      0.003853     -0.017471
      7.78873      8.32567      9.43654        -0.008143      0.000583     -0.005812
      6.17958     10.08669     10.99393        -0.001792      0.011000      0.000983
      6.70686     12.60457      9.85649        -0.009309     -0.000252     -0.010993
      8.62783     12.05473      7.82543        -0.000513     -0.008799      0.015628
     10.63069      8.95594      8.73940        -0.008595      0.009687     -0.007710
      9.04895     10.72323     10.35514        -0.001954     -0.010580      0.011894
      8.31033      8.80982     12.30785        -0.003102     -0.017103     -0.000714
     10.96068     10.73773      6.62862        -0.001070      0.016455     -0.000183
      7.77974     11.91400     12.46634         0.011296      0.010414     -0.006046
      9.96336      7.19246     10.74796         0.004403     -0.000864      0.003581
      9.20463     13.69758     10.14149         0.013532     -0.001747      0.012117
     11.22629     12.05819      9.08804        -0.003815      0.002650      0.010802
     13.13355     10.13813      8.34891        -0.002782     -0.009175     -0.008755
     12.70577      7.61178     10.38542        -0.001657     -0.008128     -0.008593
      9.72398     10.52695     13.92200        -0.010838      0.000226      0.009787
     11.09772      8.26266     13.02889        -0.005304      0.008982      0.021150
     11.92841     14.34511     10.56773         0.000031     -0.009892     -0.009246
     11.91339     10.12588     11.07584         0.006685     -0.023938      0.002704
     10.66267     12.43312     12.15606         0.016287      0.007317     -0.018837
     14.88336      9.52450     10.38405         0.000061      0.009763     -0.000591
     13.84818     12.15573     10.26693        -0.007663     -0.006437      0.006051
     13.88760      8.53419     12.80148         0.000071      0.001124     -0.005959
     12.48360     10.76585     13.81711         0.007045      0.006163      0.008091
     13.32214     13.29498     12.75431         0.010217      0.007681     -0.003594
     15.00802     11.12149     12.64195         0.002986     -0.001290      0.004955
 -----------------------------------------------------------------------------------
    total drift:                               -0.035045     -0.012346      0.070479


--------------------------------------------------------------------------------------------------------



  FREE ENERGIE OF THE ION-ELECTRON SYSTEM (eV)
  ---------------------------------------------------
  free  energy   TOTEN  =       -55.60314344 eV

  energy  without entropy=      -55.60314344  energy(sigma->0) =      -55.60314344
 
 d Force = 0.1667184E-03[-0.204E-03, 0.538E-03]  d Energy = 0.1900511E-03-0.233E-04
 d Force =-0.2359954E+02[-0.236E+02,-0.236E+02]  d Ewald  =-0.2359954E+02-0.186E-05


--------------------------------------------------------------------------------------------------------


    POTLOK:  cpu time    0.30: real time    0.30


--------------------------------------------------------------------------------------------------------




--------------------------------------------------------------------------------------------------------


  
 reached required accuracy - stopping structural energy minimisation
     LOOP+:  cpu time   15.35: real time   15.57
    4ORBIT:  cpu time    0.00: real time    0.00

 total amount of memory used by VASP on root node    66639. kBytes
========================================================================

   base      :      30000. kBytes
   nonl-proj :       2928. kBytes
   fftplans  :       7241. kBytes
   grid      :      18544. kBytes
   one-center:         62. kBytes
   wavefun   :       7864. kBytes
 
  
  
 General timing and accounting informations for this job:
 ========================================================
  
                  Total CPU time used (sec):     1204.863
                            User time (sec):     1197.663
                          System time (sec):        7.200
                         Elapsed time (sec):     1304.610
  
                   Maximum memory used (kb):       83164.
                   Average memory used (kb):           0.
  
                          Minor page faults:      1283471
                          Major page faults:            0
                 Voluntary context switches:         9125
