unknown system                          
           1
    20.868522    0.000000    0.000000
     0.000000   20.868522    0.000000
     0.000000    0.000000   20.868522
   Ag
  27
Direct configuration=     1
   0.32284790  0.49687291  0.40780263
   0.41008353  0.45849447  0.34568990
   0.38016647  0.38802057  0.45330324
   0.31387855  0.47871029  0.52540664
   0.33891518  0.59176045  0.48132697
   0.41421364  0.58764325  0.37461324
   0.50586689  0.39557067  0.39963386
   0.44539836  0.50140359  0.47254181
   0.40198202  0.42591310  0.58601211
   0.51196512  0.51215963  0.34442005
   0.38793221  0.56660597  0.58837741
   0.48087604  0.35971767  0.51836544
   0.45050431  0.64100157  0.49770236
   0.54832248  0.60283531  0.40874658
   0.60969671  0.47955763  0.40782030
   0.59759680  0.38063364  0.49579450
   0.46802434  0.50311334  0.65263234
   0.53297485  0.40354145  0.61949846
   0.56938643  0.65726568  0.51003649
   0.57065589  0.51566814  0.53977630
   0.50807618  0.61739274  0.61642677
   0.69052272  0.45711427  0.49812356
   0.66826709  0.58416269  0.47807791
   0.65083463  0.41935308  0.60921897
   0.58892819  0.52065608  0.67036257
   0.63340678  0.62313578  0.59983109
   0.69734579  0.52863714  0.59605369
Direct configuration=     2
   0.32154680  0.49702496  0.40737350
   0.40979788  0.45760938  0.34457536
   0.37972473  0.38771846  0.45316091
   0.31297695  0.47850414  0.52587990
   0.33820268  0.59261588  0.48096860
   0.41409473  0.58802916  0.37451046
   0.50610246  0.39529992  0.39955365
   0.44575826  0.50147714  0.47279293
   0.40190903  0.42551934  0.58634826
   0.51251016  0.51210475  0.34333488
   0.38774553  0.56675713  0.58876570
   0.48065981  0.35901897  0.51829485
   0.45040577  0.64117440  0.49756582
   0.54842748  0.60307442  0.40849646
   0.60988329  0.47963528  0.40771304
   0.59764749  0.38018953  0.49572216
   0.46799430  0.50317612  0.65338229
   0.53274212  0.40324298  0.61985399
   0.56939064  0.65845975  0.50997173
   0.57029708  0.51556466  0.53954164
   0.50782173  0.61759852  0.61658496
   0.69157000  0.45709457  0.49765761
   0.66855135  0.58415513  0.47778272
   0.65131355  0.41859757  0.60972625
   0.58923561  0.52065371  0.67081854
   0.63374625  0.62411148  0.60078294
   0.69861344  0.52853378  0.59643598
Direct configuration=     3
   0.31764349  0.49748108  0.40608613
   0.40894094  0.45495409  0.34123176
   0.37839950  0.38681214  0.45273393
   0.31027216  0.47788570  0.52729969
   0.33606515  0.59518216  0.47989352
   0.41373798  0.58918688  0.37420214
   0.50680919  0.39448767  0.39931302
   0.44683797  0.50169777  0.47354631
   0.40169006  0.42433805  0.58735673
   0.51414529  0.51194010  0.34007937
   0.38718548  0.56721059  0.58993058
   0.48001110  0.35692289  0.51808310
   0.45011012  0.64169289  0.49715622
   0.54874246  0.60379176  0.40774611
   0.61044304  0.47986824  0.40739126
   0.59779956  0.37885723  0.49550515
   0.46790418  0.50336445  0.65563216
   0.53204391  0.40234756  0.62092059
   0.56940326  0.66204194  0.50977744
   0.56922063  0.51525423  0.53883768
   0.50705840  0.61821586  0.61705952
   0.69471186  0.45703547  0.49625974
   0.66940413  0.58413245  0.47689714
   0.65275031  0.41633105  0.61124812
   0.59015788  0.52064661  0.67218644
   0.63476466  0.62703859  0.60363847
   0.70241641  0.52822369  0.59758284
Direct configuration=     4
   0.30983687  0.49839332  0.40351137
   0.40722705  0.44964352  0.33454456
   0.37574905  0.38499950  0.45187995
   0.30486257  0.47664882  0.53013928
   0.33179011  0.60031472  0.47774334
   0.41302449  0.59150234  0.37358551
   0.50822265  0.39286317  0.39883177
   0.44899737  0.50213902  0.47505307
   0.40125212  0.42197546  0.58937367
   0.51741555  0.51161080  0.33356835
   0.38606540  0.56811753  0.59226034
   0.47871369  0.35273072  0.51765958
   0.44951884  0.64272988  0.49633702
   0.54937243  0.60522643  0.40624541
   0.61156254  0.48033414  0.40674770
   0.59810370  0.37619262  0.49507114
   0.46772392  0.50374112  0.66013189
   0.53064749  0.40055672  0.62305377
   0.56942851  0.66920632  0.50938887
   0.56706775  0.51463338  0.53742977
   0.50553172  0.61945053  0.61800864
   0.70099557  0.45691727  0.49346400
   0.67110969  0.58408708  0.47512599
   0.65562382  0.41179801  0.61429185
   0.59200240  0.52063239  0.67492225
   0.63680147  0.63289280  0.60934953
   0.71002235  0.52760352  0.59987657
Direct configuration=     5
   0.30740319  0.49867771  0.40270870
   0.40669276  0.44798798  0.33245986
   0.37492279  0.38443441  0.45161373
   0.30317616  0.47626323  0.53102450
   0.33045738  0.60191477  0.47707303
   0.41280206  0.59222417  0.37339327
   0.50866329  0.39235674  0.39868174
   0.44967056  0.50227658  0.47552279
   0.40111559  0.42123894  0.59000244
   0.51843504  0.51150814  0.33153857
   0.38571622  0.56840026  0.59298663
   0.47830923  0.35142383  0.51752756
   0.44933451  0.64305315  0.49608163
   0.54956882  0.60567368  0.40577758
   0.61191154  0.48047939  0.40654707
   0.59819851  0.37536194  0.49493584
   0.46766773  0.50385854  0.66153466
   0.53021216  0.39999843  0.62371878
   0.56943638  0.67143978  0.50926773
   0.56639660  0.51443983  0.53699086
   0.50505579  0.61983543  0.61830452
   0.70295449  0.45688043  0.49259244
   0.67164139  0.58407294  0.47457384
   0.65651963  0.41038485  0.61524072
   0.59257743  0.52062796  0.67577513
   0.63743644  0.63471782  0.61112993
   0.71239346  0.52741018  0.60059162
Direct configuration=     6
   0.30618866  0.49881963  0.40230813
   0.40642612  0.44716178  0.33141949
   0.37451044  0.38415241  0.45148088
   0.30233455  0.47607080  0.53146627
   0.32979229  0.60271327  0.47673852
   0.41269105  0.59258440  0.37329734
   0.50888319  0.39210401  0.39860687
   0.45000651  0.50234523  0.47575721
   0.40104746  0.42087138  0.59031623
   0.51894381  0.51145691  0.33052561
   0.38554196  0.56854136  0.59334908
   0.47810739  0.35077163  0.51746167
   0.44924252  0.64321449  0.49595419
   0.54966683  0.60589688  0.40554410
   0.61208571  0.48055187  0.40644695
   0.59824583  0.37494739  0.49486831
   0.46763969  0.50391714  0.66223471
   0.52999491  0.39971982  0.62405066
   0.56944030  0.67255439  0.50920728
   0.56606166  0.51434324  0.53677182
   0.50481827  0.62002752  0.61845218
   0.70393209  0.45686204  0.49215749
   0.67190674  0.58406588  0.47429829
   0.65696668  0.40967962  0.61571425
   0.59286439  0.52062575  0.67620075
   0.63775332  0.63562860  0.61201843
   0.71357677  0.52731370  0.60094847
Direct configuration=     7
   0.30629641  0.49863244  0.40189688
   0.40578795  0.44722951  0.33140091
   0.37379437  0.38492596  0.45107718
   0.30182388  0.47651046  0.53123761
   0.32888998  0.60261898  0.47655797
   0.41264084  0.59194144  0.37336007
   0.50869662  0.39252241  0.39827604
   0.44972788  0.50226356  0.47559629
   0.40067195  0.42092080  0.59050654
   0.51809975  0.51095228  0.32887645
   0.38463048  0.56842748  0.59268436
   0.47761038  0.34952603  0.51746590
   0.44902944  0.64296794  0.49572225
   0.54961344  0.60580525  0.40574053
   0.61235623  0.48066799  0.40682792
   0.59928013  0.37523015  0.49534201
   0.46749294  0.50384084  0.66352161
   0.53028157  0.39945024  0.62417829
   0.57051522  0.67378930  0.50999815
   0.56633993  0.51437804  0.53694156
   0.50521627  0.62018756  0.61816410
   0.70469920  0.45664352  0.49258702
   0.67166632  0.58408419  0.47490194
   0.65760242  0.40965194  0.61554905
   0.59393738  0.52065818  0.67580386
   0.63838435  0.63541394  0.61226213
   0.71358380  0.52770071  0.60111855
Direct configuration=     8
   0.30661965  0.49807086  0.40066313
   0.40387344  0.44743272  0.33134519
   0.37164618  0.38724660  0.44986608
   0.30029186  0.47782943  0.53055162
   0.32618306  0.60233611  0.47601634
   0.41249020  0.59001255  0.37354825
   0.50813693  0.39377759  0.39728358
   0.44889198  0.50201855  0.47511351
   0.39954543  0.42106908  0.59107748
   0.51556755  0.50943838  0.32392897
   0.38189605  0.56808587  0.59069019
   0.47611938  0.34578925  0.51747858
   0.44839021  0.64222830  0.49502643
   0.54945326  0.60553034  0.40632982
   0.61316778  0.48101635  0.40797083
   0.60238305  0.37607842  0.49676309
   0.46705270  0.50361195  0.66738229
   0.53114154  0.39864148  0.62456118
   0.57373995  0.67749406  0.51237079
   0.56717473  0.51448242  0.53745077
   0.50641026  0.62066767  0.61729988
   0.70700052  0.45598795  0.49387563
   0.67094505  0.58413912  0.47671289
   0.65950963  0.40956888  0.61505347
   0.59715636  0.52075546  0.67461318
   0.64027747  0.63476998  0.61299322
   0.71360489  0.52886174  0.60162880
Direct configuration=     9
   0.30674651  0.49785047  0.40017894
   0.40312208  0.44751246  0.33132332
   0.37080311  0.38815735  0.44939077
   0.29969062  0.47834707  0.53028240
   0.32512072  0.60222509  0.47580377
   0.41243108  0.58925554  0.37362210
   0.50791728  0.39427020  0.39689408
   0.44856392  0.50192240  0.47492405
   0.39910332  0.42112728  0.59130155
   0.51457378  0.50884425  0.32198731
   0.38082291  0.56795181  0.58990757
   0.47553423  0.34432273  0.51748356
   0.44813934  0.64193803  0.49475336
   0.54939039  0.60542245  0.40656108
   0.61348628  0.48115306  0.40841937
   0.60360081  0.37641133  0.49732080
   0.46687993  0.50352212  0.66889743
   0.53147904  0.39832408  0.62471144
   0.57500552  0.67894801  0.51330195
   0.56750235  0.51452338  0.53765062
   0.50687884  0.62085609  0.61696071
   0.70790369  0.45573068  0.49438134
   0.67066199  0.58416068  0.47742361
   0.66025813  0.40953629  0.61485898
   0.59841966  0.52079364  0.67414589
   0.64102043  0.63451725  0.61328013
   0.71361317  0.52931739  0.60182905
Direct configuration=    10
   0.30681673  0.49794502  0.39984964
   0.40232860  0.44773412  0.33129886
   0.37054962  0.38914036  0.44959210
   0.29920284  0.47881949  0.52974826
   0.32416986  0.60202730  0.47524630
   0.41235135  0.58790575  0.37375279
   0.50781633  0.39507881  0.39758425
   0.44827597  0.50169309  0.47488447
   0.39927628  0.42167515  0.59111545
   0.51490449  0.50891908  0.32143831
   0.38124398  0.56707029  0.58974572
   0.47562036  0.34373214  0.51708750
   0.44912266  0.64157260  0.49465580
   0.54897555  0.60443169  0.40740595
   0.61247157  0.48168492  0.40818524
   0.60289561  0.37673761  0.49798866
   0.46680282  0.50396890  0.66943701
   0.53157117  0.39852213  0.62413999
   0.57499558  0.67968355  0.51324491
   0.56767857  0.51446303  0.53794327
   0.50700062  0.62001449  0.61624068
   0.70896851  0.45588537  0.49504492
   0.67015996  0.58415431  0.47868674
   0.66108667  0.40978524  0.61469733
   0.59887121  0.52046547  0.67337847
   0.64174711  0.63431392  0.61341727
   0.71376509  0.52951727  0.60178527
Direct configuration=    11
   0.30701610  0.49821347  0.39891469
   0.40007577  0.44836346  0.33122941
   0.36982990  0.39193132  0.45016370
   0.29781796  0.48016078  0.52823172
   0.32147019  0.60146573  0.47366355
   0.41212498  0.58407341  0.37412384
   0.50752971  0.39737463  0.39954379
   0.44745843  0.50104203  0.47477208
   0.39976735  0.42323068  0.59058711
   0.51584344  0.50913155  0.31987960
   0.38243948  0.56456749  0.58928622
   0.47586493  0.34205535  0.51596301
   0.45191451  0.64053507  0.49437881
   0.54779771  0.60161874  0.40980469
   0.60959061  0.48319497  0.40752049
   0.60089341  0.37766398  0.49988487
   0.46658388  0.50523740  0.67096898
   0.53183276  0.39908444  0.62251752
   0.57496736  0.68177191  0.51308297
   0.56817887  0.51429167  0.53877418
   0.50734636  0.61762504  0.61419637
   0.71199175  0.45632457  0.49692896
   0.66873462  0.58413622  0.48227303
   0.66343908  0.41049207  0.61423837
   0.60015323  0.51953373  0.67119962
   0.64381030  0.63373664  0.61380661
   0.71419645  0.53008477  0.60166098
Direct configuration=    12
   0.30565592  0.49871485  0.39830459
   0.40055420  0.44860128  0.33036719
   0.36989489  0.39268606  0.45116108
   0.29709778  0.48050300  0.52781377
   0.32136623  0.60200666  0.47346155
   0.41206795  0.58209345  0.37419585
   0.50682659  0.39874838  0.40062844
   0.44738740  0.50083523  0.47534764
   0.40039924  0.42420327  0.58963329
   0.51582250  0.50910807  0.31905581
   0.38331472  0.56325065  0.58830818
   0.47523749  0.34149436  0.51554180
   0.45181388  0.63946184  0.49404789
   0.54712526  0.60002718  0.41146304
   0.60944473  0.48360684  0.40852098
   0.60008193  0.37907563  0.50077927
   0.46699754  0.50541205  0.67177706
   0.53201849  0.40009834  0.62128821
   0.57515751  0.68256262  0.51316392
   0.56796261  0.51372180  0.53891021
   0.50811026  0.61620885  0.61307147
   0.71241017  0.45637170  0.49652597
   0.66800416  0.58415111  0.48407893
   0.66432522  0.41045764  0.61425315
   0.60006929  0.51867071  0.67043721
   0.64388477  0.63459565  0.61352205
   0.71563841  0.53027391  0.60193661
Direct configuration=    13
   0.30356209  0.49948667  0.39736542
   0.40129069  0.44896737  0.32903992
   0.36999494  0.39384790  0.45269645
   0.29598914  0.48102979  0.52717037
   0.32120618  0.60283937  0.47315061
   0.41198015  0.57904555  0.37430670
   0.50574423  0.40086310  0.40229813
   0.44727805  0.50051689  0.47623366
   0.40137197  0.42570046  0.58816501
   0.51579026  0.50907192  0.31778769
   0.38466206  0.56122353  0.58680262
   0.47427163  0.34063077  0.51489338
   0.45165897  0.63780974  0.49353849
   0.54609010  0.59757718  0.41401586
   0.60922015  0.48424085  0.41006111
   0.59883277  0.38124869  0.50215608
   0.46763430  0.50568091  0.67302099
   0.53230441  0.40165912  0.61939583
   0.57545024  0.68377983  0.51328852
   0.56762969  0.51284455  0.53911961
   0.50928618  0.61402880  0.61133982
   0.71305428  0.45644425  0.49590561
   0.66687970  0.58417402  0.48685889
   0.66568932  0.41040464  0.61427592
   0.59994007  0.51734220  0.66926358
   0.64399940  0.63591799  0.61308400
   0.71785815  0.53056506  0.60236091
Direct configuration=    14
   0.30287482  0.49907933  0.39644604
   0.40100538  0.44887521  0.32914243
   0.36955304  0.39386114  0.45240531
   0.29559819  0.48093607  0.52733309
   0.32224071  0.60339379  0.47344213
   0.41175538  0.57896104  0.37395423
   0.50516576  0.40159100  0.40223323
   0.44767077  0.50070974  0.47717265
   0.40177364  0.42584095  0.58759724
   0.51652834  0.50905867  0.31786118
   0.38487202  0.56128469  0.58612026
   0.47382871  0.34014460  0.51540459
   0.45011712  0.63813365  0.49371422
   0.54598570  0.59708265  0.41470826
   0.61061951  0.48341275  0.41055634
   0.59903391  0.38196661  0.50183718
   0.46760508  0.50501713  0.67361446
   0.53224367  0.40233954  0.61911117
   0.57481717  0.68391705  0.51300600
   0.56701704  0.51211704  0.53878483
   0.51013875  0.61392717  0.61086833
   0.71219787  0.45658496  0.49511398
   0.66714299  0.58440042  0.48719768
   0.66589770  0.41014037  0.61451323
   0.60041630  0.51723805  0.66935747
   0.64404138  0.63587733  0.61321743
   0.71852816  0.53105016  0.60288223
Direct configuration=    15
   0.30233941  0.49876200  0.39572981
   0.40078310  0.44880341  0.32922229
   0.36920879  0.39387146  0.45217850
   0.29529363  0.48086306  0.52745985
   0.32304666  0.60382571  0.47366923
   0.41158027  0.57889520  0.37367964
   0.50471511  0.40215807  0.40218267
   0.44797670  0.50085997  0.47790417
   0.40208657  0.42595039  0.58715492
   0.51710334  0.50904835  0.31791843
   0.38503559  0.56133234  0.58558867
   0.47348366  0.33976586  0.51580284
   0.44891596  0.63838600  0.49385112
   0.54590436  0.59669738  0.41524767
   0.61170967  0.48276762  0.41094215
   0.59919061  0.38252590  0.50158874
   0.46758232  0.50450003  0.67407680
   0.53219635  0.40286962  0.61888940
   0.57432398  0.68402395  0.51278590
   0.56653976  0.51155028  0.53852403
   0.51080294  0.61384800  0.61050101
   0.71153069  0.45669458  0.49449727
   0.66734811  0.58457679  0.48746161
   0.66606003  0.40993449  0.61469811
   0.60078730  0.51715691  0.66943061
   0.64407409  0.63584565  0.61332138
   0.71905012  0.53142808  0.60328835
Direct configuration=    16
   0.30159114  0.49898568  0.39565596
   0.40079849  0.44885392  0.32924347
   0.36884908  0.39400585  0.45173755
   0.29501757  0.48090119  0.52721068
   0.32327993  0.60335188  0.47320407
   0.41140131  0.57869852  0.37339487
   0.50421385  0.40284627  0.40253195
   0.44803560  0.50114417  0.47842615
   0.40217819  0.42612906  0.58665879
   0.51802508  0.50887507  0.31856963
   0.38545852  0.56135312  0.58584564
   0.47346385  0.33938097  0.51599546
   0.44846302  0.63966187  0.49392095
   0.54560350  0.59569402  0.41629658
   0.61256950  0.48235934  0.41012074
   0.59881018  0.38231092  0.50124636
   0.46741500  0.50433396  0.67438000
   0.53236723  0.40324493  0.61867507
   0.57334382  0.68392522  0.51254264
   0.56634288  0.51113990  0.53825939
   0.51127867  0.61333443  0.61007864
   0.71121340  0.45724591  0.49476252
   0.66751635  0.58484487  0.48786799
   0.66636499  0.40997730  0.61478644
   0.60130920  0.51717158  0.66942239
   0.64406764  0.63591805  0.61335467
   0.71969113  0.53125313  0.60340658
Direct configuration=    17
   0.30044885  0.49932714  0.39554323
   0.40082199  0.44893101  0.32927579
   0.36829997  0.39421100  0.45106440
   0.29459615  0.48095940  0.52683030
   0.32363603  0.60262853  0.47249397
   0.41112811  0.57839829  0.37296014
   0.50344865  0.40389685  0.40306515
   0.44812551  0.50157801  0.47922301
   0.40231807  0.42640181  0.58590141
   0.51943218  0.50861054  0.31956374
   0.38610415  0.56138485  0.58623792
   0.47343359  0.33879340  0.51628949
   0.44777157  0.64160958  0.49402756
   0.54514422  0.59416230  0.41789780
   0.61388208  0.48173608  0.40886681
   0.59822943  0.38198275  0.50072371
   0.46715957  0.50408046  0.67484287
   0.53262808  0.40381787  0.61834786
   0.57184754  0.68377449  0.51217128
   0.56604231  0.51051341  0.53785539
   0.51200491  0.61255042  0.60943387
   0.71072905  0.45808755  0.49516745
   0.66777318  0.58525411  0.48848837
   0.66683054  0.41004266  0.61492127
   0.60210593  0.51719399  0.66940984
   0.64405779  0.63602857  0.61340549
   0.72066969  0.53098605  0.60358705
Direct configuration=    18
   0.29997985  0.49928848  0.39504360
   0.40077481  0.44968166  0.32920300
   0.36846685  0.39458303  0.45087363
   0.29471023  0.48115088  0.52663818
   0.32359529  0.60186481  0.47213842
   0.41134595  0.57789640  0.37293828
   0.50315437  0.40425018  0.40425187
   0.44706873  0.50262456  0.47912907
   0.40215069  0.42653562  0.58547702
   0.51965025  0.50832025  0.31981360
   0.38616211  0.56168321  0.58659199
   0.47315677  0.33854814  0.51599073
   0.44711761  0.64299372  0.49375749
   0.54437048  0.59245258  0.41970823
   0.61500151  0.48144952  0.40766840
   0.59808931  0.38142330  0.50051590
   0.46743576  0.50423482  0.67504325
   0.53295263  0.40384567  0.61826155
   0.57173187  0.68394155  0.51249094
   0.56721086  0.51015827  0.53732431
   0.51180048  0.61138989  0.60922437
   0.71067815  0.45843806  0.49596949
   0.66741556  0.58552455  0.48893246
   0.66686500  0.41008747  0.61460498
   0.60223504  0.51725889  0.66900693
   0.64431998  0.63603915  0.61305420
   0.72122898  0.53127648  0.60394330
Direct configuration=    19
   0.29942620  0.49924284  0.39445379
   0.40071911  0.45056778  0.32911709
   0.36866385  0.39502219  0.45064843
   0.29484490  0.48137691  0.52641139
   0.32354720  0.60096324  0.47171870
   0.41160312  0.57730393  0.37291246
   0.50280698  0.40466728  0.40565277
   0.44582123  0.50385998  0.47901818
   0.40195311  0.42669358  0.58497603
   0.51990768  0.50797756  0.32010855
   0.38623053  0.56203541  0.58700996
   0.47282999  0.33825862  0.51563804
   0.44634563  0.64462766  0.49343869
   0.54345708  0.59043430  0.42184539
   0.61632297  0.48111125  0.40625371
   0.59792391  0.38076288  0.50027059
   0.46776180  0.50441704  0.67527980
   0.53333575  0.40387848  0.61815966
   0.57159534  0.68413876  0.51286828
   0.56859030  0.50973904  0.53669737
   0.51155916  0.61001991  0.60897706
   0.71061807  0.45885182  0.49691628
   0.66699340  0.58584381  0.48945670
   0.66690567  0.41014037  0.61423160
   0.60238745  0.51733550  0.66853129
   0.64462948  0.63605165  0.61263952
   0.72188921  0.53161933  0.60436384
Direct configuration=    20
   0.29901139  0.49866211  0.39354001
   0.40090483  0.45100981  0.32877631
   0.36896222  0.39539783  0.45067444
   0.29511405  0.48148288  0.52636335
   0.32359989  0.60078031  0.47183545
   0.41188170  0.57770206  0.37257102
   0.50304351  0.40565560  0.40628498
   0.44464423  0.50523607  0.47970945
   0.40234990  0.42687494  0.58516637
   0.51963988  0.50760415  0.31973275
   0.38552539  0.56265095  0.58733492
   0.47237109  0.33796550  0.51597592
   0.44557457  0.64572606  0.49342046
   0.54262786  0.58862111  0.42407719
   0.61773081  0.48048472  0.40583441
   0.59855571  0.38029747  0.50014492
   0.46786277  0.50382247  0.67534661
   0.53295424  0.40361557  0.61789801
   0.57169677  0.68442580  0.51351097
   0.56963573  0.50841291  0.53572125
   0.51150479  0.60933980  0.60783795
   0.71034990  0.45894656  0.49716568
   0.66705737  0.58613936  0.48904416
   0.66676849  0.41016080  0.61392292
   0.60229611  0.51739152  0.66802160
   0.64464898  0.63623209  0.61248173
   0.72235692  0.53230265  0.60520235
Direct configuration=    21
   0.29871613  0.49824875  0.39288959
   0.40103702  0.45132444  0.32853375
   0.36917459  0.39566520  0.45069295
   0.29530562  0.48155830  0.52632916
   0.32363740  0.60065010  0.47191855
   0.41208000  0.57798545  0.37232798
   0.50321187  0.40635907  0.40673499
   0.44380646  0.50621556  0.48020148
   0.40263234  0.42700404  0.58530185
   0.51944927  0.50733836  0.31946526
   0.38502347  0.56308909  0.58756621
   0.47204446  0.33775686  0.51621641
   0.44502575  0.64650789  0.49340749
   0.54203762  0.58733051  0.42566577
   0.61873290  0.48003877  0.40553595
   0.59900542  0.37996619  0.50005547
   0.46793463  0.50339927  0.67539416
   0.53268269  0.40342842  0.61771176
   0.57176897  0.68463012  0.51396843
   0.57037986  0.50746899  0.53502646
   0.51146608  0.60885571  0.60702714
   0.71015902  0.45901400  0.49734320
   0.66710291  0.58634974  0.48875052
   0.66667085  0.41017534  0.61370321
   0.60223111  0.51743140  0.66765881
   0.64466285  0.63636052  0.61236941
   0.72268983  0.53278902  0.60579919
Direct configuration=    22
   0.29874053  0.49806543  0.39263727
   0.40126448  0.45102180  0.32806770
   0.36966274  0.39608608  0.45077119
   0.29568929  0.48143490  0.52609344
   0.32342697  0.60044568  0.47143509
   0.41190994  0.57913582  0.37195602
   0.50371077  0.40805755  0.40747159
   0.44255528  0.50712519  0.48178327
   0.40284667  0.42744453  0.58581923
   0.52010391  0.50751159  0.31930979
   0.38393627  0.56387885  0.58873157
   0.47214182  0.33764702  0.51648742
   0.44470279  0.64769415  0.49369375
   0.54155776  0.58544357  0.42733267
   0.61907520  0.47966146  0.40468120
   0.59943112  0.37867117  0.49986921
   0.46772304  0.50299480  0.67512771
   0.53245699  0.40277579  0.61732778
   0.57150942  0.68513215  0.51393658
   0.57080259  0.50518928  0.53452290
   0.51152301  0.60787884  0.60514331
   0.71057862  0.45952092  0.49785092
   0.66780071  0.58651488  0.48810414
   0.66644210  0.41049635  0.61379446
   0.60184084  0.51744190  0.66694072
   0.64445765  0.63663120  0.61257821
   0.72277858  0.53304022  0.60612805
Direct configuration=    23
   0.29876027  0.49791722  0.39243328
   0.40144838  0.45077713  0.32769092
   0.37005739  0.39642634  0.45083445
   0.29599947  0.48133513  0.52590286
   0.32325685  0.60028041  0.47104424
   0.41177246  0.58006586  0.37165532
   0.50411410  0.40943070  0.40806710
   0.44154375  0.50786059  0.48306207
   0.40301995  0.42780064  0.58623751
   0.52063317  0.50765163  0.31918410
   0.38305732  0.56451734  0.58967370
   0.47222053  0.33755822  0.51670651
   0.44444170  0.64865319  0.49392518
   0.54116980  0.58391807  0.42868029
   0.61935193  0.47935642  0.40399017
   0.59977529  0.37762420  0.49971862
   0.46755197  0.50266780  0.67491230
   0.53227453  0.40224815  0.61701734
   0.57129958  0.68553803  0.51391083
   0.57114435  0.50334622  0.53411579
   0.51156903  0.60708909  0.60362032
   0.71091785  0.45993075  0.49826138
   0.66836485  0.58664840  0.48758156
   0.66625717  0.41075587  0.61386823
   0.60152533  0.51745039  0.66636017
   0.64429176  0.63685003  0.61274701
   0.72285033  0.53324331  0.60639391
Direct configuration=    24
   0.29937355  0.49793512  0.39238134
   0.40191087  0.45076490  0.32759006
   0.37071403  0.39657314  0.45077400
   0.29630291  0.48120697  0.52573402
   0.32331113  0.60033855  0.47059550
   0.41173237  0.58031743  0.37176826
   0.50406944  0.41099500  0.40921355
   0.44039502  0.50882471  0.48437086
   0.40261550  0.42779457  0.58650852
   0.52102744  0.50838434  0.31897033
   0.38192599  0.56541894  0.59094458
   0.47237507  0.33771954  0.51637871
   0.44396032  0.64941405  0.49382448
   0.54071223  0.58309752  0.42967234
   0.62012280  0.47912364  0.40373055
   0.60049034  0.37602925  0.49939497
   0.46754436  0.50290281  0.67468386
   0.53247463  0.40147157  0.61723719
   0.57130503  0.68588214  0.51319549
   0.57153778  0.50136420  0.53379891
   0.51169373  0.60556302  0.60199819
   0.71112003  0.46033641  0.49822761
   0.66842216  0.58648875  0.48771817
   0.66603475  0.41104682  0.61405930
   0.60096765  0.51755196  0.66580996
   0.64397035  0.63692710  0.61264680
   0.72255962  0.53346866  0.60636764
Direct configuration=    25
   0.30121339  0.49798883  0.39222554
   0.40329836  0.45072824  0.32728746
   0.37268396  0.39701353  0.45059263
   0.29721321  0.48082249  0.52522750
   0.32347396  0.60051297  0.46924926
   0.41161211  0.58107215  0.37210711
   0.50393547  0.41568788  0.41265291
   0.43694884  0.51171708  0.48829723
   0.40140212  0.42777638  0.58732154
   0.52221027  0.51058246  0.31832903
   0.37853201  0.56812373  0.59475721
   0.47283868  0.33820351  0.51539530
   0.44251618  0.65169662  0.49352235
   0.53933951  0.58063587  0.43264847
   0.62243541  0.47842531  0.40295168
   0.60263551  0.37124440  0.49842401
   0.46752153  0.50360784  0.67399854
   0.53307491  0.39914181  0.61789672
   0.57132139  0.68691447  0.51104947
   0.57271807  0.49541814  0.53284827
   0.51206783  0.60098481  0.59713178
   0.71172659  0.46155341  0.49812630
   0.66859409  0.58600981  0.48812800
   0.66536749  0.41191968  0.61463253
   0.59929460  0.51785665  0.66415934
   0.64300613  0.63715832  0.61234618
   0.72168750  0.53414471  0.60628881
Direct configuration=    26
   0.30168541  0.49792225  0.39211730
   0.40384284  0.45087238  0.32724743
   0.37297477  0.39707550  0.45047722
   0.29731197  0.48093182  0.52514874
   0.32339239  0.60074765  0.46928246
   0.41186346  0.58087570  0.37218924
   0.50407046  0.41717064  0.41352597
   0.43622540  0.51250742  0.48928435
   0.40128701  0.42753618  0.58759588
   0.52242349  0.51114361  0.31839020
   0.37773281  0.56865872  0.59548335
   0.47301819  0.33837603  0.51530078
   0.44227566  0.65217081  0.49334736
   0.53908217  0.58020056  0.43325306
   0.62286307  0.47844761  0.40280431
   0.60328738  0.37012433  0.49825494
   0.46739168  0.50360760  0.67382227
   0.53295928  0.39858099  0.61821807
   0.57134895  0.68689381  0.51055611
   0.57293247  0.49407186  0.53234777
   0.51212849  0.60003557  0.59551531
   0.71187983  0.46144467  0.49806395
   0.66818396  0.58595403  0.48842625
   0.66537354  0.41203694  0.61456672
   0.59906127  0.51794988  0.66399477
   0.64260202  0.63731527  0.61207137
   0.72147117  0.53428929  0.60631002
Direct configuration=    27
   0.30310146  0.49772252  0.39179261
   0.40547628  0.45130479  0.32712733
   0.37384719  0.39726140  0.45013097
   0.29760824  0.48125980  0.52491245
   0.32314770  0.60145171  0.46938206
   0.41261752  0.58028636  0.37243563
   0.50447542  0.42161893  0.41614513
   0.43405508  0.51487842  0.49224572
   0.40094168  0.42681559  0.58841889
   0.52306317  0.51282703  0.31857368
   0.37533520  0.57026368  0.59766178
   0.47355672  0.33889359  0.51501720
   0.44155410  0.65359339  0.49282236
   0.53831016  0.57889462  0.43506681
   0.62414605  0.47851451  0.40236218
   0.60524301  0.36676412  0.49774774
   0.46700211  0.50360686  0.67329347
   0.53261238  0.39689853  0.61918213
   0.57143164  0.68683184  0.50907604
   0.57357568  0.49003302  0.53084626
   0.51231046  0.59718784  0.59066590
   0.71233953  0.46111845  0.49787691
   0.66695357  0.58578668  0.48932099
   0.66539168  0.41238869  0.61436929
   0.59836128  0.51822958  0.66350106
   0.64138968  0.63778610  0.61124693
   0.72082216  0.53472306  0.60637365
Direct configuration=    28
   0.30593357  0.49732305  0.39114321
   0.40874316  0.45216961  0.32688714
   0.37559205  0.39763319  0.44943847
   0.29820077  0.48191576  0.52443988
   0.32265831  0.60285982  0.46958127
   0.41412563  0.57910769  0.37292841
   0.50528535  0.43051550  0.42138344
   0.42971443  0.51962043  0.49816845
   0.40025102  0.42537441  0.59006491
   0.52434252  0.51619389  0.31894064
   0.37053998  0.57347360  0.60201864
   0.47463378  0.33992872  0.51445005
   0.44011098  0.65643855  0.49177238
   0.53676615  0.57628275  0.43869432
   0.62671200  0.47864830  0.40147793
   0.60915426  0.36004371  0.49673335
   0.46622297  0.50360539  0.67223587
   0.53191858  0.39353360  0.62111026
   0.57159702  0.68670790  0.50611589
   0.57486208  0.48195535  0.52784323
   0.51267440  0.59149237  0.58096707
   0.71325895  0.46046602  0.49750284
   0.66449280  0.58545199  0.49111046
   0.66542796  0.41309221  0.61397444
   0.59696129  0.51878897  0.66251365
   0.63896499  0.63872777  0.60959805
   0.71952413  0.53559058  0.60650091
Direct configuration=    29
   0.30370371  0.49763757  0.39165451
   0.40617098  0.45148869  0.32707625
   0.37421824  0.39734046  0.44998371
   0.29773424  0.48139929  0.52481196
   0.32304363  0.60175114  0.46942442
   0.41293822  0.58003572  0.37254042
   0.50464765  0.42351079  0.41725906