unknown system                          
           1
    18.447015    0.000000    0.000000
     0.000000   18.447015    0.000000
     0.000000    0.000000   18.447015
   Ag
  13
Direct configuration=     1
   0.42757007  0.66358624  0.43874287
   0.41413517  0.60840367  0.56872431
   0.38839213  0.53165714  0.68711113
   0.56558090  0.63145279  0.43747712
   0.54847883  0.56075269  0.56012795
   0.69692601  0.57794846  0.41720950
   0.44522384  0.51834686  0.43223025
   0.40464195  0.45721254  0.56201529
   0.51263201  0.46372316  0.65811190
   0.50083257  0.39010312  0.47652272
   0.58466278  0.48383624  0.40220375
   0.59775778  0.37652617  0.58542185
   0.66381997  0.48546503  0.52298569
Direct configuration=     2
   0.42728433  0.66398333  0.43851050
   0.41392991  0.60848670  0.56870329
   0.38816607  0.53162462  0.68733636
   0.56558723  0.63154370  0.43728243
   0.54853526  0.56073876  0.56018334
   0.69715554  0.57799702  0.41702148
   0.44514871  0.51855368  0.43226379
   0.40444668  0.45720957  0.56199516
   0.51274599  0.46359350  0.65839571
   0.50090654  0.38991702  0.47651463
   0.58472421  0.48385964  0.40201735
   0.59791456  0.37614351  0.58551779
   0.66410896  0.48536306  0.52314250
Direct configuration=     3
   0.42642712  0.66517461  0.43781337
   0.41331413  0.60873579  0.56864023
   0.38748789  0.53152706  0.68801205
   0.56560624  0.63181641  0.43669836
   0.54870455  0.56069697  0.56034952
   0.69784413  0.57814270  0.41645741
   0.44492334  0.51917415  0.43236442
   0.40386087  0.45720064  0.56193477
   0.51308795  0.46320453  0.65924712
   0.50112846  0.38935871  0.47649038
   0.58490851  0.48392984  0.40145817
   0.59838491  0.37499554  0.58580560
   0.66497593  0.48505715  0.52361292
Direct configuration=     4
   0.42471269  0.66755716  0.43641912
   0.41208256  0.60923398  0.56851412
   0.38613151  0.53133193  0.68936344
   0.56564424  0.63236184  0.43553023
   0.54904313  0.56061340  0.56068187
   0.69922132  0.57843407  0.41532929
   0.44447259  0.52041509  0.43256566
   0.40268924  0.45718278  0.56181399
   0.51377185  0.46242660  0.66094995
   0.50157231  0.38824210  0.47644188
   0.58527709  0.48407023  0.40033982
   0.59932561  0.37269959  0.58638122
   0.66670986  0.48444534  0.52455375
Direct configuration=     5
   0.42128383  0.67232226  0.43363062
   0.40961942  0.61023036  0.56826190
   0.38341877  0.53094167  0.69206621
   0.56572026  0.63345270  0.43319396
   0.54972029  0.56044624  0.56134656
   0.70197568  0.57901682  0.41307304
   0.44357110  0.52289698  0.43296816
   0.40034599  0.45714706  0.56157242
   0.51513966  0.46087072  0.66435561
   0.50246001  0.38600888  0.47634488
   0.58601426  0.48435102  0.39810310
   0.60120701  0.36810769  0.58753247
   0.67017774  0.48322170  0.52643543
Direct configuration=     6
   0.42187206  0.67150480  0.43410899
   0.41004198  0.61005943  0.56830517
   0.38388415  0.53100862  0.69160254
   0.56570722  0.63326556  0.43359475
   0.54960412  0.56047491  0.56123253
   0.70150316  0.57891685  0.41346010
   0.44372576  0.52247120  0.43289911
   0.40074798  0.45715319  0.56161386
   0.51490501  0.46113763  0.66377137
   0.50230772  0.38639200  0.47636152
   0.58588780  0.48430285  0.39848681
   0.60088425  0.36889544  0.58733497
   0.66958282  0.48343162  0.52611262
Direct configuration=     7
   0.42130789  0.67222487  0.43364384
   0.40957769  0.60994765  0.56766505
   0.38361064  0.53046427  0.69155253
   0.56496604  0.63315914  0.43303520
   0.54957334  0.55996660  0.56108631
   0.70167790  0.57850760  0.41316789
   0.44429547  0.52346272  0.43375435
   0.40109671  0.45763265  0.56205261
   0.51482298  0.46075171  0.66383761
   0.50260627  0.38688256  0.47660371
   0.58621938  0.48477557  0.39897651
   0.60118775  0.36807883  0.58746467
   0.66971197  0.48315993  0.52604406
Direct configuration=     8
   0.41961538  0.67438509  0.43224840
   0.40818483  0.60961233  0.56574469
   0.38279011  0.52883124  0.69140251
   0.56274251  0.63283988  0.43135653
   0.54948100  0.55844164  0.56064763
   0.70220211  0.57727988  0.41229125
   0.44600461  0.52643726  0.43632007
   0.40214288  0.45907102  0.56336885
   0.51457689  0.45959395  0.66403635
   0.50350190  0.38835427  0.47733028
   0.58721413  0.48619372  0.40044563
   0.60209825  0.36562898  0.58785377
   0.67009941  0.48234488  0.52583837
Direct configuration=     9
   0.41623037  0.67870553  0.42945751
   0.40539912  0.60894167  0.56190398
   0.38114906  0.52556517  0.69110247
   0.55829544  0.63220135  0.42799921
   0.54929632  0.55539173  0.55977028
   0.70325054  0.57482442  0.41053797
   0.44942288  0.53238634  0.44145151
   0.40423524  0.46194775  0.56600134
   0.51408471  0.45727842  0.66443383
   0.50529317  0.39129767  0.47878342
   0.58920363  0.48903002  0.40338385
   0.60391925  0.36072928  0.58863197
   0.67087430  0.48071476  0.52542700
Direct configuration=    10
   0.41790564  0.67656731  0.43083875
   0.40677780  0.60927358  0.56380478
   0.38196123  0.52718157  0.69125096
   0.56049633  0.63251736  0.42966078
   0.54938772  0.55690115  0.56020449
   0.70273166  0.57603965  0.41140568
   0.44773115  0.52944209  0.43891192
   0.40319971  0.46052403  0.56469850
   0.51432829  0.45842440  0.66423712
   0.50440665  0.38984096  0.47806424
   0.58821901  0.48762631  0.40192970
   0.60301802  0.36315418  0.58824683
   0.67049080  0.48152152  0.52563059
Direct configuration=    11
   0.41742141  0.67749293  0.43060828
   0.40632086  0.60982650  0.56334293
   0.38180729  0.52708529  0.69131374
   0.55998234  0.63286990  0.42937410
   0.54891196  0.55618104  0.55957544
   0.70281660  0.57566159  0.41154844
   0.44838425  0.52985046  0.43967603
   0.40399473  0.45992717  0.56409116
   0.51514409  0.45758466  0.66384712
   0.50485311  0.39138802  0.47891556
   0.58749739  0.48726455  0.40224518
   0.60311798  0.36323515  0.58815659
   0.67040202  0.48064683  0.52618980
Direct configuration=    12
   0.41702074  0.67825883  0.43041757
   0.40594278  0.61028402  0.56296077
   0.38167991  0.52700562  0.69136568
   0.55955704  0.63316161  0.42913689
   0.54851830  0.55558519  0.55905493
   0.70288687  0.57534876  0.41166656
   0.44892466  0.53018837  0.44030828
   0.40465256  0.45943330  0.56358861
   0.51581912  0.45688983  0.66352441
   0.50522252  0.39266814  0.47961998
   0.58690028  0.48696522  0.40250622
   0.60320069  0.36330215  0.58808192
   0.67032855  0.47992307  0.52665251
Direct configuration=    13
   0.41649726  0.67917668  0.43041079
   0.40523430  0.61091785  0.56282703
   0.38202235  0.52687926  0.69033452
   0.55952762  0.63391486  0.42901034
   0.54770965  0.55479244  0.55812941
   0.70228588  0.57432524  0.41239761
   0.44866140  0.53114629  0.44044883
   0.40489003  0.45921090  0.56390165
   0.51664473  0.45623098  0.66305824
   0.50621000  0.39356173  0.48106812
   0.58698681  0.48698024  0.40243979
   0.60368284  0.36299185  0.58795160
   0.67030114  0.47888578  0.52690641
Direct configuration=    14
   0.41500859  0.68178683  0.43039150
   0.40321953  0.61272035  0.56244671
   0.38299620  0.52651992  0.68740210
   0.55944395  0.63605694  0.42865044
   0.54541002  0.55253804  0.55549742
   0.70057679  0.57141454  0.41447655
   0.44791275  0.53387042  0.44084852
   0.40556535  0.45857845  0.56479188
   0.51899260  0.45435737  0.66173255
   0.50901818  0.39610291  0.48518635
   0.58723288  0.48702296  0.40225088
   0.60505398  0.36210944  0.58758099
   0.67022318  0.47593594  0.52762844
Direct configuration=    15
   0.41534680  0.68119383  0.43039588
   0.40367727  0.61231084  0.56253312
   0.38277495  0.52660156  0.68806832
   0.55946296  0.63557028  0.42873221
   0.54593248  0.55305022  0.55609539
   0.70096508  0.57207583  0.41400423
   0.44808284  0.53325152  0.44075772
   0.40541193  0.45872214  0.56458963
   0.51845919  0.45478304  0.66203373
   0.50838019  0.39552558  0.48425073
   0.58717698  0.48701326  0.40229380
   0.60474247  0.36230992  0.58766519
   0.67024089  0.47660611  0.52746440
Direct configuration=    16
   0.41514177  0.68148679  0.43059606
   0.40310219  0.61262419  0.56249775
   0.38301649  0.52677966  0.68762084
   0.55949410  0.63590847  0.42868132
   0.54558226  0.55271361  0.55566558
   0.70078589  0.57167496  0.41448778
   0.44780910  0.53363037  0.44066813
   0.40534532  0.45874445  0.56459035
   0.51874596  0.45457089  0.66195541
   0.50891647  0.39592159  0.48478158
   0.58706671  0.48699624  0.40224932
   0.60528107  0.36194758  0.58773612
   0.67036668  0.47601531  0.52735411
Direct configuration=    17
   0.41452665  0.68236570  0.43119660
   0.40137695  0.61356425  0.56239166
   0.38374112  0.52731394  0.68627838
   0.55958754  0.63692306  0.42852867
   0.54453163  0.55170378  0.55437615
   0.70024831  0.57047237  0.41593842
   0.44698790  0.53476691  0.44039937
   0.40514551  0.45881140  0.56459254
   0.51960628  0.45393444  0.66172043
   0.51052533  0.39710961  0.48637412
   0.58673592  0.48694520  0.40211586
   0.60689686  0.36086057  0.58794890
   0.67074403  0.47424289  0.52702324
Direct configuration=    18
   0.41329643  0.68412350  0.43239767
   0.39792646  0.61544436  0.56217948
   0.38519037  0.52838250  0.68359347
   0.55977440  0.63895223  0.42822335
   0.54243035  0.54968413  0.55179730
   0.69917315  0.56806718  0.41883969
   0.44534550  0.53703999  0.43986185
   0.40474588  0.45894529  0.56459691
   0.52132692  0.45266154  0.66125047
   0.51374304  0.39948565  0.48955921
   0.58607434  0.48684310  0.40184896
   0.61012845  0.35868656  0.58837448
   0.67149873  0.47069806  0.52636149
Direct configuration=    19
   0.41372646  0.68350905  0.43197783
   0.39913259  0.61478716  0.56225365
   0.38468378  0.52800898  0.68453199
   0.55970908  0.63824293  0.42833007
   0.54316486  0.55039011  0.55269874
   0.69954898  0.56890792  0.41782555
   0.44591960  0.53624543  0.44004974
   0.40488557  0.45889849  0.56459538
   0.52072547  0.45310649  0.66141475
   0.51261828  0.39865510  0.48844585
   0.58630560  0.48687879  0.40194226
   0.60899884  0.35944649  0.58822572
   0.67123492  0.47193716  0.52659281
Direct configuration=    20
   0.41378245  0.68370786  0.43262263
   0.39774231  0.61517393  0.56217894
   0.38539012  0.52899197  0.68445789
   0.55971755  0.63858699  0.42813166
   0.54285610  0.54989463  0.55210394
   0.69965205  0.56899253  0.41885829
   0.44523824  0.53664449  0.43953852
   0.40459926  0.45902175  0.56368200
   0.52093187  0.45263273  0.66142297
   0.51341184  0.39940909  0.48921874
   0.58535338  0.48698427  0.40160256
   0.61039893  0.35804038  0.58914957
   0.67157992  0.47093347  0.52591663
Direct configuration=    21
   0.41395042  0.68430428  0.43455703
   0.39357148  0.61633424  0.56195481
   0.38750913  0.53194092  0.68423560
   0.55974296  0.63961920  0.42753641
   0.54192983  0.54840820  0.55031953
   0.69996126  0.56924638  0.42195654
   0.44319417  0.53784167  0.43800485
   0.40374035  0.45939154  0.56094185
   0.52155108  0.45121144  0.66144764
   0.51579250  0.40167107  0.49153740
   0.58249674  0.48730072  0.40058347
   0.61459917  0.35382207  0.59192113
   0.67261492  0.46792239  0.52388808
Direct configuration=    22
   0.41480845  0.68443357  0.43500687
   0.39169089  0.61603613  0.56183737
   0.38905760  0.53275961  0.68421751
   0.55965957  0.63940367  0.42718265
   0.54205881  0.54807113  0.55011214
   0.69957320  0.57014248  0.42279971
   0.44249591  0.53799843  0.43716169
   0.40300091  0.46059085  0.56021283
   0.52129016  0.45022053  0.66080187
   0.51713050  0.40147227  0.49334632
   0.58199110  0.48899656  0.39952866
   0.61563681  0.35238640  0.59366199
   0.67226012  0.46650248  0.52301474
Direct configuration=    23
   0.41738254  0.68482143  0.43635639
   0.38604912  0.61514181  0.56148505
   0.39370299  0.53521567  0.68416322
   0.55940937  0.63875707  0.42612138
   0.54244576  0.54705991  0.54948999
   0.69840903  0.57283080  0.42532923
   0.44040114  0.53846869  0.43463221
   0.40078256  0.46418878  0.55802575
   0.52050739  0.44724782  0.65886453
   0.52114449  0.40087585  0.49877305
   0.58047418  0.49408408  0.39636424
   0.61874974  0.34807941  0.59888457
   0.67119572  0.46224278  0.52039472
Direct configuration=    24
   0.41812706  0.68493361  0.43674672
   0.38441731  0.61488314  0.56138314
   0.39504661  0.53592605  0.68414752
   0.55933700  0.63857005  0.42581442
   0.54255768  0.54676743  0.54931004
   0.69807230  0.57360836  0.42606086
   0.43979525  0.53860471  0.43390059
   0.40014093  0.46522944  0.55739317
   0.52028099  0.44638801  0.65830419
   0.52230548  0.40070334  0.50034266
   0.58003543  0.49555558  0.39544898
   0.61965011  0.34683367  0.60039513
   0.67088786  0.46101072  0.51963692
Direct configuration=    25
   0.41972113  0.68531056  0.43738171
   0.38180646  0.61448294  0.55981599
   0.39840667  0.53631742  0.68468018
   0.55893325  0.63934954  0.42534623
   0.54248837  0.54677383  0.54886704
   0.69714198  0.57483040  0.42812324
   0.43970979  0.53830218  0.43327579
   0.40005385  0.46673758  0.55647730
   0.51894143  0.44431725  0.65633148
   0.52501682  0.40206253  0.50296151
   0.57870189  0.49622761  0.39513224
   0.62093635  0.34603386  0.60268445
   0.66879601  0.45826839  0.51780717
Direct configuration=    26
   0.42066152  0.68553293  0.43775632
   0.38026625  0.61424686  0.55889149
   0.40038885  0.53654830  0.68499442
   0.55869507  0.63980938  0.42507002
   0.54244748  0.54677761  0.54860571
   0.69659315  0.57555132  0.42933989
   0.43965937  0.53812370  0.43290721
   0.40000248  0.46762728  0.55593700
   0.51815119  0.44309565  0.65516773
   0.52661632  0.40286435  0.50450643
   0.57791520  0.49662406  0.39494539
   0.62169515  0.34556204  0.60403498
   0.66756198  0.45665062  0.51672776
Direct configuration=    27
   0.42062938  0.68600718  0.43802911
   0.37895968  0.61418178  0.55810181
   0.40267155  0.53632449  0.68456905
   0.55912659  0.64088347  0.42486046
   0.54226051  0.54837901  0.54839622
   0.69536111  0.57516297  0.43078915
   0.44022438  0.53821425  0.43297177
   0.40085235  0.46705048  0.55636258
   0.51698273  0.44201561  0.65452155
   0.52631769  0.40342183  0.50415332
   0.57790525  0.49511985  0.39565982
   0.62210471  0.34600230  0.60488193
   0.66725808  0.45625090  0.51558756
Direct configuration=    28
   0.42056960  0.68688917  0.43853646
   0.37652978  0.61406074  0.55663319
   0.40691686  0.53590824  0.68377795
   0.55992913  0.64288104  0.42447073
   0.54191279  0.55135724  0.54800661
   0.69306978  0.57444074  0.43348444
   0.44127517  0.53838264  0.43309185
   0.40243292  0.46597775  0.55715405
   0.51480967  0.44000698  0.65331978
   0.52576230  0.40445863  0.50349663
   0.57788674  0.49232234  0.39698851
   0.62286640  0.34682109  0.60645707
   0.66669289  0.45550751  0.51346706
Direct configuration=    29
   0.42059778  0.68647330  0.43829724
   0.37767549  0.61411781  0.55732565
   0.40491518  0.53610450  0.68415096
   0.55955073  0.64193918  0.42465449
   0.54207674  0.54995299  0.54819031
   0.69415015  0.57478128  0.43221360
   0.44077972  0.53830325  0.43303523
   0.40168767  0.46648355  0.55678087
   0.51583428  0.44095406  0.65388642
   0.52602417  0.40396978  0.50380627
   0.57789547  0.49364138  0.39636203
   0.62250726  0.34643503  0.60571439
   0.66695938  0.45585802  0.51446689
Direct configuration=    30
   0.42039528  0.68674779  0.43832162
   0.37688754  0.61319189  0.55737920
   0.40592671  0.53692233  0.68357581
   0.55970947  0.64190600  0.42413844
   0.54196507  0.55169687  0.54836190
   0.69344809  0.57479678  0.43279660
   0.44135243  0.53890092  0.43343270
   0.40168036  0.46594901  0.55655491
   0.51639478  0.43978685  0.65362002
   0.52525912  0.40323872  0.50332048
   0.57799850  0.49304855  0.39643587
   0.62218792  0.34780308  0.60577839
   0.66744875  0.45502533  0.51516838
Direct configuration=    31
   0.42032000  0.68684983  0.43833068
   0.37659462  0.61284767  0.55739911
   0.40630276  0.53722636  0.68336200
   0.55976848  0.64189367  0.42394659
   0.54192355  0.55234517  0.54842569
   0.69318709  0.57480254  0.43301334
   0.44156535  0.53912310  0.43358046
   0.40167764  0.46575029  0.55647091
   0.51660316  0.43935293  0.65352098
   0.52497470  0.40296694  0.50313989
   0.57803680  0.49282816  0.39646333
   0.62206920  0.34831166  0.60580218
   0.66763068  0.45471578  0.51542916
Direct configuration=    32
   0.42016182  0.68679866  0.43867072
   0.37616778  0.61239097  0.55705736
   0.40711327  0.53788767  0.68278847
   0.55940584  0.64167150  0.42310100
   0.54186466  0.55262428  0.54901754
   0.69304590  0.57467458  0.43337600
   0.44186872  0.53957735  0.43397785
   0.40153785  0.46519309  0.55640131
   0.51647813  0.43967157  0.65330168
   0.52476482  0.40286647  0.50274578
   0.57831777  0.49243566  0.39676057
   0.62215133  0.34834548  0.60592410
   0.66777613  0.45487683  0.51576196
Direct configuration=    33
   0.41968729  0.68664514  0.43969084
   0.37488726  0.61102090  0.55603212
   0.40954481  0.53987159  0.68106787
   0.55831792  0.64100502  0.42056421
   0.54168798  0.55346160  0.55079310
   0.69262232  0.57429069  0.43446399
   0.44277883  0.54094010  0.43517000
   0.40111849  0.46352151  0.55619252
   0.51610306  0.44062749  0.65264377
   0.52413516  0.40256505  0.50156343
   0.57916069  0.49125814  0.39765231
   0.62239770  0.34844691  0.60628983
   0.66821250  0.45535998  0.51676036
Direct configuration=    34
   0.41960259  0.68739589  0.43968009
   0.37430920  0.61117798  0.55592180
   0.40988552  0.54008822  0.68110653
   0.55874787  0.64085221  0.42006190
   0.54169665  0.55312434  0.55085216
   0.69288284  0.57486816  0.43413807
   0.44277161  0.53980989  0.43509343
   0.40062663  0.46341770  0.55604880
   0.51688032  0.44032353  0.65248753
   0.52469562  0.40261626  0.50247105
   0.57903193  0.49156979  0.39770507
   0.62191244  0.34848244  0.60620273
   0.66761079  0.45528771  0.51711519
Direct configuration=    35
   0.41955935  0.68777921  0.43967460
   0.37401405  0.61125818  0.55586547
   0.41005948  0.54019882  0.68112627
   0.55896739  0.64077419  0.41980543
   0.54170108  0.55295214  0.55088232
   0.69301586  0.57516302  0.43397166
   0.44276792  0.53923282  0.43505433
   0.40037549  0.46336470  0.55597541
   0.51727719  0.44016833  0.65240776
   0.52498178  0.40264241  0.50293447
   0.57896619  0.49172891  0.39773201
   0.62166467  0.34850058  0.60615825
   0.66730356  0.45525081  0.51729636
Direct configuration=    36
   0.42006031  0.68726063  0.43987086
   0.37375088  0.61119449  0.55547721
   0.41089842  0.54009083  0.68056525
   0.55838440  0.64079146  0.41958456
   0.54150408  0.55297736  0.55083988
   0.69314317  0.57509275  0.43390604
   0.44255101  0.53962815  0.43512332
   0.40024033  0.46320973  0.55636610
   0.51684768  0.44065908  0.65271313
   0.52465842  0.40274750  0.50290128
   0.57925822  0.49177768  0.39805695
   0.62198910  0.34756879  0.60642026
   0.66736797  0.45601565  0.51705951
Direct configuration=    37
   0.42006286  0.68725800  0.43987185
   0.37374954  0.61119416  0.55547524
   0.41090268  0.54009028  0.68056240
   0.55838144  0.64079155  0.41958344
   0.54150308  0.55297749  0.55083966
   0.69314382  0.57509239  0.43390571
   0.44254991  0.53963016  0.43512367
   0.40023964  0.46320895  0.55636809
   0.51684550  0.44066157  0.65271468
   0.52465678  0.40274804  0.50290111
   0.57925971  0.49177793  0.39805861
   0.62199075  0.34756405  0.60642159
   0.66736830  0.45601953  0.51705830
Direct configuration=    38
   0.42040897  0.68707880  0.44006797
   0.37310754  0.61099936  0.55511354
   0.41210067  0.54049815  0.68004401
   0.55821398  0.64064658  0.41911576
   0.54118438  0.55297980  0.55082853
   0.69340912  0.57545748  0.43358590
   0.44230497  0.53953793  0.43524743
   0.39979981  0.46290174  0.55645427
   0.51719126  0.44060487  0.65286361
   0.52453401  0.40283519  0.50325063
   0.57931289  0.49197818  0.39845364
   0.62197295  0.34710169  0.60642960
   0.66711344  0.45639435  0.51742946
Direct configuration=    39
   0.42144733  0.68654121  0.44065631
   0.37118153  0.61041496  0.55402842
   0.41569464  0.54172175  0.67848885
   0.55771160  0.64021166  0.41771272
   0.54022829  0.55298674  0.55079513
   0.69420503  0.57655274  0.43262647
   0.44157016  0.53926122  0.43561872
   0.39848033  0.46198014  0.55671282
   0.51822854  0.44043474  0.65331043
   0.52416571  0.40309663  0.50429920
   0.57947246  0.49257894  0.39963875
   0.62191954  0.34571459  0.60645362
   0.66634887  0.45751879  0.51854292
Direct configuration=    40
   0.42352403  0.68546602  0.44183299
   0.36732951  0.60924616  0.55185819
   0.42288258  0.54416895  0.67537852
   0.55670683  0.63934182  0.41490665
   0.53831609  0.55300062  0.55072832
   0.69579684  0.57874327  0.43070760
   0.44010053  0.53870780  0.43636130
   0.39584136  0.46013692  0.55722992
   0.52030310  0.44009449  0.65420405
   0.52342910  0.40361952  0.50639633
   0.57979160  0.49378045  0.40200896
   0.62181272  0.34294040  0.60650166
   0.66481973  0.45976768  0.52076986
Direct configuration=    41
   0.42358048  0.68546712  0.44189436
   0.36706427  0.60914421  0.55177867
   0.42327776  0.54437221  0.67518373
   0.55675307  0.63929808  0.41474788
   0.53818527  0.55301561  0.55075503
   0.69586449  0.57885194  0.43062000
   0.44002828  0.53861293  0.43639465
   0.39568697  0.46004037  0.55724925
   0.52047430  0.44001774  0.65422347
   0.52338806  0.40363102  0.50649480
   0.57979658  0.49383548  0.40214838
   0.62180193  0.34284818  0.60647093
   0.66475255  0.45987920  0.52092318
Direct configuration=    42
   0.42374983  0.68547042  0.44207847
   0.36626858  0.60883834  0.55154010
   0.42446327  0.54498200  0.67459938
   0.55689180  0.63916685  0.41427155
   0.53779278  0.55306059  0.55083519
   0.69606744  0.57917794  0.43035721
   0.43981152  0.53832833  0.43649470
   0.39522380  0.45975072  0.55730724
   0.52098793  0.43978752  0.65428174
   0.52326493  0.40366551  0.50679021
   0.57981154  0.49400058  0.40256665
   0.62176959  0.34257152  0.60637874
   0.66455099  0.46021378  0.52138316
Direct configuration=    43
   0.42408853  0.68547702  0.44244669
   0.36467720  0.60822659  0.55106297
   0.42683431  0.54620158  0.67343067
   0.55716927  0.63890439  0.41331890
   0.53700782  0.55315056  0.55099549
   0.69647333  0.57982994  0.42983162
   0.43937801  0.53775913  0.43669479
   0.39429747  0.45917142  0.55742322
   0.52201518  0.43932706  0.65439828
   0.52301867  0.40373450  0.50738104
   0.57984146  0.49433079  0.40340319
   0.62170489  0.34201820  0.60619436
   0.66414789  0.46088292  0.52230313
Direct configuration=    44
   0.42476594  0.68549023  0.44318312
   0.36149443  0.60700311  0.55010871
   0.43157637  0.54864074  0.67109325
   0.55772419  0.63837947  0.41141359
   0.53543788  0.55333048  0.55131610
   0.69728512  0.58113395  0.42878045
   0.43851098  0.53662073  0.43709498
   0.39244480  0.45801282  0.55765517
   0.52406968  0.43840615  0.65463135
   0.52252614  0.40387247  0.50856268
   0.57990129  0.49499119  0.40507627
   0.62157550  0.34091156  0.60582561
   0.66334169  0.46222120  0.52414305
Direct configuration=    45
   0.42612075  0.68551663  0.44465598
   0.35512889  0.60455614  0.54820019
   0.44106051  0.55351906  0.66641842
   0.55883404  0.63732963  0.40760298
   0.53229802  0.55369033  0.55195732
   0.69890870  0.58374196  0.42667812
   0.43677692  0.53434392  0.43789535
   0.38873946  0.45569562  0.55811907
   0.52817868  0.43656434  0.65509750
   0.52154108  0.40414842  0.51092597
   0.58002096  0.49631201  0.40842244
   0.62131672  0.33869828  0.60508812
   0.66172927  0.46489777  0.52782290
Direct configuration=    46
   0.42503016  0.68549538  0.44347036
   0.36025298  0.60652589  0.54973650
   0.43342603  0.54959214  0.67018154
   0.55794064  0.63817472  0.41067042
   0.53482553  0.55340066  0.55144115
   0.69760176  0.58164258  0.42837044
   0.43817279  0.53617669  0.43725107
   0.39172216  0.45756091  0.55774564
   0.52487104  0.43804695  0.65472226
   0.52233403  0.40392629  0.50902358
   0.57992463  0.49524879  0.40572886
   0.62152503  0.34047991  0.60568178
   0.66302722  0.46274320  0.52486072
Direct configuration=    47
   0.42500172  0.68540941  0.44369654
   0.35957411  0.60614898  0.54966603
   0.43414181  0.55033553  0.66937273
   0.55817337  0.63844580  0.41046739
   0.53442223  0.55359602  0.55157413
   0.69753953  0.58149013  0.42850389
   0.43808105  0.53589261  0.43737774
   0.39156699  0.45759499  0.55789811
   0.52525284  0.43791159  0.65474287
   0.52212664  0.40383204  0.50895021
   0.57993164  0.49502014  0.40601129
   0.62172358  0.34045089  0.60532617
   0.66311849  0.46288598  0.52529725
Direct configuration=    48
   0.42491639  0.68515149  0.44437505
   0.35753752  0.60501824  0.54945460
   0.43628915  0.55256571  0.66694631
   0.55887158  0.63925903  0.40985828
   0.53321234  0.55418211  0.55197305
   0.69735283  0.58103277  0.42890422
   0.43780584  0.53504036  0.43775776
   0.39110149  0.45769724  0.55835553
   0.52639824  0.43750552  0.65480471
   0.52150447  0.40354930  0.50873008
   0.57995267  0.49433420  0.40685856
   0.62231922  0.34036382  0.60425933
   0.66339230  0.46331431  0.52660685
Direct configuration=    49
   0.42474573  0.68463566  0.44573209
   0.35346432  0.60275678  0.54903176
   0.44058382  0.55702606  0.66209346
   0.56026798  0.64088549  0.40864007
   0.53079255  0.55535428  0.55277090
   0.69697943  0.58011807  0.42970489
   0.43725541  0.53333585  0.43851780
   0.39017047  0.45790174  0.55927035
   0.52868904  0.43669337  0.65492837
   0.52026013  0.40298382  0.50828982
   0.57999472  0.49296232  0.40855312
   0.62351050  0.34018969  0.60212565
   0.66393991  0.46417098  0.52922605
Direct configuration=    50
   0.42487654  0.68503105  0.44469189
   0.35658652  0.60449025  0.54935588
   0.43729185  0.55360709  0.66581329
   0.55919760  0.63963877  0.40957386
   0.53264738  0.55445578  0.55215933
   0.69726565  0.58081921  0.42909116
   0.43767733  0.53464240  0.43793521
   0.39088412  0.45774498  0.55856911
   0.52693309  0.43731590  0.65483358
   0.52121395  0.40341728  0.50862729
   0.57996248  0.49401390  0.40725420
   0.62259735  0.34032317  0.60376117
   0.66352015  0.46351433  0.52721837
Direct configuration=    51
   0.42487042  0.68442117  0.44510125
   0.35593562  0.60427921  0.54911206
   0.43745545  0.55423914  0.66557731
   0.55916446  0.63983346  0.40979501
   0.53282312  0.55472336  0.55166453
   0.69697246  0.58015115  0.42974733
   0.43782907  0.53461195  0.43802501
   0.39117262  0.45787441  0.55893415
   0.52683148  0.43768562  0.65467831
   0.52089864  0.40331544  0.50844268
   0.57994124  0.49392715  0.40743058
   0.62311244  0.34037681  0.60293622
   0.66364699  0.46357523  0.52743991
Direct configuration=    52
   0.42485203  0.68259152  0.44632933
   0.35398290  0.60364611  0.54838058
   0.43794626  0.55613527  0.66486938
   0.55906504  0.64041755  0.41045846
   0.53335034  0.55552608  0.55018011
   0.69609290  0.57814697  0.43171584
   0.43828430  0.53452059  0.43829441
   0.39203813  0.45826268  0.56002925
   0.52652667  0.43879478  0.65421250
   0.51995271  0.40300994  0.50788885
   0.57987752  0.49366692  0.40795972
   0.62465770  0.34053774  0.60046138
   0.66402751  0.46375796  0.52810452
Direct configuration=    53
   0.42481526  0.67893223  0.44878548
   0.35007747  0.60237990  0.54691763
   0.43892788  0.55992754  0.66345353
   0.55886620  0.64158574  0.41178536
   0.53440478  0.55713152  0.54721129
   0.69433378  0.57413860  0.43565287
   0.43919477  0.53433788  0.43883321
   0.39376916  0.45903921  0.56221944
   0.52591704  0.44101309  0.65328087
   0.51806084  0.40239894  0.50678120
   0.57975007  0.49314644  0.40901801
   0.62774822  0.34085959  0.59551170
   0.66478855  0.46412342  0.52943375
Direct configuration=    54
   0.42483948  0.68134233  0.44716780
   0.35264969  0.60321386  0.54788116
   0.43828136  0.55742986  0.66438605
   0.55899716  0.64081634  0.41091143
   0.53371030  0.55607414  0.54916663
   0.69549238  0.57677861  0.43305985
   0.43859511  0.53445822  0.43847834
   0.39262906  0.45852777  0.56077692
   0.52631855  0.43955205  0.65389446
   0.51930687  0.40280136  0.50751073
   0.57983401  0.49348924  0.40832100
   0.62571273  0.34064761  0.59877169
   0.66428731  0.46388272  0.52855829
Direct configuration=    55
   0.42476294  0.68105511  0.44764791
   0.35134146  0.60262291  0.54768751
   0.43850357  0.55827234  0.66415818
   0.55929541  0.64077888  0.41148205
   0.53452652  0.55650217  0.54870132
   0.69557654  0.57634461  0.43397356
   0.43849335  0.53397079  0.43840400
   0.39293031  0.45874469  0.56142203
   0.52660204  0.44000142  0.65310512
   0.51908163  0.40259641  0.50739691
   0.57954363  0.49324609  0.40819392
   0.62574800  0.34095482  0.59790019
   0.66424862  0.46392386  0.52881164
Direct configuration=    56
   0.42453330  0.68019344  0.44908826
   0.34741678  0.60085006  0.54710654
   0.43917020  0.56079978  0.66347458
   0.56019013  0.64066649  0.41319392
   0.53697518  0.55778628  0.54730539
   0.69582901  0.57504261  0.43671471
   0.43818806  0.53250850  0.43818097
   0.39383404  0.45939545  0.56335735
   0.52745252  0.44134954  0.65073708
   0.51840589  0.40198158  0.50705547
   0.57867251  0.49251663  0.40781269
   0.62585382  0.34187646  0.59528569
   0.66413257  0.46404729  0.52957169
Direct configuration=    57
   0.42407403  0.67847009  0.45196896
   0.33956742  0.59730438  0.54594460
   0.44050345  0.56585467  0.66210738
   0.56197959  0.64044171  0.41661765
   0.54187250  0.56035449  0.54451352
   0.69633394  0.57243860  0.44219700
   0.43757749  0.52958393  0.43773491
   0.39564152  0.46069699  0.56722799
   0.52915346  0.44404576  0.64600102
   0.51705443  0.40075191  0.50637259
   0.57693025  0.49105771  0.40705023
   0.62606547  0.34371974  0.59005670
   0.66390046  0.46429414  0.53109179
Direct configuration=    58
   0.42441899  0.67976449  0.44980528