   47   47 1000    2
  0.2688494E+03  0.2329176E-08  0.2329176E-08  0.2329176E-08  0.1000000E-15
  1.000000000000000E-004
  CAR 
 unknown system                          
    517      1    336
 
  0.0000000E+00  0.0000000E+00  0.0000000E+00  0.1000000E+01
    1       -9.661641     -9.651495
    2       -9.185401     -9.177701
    3       -9.120795     -9.115489
    4       -9.075594     -9.068004
    5       -9.017820     -9.012458
    6       -9.006921     -9.000051
    7       -8.968293     -8.961759
    8       -8.944130     -8.937442
    9       -8.925983     -8.920027
   10       -8.916285     -8.907832
   11       -8.884676     -8.877635
   12       -8.865765     -8.856867
   13       -8.855981     -8.849594
   14       -8.832865     -8.825648
   15       -8.822956     -8.814349
   16       -8.800188     -8.791411
   17       -8.788446     -8.774276
   18       -8.769042     -8.761519
   19       -8.744880     -8.737547
   20       -8.730716     -8.721848
   21       -8.706143     -8.698413
   22       -8.699695     -8.690790
   23       -8.696986     -8.687038
   24       -8.680102     -8.670365
   25       -8.661547     -8.652542
   26       -8.658972     -8.649843
   27       -8.638679     -8.630665
   28       -8.635045     -8.627716
   29       -8.622587     -8.615808
   30       -8.616667     -8.609013
   31       -8.590562     -8.584515
   32       -8.577587     -8.567625
   33       -8.566995     -8.557567
   34       -8.548030     -8.540009
   35       -8.543148     -8.533961
   36       -8.528217     -8.521101
   37       -8.503417     -8.495139
   38       -8.487066     -8.479943
   39       -8.471551     -8.463968
   40       -8.460347     -8.452451
   41       -8.447191     -8.439767
   42       -8.439457     -8.432213
   43       -8.434206     -8.427820
   44       -8.426726     -8.418306
   45       -8.395696     -8.388700
   46       -8.391626     -8.382701
   47       -8.379434     -8.371055
   48       -8.368921     -8.361799
   49       -8.348992     -8.341280
   50       -8.342189     -8.334043
   51       -8.330465     -8.323544
   52       -8.315192     -8.308485
   53       -8.304550     -8.297831
   54       -8.282507     -8.275388
   55       -8.275796     -8.268680
   56       -8.268788     -8.262154
   57       -8.256817     -8.248548
   58       -8.243331     -8.234798
   59       -8.238827     -8.232684
   60       -8.224464     -8.217622
   61       -8.210567     -8.203429
   62       -8.184257     -8.174477
   63       -8.166644     -8.160060
   64       -8.164341     -8.157407
   65       -8.157496     -8.150546
   66       -8.142329     -8.135675
   67       -8.134045     -8.127624
   68       -8.118922     -8.112841
   69       -8.108956     -8.102167
   70       -8.104104     -8.096448
   71       -8.085894     -8.078789
   72       -8.074214     -8.065917
   73       -8.051677     -8.042879
   74       -8.041397     -8.033336
   75       -8.020182     -8.014053
   76       -8.013273     -8.006459
   77       -7.985565     -7.978425
   78       -7.970318     -7.961168
   79       -7.962156     -7.953382
   80       -7.950694     -7.944281
   81       -7.935481     -7.928401
   82       -7.928151     -7.920469
   83       -7.911110     -7.903731
   84       -7.890269     -7.882554
   85       -7.878824     -7.871156
   86       -7.873159     -7.867021
   87       -7.840097     -7.834554
   88       -7.823596     -7.817767
   89       -7.820743     -7.814165
   90       -7.810980     -7.803169
   91       -7.797837     -7.789647
   92       -7.777264     -7.770375
   93       -7.759965     -7.752740
   94       -7.746741     -7.739339
   95       -7.732260     -7.726236
   96       -7.721828     -7.714872
   97       -7.702080     -7.696749
   98       -7.680557     -7.673544
   99       -7.663656     -7.656125
  100       -7.651724     -7.645646
  101       -7.645152     -7.639083
  102       -7.631766     -7.624578
  103       -7.620053     -7.613300
  104       -7.602852     -7.596917
  105       -7.587301     -7.580954
  106       -7.559676     -7.554536
  107       -7.543665     -7.536761
  108       -7.535475     -7.529316
  109       -7.511219     -7.504874
  110       -7.489119     -7.482269
  111       -7.477652     -7.470307
  112       -7.467193     -7.460654
  113       -7.454482     -7.447550
  114       -7.441507     -7.435444
  115       -7.432020     -7.424570
  116       -7.429380     -7.423074
  117       -7.413125     -7.405628
  118       -7.408192     -7.401594
  119       -7.394731     -7.387435
  120       -7.368844     -7.362765
  121       -7.361389     -7.355156
  122       -7.348316     -7.342306
  123       -7.339551     -7.333135
  124       -7.321310     -7.315579
  125       -7.296351     -7.289755
  126       -7.281194     -7.275342
  127       -7.277296     -7.270218
  128       -7.274147     -7.268932
  129       -7.237263     -7.231163
  130       -7.225593     -7.219458
  131       -7.212066     -7.205344
  132       -7.202199     -7.195404
  133       -7.184937     -7.178555
  134       -7.168635     -7.162250
  135       -7.164799     -7.158949
  136       -7.159190     -7.153624
  137       -7.132454     -7.125787
  138       -7.125592     -7.119630
  139       -7.110103     -7.103201
  140       -7.103711     -7.096838
  141       -7.078387     -7.072945
  142       -7.066124     -7.060655
  143       -7.063225     -7.056826
  144       -7.050868     -7.044000
  145       -7.034214     -7.028440
  146       -7.023739     -7.018515
  147       -7.016712     -7.009426
  148       -7.009584     -7.002548
  149       -6.988897     -6.983060
  150       -6.979928     -6.973072
  151       -6.966352     -6.961153
  152       -6.960656     -6.954019
  153       -6.953874     -6.947055
  154       -6.937939     -6.931974
  155       -6.932223     -6.925598
  156       -6.924552     -6.917869
  157       -6.915264     -6.909164
  158       -6.904292     -6.899252
  159       -6.897801     -6.892326
  160       -6.884516     -6.878747
  161       -6.881977     -6.876204
  162       -6.867369     -6.861939
  163       -6.861375     -6.856373
  164       -6.846695     -6.840584
  165       -6.841288     -6.835642
  166       -6.831445     -6.824828
  167       -6.830327     -6.824685
  168       -6.816296     -6.810375
  169       -6.804239     -6.797118
  170       -6.796531     -6.790393
  171       -6.786261     -6.781338
  172       -6.776287     -6.770094
  173       -6.771918     -6.765226
  174       -6.758224     -6.753219
  175       -6.748028     -6.741491
  176       -6.743770     -6.738190
  177       -6.738446     -6.732766
  178       -6.734986     -6.729104
  179       -6.718820     -6.711879
  180       -6.716182     -6.710019
  181       -6.703968     -6.699248
  182       -6.698817     -6.693732
  183       -6.687070     -6.681692
  184       -6.682425     -6.676548
  185       -6.667261     -6.661790
  186       -6.667001     -6.660927
  187       -6.654089     -6.647679
  188       -6.639370     -6.632939
  189       -6.634357     -6.628449
  190       -6.621742     -6.614936
  191       -6.612335     -6.606310
  192       -6.609204     -6.603193
  193       -6.602944     -6.598011
  194       -6.590281     -6.584984
  195       -6.586206     -6.580710
  196       -6.584264     -6.578157
  197       -6.573427     -6.568385
  198       -6.562562     -6.554664
  199       -6.558394     -6.552740
  200       -6.557581     -6.551200
  201       -6.537925     -6.531457
  202       -6.531655     -6.526788
  203       -6.522768     -6.516518
  204       -6.514873     -6.510382
  205       -6.511452     -6.505979
  206       -6.502185     -6.495946
  207       -6.496849     -6.490438
  208       -6.490661     -6.485696
  209       -6.484805     -6.478418
  210       -6.477345     -6.471353
  211       -6.462353     -6.457598
  212       -6.450126     -6.444612
  213       -6.445194     -6.439480
  214       -6.437825     -6.432238
  215       -6.420524     -6.413574
  216       -6.413335     -6.407488
  217       -6.397425     -6.389906
  218       -6.387282     -6.381175
  219       -6.382235     -6.376812
  220       -6.360965     -6.354945
  221       -6.352983     -6.346515
  222       -6.348406     -6.342006
  223       -6.337127     -6.329296
  224       -6.330376     -6.324269
  225       -6.317475     -6.310838
  226       -6.307282     -6.298313
  227       -6.302071     -6.296031
  228       -6.278528     -6.272276
  229       -6.266082     -6.260521
  230       -6.249921     -6.244306
  231       -6.236841     -6.232267
  232       -6.224066     -6.217498
  233       -6.217216     -6.211600
  234       -6.196342     -6.190238
  235       -6.186265     -6.179956
  236       -6.149412     -6.144026
  237       -6.141657     -6.136180
  238       -6.119555     -6.113072
  239       -6.090539     -6.084835
  240       -6.070092     -6.063796
  241       -6.044416     -6.038384
  242       -5.935574     -5.924252
  243       -5.895870     -5.884217
  244       -5.790026     -5.774753
  245       -5.370737     -5.352434
  246       -5.332947     -5.316674
  247       -5.199848     -5.184323
  248       -4.983191     -4.964528
  249       -4.916903     -4.891070
  250       -4.810620     -4.792763
  251       -4.611478     -4.599164
  252       -4.372835     -4.348452
  253       -3.968398     -3.953366
  254       -3.881402     -3.864188
  255       -3.767207     -3.748517
  256       -3.743344     -3.723534
  257       -3.608894     -3.588763
  258       -3.489119     -3.472975
  259       -3.375328     -3.303571
  260       -3.213524     -3.196736
  261       -3.156003     -3.140680
  262       -2.938598     -2.919427
  263       -2.804644     -2.784586
  264       -2.759633     -2.740628
  265       -2.575830     -2.559913
  266       -2.563175     -2.537051
  267       -2.330705     -2.315212
  268       -2.221983     -2.203623
  269       -2.155594     -2.138058
  270       -2.083437     -2.065304
  271       -2.008851     -1.986170
  272       -1.881889     -1.861943
  273       -1.864572     -1.823022
  274       -1.828391     -1.794497
  275       -1.748805     -1.721795
  276       -1.551350     -1.530695
  277       -1.522850     -1.497588
  278       -1.460933     -1.442944
  279       -1.348073     -1.329178
  280       -1.247198     -1.221057
  281       -1.162507     -1.141065
  282       -1.075930     -1.057215
  283       -0.987905     -0.973560
  284       -0.877117     -0.860312
  285       -0.681228     -0.655886
  286       -0.564560     -0.543873
  287       -0.530014     -0.502834
  288       -0.492788     -0.476875
  289       -0.349532     -0.314979
  290       -0.298960     -0.279788
  291       -0.243870     -0.228479
  292       -0.158644     -0.137288
  293       -0.111557     -0.094257
  294        0.045054      0.071425
  295        0.100344      0.124443
  296        0.151396      0.175959
  297        0.256796      0.272670
  298        0.349430      0.369461
  299        0.432762      0.460265
  300        0.446300      0.473065
  301        0.551921      0.568876
  302        0.571101      0.599368
  303        0.606030      0.625077
  304        0.647505      0.666812
  305        0.713062      0.726437
  306        0.725576      0.737906
  307        0.757915      0.776905
  308        0.787232      0.798094
  309        0.817139      0.838722
  310        0.870396      0.893164
  311        0.892231      0.903340
  312        0.923201      0.938828
  313        0.966267      0.975017
  314        1.003381      1.021331
  315        1.020529      1.038305
  316        1.046221      1.047408
  317        1.072064      1.081566
  318        1.080424      1.096563
  319        1.108001      1.116672
  320        1.127787      1.136782
  321        1.136823      1.149122
  322        1.138501      1.168043
  323        1.172241      1.189987
  324        1.188556      1.207346
  325        1.224066      1.237880
  326        1.245133      1.267623
  327        1.305753      1.321192
  328        1.329346      1.342000
  329        1.341378      1.361951
  330        1.374596      1.387530
  331        1.385297      1.392876
  332        1.396607      1.417161
  333        1.417949      1.432846
  334        1.435684      1.451291
  335        1.458454      1.478081
  336        1.476224      1.483897
