10
Energy = -49.68353789 eV
P 11.305235330162487 7.914489418181632 7.753637445664012
P 11.15663527274963 9.629106040676499 6.512897659431095
P 8.682760263036142 10.314256219148486 8.753331441089552
P 9.480845417015823 8.214695435948485 8.805101926505559
P 9.810223261828746 11.121791609914728 7.077367234236275
P 8.974871725406109 7.000534765871949 10.605794690703808
P 7.852168366054553 6.768022956969063 8.603025892919899
P 7.47801117792527 8.459003419837217 11.32368671856316
P 6.572389613922824 10.07491842771002 8.349293339829998
P 6.317952236189643 8.217997928411807 9.449759957377607
