13
Energy = -67.50442678 eV
P 9.963584194507394 6.044050619498175 9.790892141915371
P 8.76917011239094 7.867171196942461 9.48543441334406
P 7.870463602564974 6.121108105686887 10.483233407815645
P 9.419340817651259 7.306791294636235 11.50811240139335
P 12.134705000828893 12.903719522057095 8.77586563458251
P 11.56485265872345 10.23523187225124 10.950004261579469
P 10.0627279246562 12.140002457210997 8.62820754250702
P 13.012980312269146 11.882111732086981 10.586485076738608
P 9.666432857212664 11.307720491419678 10.700807699948149
P 12.087355758570748 10.967791443276994 13.013991899914656
P 10.49579685724646 14.172236023466294 9.550039003249609
P 12.193421656918089 13.089998386127988 12.26390123324934
P 10.10929193481812 13.312190543696708 11.613148972121007
