14
Energy = -73.40976384 eV
P 7.276457785236448 12.820208760942892 7.533644362864572
P 7.901356925024612 9.989025694954288 8.558330108458057
P 7.988466194207426 13.090890766636088 9.59603333067674
P 9.186926769505837 11.814748727196477 8.19568533828764
P 11.366175177917066 9.080070095913412 8.881474817564836
P 8.365012795374694 8.90895128808795 10.423540504685493
P 10.00934779785348 7.55067192527763 9.704634130148749
P 13.3001798690863 8.331773677452306 9.790001408999068
P 6.406447846832855 11.558128984176589 9.172202067167365
P 10.473052716601366 7.747177008288048 11.876434943371706
P 11.27997490964642 10.703182027409772 10.427386110222182
P 9.835660138481293 9.893377032074085 11.869557456558455
P 12.69841897431104 7.846306239969014 11.878301002095657
P 13.194976426965438 9.947942098665303 11.375228745943192
