15
Energy = -78.60708774 eV
P 9.247328906759355 10.956435096094317 6.557143640799549
P 11.417266472414434 11.471776122990683 6.470645429072318
P 9.907674478554789 12.947523774737128 7.308391993462449
P 8.997041433206386 9.641740276419931 8.383225015146223
P 11.13026339480056 9.040697201282738 8.606693804189126
P 12.112754332990173 10.997278119717976 8.559749861215401
P 10.592500917881491 12.45997045276223 9.391113772837256
P 7.9857369180566105 7.359698173469081 9.927169736053754
P 9.918980692460822 6.85711191248956 10.85843608273217
P 8.862057863977219 11.220750457246796 9.93094837807651
P 11.215470421067158 8.64517432753127 10.787568602209362
P 9.979678314231666 10.335524191958074 11.635856726347829
P 7.198755041002918 7.813814826107337 11.935929732959858
P 9.15409319812045 7.197029412990002 12.956837808168107
P 8.532936105561943 9.308014145289 12.942827907816204
