17
Energy = -88.58941379 eV
P 6.616676271473301 10.716710904807673 12.140450849758002
P 7.804494628590275 12.22118670476201 9.533105390995537
P 7.025927675720552 10.154714398252453 10.097216464082768
P 8.576064441806652 11.338745059161488 12.858270405790329
P 8.857670824772478 12.926690883330409 11.332380915984382
P 9.532717070246568 9.417584417354545 12.373579616331057
P 8.822604312493565 8.830498533194683 10.311117728963117
P 11.64973569610976 10.023182865581104 12.133693728979207
P 11.497836598284602 10.966582278374558 10.142848705811659
P 10.344979924804253 9.555888665045549 8.875421044853956
P 9.532533360668808 12.668564722986545 8.272904853505787
P 10.779487877094747 13.062936701010411 10.059822551761057
P 12.57384583107859 8.198623779773 11.357038605772237
P 11.754343744539574 7.912986314818066 9.249896082478873
P 13.591727991448588 10.90825894907921 9.35751355964334
P 14.42280249163913 9.180068720537317 10.495885857788702
P 13.601141392194142 8.90136623489582 8.393443770465279
