18
Energy = -94.44531243 eV
P 13.175952670552006 6.988833367883023 8.725322343689365
P 11.346706891583985 7.419104732705535 7.506292837968614
P 10.76771101826442 9.519997561733376 7.972917155096933
P 12.737375883973561 10.163670094750032 8.847747403952678
P 13.069855383605079 8.583230902094375 10.304603540762718
P 11.147523599648126 6.2836057296736 9.433013994156582
P 9.50580265785209 8.93187188230841 9.697428251060273
P 11.468341752836857 11.589696444385158 10.020375282626913
P 11.657673698389603 10.984968615439973 12.110172953392446
P 12.270581968663832 13.026249864913938 11.500588680219769
P 10.997392733510813 7.935257122393395 10.959034490658665
P 10.300556076988718 14.091354528597885 11.081091694180923
P 9.443963701081193 10.652698383739164 12.734134955631948
P 8.420156680039828 10.676530112807221 10.814627004223528
P 8.834338608640468 12.76168488568981 10.048358093391913
P 9.05480104186649 14.36862847605695 12.89702644818641
P 8.23035936596891 12.390298706894278 13.464161583453782
P 7.38252589946138 13.443938220860936 11.69472292027375
