19
Energy = -99.42020608 eV
P 6.198649008852232 6.125704118831944 9.730865735604038
P 5.279240688374451 7.827197303799044 10.942019993594519
P 8.11261164244244 6.320914798741401 10.923680993119033
P 5.753147163708982 8.086525732363116 8.82344917000819
P 9.622246077899494 6.81806772449722 9.386503843816373
P 7.281911715895467 8.121874304957213 11.985271131228467
P 7.606181507653006 9.684722599857034 8.741197814320389
P 8.675816963350751 8.020529482159898 7.775598317673586
P 10.734765700256265 8.406903717502988 7.052698129687935
P 10.819221021452218 10.272138370340278 5.878632121259336
P 7.866626716620518 9.946262069092295 10.960192776637356
P 12.12748852003321 8.730425239985108 8.785799104223017
P 8.768650764508507 11.786498868578995 8.666766352200774
P 11.017511265055434 8.073657041748115 10.569428106905265
P 9.819275114988464 12.119351437469913 6.77730077984808
P 12.015510576590865 11.74836498080667 7.061418122235927
P 10.014610946217806 9.98221220207946 11.476869323922283
P 12.286850516648906 10.920831090165331 9.123115929577422
P 10.442355736737024 11.654989870834465 10.10350921881343
