19
Energy = -99.47934786 eV
P 15.24736777244299 9.73800612059289 11.946633540222813
P 14.691414631520969 11.805734278466758 12.676094228799023
P 13.580705410357876 8.427072379178753 12.604277360962834
P 13.683071303661968 9.180139440450244 10.500676343826042
P 12.988454003554187 11.496558290754786 14.11070634018389
P 13.328202656421535 12.567226678880894 11.124932365962879
P 12.198671234447929 13.291882421335771 12.91696156607373
P 11.879229366259148 9.869342873272476 13.101214745991202
P 11.961660916398737 10.74802138626298 11.086583451444975
P 10.445596404363203 9.750220179881426 9.669209798811325
P 10.026282171357455 13.883382601591888 10.605741858675314
P 10.338962735401324 12.384272350647894 12.078548348479632
P 9.829290983768196 11.348528128835087 8.263158594111735
P 8.690461776039731 9.52858331073717 10.942035439161842
P 8.564739477536415 12.75420791846546 9.406599357193421
P 7.428358878460943 11.373241089393842 10.674317957216076
P 7.721306314702879 8.579650930999744 9.133902718344702
P 8.166518045306795 10.055762672488108 7.500848365910026
P 6.448881519175625 10.437342548941267 8.876733219805514
