26
Energy = -135.0059724 eV
P 11.9846832695959 15.26839808805814 6.813430001238644
P 13.489716926749049 13.743172305713411 7.415917191426324
P 12.859518783881489 15.316288900046708 8.854248011928576
P 10.68625646358694 14.906513850757872 8.584678958196701
P 12.276836473996473 11.918899643083348 7.713314899569974
P 10.349561142241892 12.718860336959501 8.577875370016878
P 13.363103045925833 11.053052648670146 9.446080075941076
P 8.454445483039901 7.622680417486409 10.135893343681847
P 8.676765084402714 9.727488255801678 9.41251532920583
P 10.502989091757875 12.34484614617683 10.758520890554507
P 12.681390373208288 12.507241245320206 11.024450049898444
P 12.096397259880298 9.284825048229258 9.764382682595615
P 10.271873352044418 10.11548837642669 10.823640028370614
P 13.541509620808075 8.71948002368586 11.35327171564258
P 7.813288532207755 13.570959790121316 13.530175953841873
P 9.423019622856081 7.7181852759637 12.164589811417398
P 6.921474494937965 11.698357966913413 12.789674125245819
P 12.766051498513454 11.712181063282802 13.083776355497601
P 12.63347248326455 9.462160008024702 13.178822792493833
P 6.503881003530153 12.379367966993005 14.84383995434459
P 8.509471306664354 11.635784622663614 14.311905115372882
P 7.386257477151122 7.871586259516851 12.049801013730011
P 16.088019530438206 10.289631329838286 13.566938922150383
P 14.867947262080401 12.144978051448714 13.616647629148357
P 14.440943849622423 9.020096029657443 14.388941686905142
P 15.053949250472263 10.892299032017647 15.4394907744427
