26
Energy = -133.69512701 eV
P 9.286641819907405 8.984256065505608 8.095427722206601
P 11.010854057947569 11.774908970305209 7.648701043326322
P 10.96504733132848 11.354245740024998 9.83744432984006
P 10.547080248771755 8.373345393674715 13.117367461165703
P 9.113445767769257 11.481372288269945 12.583634893739005
P 10.320236161849966 13.301038717562388 12.820029582422102
P 10.639541184293726 10.83005765831662 15.790595737706813
P 14.921757445682244 11.319999219479948 9.225195710633656
P 10.842772769717135 9.794895573653694 6.819175318864237
P 13.17224974718384 11.058657433932016 10.657635337274952
P 7.550522273783995 12.57400666663833 11.49989950382247
P 7.699771982837404 10.661452185045203 8.188873785224173
P 14.448621080297992 10.106761320178862 7.457074580701984
P 12.592599866530561 9.137548652026553 13.491474547974363
P 9.561320499045976 9.002104673330711 15.019171091751153
P 13.798798943185249 9.31549483453339 11.691262779343473
P 10.579212789212765 9.12085680465215 9.86325318929989
P 8.63650342417053 11.019328056451318 14.697760799327687
P 13.23687549494773 13.086380825045088 11.60515586983732
P 9.263341352652974 9.405627826253337 11.674655647273628
P 14.036382874575091 12.11345602265263 7.346378692312808
P 8.582956035189177 11.819631679224111 9.767887688731717
P 12.540645984272835 11.00345911319302 14.676481103665141
P 8.831437433067764 12.546788169504753 7.697343795887246
P 12.357493504480138 13.006661487143466 13.68258160748889
P 11.193718806343377 13.537493502446873 10.775367059223546
