26
Energy = -135.25096033 eV
P 7.429869136999271 6.037458312456024 13.763496203976434
P 8.50502159083453 7.658558320475725 14.739802986487893
P 7.508969678299126 6.582836112466048 11.66946880587714
P 7.600488340886542 9.489214635311106 13.822405720901672
P 9.395167845479804 7.764421501800703 11.402231793474177
P 10.32339250261346 7.915074144545162 13.464175502716778
P 9.787709373558132 10.019509408509524 14.046574966685611
P 8.797143836224631 11.687838697875272 11.11350750777617
P 10.569470073642744 11.24000035452629 12.350292005607669
P 6.9569259237673196 10.567295168879129 7.885901297174175
P 13.065282304979121 8.357496682082214 8.869247281443954
P 7.4983103600740035 8.834938947250224 11.654824662086767
P 11.712065112324304 9.985669683084208 9.341772358487997
P 9.87439637907379 13.533154286732033 10.478587301875072
P 7.456921826293672 8.466554864121768 7.463923481308723
P 13.899414703513484 8.806637033603707 6.93012627498852
P 9.49056887011219 13.18021210186996 12.628448030016347
P 5.3556985456181 9.12612983361352 7.426551892931125
P 13.162062183272063 11.362906265143609 10.28723266967152
P 11.11944730855276 11.031371163342452 7.467276610693443
P 12.046623655500525 13.303746584890991 10.03961217642713
P 12.61024049122713 10.329267676188888 5.939320324650265
P 6.74489958397748 9.77720652287155 5.842153014256791
P 14.598417863551504 10.947482274371785 6.773965053253872
P 14.09071674129662 12.328296274575008 8.45394798931857
P 12.071426663357165 13.038998393719238 7.815714973489489
