31
Energy = -156.29169172 eV
P 13.74741570068224 9.126777203207977 12.963508106397216
P 15.307559724510291 14.03138569038225 13.26535945807411
P 14.769281198387562 12.831543191309933 7.958349175198008
P 17.411679477918184 9.042776770360991 10.411177597866594
P 14.087556349784258 7.307890113778541 14.201909696541081
P 12.226565889111146 16.04974769200167 11.570389232827738
P 6.8538440047991624 10.934566739293466 11.315525739639352
P 11.184539487824278 14.52568073843742 10.411836200475244
P 8.382330833885804 13.608696744316505 14.302551860313303
P 18.10686438246155 8.154821411878796 11.94216823263625
P 11.75837190141544 11.515472349932532 12.000678256210367
P 8.53148860770117 9.524904161612646 11.757750019307016
P 9.680084632656747 11.23414992283608 12.717871968302866
P 10.50903260956823 16.247867577817793 13.01265641825936
P 13.336258790979572 9.571852812236646 9.474905953214229
P 8.062027680180455 12.71162138623179 12.225465942179667
P 12.4608536373083 9.776575157906848 14.576667660890104
P 14.032190447289288 13.6082262732017 9.988442595696025
P 10.361702386520156 14.047779878505164 13.358794403313816
P 13.787522349445581 8.514860106741954 15.862870615967593
P 13.962861409385148 15.789509868121439 12.95575468914525
P 11.340792649723964 13.060251410660381 15.120000967736349
P 8.491666495996277 10.715526556765928 9.952827830528676
P 9.442179193573391 15.787300686777163 11.024063590430131
P 12.192859357758858 9.388131936656851 11.362542699441754
P 7.775484574041316 14.394585341751242 10.948805588206339
P 9.518675428130557 11.755444765504322 14.945619794430941
P 13.981520089023629 11.53250549097624 9.316196229589679
P 15.970966310201028 15.735363783776265 11.990202847854603
P 12.874987280315482 11.90314007396416 13.983477768464837
P 15.928339239454635 13.648546283088308 11.159130980894876
