34
Energy = -173.56307288 eV
P 9.368120552539814 9.390262558862979 9.535542443042717
P 9.760120940630836 9.466931889695928 7.343008989193793
P 16.6033187239438 10.652337034649724 13.453597449985148
P 16.998445946691486 10.939854813935643 11.379863851920202
P 11.00016545876178 11.47558558600129 14.58868014917833
P 8.348533600174836 12.554763750102138 11.942613675429335
P 10.139874270260805 9.867172414395833 15.788741459558759
P 11.423890329694453 12.922527436939847 16.217531524319295
P 6.352944990121133 12.302174201095681 11.047871161410058
P 12.328585892399955 14.529579612980328 15.288792119527894
P 14.467463210615207 13.763925335132543 7.926807714747334
P 10.093556020965199 8.33862992269193 14.172594024223013
P 11.547142467335647 10.780110784743606 7.5532740477849245
P 13.116470436707575 10.703636624996523 14.489116784478638
P 14.035252311946634 15.77928864333446 7.424776105938944
P 9.913324939071096 15.003032029084904 9.267253533871893
P 6.54602059138916 12.906511827151675 13.156504002525827
P 9.624299959089202 11.348021586122476 8.516861863724655
P 13.672568058701465 10.316059064172373 12.334858074234726
P 12.59659450160918 13.95184730801837 13.194223456120852
P 12.065310026317338 10.914456662072615 10.86061781361582
P 13.728841726156446 9.701996203369436 16.244989623976252
P 11.878881509141054 8.687386662725139 16.7055315137504
P 13.23890658087916 15.865095650584303 12.632586393143937
P 7.080855561193333 10.858125707553606 12.543466087396721
P 8.456863010485606 16.115167700640818 8.756481965869998
P 11.335662609887706 8.844372325208985 10.448670598494907
P 15.830342206469522 9.255117243915304 11.91665015495866
P 11.655798812145028 7.274628163669543 15.017089915479234
P 14.572006373270193 11.99328224736684 13.457337738481735
P 13.537159728108552 16.902683489417665 9.128604575845458
P 12.800757338371776 9.767688590405092 9.104921556731108
P 14.217521891142386 13.441293659162408 9.988561193093147
P 13.662769860583664 15.384823706600526 10.57034887474733
