4
Energy = -18.11274494 eV
P 10.38370065058298 10.420830666318452 6.599538579691678
P 8.326470472698958 7.977682260151209 10.824272167486978
P 9.612939533748637 8.493652456326158 12.125488080392158
P 8.732892338189297 10.163837612424057 7.506704167648796
