40
Energy = -207.00407857 eV
P 7.115730632212598 9.091590802794078 8.552083225505443
P 8.838354383372458 12.171275919012704 8.486842530214231
P 10.51837539363878 6.066286937661512 9.45366954331455
P 13.91142627410595 7.271305833936204 9.537414371979509
P 5.541847699500674 10.513563671422071 11.608771929220303
P 12.232749646327845 12.11915378268658 10.627829497183608
P 12.137107382069043 11.917000586656354 6.861201562191413
P 14.399194058093165 12.027887966632893 11.444894523811225
P 9.113984064448594 9.963961915207527 8.074027106143973
P 12.587859714079421 5.671435668539633 10.296265665421075
P 6.713550475338253 8.670826293195102 12.186775701842663
P 10.976482635103194 7.141255698070887 7.603722940683429
P 9.580137918470175 7.597654690152794 10.787782730336291
P 7.415141147261719 7.640569171841675 10.239609299763185
P 10.050662518695855 9.631269872583683 10.09014887618121
P 13.052122555388406 6.591125070710329 12.279342234874033
P 6.667877790793114 12.657100381537042 8.927194598081412
P 11.7381830885179 11.342519349894097 13.069837448050242
P 12.761879852770253 8.208839284266308 7.916449710212764
P 12.418388787089386 13.393030100987119 5.393374706397226
P 6.842705382787634 13.783714415083693 10.924093569035094
P 13.326932635087074 12.829623518617575 13.365717512097982
P 12.199895261808729 9.841919353855367 9.772866375151832
P 15.087937229257461 10.008560238357669 11.320750417091954
P 8.627832915588554 11.34653435045934 12.458404340172383
P 8.508053369552284 9.38464894600797 13.202710992591701
P 9.6919409235476 12.088316144479716 10.499698356344187
P 13.293897332015773 8.734859857790797 11.403447774727967
P 5.728290719110351 10.686591609737722 9.37255202486931
P 11.3527250948738 6.325985027581567 13.55232766649397
P 11.04412718322808 8.19180273716404 14.446664918460828
P 12.619972407006422 9.418788901356379 13.650271289816446
P 6.632668134213541 12.246893295942007 12.54080692716963
P 13.046355890935116 15.07495331699927 8.387687186830549
P 12.950865201043168 15.240118861105177 6.298473999577702
P 12.588240358176618 13.036841812720825 8.575883715447429
P 9.146074825952942 14.174969488259793 10.85503450602741
P 10.198662799037855 14.288194085403543 12.864104743142127
P 9.909433268442005 12.307356592296806 13.97529993190009
P 12.221018088622355 14.090359486556583 11.88465072184843
