42
Energy = -218.2477072 eV
P 13.249897181375273 11.641873715284254 6.6362032751910895
P 12.541003827128176 9.54187093147842 7.125948348639306
P 8.511102240947 13.053727825068838 9.286785372655412
P 11.52117594275275 12.517463473122275 7.8070183329633736
P 8.309369571758145 12.098823219615904 7.273735383664623
P 11.00609390289997 10.472180855954083 8.55158871941155
P 8.956580872911003 10.050507607806672 7.723100495901706
P 15.115622906528925 12.038461283237817 7.803041419014583
P 13.725870763882218 8.916058484443534 8.931220308677755
P 9.36510236522843 15.134707928602353 9.312227799797288
P 15.641774789858363 10.07720252878388 8.846927085461294
P 12.394342472741409 13.26650197965953 9.683687949451476
P 9.359479697256601 11.748700926644037 10.762181006910026
P 6.406950724328076 12.354376731978661 8.538821348193975
P 10.720416449731887 8.021060547300943 10.598339723359622
P 13.054648938496932 10.474153174533422 10.390720716507731
P 8.150343668535541 10.191837879898214 9.865475164523792
P 11.571229444024667 15.380057116499916 9.682583221331068
P 14.547350270264642 13.619778951383196 9.273972338804509
P 8.380359925508959 15.541476577869185 11.232157822650878
P 15.207812314750534 10.509666145765086 11.012144847385722
P 15.496998774121465 12.724653828484861 11.14435123859469
P 10.938353794097356 6.489669141645819 12.224549087389526
P 11.718405781747707 9.52205780714241 11.945617185617374
P 11.788875060382892 15.501122369157365 11.907052069659775
P 8.539884040426191 8.271580772978712 10.882798101650387
P 12.654041133700257 7.7678859523487915 12.956421846980389
P 6.06536181881074 10.658374942825965 9.769077167878889
P 11.84942815906587 13.273953755060587 12.306810461417212
P 13.938842280639138 12.67798128388873 12.71752822323048
P 9.17770189265294 6.85921168591863 13.59623030891464
P 11.17824519656353 10.855794757037035 14.188435264684808
P 8.19267264573157 8.753269552561466 13.038473068821645
P 11.277460553358738 13.08630535018375 14.45242220782736
P 12.70269855626507 10.00564924956271 15.36269491137824
P 9.767976247700226 15.835258179211111 12.712712608253872
P 12.24425486887649 7.896712704795551 15.137753189198559
P 10.004588013410775 7.416732999094037 15.58581306874593
P 8.974444148805205 10.44018506623714 14.285628666046623
P 14.708419859721976 13.520872984447394 14.537035547728932
P 13.054279073313202 13.479523121806627 15.756115244881464
P 8.880662365586787 9.20283914656924 16.044722386491408
