49
Energy = -253.38167128 eV
P 15.315258503550801 11.322197350738898 7.4139818132136535
P 9.794858437465143 13.683230277399515 7.41556496711204
P 15.38301403127158 9.339880027023398 8.407890266112553
P 15.06016003000951 12.493955286178162 9.413267942983369
P 13.466040540397001 10.191420618329824 7.7502654920926
P 6.804498669087759 10.625807086470989 9.165357981320577
P 7.924600794711206 10.339082501765333 7.249223566107462
P 14.384445701088369 14.640999481571914 9.272766458606114
P 11.247034570199054 15.305851494048097 7.474660019968857
P 11.844917005636535 7.875740413954779 9.679943985852784
P 9.862437948345057 9.561199568789965 7.356994767587131
P 7.874345534363024 14.079714137991783 8.667729816682366
P 17.19866507438028 10.241426126070039 11.382183508609893
P 8.262445052923074 12.150867798777357 9.751959119072552
P 17.910872991122538 12.264831477105405 11.334958552204348
P 13.210127737565095 11.343361534934903 9.874743685948516
P 10.534284347489038 13.0217671458878 9.611337466522741
P 6.98406725972515 8.951083056625741 10.747490018529458
P 9.321440740456474 14.913002240459845 10.136877328770238
P 10.022618440324827 9.1692335734225 9.460030000815514
P 8.443890641250695 7.576603779418603 9.776027481288427
P 14.344361204064286 14.811375642118987 11.533740096099947
P 15.002394028430173 10.148226873513233 10.560477220744199
P 12.158127903872495 14.631847741255909 9.283719949485128
P 16.727357017768664 10.599266937582154 13.51264982431647
P 10.78737318736736 12.193392810113538 11.85740627663124
P 16.52483518900353 12.775583176887347 12.963061647938371
P 12.129629202050777 8.948226581345876 11.627692429122208
P 8.593527037728673 9.35877560158721 12.276107222517536
P 9.055793592460724 7.156889958178501 11.87638545347175
P 8.5295919438731 12.279490393459879 12.021955643451028
P 8.109697558520969 14.446275379280287 11.972549187904711
P 14.319742986938273 8.581649607000536 11.986289257623886
P 14.463802537581598 12.521716729824721 11.90738092786493
P 12.222295743267741 15.564664867085401 11.373683931985108
P 11.291448563983497 6.873968076883427 11.59684708685637
P 7.333897433658242 9.556113466099875 14.082541618544976
P 11.436543610540445 14.057430349563445 12.866467508767023
P 14.611809222437792 9.794963347331873 13.89199105742044
P 13.863031457146935 11.867315748000728 13.996650642388644
P 9.506056959663907 14.89383625312936 13.65216177525771
P 8.774014796413862 10.84175010935202 14.911493447005864
P 10.80613456057509 9.93675017652595 14.746778008955456
P 11.695219888350513 11.960330881112373 14.480554018603533
P 8.721392431956327 13.171176356951468 14.881368937830254
P 10.870921943499033 10.253862880809468 17.0309306592835
P 8.739050852148802 11.150019121513347 17.124098886633305
P 11.796498981175747 12.290127857791532 16.727792014086454
P 9.69334282620157 13.201634810777453 16.871887741848965
