49
Energy = -253.83901837 eV
P 9.359812410620725 10.199763663752238 6.164901343749024
P 13.931094506086785 13.090387878006046 7.423667016097474
P 11.758121768168364 12.87709756243923 7.401579727150603
P 7.664958969002163 12.520931920928252 8.11399834552155
P 11.320910083154756 9.01511787452971 6.096930770444096
P 8.530737720667354 9.099153111460657 7.938095606419606
P 11.006442519972431 10.67207961967306 7.555868078145198
P 8.966847542545258 6.93051650857455 7.652961396122061
P 11.176129434627546 7.248658218690421 7.526882427298432
P 6.60959949115259 9.06198711742936 9.07144223423737
P 6.304775388025641 11.349712632718674 9.390428825058901
P 15.944922349404422 11.583369012580691 10.602319292944888
P 11.131751293053064 16.31579007472038 9.050963245862363
P 14.261616393643664 12.701232883683407 9.526720074327514
P 8.902418432127623 13.490671535853172 9.545066522043552
P 9.723818781225887 9.710347683155586 9.668767149168307
P 11.445633639861866 8.25479848870609 9.486642548432437
P 12.998934719493379 10.852003615639362 9.62022713424756
P 14.219691860947677 14.707328563412908 10.448736020889037
P 14.192945247901918 8.66691255674529 11.499054316813519
P 9.139241257460688 15.797005414905446 9.65058173677419
P 8.664140021495841 6.377909205153594 9.84993698404338
P 11.127961676718282 12.764693871767335 9.5768839032791
P 15.060374413153802 9.748016184299104 9.668276789775348
P 14.610774553444273 11.379219102555213 12.407087030035786
P 12.711519542946341 10.373622295587056 11.790634493810828
P 8.034706796159645 13.570149772975384 11.569368592325457
P 10.553773782614822 8.333010085793902 12.301657010484226
P 8.053915282226129 8.408897713655588 10.640703629855565
P 11.959636697065994 14.753053928047272 10.234443130344738
P 15.379513132366744 9.464026781167457 13.246528054057553
P 8.366326834640589 10.73496448329315 12.405335841691443
P 10.747641030712662 6.596374358744311 10.753144923198619
P 6.517920830222418 11.671244289260292 11.582735806302738
P 14.981164320618424 14.772414114855065 12.441615016532426
P 9.182048630474332 15.575708477322586 11.901980426235967
P 14.50703883236937 13.101032233921329 13.759412753447547
P 9.095760027836688 7.682595180097691 13.911601083335288
P 8.897095446878076 12.572089016747158 13.536012917110895
P 11.049702799350495 12.723129799957555 12.78104822159715
P 11.264465745078471 14.940383100391118 12.360866781070365
P 13.634101308379034 9.024484850601386 14.616573877175812
P 7.806179033812847 9.560379607458966 14.294307080942353
P 12.197874624481717 7.5484117008470495 13.714923758629231
P 12.426561983397967 12.896632522965357 14.572493479982228
P 10.77996710906771 10.09792608429234 14.662479511327895
P 8.991792178818269 10.897476532008708 15.608957916675136
P 10.76227722950464 8.018210445784586 15.41115347970705
P 12.6547676963639 10.878483692187386 15.573409064620458
