49
Energy = -251.6840617 eV
P 13.753458919443602 12.339497642173674 7.715599463966392
P 11.558299642764274 9.564030004705264 7.5932349157980585
P 10.110473811831554 10.06444836177704 5.907359780030794
P 10.14137593172046 12.239447678316258 6.466221947301144
P 8.39403251446873 10.933851098268601 7.041786861891919
P 9.94655805613305 8.319744853305505 8.469933493844803
P 14.055856669470584 14.302874172448183 8.781761289950893
P 11.851103902545356 14.439585445414686 8.422020232835326
P 14.8618408676211 10.752062585537043 8.93188647115106
P 10.324640638841469 16.056384501370072 8.728138087709487
P 13.312938995430326 6.054317407343468 10.161959885603467
P 9.33838619672901 15.80968039417957 10.715140933812906
P 8.260217142216462 9.682661471857699 8.944413943040749
P 9.035154400733981 14.244252949855321 9.135127750280112
P 14.635665523766281 7.274153258769509 11.313282035130458
P 11.53135770217282 11.721481629014912 8.147725339445145
P 10.721871037159762 9.55882758037799 11.551958713292791
P 16.352856688901102 11.932380399018982 9.952899341893328
P 11.34297130888683 6.091591777371903 11.074073392122767
P 9.926935354802499 7.708169112632605 10.558816159571757
P 14.860762524189298 13.261043729389682 10.691524756919463
P 13.039116038552724 10.47441543568714 10.287901722131737
P 10.841845157139204 13.028356153640893 9.830001985422703
P 14.099007162869377 15.660277110297127 13.218186978611405
P 12.688488856069057 16.130626650131855 11.584059626735776
P 13.144266506226458 8.730906991581993 11.803146084726459
P 9.06064020051524 6.6963926592847685 13.39966941430929
P 8.947570838731465 10.854386692834742 10.763451661320925
P 7.73816093916773 10.341939377469844 12.637059909246513
P 10.830771002771165 15.086219873920504 12.210226723633875
P 13.12728696101023 12.249387942281652 11.592760035179477
P 11.195831007746348 17.232334463181015 12.821525654862858
P 14.75533957991032 11.746160012904717 13.044448890529763
P 11.182411289988034 6.216257632112542 13.334271082601493
P 10.65963958185618 12.069202441851985 13.193917909696482
P 12.921731286398918 15.392167375046196 15.064447622569114
P 9.373950158574663 8.835160807053732 13.230044573321615
P 15.488513065872311 13.920122858181301 12.760203761967876
P 13.79713756948208 8.979434779328946 13.93555891761014
P 8.447805596869975 12.321050406150734 13.498693561622584
P 11.384829686137355 13.677009447722659 14.750092759801412
P 12.31557921012401 12.093765297581827 16.115142232787285
P 13.983451731770117 11.02356703307411 15.000841100625355
P 9.676469108039427 14.176373379764032 15.980838489626075
P 12.129686318501685 7.8152855379234305 14.84123402589148
P 10.619032119326949 11.08634451936814 15.202771822034007
P 11.678136982930587 17.09127501282303 14.96119650414148
P 10.205422757775963 8.906715280003693 15.257688812491608
P 8.744884623524506 12.208141943378212 15.76951650861798
