50
Energy = -256.69264269 eV
P 15.002567392687046 12.264975936014368 14.398634692837772
P 14.629007421935807 11.783635348941328 16.575707743089865
P 12.645092433853126 12.489098385293234 14.293468135994994
P 14.492874680447901 13.98276915495664 12.199454871518586
P 14.716697184854526 15.68033009757076 13.564317627022197
P 14.961054757008016 14.286011772404928 15.371371689624386
P 16.58654886832631 14.864314471418197 12.513340268456137
P 15.425355047108711 15.24342300838585 10.65207343461088
P 9.626170661882188 15.154892044833135 11.415826853541887
P 9.217516339848995 14.335804058591224 9.148009514446594
P 11.0599194909441 15.32484688340179 8.43522719103167
P 8.743343469765813 16.43320985234776 9.87511929217538
P 10.966937581882194 16.6116289004417 10.224639930789046
P 11.520225665442629 15.553775738249996 14.267193265977596
P 11.713961808112739 13.84300360356649 12.89181059012032
P 9.865776921862288 16.60371019131891 13.254810838970934
P 7.7232619432733145 13.916394626992412 12.381778623168275
P 9.407893698529785 15.464244433697395 15.088434219024482
P 9.529350551719045 11.816438288898912 14.983738228774465
P 13.435544192569088 9.906543924263639 16.039807180418517
P 13.07176597313813 13.429517122578613 16.329482969386852
P 7.975875616326256 10.315774086849588 14.559109574226346
P 8.297175455100852 13.611923482487466 14.47075081241899
P 6.1058043388706595 12.037998023756415 12.027891173669598
P 8.286094149457927 12.036367403562814 11.15178266881672
P 14.470800587579365 10.002874443106792 12.233290663185405
P 12.000806156237177 12.183686452575982 9.662673555579039
P 14.973815089661784 8.862955278441483 10.341027397544098
P 9.598715400081653 7.671870378181183 8.24422225888506
P 7.47414896574755 10.30821581868477 12.359032021814752
P 8.244043955638244 7.797529173957988 10.036421625197004
P 16.221945327223953 13.358660536341802 9.59259471894239
P 13.332810661025315 10.87841892054488 8.438139863891676
P 17.10675807400122 11.881101867434412 10.92045657355612
P 11.873323685768485 12.23106085737848 7.442576823487936
P 12.824446632929016 13.918561478717075 8.53967406122614
P 9.554164855319222 5.998881555797012 9.661348527539394
P 10.13542305574063 7.673370824822259 12.97139065806932
P 11.164104508363694 7.537774854560956 9.842927934008143
P 6.5174858284345865 11.891475482577164 9.920437321920753
P 16.200805822604483 8.66881984872451 12.21806542167304
P 16.457885606689754 10.217020525931947 9.335809261106112
P 15.380024642443004 11.68213520642652 8.075377796003545
P 18.327975753216407 13.19840734047023 9.71980991727791
P 11.056323249538373 11.108806663016878 13.492791238501713
P 9.218463496928003 8.474533795679182 14.862845907439622
P 9.863713936694797 8.926328455433508 11.131297579013648
P 11.325371139997232 8.982668961911191 14.335728871642685
P 14.27642952838197 8.007568462898663 13.213088695127961
P 15.064948640597489 9.217191483979002 14.965739671462979
