51
Energy = -262.61131124 eV
P 12.532105914053377 15.372917301224799 12.630135351960245
P 9.363262473114473 15.722621233736735 12.162825996826319
P 8.670741676995407 13.682887943588723 11.593880461323876
P 11.152561532419249 15.454819367824363 9.277055951712748
P 9.091309146327626 14.516654766734726 9.604503981902557
P 8.549244018825677 13.013582427509407 8.041023325713423
P 7.545690467017851 15.500144296035307 10.836570210642643
P 10.76313873182627 12.575156625927413 8.591057870453666
P 8.26581348731446 9.49335712443447 10.086272674668134
P 10.717475376562803 9.16748428554857 6.452267639947875
P 6.785162860881379 10.066251165679402 8.536220545438571
P 6.902370067840579 12.151091004791406 9.297347026797894
P 12.231023504485952 14.125543274984006 10.760844668028627
P 11.809102867690816 14.32119942908905 14.48134722972968
P 10.382634195595656 12.702875306886662 13.868620213660504
P 10.168192405251729 15.512066137712617 15.496128407888913
P 9.428701822193673 9.8231771812796 12.83980520071127
P 8.380151158808168 15.659758469605801 14.176518559506208
P 6.1313351411500765 9.376725844210021 10.600675406770709
P 9.2750669474145 7.534373957781334 12.315847401576972
P 7.569056301192813 10.862654600846096 13.331289539703992
P 6.394504303911038 11.355163317563143 11.599192605402639
P 8.789829200565618 13.729506237773956 15.19541621638498
P 8.885264318203467 7.3081417802197555 10.106289630814256
P 11.814604298934334 7.646902671426547 7.497967477578941
P 10.959990561122956 7.891211960529392 9.569474678681887
P 11.198246271327662 10.021502325589092 10.040717511290202
P 12.429762873903583 9.596048001799874 12.614522465472675
P 9.729087046312328 9.410349882658613 15.080499334293092
P 11.298786932175405 6.8632100417127635 12.704318139294179
P 15.232524577338772 9.900541559739276 14.731620817922234
P 10.67502606780755 11.370658564731539 15.721965750170929
P 16.293197075683846 10.22665889466833 9.844658334173243
P 14.217852550629868 11.936795294092965 14.650560844658012
P 11.865583966373501 9.472574533222483 15.799576390753662
P 13.392117701244324 8.674729971253988 14.343781576595857
P 12.454878894309665 6.882693203067119 10.82090186411887
P 12.76427688564352 11.781918058778706 12.945700099766391
P 16.38500912263645 9.729731228567474 12.849707619622036
P 14.798349634954022 12.596364938793164 12.649969150033769
P 13.401228350047713 9.002632163747194 10.635491604739471
P 13.84991447645489 8.515610755114837 8.234806313943142
P 15.594648737251413 8.53298967001534 11.165498960983037
P 13.6154144325463 10.587506677158238 7.5764800826718774
P 11.660382446292513 14.23197107344639 7.5355597223894915
P 14.319050408212485 11.258348608390316 9.599033002524159
P 14.71425144873792 14.809785052360033 12.509255571899066
P 16.552224737193892 11.770756791139082 11.523354636890437
P 15.549420503636846 13.104169116317575 9.545032004240609
P 11.372946701275092 10.570292798240017 7.9239785931597435
P 14.320219124101904 14.828626090871037 10.247165326148513
