52
Energy = -267.98289847 eV
P 11.643747082887002 10.92593292063685 5.561880231840042
P 8.744938946280293 10.621877658364978 4.501217980620393
P 9.55119927803949 12.949596944770489 6.836070432332253
P 9.478282966257902 8.506608101512322 4.141592725824037
P 5.994589941450102 8.643091323051898 5.74639983872289
P 10.726679441841387 5.700520088445833 5.795694090334526
P 11.557404915778097 8.73526061730367 4.9513598546071735
P 7.392951351173427 4.457249263559494 6.643232240533072
P 6.537292401084102 10.698921139541355 5.113183185217473
P 12.896435154423033 10.971711226275675 7.4134980891288995
P 11.31448179414941 14.124986073159292 6.224741480223546
P 7.045799773671819 11.238019271998331 7.199063968314171
P 7.094170757299418 5.875279377843141 8.199948638101988
P 12.417002566260038 6.4244098935687335 7.103923185398419
P 10.603082340876789 13.363507732556876 8.768007250628244
P 9.523804555035086 4.4565398068542965 7.246653446274144
P 9.65539745543749 10.739625043923054 6.529268242103966
P 7.3523715217489585 13.433461753441694 7.52293965229829
P 4.20104202392152 9.062459763406135 6.992491397581313
P 12.58003828626934 13.234942770147265 7.833989350676569
P 6.081415735904351 8.465632585030448 8.04325467762178
P 9.970884958057821 7.798270876615446 6.220969876980435
P 11.784089419712009 5.603773743347295 8.89916232333179
P 9.23757543237947 5.8365791712162105 8.996630015026044
P 5.2487365222049505 10.541382941304807 8.325320454535447
P 11.697299426473661 9.943020523332287 9.041343608665413
P 6.28686337220002 7.8424115897917375 10.38725144917037
P 10.152192801569582 15.422049620080532 9.48761393144759
P 7.132748364786072 13.227615886033096 9.785476870191559
P 13.393310177175056 8.551758287613367 9.431921826902062
P 8.769123191960704 14.403964017124979 10.945354235285997
P 11.67696265572865 14.757521772247369 10.975829095409402
P 8.805804864627254 4.145070591480284 10.40224754878554
P 7.606142876997279 11.149348869397903 10.508191544875523
P 13.262742414012193 10.497490078977393 10.561619460538566
P 5.682797265925675 5.726675314385916 9.967927474388556
P 10.670748812013203 6.846236574050282 11.469732363037865
P 10.451952079948063 4.627442234196885 11.827841308362265
P 10.430414834637649 12.955456280406997 11.058766623986246
P 8.231035766338882 8.060140160468467 12.389378211883999
P 4.6696644097961215 8.952706637841723 11.158263786711714
P 5.8143199173166575 10.72249383407633 11.831115410269646
P 12.743605739131993 6.725097346708297 10.539686315903591
P 8.789812546289825 11.267517216726517 12.470376259755238
P 12.414815447859045 10.383771902169505 12.589743350621992
P 6.986897699208054 4.739191559443282 11.560487094723497
P 10.416819494774405 9.672114965198544 12.207591741569319
P 7.220565584758163 9.86248674471499 13.3511872929264
P 9.42746517665485 5.124145546299255 13.792681255329757
P 7.48675339869165 6.128042175676467 13.246921294018728
P 10.975665894846147 6.789731578135961 13.679827204818546
P 9.69885811850661 8.595655559916302 14.049927766534358
