54
Energy = -279.20853408 eV
P 10.887661838412264 10.401181398796089 5.625323518749379
P 13.912283025845463 11.837303489379345 6.9812194504363045
P 12.328392111524167 10.270280183513988 7.316784407909285
P 11.696573595014062 6.992872875548829 7.715001540656727
P 13.409715070365818 8.296409185867704 6.988326157397351
P 10.56929822973151 12.608781848051253 5.853645659119186
P 14.81161129879717 8.446734156086416 8.71412784074423
P 6.930011404517562 16.272380565110108 10.884191076501855
P 12.529867412920877 13.527432946324458 6.361290330449202
P 8.844274094399246 10.56586385131579 6.7081880936482685
P 7.708396578401265 9.007520644766611 7.700429155373596
P 12.85562727565528 13.05480056940495 8.527260806530943
P 12.629844082171026 5.669672348952133 9.256432635739452
P 13.624119248116665 9.733899742416783 10.100532653686898
P 11.136376637686823 11.695211382471145 9.152296389592685
P 8.636193028493398 7.768659172867865 9.216130748474145
P 14.770038476139218 6.255029505848601 9.106461502434103
P 10.600642784757945 8.635699857608673 8.816163026245272
P 9.121407431809018 16.403184376436023 11.11056899125133
P 10.522104671176656 15.111390045438037 9.774490606762008
P 9.473986867307731 12.407457577633894 7.819708795443294
P 11.847051696583062 8.502090006624254 10.651871208411537
P 6.046195986247735 15.1141574725536 12.435636881544774
P 12.504850008076641 15.741468111548532 10.62095330203237
P 14.00310803936311 14.361868708779179 9.740956819500319
P 5.629322550019524 12.836294817645562 11.948852152997897
P 14.765801503792563 6.105287157243497 11.352198351659736
P 9.421661562252757 14.977760592145998 12.720920429304302
P 12.53650831459064 6.585013689594044 11.500554741209582
P 7.643016803187866 15.125901301914842 14.035784147050817
P 10.93161886553241 13.231286314233301 10.840133946172225
P 9.11083759709716 12.859416795683437 12.04972328243334
P 5.887215653069999 12.032104592655298 14.065250271815744
P 12.876239033616292 15.235279614513908 12.900873056898398
P 13.118201591422206 8.450752105275061 13.13842738788726
P 6.862475713035477 10.07836213458493 11.456524633886309
P 7.36365507280956 12.157775795922475 10.81017069657844
P 14.67709062285717 9.604652735059103 12.095129972865102
P 14.128869380487362 13.429489643946761 13.319354447105288
P 7.862669183237039 12.911581680418827 14.084241653154924
P 15.996130015789241 7.79882224794297 12.000943700055835
P 11.413933018197161 9.745776942862665 12.46196717514469
P 11.351435984133527 14.772621947668018 14.458554651685889
P 8.186652522224717 8.372720666000207 11.516978804899685
P 6.6343310194185605 9.94388740413783 13.64060982530508
P 16.000180698949116 9.590058629540504 14.976447659615095
P 10.903829328049145 12.63687896055333 13.852544444342929
P 9.680301513641643 8.527811829831728 13.20548661597277
P 16.079228240921744 7.518944750060601 14.282701259510848
P 8.63074445809543 9.827413597772434 14.73143744371022
P 13.399045467327806 13.790330567286958 15.389826857594903
P 12.93068490225402 11.877669276069426 14.419509131371745
P 9.361822773811996 11.945824684309171 15.365059825897635
P 14.26892956892553 8.400993354044548 15.25386568749982
