7
Energy = -34.88077978 eV
P 6.610636976364084 8.050537578949703 5.149187364788064
P 8.445352632630385 7.23856938189603 5.908354394019926
P 5.827989597031863 6.454468671111254 6.352175882040193
P 8.71083662569774 7.596600235732547 8.117865150090934
P 6.097593343283982 6.809670378390087 8.563194795391881
P 7.712638464465413 5.64880912788597 7.401596645952004
P 7.069665286546132 8.676057552054134 8.982338693736727
