7
Energy = -33.70141435 eV
P 9.555153116411619 7.35004803711343 6.889766967969257
P 6.845340836933369 9.417627326120448 7.3714559451432455
P 7.892671815582603 7.322567881582037 9.835141179197768
P 6.102143061478188 8.433001808629706 9.156716040405374
P 7.963281467325954 8.433123124258916 5.790369877684545
P 8.616785677228124 5.894417101453437 8.287653039375883
P 8.732108484784613 8.774110002598029 8.380144775625038
