<?xml version="1.0" encoding="ISO-8859-1"?>
<modeling>
 <generator>
  <i name="program" type="string">vasp </i>
  <i name="version" type="string">5.3.5  </i>
  <i name="subversion" type="string">31Mar14 (build Feb 01 2018 12:10:03) gamma-only                       parallel </i>
  <i name="platform" type="string">LinuxIFC </i>
  <i name="date" type="string">2019 03 24 </i>
  <i name="time" type="string">23:38:05 </i>
 </generator>
 <incar>
  <i type="string" name="PREC">normal</i>
  <i type="int" name="ISPIN">     2</i>
  <i type="int" name="IBRION">     2</i>
  <i type="int" name="NSW">  1000</i>
  <i type="int" name="ISIF">     2</i>
  <i name="POTIM">      0.10000000</i>
  <i type="logical" name="LPLANE"> T  </i>
  <i type="int" name="ISMEAR">     0</i>
  <i name="SIGMA">      0.00010000</i>
  <i type="logical" name="LWAVE"> F  </i>
  <i type="logical" name="LCHARG"> F  </i>
  <i type="logical" name="LVTOT"> F  </i>
  <i type="string" name="GGA"> PE</i>
 </incar>
 <kpoints>
  <varray name="kpointlist" >
   <v>       0.00000000       0.00000000       0.00000000 </v>
  </varray>
  <varray name="weights" >
   <v>       1.00000000 </v>
  </varray>
 </kpoints>
 <parameters>
  <separator name="general" >
   <i type="string" name="SYSTEM">unknown system</i>
   <i type="logical" name="LCOMPAT"> F  </i>
  </separator>
  <separator name="electronic" >
   <i type="string" name="PREC">normal</i>
   <i name="ENMAX">    249.84400000</i>
   <i name="ENAUG">    412.49600000</i>
   <i name="EDIFF">      0.00010000</i>
   <i type="int" name="IALGO">    38</i>
   <i type="int" name="IWAVPR">    11</i>
   <i type="int" name="NBANDS">   356</i>
   <i name="NELECT">    550.00000000</i>
   <i type="int" name="TURBO">     0</i>
   <i type="int" name="IRESTART">     0</i>
   <i type="int" name="NREBOOT">     0</i>
   <i type="int" name="NMIN">     0</i>
   <i name="EREF">      0.00000000</i>
   <separator name="electronic smearing" >
    <i type="int" name="ISMEAR">     0</i>
    <i name="SIGMA">      0.00010000</i>
    <i name="KSPACING">      0.50000000</i>
    <i type="logical" name="KGAMMA"> T  </i>
   </separator>
   <separator name="electronic projectors" >
    <i type="logical" name="LREAL"> F  </i>
    <v name="ROPT">      0.00000000</v>
    <i type="int" name="LMAXPAW">  -100</i>
    <i type="int" name="LMAXMIX">     2</i>
    <i type="logical" name="NLSPLINE"> F  </i>
   </separator>
   <separator name="electronic startup" >
    <i type="int" name="ISTART">     0</i>
    <i type="int" name="ICHARG">     2</i>
    <i type="int" name="INIWAV">     1</i>
   </separator>
   <separator name="electronic spin" >
    <i type="int" name="ISPIN">     2</i>
    <i type="logical" name="LNONCOLLINEAR"> F  </i>
    <v name="MAGMOM">      1.00000000      1.00000000      1.00000000      1.00000000      1.00000000      1.00000000      1.00000000      1.00000000      1.00000000      1.00000000      1.00000000      1.00000000      1.00000000      1.00000000      1.00000000      1.00000000      1.00000000      1.00000000      1.00000000      1.00000000
      1.00000000      1.00000000      1.00000000      1.00000000      1.00000000      1.00000000      1.00000000      1.00000000      1.00000000      1.00000000      1.00000000      1.00000000      1.00000000      1.00000000      1.00000000      1.00000000      1.00000000      1.00000000      1.00000000      1.00000000
      1.00000000      1.00000000      1.00000000      1.00000000      1.00000000      1.00000000      1.00000000      1.00000000      1.00000000      1.00000000</v>
    <i name="NUPDOWN">     -1.00000000</i>
    <i type="logical" name="LSORBIT"> F  </i>
    <v name="SAXIS">      0.00000000      0.00000000      1.00000000</v>
    <i type="logical" name="LSPIRAL"> F  </i>
    <v name="QSPIRAL">      0.00000000      0.00000000      0.00000000</v>
    <i type="logical" name="LZEROZ"> F  </i>
   </separator>
   <separator name="electronic exchange-correlation" >
    <i type="logical" name="LASPH"> F  </i>
    <i type="logical" name="LMETAGGA"> F  </i>
   </separator>
   <separator name="electronic convergence" >
    <i type="int" name="NELM">    60</i>
    <i type="int" name="NELMDL">    -5</i>
    <i type="int" name="NELMIN">     2</i>
    <i name="ENINI">    249.84400000</i>
    <separator name="electronic convergence detail" >
     <i type="logical" name="LDIAG"> T  </i>
     <i type="logical" name="LSUBROT"> F  </i>
     <i name="WEIMIN">      0.00100000</i>
     <i name="EBREAK">      0.00000007</i>
     <i name="DEPER">      0.30000000</i>
     <i type="int" name="NRMM">     4</i>
     <i name="TIME">      0.40000000</i>
    </separator>
   </separator>
   <separator name="electronic mixer" >
    <i name="AMIX">      0.40000000</i>
    <i name="BMIX">      1.00000000</i>
    <i name="AMIN">      0.10000000</i>
    <i name="AMIX_MAG">      1.60000000</i>
    <i name="BMIX_MAG">      1.00000000</i>
    <separator name="electronic mixer details" >
     <i type="int" name="IMIX">     4</i>
     <i type="int" name="MAXMIX">   -45</i>
     <i name="WC">    100.00000000</i>
     <i type="int" name="INIMIX">     1</i>
     <i type="int" name="MIXPRE">     1</i>
     <i type="int" name="MREMOVE">     5</i>
    </separator>
   </separator>
   <separator name="electronic dipolcorrection" >
    <i type="logical" name="LDIPOL"> F  </i>
    <i type="logical" name="LMONO"> F  </i>
    <i type="int" name="IDIPOL">     0</i>
    <i name="EPSILON">      1.00000000</i>
    <v name="DIPOL">   -100.00000000   -100.00000000   -100.00000000</v>
    <i name="EFIELD">      0.00000000</i>
   </separator>
  </separator>
  <separator name="grids" >
   <i type="int" name="NGX">    90</i>
   <i type="int" name="NGY">    90</i>
   <i type="int" name="NGZ">    90</i>
   <i type="int" name="NGXF">   180</i>
   <i type="int" name="NGYF">   180</i>
   <i type="int" name="NGZF">   180</i>
   <i type="logical" name="ADDGRID"> F  </i>
  </separator>
  <separator name="ionic" >
   <i type="int" name="NSW">  1000</i>
   <i type="int" name="IBRION">     2</i>
   <i type="int" name="ISIF">     2</i>
   <i name="PSTRESS">      0.00000000</i>
   <i name="EDIFFG">      0.00100000</i>
   <i type="int" name="NFREE">     1</i>
   <i name="POTIM">      0.10000000</i>
   <i name="SMASS">     -3.00000000</i>
   <i name="SCALEE">      1.00000000</i>
  </separator>
  <separator name="ionic md" >
   <i name="TEBEG">      0.00010000</i>
   <i name="TEEND">      0.00010000</i>
   <i type="int" name="NBLOCK">     1</i>
   <i type="int" name="KBLOCK">  1000</i>
   <i type="int" name="NPACO">   256</i>
   <i name="APACO">     16.00000000</i>
  </separator>
  <separator name="symmetry" >
   <i type="int" name="ISYM">     2</i>
   <i name="SYMPREC">      0.00001000</i>
  </separator>
  <separator name="dos" >
   <i type="logical" name="LORBIT"> F  </i>
   <v name="RWIGS">     -1.00000000</v>
   <i type="int" name="NEDOS">   301</i>
   <i name="EMIN">     10.00000000</i>
   <i name="EMAX">    -10.00000000</i>
   <i name="EFERMI">      0.00000000</i>
  </separator>
  <separator name="writing" >
   <i type="int" name="NWRITE">     2</i>
   <i type="logical" name="LWAVE"> F  </i>
   <i type="logical" name="LCHARG"> F  </i>
   <i type="logical" name="LPARD"> F  </i>
   <i type="logical" name="LVTOT"> F  </i>
   <i type="logical" name="LVHAR"> F  </i>
   <i type="logical" name="LELF"> F  </i>
   <i type="logical" name="LOPTICS"> F  </i>
   <v name="STM">      0.00000000      0.00000000      0.00000000      0.00000000      0.00000000      0.00000000      0.00000000</v>
  </separator>
  <separator name="performance" >
   <i type="int" name="NPAR">     4</i>
   <i type="int" name="NSIM">     4</i>
   <i type="int" name="NBLK">    -1</i>
   <i type="logical" name="LPLANE"> T  </i>
   <i type="logical" name="LSCALAPACK"> T  </i>
   <i type="logical" name="LSCAAWARE"> F  </i>
   <i type="logical" name="LSCALU"> F  </i>
   <i type="logical" name="LASYNC"> F  </i>
   <i type="logical" name="LORBITALREAL"> F  </i>
  </separator>
  <separator name="miscellaneous" >
   <i type="int" name="IDIOT">     3</i>
   <i type="logical" name="LMUSIC"> F  </i>
   <v name="POMASS">    107.86800000</v>
   <v name="DARWINR">      0.00000000</v>
   <v name="DARWINV">      1.00000000</v>
   <i type="logical" name="LCORR"> T  </i>
  </separator>
  <i type="logical" name="GGA_COMPAT"> T  </i>
  <i type="logical" name="LBERRY"> F  </i>
  <i type="int" name="ICORELEVEL">     0</i>
  <i type="logical" name="LDAU"> F  </i>
  <i type="int" name="I_CONSTRAINED_M">     0</i>
  <separator name="electronic exchange-correlation" >
   <i type="string" name="GGA">PE</i>
   <i type="int" name="VOSKOWN">     0</i>
   <i type="logical" name="LHFCALC"> F  </i>
   <i type="string" name="PRECFOCK"></i>
   <i type="logical" name="LSYMGRAD"> F  </i>
   <i type="logical" name="LHFONE"> F  </i>
   <i type="logical" name="LRHFCALC"> F  </i>
   <i type="logical" name="LTHOMAS"> F  </i>
   <i type="logical" name="LMODELHF"> F  </i>
   <i name="ENCUT4O">     -1.00000000</i>
   <i type="int" name="EXXOEP">     0</i>
   <i type="int" name="FOURORBIT">     0</i>
   <i name="AEXX">      0.00000000</i>
   <i name="HFALPHA">      0.00000000</i>
   <i name="MCALPHA">      0.00000000</i>
   <i name="ALDAX">      1.00000000</i>
   <i name="AGGAX">      1.00000000</i>
   <i name="ALDAC">      1.00000000</i>
   <i name="AGGAC">      1.00000000</i>
   <i type="int" name="NKREDX">     1</i>
   <i type="int" name="NKREDY">     1</i>
   <i type="int" name="NKREDZ">     1</i>
   <i type="logical" name="SHIFTRED"> F  </i>
   <i type="logical" name="ODDONLY"> F  </i>
   <i type="logical" name="EVENONLY"> F  </i>
   <i type="int" name="LMAXFOCK">     0</i>
   <i type="int" name="NMAXFOCKAE">     0</i>
   <i type="logical" name="LFOCKAEDFT"> F  </i>
   <i name="HFSCREEN">      0.00000000</i>
   <i name="HFSCREENC">      0.00000000</i>
   <i type="int" name="NBANDSGWLOW">     0</i>
  </separator>
  <separator name="vdW DFT" >
   <i type="logical" name="LUSE_VDW"> F  </i>
   <i name="Zab_VDW">     -0.84910000</i>
   <i name="PARAM1">      0.12340000</i>
   <i name="PARAM2">      1.00000000</i>
   <i name="PARAM3">      0.00000000</i>
  </separator>
  <separator name="model GW" >
   <i type="int" name="MODEL_GW">     0</i>
   <i name="MODEL_EPS0">    151.30090128</i>
   <i name="MODEL_ALPHA">      1.00000000</i>
  </separator>
  <separator name="linear response parameters" >
   <i type="logical" name="LEPSILON"> F  </i>
   <i type="logical" name="LRPA"> F  </i>
   <i type="logical" name="LNABLA"> F  </i>
   <i type="logical" name="LVEL"> F  </i>
   <i type="int" name="KINTER">     0</i>
   <i name="CSHIFT">      0.10000000</i>
   <i name="OMEGAMAX">     -1.00000000</i>
   <i name="DEG_THRESHOLD">      0.00200000</i>
  </separator>
  <separator name="orbital magnetization" >
   <i type="logical" name="NUCIND"> F  </i>
   <v name="MAGPOS">      0.00000000      0.00000000      0.00000000</v>
   <i type="logical" name="LNICSALL"> T  </i>
   <i type="logical" name="ORBITALMAG"> F  </i>
   <i type="logical" name="LMAGBLOCH"> F  </i>
   <i type="logical" name="LCHIMAG"> F  </i>
   <i type="logical" name="LGAUGE"> T  </i>
   <i type="int" name="MAGATOM">     0</i>
   <v name="MAGDIPOL">      0.00000000      0.00000000      0.00000000</v>
   <v name="AVECCONST">      0.00000000      0.00000000      0.00000000</v>
  </separator>
  <separator name="response functions" >
   <i type="logical" name="LADDER"> F  </i>
   <i type="logical" name="LFXC"> F  </i>
   <i type="logical" name="LHARTREE"> T  </i>
   <i type="int" name="IBSE">     0</i>
   <i type="logical" name="LTCTE"> F  </i>
   <i type="logical" name="LTETE"> F  </i>
   <i type="logical" name="LTRIPLET"> F  </i>
   <i type="logical" name="LFXCEPS"> F  </i>
   <i type="logical" name="LFXHEG"> F  </i>
   <i type="logical" name="L2ORDER"> F  </i>
   <i type="logical" name="LUSEW"> F  </i>
   <i name="ENCUTGW">     -2.00000000</i>
   <i name="ENCUTGWSOFT">     -2.00000000</i>
   <i name="ENCUTLF">     -1.00000000</i>
   <i type="int" name="LMAXMP2">    -1</i>
   <i name="SCISSOR">      0.00000000</i>
   <i type="int" name="NOMEGA">     0</i>
   <i type="int" name="NOMEGAR">     0</i>
   <i type="int" name="NBANDSGW">    -1</i>
   <i type="int" name="NBANDSO">    -1</i>
   <i type="int" name="NBANDSV">    -1</i>
   <i type="int" name="NELM">     1</i>
   <i type="int" name="DIM">     3</i>
   <i type="int" name="ANTIRES">     0</i>
   <i name="OMEGAMAX">    -30.00000000</i>
   <i name="OMEGAMIN">    -30.00000000</i>
   <i name="OMEGATL">   -200.00000000</i>
   <i type="int" name="OMEGAGRID">     0</i>
   <i name="CSHIFT">     -0.10000000</i>
   <i type="logical" name="SELFENERGY"> F  </i>
   <i type="logical" name="LSPECTRAL"> F  </i>
   <i type="logical" name="ODDONLYGW"> F  </i>
   <i type="logical" name="EVENONLYGW"> F  </i>
   <i type="int" name="NKREDLFX">     1</i>
   <i type="int" name="NKREDLFY">     1</i>
   <i type="int" name="NKREDLFZ">     1</i>
   <i type="int" name="MAXMEM">  1800</i>
   <i type="int" name="TELESCOPE">     0</i>
   <i type="int" name="TAUPAR">     1</i>
  </separator>
  <separator name="External order field" >
   <i name="OFIELD_KAPPA">      0.00000000</i>
   <v name="OFIELD_K">      0.00000000      0.00000000      0.00000000</v>
   <i name="OFIELD_Q6_NEAR">      0.00000000</i>
   <i name="OFIELD_Q6_FAR">      0.00000000</i>
   <i name="OFIELD_A">      0.00000000</i>
  </separator>
 </parameters>
 <atominfo>
  <atoms>      50 </atoms>
  <types>       1 </types>
  <array name="atoms" >
   <dimension dim="1">ion</dimension>
   <field type="string">element</field>
   <field type="int">atomtype</field>
   <set>
    <rc><c>Ag</c><c>   1</c></rc>
    <rc><c>Ag</c><c>   1</c></rc>
    <rc><c>Ag</c><c>   1</c></rc>
    <rc><c>Ag</c><c>   1</c></rc>
    <rc><c>Ag</c><c>   1</c></rc>
    <rc><c>Ag</c><c>   1</c></rc>
    <rc><c>Ag</c><c>   1</c></rc>
    <rc><c>Ag</c><c>   1</c></rc>
    <rc><c>Ag</c><c>   1</c></rc>
    <rc><c>Ag</c><c>   1</c></rc>
    <rc><c>Ag</c><c>   1</c></rc>
    <rc><c>Ag</c><c>   1</c></rc>
    <rc><c>Ag</c><c>   1</c></rc>
    <rc><c>Ag</c><c>   1</c></rc>
    <rc><c>Ag</c><c>   1</c></rc>
    <rc><c>Ag</c><c>   1</c></rc>
    <rc><c>Ag</c><c>   1</c></rc>
    <rc><c>Ag</c><c>   1</c></rc>
    <rc><c>Ag</c><c>   1</c></rc>
    <rc><c>Ag</c><c>   1</c></rc>
    <rc><c>Ag</c><c>   1</c></rc>
    <rc><c>Ag</c><c>   1</c></rc>
    <rc><c>Ag</c><c>   1</c></rc>
    <rc><c>Ag</c><c>   1</c></rc>
    <rc><c>Ag</c><c>   1</c></rc>
    <rc><c>Ag</c><c>   1</c></rc>
    <rc><c>Ag</c><c>   1</c></rc>
    <rc><c>Ag</c><c>   1</c></rc>
    <rc><c>Ag</c><c>   1</c></rc>
    <rc><c>Ag</c><c>   1</c></rc>
    <rc><c>Ag</c><c>   1</c></rc>
    <rc><c>Ag</c><c>   1</c></rc>
    <rc><c>Ag</c><c>   1</c></rc>
    <rc><c>Ag</c><c>   1</c></rc>
    <rc><c>Ag</c><c>   1</c></rc>
    <rc><c>Ag</c><c>   1</c></rc>
    <rc><c>Ag</c><c>   1</c></rc>
    <rc><c>Ag</c><c>   1</c></rc>
    <rc><c>Ag</c><c>   1</c></rc>
    <rc><c>Ag</c><c>   1</c></rc>
    <rc><c>Ag</c><c>   1</c></rc>
    <rc><c>Ag</c><c>   1</c></rc>
    <rc><c>Ag</c><c>   1</c></rc>
    <rc><c>Ag</c><c>   1</c></rc>
    <rc><c>Ag</c><c>   1</c></rc>
    <rc><c>Ag</c><c>   1</c></rc>
    <rc><c>Ag</c><c>   1</c></rc>
    <rc><c>Ag</c><c>   1</c></rc>
    <rc><c>Ag</c><c>   1</c></rc>
    <rc><c>Ag</c><c>   1</c></rc>
   </set>
  </array>
  <array name="atomtypes" >
   <dimension dim="1">type</dimension>
   <field type="int">atomspertype</field>
   <field type="string">element</field>
   <field>mass</field>
   <field>valence</field>
   <field type="string">pseudopotential</field>
   <set>
    <rc><c>  50</c><c>Ag</c><c>    107.86800000</c><c>     11.00000000</c><c>  PAW_PBE Ag 02Apr2005                  </c></rc>
   </set>
  </array>
 </atominfo>
 <structure name="initialpos" >
  <crystal>
   <varray name="basis" >
    <v>      23.27484280       0.00000000       0.00000000 </v>
    <v>       0.00000000      23.27484280       0.00000000 </v>
    <v>       0.00000000       0.00000000      23.27484280 </v>
   </varray>
   <i name="volume">  12608.40843987 </i>
   <varray name="rec_basis" >
    <v>       0.04296484       0.00000000       0.00000000 </v>
    <v>       0.00000000       0.04296484       0.00000000 </v>
    <v>       0.00000000       0.00000000       0.04296484 </v>
   </varray>
  </crystal>
  <varray name="positions" >
   <v>       0.72394786       0.39559198       0.37534991 </v>
   <v>       0.66217962       0.49874342       0.37264842 </v>
   <v>       0.60582565       0.38736106       0.35639128 </v>
   <v>       0.73783884       0.47424918       0.46689830 </v>
   <v>       0.66695109       0.32823286       0.45591345 </v>
   <v>       0.59879332       0.59658691       0.36773839 </v>
   <v>       0.48789022       0.38435896       0.35552103 </v>
   <v>       0.54266546       0.49005448       0.36785565 </v>
   <v>       0.68056580       0.57858842       0.46433624 </v>
   <v>       0.61922751       0.43706369       0.47036212 </v>
   <v>       0.72007124       0.39401999       0.55087727 </v>
   <v>       0.54799949       0.32951348       0.44920898 </v>
   <v>       0.52922101       0.69287257       0.36816698 </v>
   <v>       0.41938607       0.48616227       0.36749096 </v>
   <v>       0.61764241       0.67591483       0.45698161 </v>
   <v>       0.60589746       0.34479600       0.55594050 </v>
   <v>       0.36767422       0.37788497       0.35864095 </v>
   <v>       0.47337831       0.58830280       0.37216649 </v>
   <v>       0.66606306       0.50843445       0.56118989 </v>
   <v>       0.56383598       0.54218323       0.47331547 </v>
   <v>       0.42992841       0.33336232       0.45134193 </v>
   <v>       0.45264934       0.78135035       0.39134820 </v>
   <v>       0.54689608       0.77047359       0.46118009 </v>
   <v>       0.48989281       0.44212221       0.46549890 </v>
   <v>       0.60918761       0.61310638       0.56200679 </v>
   <v>       0.64540453       0.42095963       0.63980991 </v>
   <v>       0.40352032       0.67379506       0.41617233 </v>
   <v>       0.50350203       0.64716307       0.48436853 </v>
   <v>       0.58594351       0.53624544       0.65079991 </v>
   <v>       0.42073895       0.54877625       0.47083256 </v>
   <v>       0.57228959       0.72489192       0.56491204 </v>
   <v>       0.54825431       0.45707557       0.57153581 </v>
   <v>       0.43833483       0.74692857       0.50975180 </v>
   <v>       0.49146482       0.35247209       0.55453832 </v>
   <v>       0.36186794       0.44104429       0.46284138 </v>
   <v>       0.37283381       0.35372562       0.55446555 </v>
   <v>       0.49307304       0.56640970       0.57203980 </v>
   <v>       0.54730534       0.42417704       0.70011953 </v>
   <v>       0.37604716       0.64715600       0.52930452 </v>
   <v>       0.42397834       0.46726214       0.56275232 </v>
   <v>       0.48902693       0.61138893       0.69780907 </v>
   <v>       0.46879094       0.68142961       0.60451051 </v>
   <v>       0.53827365       0.52795509       0.75934411 </v>
   <v>       0.32356004       0.54430391       0.54444315 </v>
   <v>       0.46136510       0.50159938       0.67246413 </v>
   <v>       0.43511276       0.38491985       0.65725969 </v>
   <v>       0.28674213       0.43684587       0.56163003 </v>
   <v>       0.31139705       0.36881648       0.65742019 </v>
   <v>       0.38858096       0.59351184       0.63827135 </v>
   <v>       0.34639725       0.48324121       0.65660828 </v>
  </varray>
 </structure>
 <calculation>
  <scstep>
   <time name="dav">    6.06    6.07</time>
   <time name="total">    6.29    7.02</time>
   <energy>
    <i name="alphaZ">    168.65294162 </i>
    <i name="ewald"> 146451.89122010 </i>
    <i name="hartreedc">-196359.79874530 </i>
    <i name="XCdc">   -544.26356351 </i>
    <i name="pawpsdc">  50168.60890348 </i>
    <i name="pawaedc"> -47863.23044394 </i>
    <i name="eentropy">      0.00000000 </i>
    <i name="bandstr">    622.98344608 </i>
    <i name="atom">  51859.93150432 </i>
    <i name="e_fr_energy">   4504.77526284 </i>
    <i name="e_wo_entrp">   4504.77526284 </i>
    <i name="e_0_energy">   4504.77526284 </i>
   </energy>
  </scstep>
  <scstep>
   <time name="dav">    8.66    8.67</time>
   <time name="total">    8.66    8.68</time>
   <energy>
    <i name="e_fr_energy">    676.43271141 </i>
    <i name="e_wo_entrp">    676.43271141 </i>
    <i name="e_0_energy">    676.43271141 </i>
   </energy>
  </scstep>
  <scstep>
   <time name="dav">    7.02    7.02</time>
   <time name="total">    7.02    7.03</time>
   <energy>
    <i name="e_fr_energy">    -79.77653094 </i>
    <i name="e_wo_entrp">    -79.77653094 </i>
    <i name="e_0_energy">    -79.77653094 </i>
   </energy>
  </scstep>
  <scstep>
   <time name="dav">    6.35    6.36</time>
   <time name="total">    6.35    6.36</time>
   <energy>
    <i name="e_fr_energy">   -108.31002102 </i>
    <i name="e_wo_entrp">   -108.31002102 </i>
    <i name="e_0_energy">   -108.31002102 </i>
   </energy>
  </scstep>
  <scstep>
   <time name="dav">    6.54    6.55</time>
   <time name="total">    6.69    6.71</time>
   <energy>
    <i name="e_fr_energy">   -108.73473985 </i>
    <i name="e_wo_entrp">   -108.73473985 </i>
    <i name="e_0_energy">   -108.73473985 </i>
   </energy>
  </scstep>
  <scstep>
   <time name="dav">    6.03    6.04</time>
   <time name="total">    6.40    6.57</time>
   <energy>
    <i name="e_fr_energy">    -56.80033265 </i>
    <i name="e_wo_entrp">    -56.80033265 </i>
    <i name="e_0_energy">    -56.80033265 </i>
   </energy>
  </scstep>
  <scstep>
   <time name="dav">    6.24    6.25</time>
   <time name="total">    6.61    6.63</time>
   <energy>
    <i name="e_fr_energy">    -46.54542013 </i>
    <i name="e_wo_entrp">    -46.54542013 </i>
    <i name="e_0_energy">    -46.54542013 </i>
   </energy>
  </scstep>
  <scstep>
   <time name="dav">    6.35    6.35</time>
   <time name="total">    6.72    6.94</time>
   <energy>
    <i name="e_fr_energy">    -37.16613423 </i>
    <i name="e_wo_entrp">    -37.16613423 </i>
    <i name="e_0_energy">    -37.16613423 </i>
   </energy>
  </scstep>
  <scstep>
   <time name="dav">    6.42    6.43</time>
   <time name="total">    6.80    6.81</time>
   <energy>
    <i name="e_fr_energy">    -41.60539748 </i>
    <i name="e_wo_entrp">    -41.60539748 </i>
    <i name="e_0_energy">    -41.60539748 </i>
   </energy>
  </scstep>
  <scstep>
   <time name="dav">    6.24    6.24</time>
   <time name="total">    6.61    6.64</time>
   <energy>
    <i name="e_fr_energy">    -57.05732045 </i>
    <i name="e_wo_entrp">    -57.05732045 </i>
    <i name="e_0_energy">    -57.05732045 </i>
   </energy>
  </scstep>
  <scstep>
   <time name="dav">    6.24    6.25</time>
   <time name="total">    6.62    6.65</time>
   <energy>
    <i name="e_fr_energy">    -68.18188198 </i>
    <i name="e_wo_entrp">    -68.18188198 </i>
    <i name="e_0_energy">    -68.18188198 </i>
   </energy>
  </scstep>
  <scstep>
   <time name="dav">    6.28    6.28</time>
   <time name="total">    6.64    6.69</time>
   <energy>
    <i name="e_fr_energy">    -76.32099569 </i>
    <i name="e_wo_entrp">    -76.32099569 </i>
    <i name="e_0_energy">    -76.32099569 </i>
   </energy>
  </scstep>
  <scstep>
   <time name="dav">    6.07    6.08</time>
   <time name="total">    6.44    6.48</time>
   <energy>
    <i name="e_fr_energy">    -87.57769404 </i>
    <i name="e_wo_entrp">    -87.57769404 </i>
    <i name="e_0_energy">    -87.57769404 </i>
   </energy>
  </scstep>
  <scstep>
   <time name="dav">    6.40    6.41</time>
   <time name="total">    6.78    6.81</time>
   <energy>
    <i name="e_fr_energy">    -91.05774668 </i>
    <i name="e_wo_entrp">    -91.05774668 </i>
    <i name="e_0_energy">    -91.05774668 </i>
   </energy>
  </scstep>
  <scstep>
   <time name="dav">    6.16    6.17</time>
   <time name="total">    6.54    6.56</time>
   <energy>
    <i name="e_fr_energy">    -96.69013503 </i>
    <i name="e_wo_entrp">    -96.69013503 </i>
    <i name="e_0_energy">    -96.69013503 </i>
   </energy>
  </scstep>
  <scstep>
   <time name="dav">    6.29    6.30</time>
   <time name="total">    6.66    7.08</time>
   <energy>
    <i name="e_fr_energy">    -98.44051390 </i>
    <i name="e_wo_entrp">    -98.44051390 </i>
    <i name="e_0_energy">    -98.44051390 </i>
   </energy>
  </scstep>
  <scstep>
   <time name="dav">    6.12    6.13</time>
   <time name="total">    6.50    6.52</time>
   <energy>
    <i name="e_fr_energy">   -101.39619918 </i>
    <i name="e_wo_entrp">   -101.39619918 </i>
    <i name="e_0_energy">   -101.39619918 </i>
   </energy>
  </scstep>
  <scstep>
   <time name="dav">    6.25    6.26</time>
   <time name="total">    6.62    6.66</time>
   <energy>
    <i name="e_fr_energy">   -103.39226749 </i>
    <i name="e_wo_entrp">   -103.39226749 </i>
    <i name="e_0_energy">   -103.39226749 </i>
   </energy>
  </scstep>
  <scstep>
   <time name="dav">    6.52    6.52</time>
   <time name="total">    6.90    6.92</time>
   <energy>
    <i name="e_fr_energy">   -103.67507049 </i>
    <i name="e_wo_entrp">   -103.67507049 </i>
    <i name="e_0_energy">   -103.67507049 </i>
   </energy>
  </scstep>
  <scstep>
   <time name="dav">    6.20    6.21</time>
   <time name="total">    6.58    6.59</time>
   <energy>
    <i name="e_fr_energy">   -104.06876804 </i>
    <i name="e_wo_entrp">   -104.06876804 </i>
    <i name="e_0_energy">   -104.06876804 </i>
   </energy>
  </scstep>
  <scstep>
   <time name="dav">    6.14    6.15</time>
   <time name="total">    6.52    6.53</time>
   <energy>
    <i name="e_fr_energy">   -105.38755489 </i>
    <i name="e_wo_entrp">   -105.38755489 </i>
    <i name="e_0_energy">   -105.38755489 </i>
   </energy>
  </scstep>
  <scstep>
   <time name="dav">    6.30    6.31</time>
   <time name="total">    6.68    6.69</time>
   <energy>
    <i name="e_fr_energy">   -106.16971414 </i>
    <i name="e_wo_entrp">   -106.16971414 </i>
    <i name="e_0_energy">   -106.16971414 </i>
   </energy>
  </scstep>
  <scstep>
   <time name="dav">    6.46    6.47</time>
   <time name="total">    6.84    6.85</time>
   <energy>
    <i name="e_fr_energy">   -106.17315481 </i>
    <i name="e_wo_entrp">   -106.17315481 </i>
    <i name="e_0_energy">   -106.17315481 </i>
   </energy>
  </scstep>
  <scstep>
   <time name="dav">    4.66    4.67</time>
   <time name="total">    5.04    5.05</time>
   <energy>
    <i name="e_fr_energy">   -106.17141252 </i>
    <i name="e_wo_entrp">   -106.17141252 </i>
    <i name="e_0_energy">   -106.17141252 </i>
   </energy>
  </scstep>
  <scstep>
   <time name="dav">    4.47    4.48</time>
   <time name="total">    4.85    4.86</time>
   <energy>
    <i name="e_fr_energy">   -106.17063774 </i>
    <i name="e_wo_entrp">   -106.17063774 </i>
    <i name="e_0_energy">   -106.17063774 </i>
   </energy>
  </scstep>
  <scstep>
   <time name="dav">    6.21    6.21</time>
   <time name="total">    6.59    6.60</time>
   <energy>
    <i name="e_fr_energy">   -106.19461874 </i>
    <i name="e_wo_entrp">   -106.19461874 </i>
    <i name="e_0_energy">   -106.19461874 </i>
   </energy>
  </scstep>
  <scstep>
   <time name="dav">    6.23    6.24</time>
   <time name="total">    6.61    6.95</time>
   <energy>
    <i name="e_fr_energy">   -106.37107968 </i>
    <i name="e_wo_entrp">   -106.37107968 </i>
    <i name="e_0_energy">   -106.37107968 </i>
   </energy>
  </scstep>
  <scstep>
   <time name="dav">    6.28    6.28</time>
   <time name="total">    6.66    6.68</time>
   <energy>
    <i name="e_fr_energy">   -106.55444679 </i>
    <i name="e_wo_entrp">   -106.55444679 </i>
    <i name="e_0_energy">   -106.55444679 </i>
   </energy>
  </scstep>
  <scstep>
   <time name="dav">    6.34    6.35</time>
   <time name="total">    6.72    6.73</time>
   <energy>
    <i name="e_fr_energy">   -106.66098945 </i>
    <i name="e_wo_entrp">   -106.66098945 </i>
    <i name="e_0_energy">   -106.66098945 </i>
   </energy>
  </scstep>
  <scstep>
   <time name="dav">    6.30    6.31</time>
   <time name="total">    6.69    6.70</time>
   <energy>
    <i name="e_fr_energy">   -106.74835120 </i>
    <i name="e_wo_entrp">   -106.74835120 </i>
    <i name="e_0_energy">   -106.74835120 </i>
   </energy>
  </scstep>
  <scstep>
   <time name="dav">    5.33    5.34</time>
   <time name="total">    5.72    5.75</time>
   <energy>
    <i name="e_fr_energy">   -106.77397434 </i>
    <i name="e_wo_entrp">   -106.77397434 </i>
    <i name="e_0_energy">   -106.77397434 </i>
   </energy>
  </scstep>
  <scstep>
   <time name="dav">    6.38    6.38</time>
   <time name="total">    6.76    6.77</time>
   <energy>
    <i name="e_fr_energy">   -106.79181976 </i>
    <i name="e_wo_entrp">   -106.79181976 </i>
    <i name="e_0_energy">   -106.79181976 </i>
   </energy>
  </scstep>
  <scstep>
   <time name="dav">    4.93    4.94</time>
   <time name="total">    5.31    5.33</time>
   <energy>
    <i name="e_fr_energy">   -106.79876151 </i>
    <i name="e_wo_entrp">   -106.79876151 </i>
    <i name="e_0_energy">   -106.79876151 </i>
   </energy>
  </scstep>
  <scstep>
   <time name="dav">    4.68    4.68</time>
   <time name="total">    5.06    5.10</time>
   <energy>
    <i name="e_fr_energy">   -106.80042105 </i>
    <i name="e_wo_entrp">   -106.80042105 </i>
    <i name="e_0_energy">   -106.80042105 </i>
   </energy>
  </scstep>
  <scstep>
   <time name="dav">    4.31    4.32</time>
   <time name="total">    4.70    5.09</time>
   <energy>
    <i name="e_fr_energy">   -106.80022692 </i>
    <i name="e_wo_entrp">   -106.80022692 </i>
    <i name="e_0_energy">   -106.80022692 </i>
   </energy>
  </scstep>
  <scstep>
   <time name="dav">    4.62    4.62</time>
   <time name="total">    5.00    5.03</time>
   <energy>
    <i name="e_fr_energy">   -106.80415095 </i>
    <i name="e_wo_entrp">   -106.80415095 </i>
    <i name="e_0_energy">   -106.80415095 </i>
   </energy>
  </scstep>
  <scstep>
   <time name="dav">    6.32    6.33</time>
   <time name="total">    6.70    6.72</time>
   <energy>
    <i name="e_fr_energy">   -106.81258822 </i>
    <i name="e_wo_entrp">   -106.81258822 </i>
    <i name="e_0_energy">   -106.81258822 </i>
   </energy>
  </scstep>
  <scstep>
   <time name="dav">    4.75    4.76</time>
   <time name="total">    5.14    5.16</time>
   <energy>
    <i name="e_fr_energy">   -106.81749612 </i>
    <i name="e_wo_entrp">   -106.81749612 </i>
    <i name="e_0_energy">   -106.81749612 </i>
   </energy>
  </scstep>
  <scstep>
   <time name="dav">    4.65    4.66</time>
   <time name="total">    5.04    5.39</time>
   <energy>
    <i name="e_fr_energy">   -106.82132221 </i>
    <i name="e_wo_entrp">   -106.82132221 </i>
    <i name="e_0_energy">   -106.82132221 </i>
   </energy>
  </scstep>
  <scstep>
   <time name="dav">    4.62    4.62</time>
   <time name="total">    5.01    5.02</time>
   <energy>
    <i name="e_fr_energy">   -106.82488396 </i>
    <i name="e_wo_entrp">   -106.82488396 </i>
    <i name="e_0_energy">   -106.82488396 </i>
   </energy>
  </scstep>
  <scstep>
   <time name="dav">    4.72    4.73</time>
   <time name="total">    5.11    5.13</time>
   <energy>
    <i name="e_fr_energy">   -106.82699039 </i>
    <i name="e_wo_entrp">   -106.82699039 </i>
    <i name="e_0_energy">   -106.82699039 </i>
   </energy>
  </scstep>
  <scstep>
   <time name="dav">    4.52    4.52</time>
   <time name="total">    4.91    4.92</time>
   <energy>
    <i name="e_fr_energy">   -106.82924656 </i>
    <i name="e_wo_entrp">   -106.82924656 </i>
    <i name="e_0_energy">   -106.82924656 </i>
   </energy>
  </scstep>
  <scstep>
   <time name="dav">    4.58    4.58</time>
   <time name="total">    4.97    5.01</time>
   <energy>
    <i name="e_fr_energy">   -106.83138873 </i>
    <i name="e_wo_entrp">   -106.83138873 </i>
    <i name="e_0_energy">   -106.83138873 </i>
   </energy>
  </scstep>
  <scstep>
   <time name="dav">    4.64    4.65</time>
   <time name="total">    5.03    5.04</time>
   <energy>
    <i name="e_fr_energy">   -106.83221324 </i>
    <i name="e_wo_entrp">   -106.83221324 </i>
    <i name="e_0_energy">   -106.83221324 </i>
   </energy>
  </scstep>
  <scstep>
   <time name="dav">    4.47    4.48</time>
   <time name="total">    4.86    4.87</time>
   <energy>
    <i name="e_fr_energy">   -106.83283481 </i>
    <i name="e_wo_entrp">   -106.83283481 </i>
    <i name="e_0_energy">   -106.83283481 </i>
   </energy>
  </scstep>
  <scstep>
   <time name="dav">    4.52    4.52</time>
   <time name="total">    4.91    5.53</time>
   <energy>
    <i name="e_fr_energy">   -106.83322894 </i>
    <i name="e_wo_entrp">   -106.83322894 </i>
    <i name="e_0_energy">   -106.83322894 </i>
   </energy>
  </scstep>
  <scstep>
   <time name="dav">    4.42    4.43</time>
   <time name="total">    4.81    4.82</time>
   <energy>
    <i name="e_fr_energy">   -106.83350908 </i>
    <i name="e_wo_entrp">   -106.83350908 </i>
    <i name="e_0_energy">   -106.83350908 </i>
   </energy>
  </scstep>
  <scstep>
   <time name="dav">    4.54    4.55</time>
   <time name="total">    4.94    4.95</time>
   <energy>
    <i name="e_fr_energy">   -106.83373356 </i>
    <i name="e_wo_entrp">   -106.83373356 </i>
    <i name="e_0_energy">   -106.83373356 </i>
   </energy>
  </scstep>
  <scstep>
   <time name="dav">    4.47    4.48</time>
   <time name="total">    4.86    4.88</time>
   <energy>
    <i name="e_fr_energy">   -106.83383804 </i>
    <i name="e_wo_entrp">   -106.83383804 </i>
    <i name="e_0_energy">   -106.83383804 </i>
   </energy>
  </scstep>
  <scstep>
   <time name="dav">    4.37    4.37</time>
   <time name="total">    4.59    4.60</time>
   <energy>
    <i name="alphaZ">    168.65294162 </i>
    <i name="ewald"> 146451.89122010 </i>
    <i name="hartreedc">-196254.74614987 </i>
    <i name="XCdc">   -564.46746927 </i>
    <i name="pawpsdc">  54294.33336690 </i>
    <i name="pawaedc"> -52085.51936619 </i>
    <i name="eentropy">      0.00000000 </i>
    <i name="bandstr">  -3976.90996705 </i>
    <i name="atom">  51859.93150432 </i>
    <i name="e_fr_energy">   -106.83391944 </i>
    <i name="e_wo_entrp">   -106.83391944 </i>
    <i name="e_0_energy">   -106.83391944 </i>
   </energy>
  </scstep>
  <structure>
   <crystal>
    <varray name="basis" >
     <v>      23.27484280       0.00000000       0.00000000 </v>
     <v>       0.00000000      23.27484280       0.00000000 </v>
     <v>       0.00000000       0.00000000      23.27484280 </v>
    </varray>
    <i name="volume">  12608.40843987 </i>
    <varray name="rec_basis" >
     <v>       0.04296484       0.00000000       0.00000000 </v>
     <v>       0.00000000       0.04296484       0.00000000 </v>
     <v>       0.00000000       0.00000000       0.04296484 </v>
    </varray>
   </crystal>
   <varray name="positions" >
    <v>       0.72394786       0.39559198       0.37534991 </v>
    <v>       0.66217962       0.49874342       0.37264842 </v>
    <v>       0.60582565       0.38736106       0.35639128 </v>
    <v>       0.73783884       0.47424918       0.46689830 </v>
    <v>       0.66695109       0.32823286       0.45591345 </v>
    <v>       0.59879332       0.59658691       0.36773839 </v>
    <v>       0.48789022       0.38435896       0.35552103 </v>
    <v>       0.54266546       0.49005448       0.36785565 </v>
    <v>       0.68056580       0.57858842       0.46433624 </v>
    <v>       0.61922751       0.43706369       0.47036212 </v>
    <v>       0.72007124       0.39401999       0.55087727 </v>
    <v>       0.54799949       0.32951348       0.44920898 </v>
    <v>       0.52922101       0.69287257       0.36816698 </v>
    <v>       0.41938607       0.48616227       0.36749096 </v>
    <v>       0.61764241       0.67591483       0.45698161 </v>
    <v>       0.60589746       0.34479600       0.55594050 </v>
    <v>       0.36767422       0.37788497       0.35864095 </v>
    <v>       0.47337831       0.58830280       0.37216649 </v>
    <v>       0.66606306       0.50843445       0.56118989 </v>
    <v>       0.56383598       0.54218323       0.47331547 </v>
    <v>       0.42992841       0.33336232       0.45134193 </v>
    <v>       0.45264934       0.78135035       0.39134820 </v>
    <v>       0.54689608       0.77047359       0.46118009 </v>
    <v>       0.48989281       0.44212221       0.46549890 </v>
    <v>       0.60918761       0.61310638       0.56200679 </v>
    <v>       0.64540453       0.42095963       0.63980991 </v>
    <v>       0.40352032       0.67379506       0.41617233 </v>
    <v>       0.50350203       0.64716307       0.48436853 </v>
    <v>       0.58594351       0.53624544       0.65079991 </v>
    <v>       0.42073895       0.54877625       0.47083256 </v>
    <v>       0.57228959       0.72489192       0.56491204 </v>
    <v>       0.54825431       0.45707557       0.57153581 </v>
    <v>       0.43833483       0.74692857       0.50975180 </v>
    <v>       0.49146482       0.35247209       0.55453832 </v>
    <v>       0.36186794       0.44104429       0.46284138 </v>
    <v>       0.37283381       0.35372562       0.55446555 </v>
    <v>       0.49307304       0.56640970       0.57203980 </v>
    <v>       0.54730534       0.42417704       0.70011953 </v>
    <v>       0.37604716       0.64715600       0.52930452 </v>
    <v>       0.42397834       0.46726214       0.56275232 </v>
    <v>       0.48902693       0.61138893       0.69780907 </v>
    <v>       0.46879094       0.68142961       0.60451051 </v>
    <v>       0.53827365       0.52795509       0.75934411 </v>
    <v>       0.32356004       0.54430391       0.54444315 </v>
    <v>       0.46136510       0.50159938       0.67246413 </v>
    <v>       0.43511276       0.38491985       0.65725969 </v>
    <v>       0.28674213       0.43684587       0.56163003 </v>
    <v>       0.31139705       0.36881648       0.65742019 </v>
    <v>       0.38858096       0.59351184       0.63827135 </v>
    <v>       0.34639725       0.48324121       0.65660828 </v>
   </varray>
  </structure>
  <varray name="forces" >
   <v>      -0.04980621       0.23989402       0.17958396 </v>
   <v>       0.34671288      -0.14968741       0.08214553 </v>
   <v>       0.13457062      -0.01163458       0.17660542 </v>
   <v>       0.11686573       0.13319263      -0.25316030 </v>
   <v>       0.28256033      -0.17055411      -0.07392576 </v>
   <v>      -0.08269188       0.34654190      -0.04228032 </v>
   <v>      -0.05758074      -0.32189483      -0.02296868 </v>
   <v>       0.03756689      -0.04698791      -0.38421002 </v>
   <v>       0.22441686      -0.14212831      -0.23111507 </v>
   <v>       0.03396120      -0.30253724      -0.08508561 </v>
   <v>      -0.29977315      -0.15086946       0.04526788 </v>
   <v>       0.06938982       0.09017971      -0.06386735 </v>
   <v>       0.04116426       0.00730115       0.15817708 </v>
   <v>      -0.19849333      -0.22429028      -0.20232911 </v>
   <v>      -0.01086792       0.19253750      -0.08704443 </v>
   <v>       0.37841382       0.03437336       0.17433701 </v>
   <v>      -0.10752365       0.06947431       0.16408104 </v>
   <v>       0.35332994       0.20684500      -0.15027209 </v>
   <v>       0.03921861      -0.09178275       0.00475096 </v>
   <v>      -0.17005297       0.04807506       0.23468345 </v>
   <v>      -0.23926016       0.00697622       0.03992541 </v>
   <v>      -0.11589760       0.09328969       0.13734311 </v>
   <v>      -0.15814604       0.11075754      -0.25194087 </v>
   <v>       0.22157106       0.00643575      -0.06892176 </v>
   <v>      -0.08137709       0.03878890       0.04931082 </v>
   <v>       0.17456128      -0.04459552      -0.00425349 </v>
   <v>       0.20005404       0.01928130      -0.16874946 </v>
   <v>      -0.13001223       0.16024692       0.01298361 </v>
   <v>       0.19854565      -0.01464675       0.29916998 </v>
   <v>       0.23935856       0.29241606       0.00300887 </v>
   <v>      -0.20242766      -0.10335893      -0.03860057 </v>
   <v>       0.13614203      -0.18340523      -0.00166951 </v>
   <v>       0.01655780       0.35282408      -0.02879537 </v>
   <v>      -0.36493701      -0.21554717       0.00354926 </v>
   <v>      -0.34014996      -0.15334825       0.07746597 </v>
   <v>      -0.04687018      -0.05638921       0.04003242 </v>
   <v>       0.01091165       0.21525979       0.01515350 </v>
   <v>      -0.27537424      -0.04143216      -0.31428855 </v>
   <v>       0.20097377       0.17124659       0.32636184 </v>
   <v>      -0.31216019      -0.10237970       0.28141339 </v>
   <v>       0.19914537       0.50688349      -0.14092639 </v>
   <v>      -0.19826035       0.00788809      -0.07190359 </v>
   <v>       0.11160243      -0.24761924       0.37923023 </v>
   <v>       0.19458420      -0.10749578       0.25214428 </v>
   <v>       0.13038503      -0.21296411       0.12965203 </v>
   <v>      -0.14503021       0.14992163      -0.16291156 </v>
   <v>       0.01442653      -0.28210973       0.05795533 </v>
   <v>       0.06724583      -0.12270249      -0.07180589 </v>
   <v>      -0.25079829       0.04685462      -0.26595878 </v>
   <v>      -0.33674511      -0.04712418      -0.13734786 </v>
  </varray>
  <varray name="stress" >
   <v>      -1.52307723       0.02037839      -0.30343377 </v>
   <v>       0.02037838      -0.69467756      -0.19525575 </v>
   <v>      -0.30343377      -0.19525575      -2.05071342 </v>
  </varray>
  <energy>
   <i name="e_fr_energy">   -106.83391944 </i>
   <i name="e_wo_entrp">   -106.83391944 </i>
   <i name="e_0_energy">      0.00000000 </i>
  </energy>
  <time name="totalsc">  313.34  317.41</time>
 </calculation>
 <calculation>
  <scstep>
   <time name="dav">    6.22    6.22</time>
   <time name="total">    6.59    6.61</time>
   <energy>
    <i name="alphaZ">    168.65294162 </i>
    <i name="ewald"> 146398.52811977 </i>
    <i name="hartreedc">-196201.70362445 </i>
    <i name="XCdc">   -564.50465823 </i>
    <i name="pawpsdc">  54294.31992191 </i>
    <i name="pawaedc"> -52085.50609422 </i>
    <i name="eentropy">      0.00000000 </i>
    <i name="bandstr">  -3976.59753456 </i>
    <i name="atom">  51859.93150432 </i>
    <i name="e_fr_energy">   -106.87942385 </i>
    <i name="e_wo_entrp">   -106.87942385 </i>
    <i name="e_0_energy">   -106.87942385 </i>
   </energy>
  </scstep>
  <scstep>
   <time name="dav">    6.27    6.28</time>
   <time name="total">    6.65    6.66</time>
   <energy>
    <i name="e_fr_energy">   -106.88089448 </i>
    <i name="e_wo_entrp">   -106.88089448 </i>
    <i name="e_0_energy">   -106.88089448 </i>
   </energy>
  </scstep>
  <scstep>
   <time name="dav">    4.78    4.78</time>
   <time name="total">    5.00    5.01</time>
   <energy>
    <i name="alphaZ">    168.65294162 </i>
    <i name="ewald"> 146398.52811977 </i>
    <i name="hartreedc">-196201.97244557 </i>
    <i name="XCdc">   -564.50091990 </i>
    <i name="pawpsdc">  54291.25235985 </i>
    <i name="pawaedc"> -52082.38569641 </i>
    <i name="eentropy">      0.00000000 </i>
    <i name="bandstr">  -3976.38670627 </i>
    <i name="atom">  51859.93150432 </i>
    <i name="e_fr_energy">   -106.88084260 </i>
    <i name="e_wo_entrp">   -106.88084260 </i>
    <i name="e_0_energy">   -106.88084260 </i>
   </energy>
  </scstep>
  <structure>
   <crystal>
    <varray name="basis" >
     <v>      23.27484280       0.00000000       0.00000000 </v>
     <v>       0.00000000      23.27484280       0.00000000 </v>
     <v>       0.00000000       0.00000000      23.27484280 </v>
    </varray>
    <i name="volume">  12608.40843987 </i>
    <varray name="rec_basis" >
     <v>       0.04296484       0.00000000       0.00000000 </v>
     <v>       0.00000000       0.04296484       0.00000000 </v>
     <v>       0.00000000       0.00000000       0.04296484 </v>
    </varray>
   </crystal>
   <varray name="positions" >
    <v>       0.72392721       0.39569143       0.37542436 </v>
    <v>       0.66232335       0.49868136       0.37268247 </v>
    <v>       0.60588144       0.38735624       0.35646449 </v>
    <v>       0.73788729       0.47430440       0.46679335 </v>
    <v>       0.66706823       0.32816216       0.45588280 </v>
    <v>       0.59875904       0.59673057       0.36772087 </v>
    <v>       0.48786635       0.38422552       0.35551151 </v>
    <v>       0.54268103       0.49003501       0.36769638 </v>
    <v>       0.68065883       0.57852950       0.46424043 </v>
    <v>       0.61924159       0.43693828       0.47032685 </v>
    <v>       0.71994697       0.39395745       0.55089603 </v>
    <v>       0.54802825       0.32955086       0.44918250 </v>
    <v>       0.52923807       0.69287560       0.36823256 </v>
    <v>       0.41930379       0.48606929       0.36740708 </v>
    <v>       0.61763791       0.67599465       0.45694552 </v>
    <v>       0.60605433       0.34481025       0.55601277 </v>
    <v>       0.36762964       0.37791377       0.35870897 </v>
    <v>       0.47352478       0.58838855       0.37210419 </v>
    <v>       0.66607932       0.50839640       0.56119186 </v>
    <v>       0.56376548       0.54220316       0.47341276 </v>
    <v>       0.42982922       0.33336521       0.45135848 </v>
    <v>       0.45260129       0.78138902       0.39140514 </v>
    <v>       0.54683052       0.77051950       0.46107565 </v>
    <v>       0.48998466       0.44212488       0.46547033 </v>
    <v>       0.60915388       0.61312246       0.56202723 </v>
    <v>       0.64547689       0.42094114       0.63980814 </v>
    <v>       0.40360325       0.67380306       0.41610237 </v>
    <v>       0.50344813       0.64722950       0.48437391 </v>
    <v>       0.58602582       0.53623936       0.65092393 </v>
    <v>       0.42083817       0.54889747       0.47083381 </v>
    <v>       0.57220567       0.72484907       0.56489604 </v>
    <v>       0.54831075       0.45699954       0.57153512 </v>
    <v>       0.43834169       0.74707483       0.50973987 </v>
    <v>       0.49131354       0.35238274       0.55453979 </v>
    <v>       0.36172693       0.44098072       0.46287350 </v>
    <v>       0.37281438       0.35370224       0.55448215 </v>
    <v>       0.49307757       0.56649894       0.57204608 </v>
    <v>       0.54719118       0.42415987       0.69998924 </v>
    <v>       0.37613047       0.64722699       0.52943981 </v>
    <v>       0.42384894       0.46721970       0.56286898 </v>
    <v>       0.48910949       0.61159906       0.69775065 </v>
    <v>       0.46870875       0.68143288       0.60448071 </v>
    <v>       0.53831991       0.52785244       0.75950132 </v>
    <v>       0.32364070       0.54425935       0.54454768 </v>
    <v>       0.46141915       0.50151109       0.67251787 </v>
    <v>       0.43505264       0.38498200       0.65719216 </v>
    <v>       0.28674812       0.43672893       0.56165405 </v>
    <v>       0.31142493       0.36876562       0.65739043 </v>
    <v>       0.38847700       0.59353127       0.63816110 </v>
    <v>       0.34625766       0.48322168       0.65655134 </v>
   </varray>
  </structure>
  <varray name="forces" >
   <v>      -0.03743535       0.22765674       0.16940181 </v>
   <v>       0.31267449      -0.12002120       0.07362305 </v>
   <v>       0.12242046      -0.01382611       0.16698078 </v>
   <v>       0.11843402       0.12043402      -0.22535993 </v>
   <v>       0.26831005      -0.17120437      -0.06466969 </v>
   <v>      -0.06639985       0.30695362      -0.03491440 </v>
   <v>      -0.04907071      -0.30978226      -0.01755579 </v>
   <v>       0.04104757      -0.03903560      -0.36095140 </v>
   <v>       0.20030043      -0.12356203      -0.21845526 </v>
   <v>       0.03144867      -0.27864609      -0.08030606 </v>
   <v>      -0.27728301      -0.14141903       0.03146117 </v>
   <v>       0.06407417       0.08862336      -0.05181761 </v>
   <v>       0.03686174       0.02061377       0.14630149 </v>
   <v>      -0.17695441      -0.19268307      -0.18062780 </v>
   <v>      -0.00556619       0.17541666      -0.07769711 </v>
   <v>       0.33429619       0.02612892       0.16012027 </v>
   <v>      -0.11041892       0.06215872       0.15720883 </v>
   <v>       0.33190114       0.17177370      -0.14715882 </v>
   <v>       0.03464963      -0.08221673      -0.00317350 </v>
   <v>      -0.15575394       0.03467048       0.21352098 </v>
   <v>      -0.22476858       0.00503224       0.04003883 </v>
   <v>      -0.11685263       0.09630027       0.12872641 </v>
   <v>      -0.14532141       0.11060722      -0.24364915 </v>
   <v>       0.20331730       0.00846522      -0.06266578 </v>
   <v>      -0.07239345       0.03105481       0.04562876 </v>
   <v>       0.16354519      -0.03933437       0.00862113 </v>
   <v>       0.19206844       0.01709874      -0.15946333 </v>
   <v>      -0.12171834       0.15708458       0.01279755 </v>
   <v>       0.18614097      -0.01788005       0.28366478 </v>
   <v>       0.23201540       0.26429219      -0.00105896 </v>
   <v>      -0.20783963      -0.09590624      -0.04309866 </v>
   <v>       0.12500744      -0.17120946      -0.00018954 </v>
   <v>       0.01385098       0.33872365      -0.02482437 </v>
   <v>      -0.31605440      -0.20907670      -0.00168424 </v>
   <v>      -0.32073963      -0.13362017       0.07567948 </v>
   <v>      -0.05166765      -0.06393012       0.03519659 </v>
   <v>       0.00865870       0.19211960       0.02341017 </v>
   <v>      -0.25653640      -0.04163307      -0.30978337 </v>
   <v>       0.19072273       0.16738859       0.30270078 </v>
   <v>      -0.28546472      -0.08830961       0.25010544 </v>
   <v>       0.19396543       0.44744461      -0.13027445 </v>
   <v>      -0.19070114       0.02193953      -0.07014428 </v>
   <v>       0.09551309      -0.22827734       0.34969979 </v>
   <v>       0.18819164      -0.10604677       0.23782401 </v>
   <v>       0.11429498      -0.16800580       0.12757032 </v>
   <v>      -0.14307392       0.13822440      -0.15159734 </v>
   <v>       0.00808260      -0.26604493       0.05074863 </v>
   <v>       0.06173942      -0.12333716      -0.06318179 </v>
   <v>      -0.22484309       0.03227464      -0.24281164 </v>
   <v>      -0.31667554      -0.03747198      -0.12391675 </v>
  </varray>
  <varray name="stress" >
   <v>      -1.55982954       0.01904356      -0.29995595 </v>
   <v>       0.01904357      -0.73361297      -0.19026577 </v>
   <v>      -0.29995595      -0.19026578      -2.07012233 </v>
  </varray>
  <energy>
   <i name="e_fr_energy">   -106.88084260 </i>
   <i name="e_wo_entrp">   -106.88084260 </i>
   <i name="e_0_energy">      0.00000000 </i>
  </energy>
  <time name="totalsc">   30.47   30.54</time>
 </calculation>
 <calculation>
  <scstep>
   <time name="dav">    6.12    6.12</time>
   <time name="total">    6.49    6.52</time>
   <energy>
    <i name="alphaZ">    168.65294162 </i>
    <i name="ewald"> 146239.12951142 </i>
    <i name="hartreedc">-196043.50957321 </i>
    <i name="XCdc">   -564.60367704 </i>
    <i name="pawpsdc">  54288.98978338 </i>
    <i name="pawaedc"> -52080.09454578 </i>
    <i name="eentropy">      0.00000000 </i>
    <i name="bandstr">  -3975.48836256 </i>
    <i name="atom">  51859.93150432 </i>
    <i name="e_fr_energy">   -106.99241785 </i>
    <i name="e_wo_entrp">   -106.99241785 </i>
    <i name="e_0_energy">   -106.99241785 </i>
   </energy>
  </scstep>
  <scstep>
   <time name="dav">    6.34    6.34</time>
   <time name="total">    6.72    6.73</time>
   <energy>
    <i name="e_fr_energy">   -107.00552386 </i>
    <i name="e_wo_entrp">   -107.00552386 </i>
    <i name="e_0_energy">   -107.00552386 </i>
   </energy>
  </scstep>
  <scstep>
   <time name="dav">    6.36    6.36</time>
   <time name="total">    6.74    6.75</time>
   <energy>
    <i name="e_fr_energy">   -107.00496535 </i>
    <i name="e_wo_entrp">   -107.00496535 </i>
    <i name="e_0_energy">   -107.00496535 </i>
   </energy>
  </scstep>
  <scstep>
   <time name="dav">    6.33    6.33</time>
   <time name="total">    6.70    6.73</time>
   <energy>
    <i name="e_fr_energy">   -107.00420579 </i>
    <i name="e_wo_entrp">   -107.00420579 </i>
    <i name="e_0_energy">   -107.00420579 </i>
   </energy>
  </scstep>
  <scstep>
   <time name="dav">    4.67    4.67</time>
   <time name="total">    5.04    5.16</time>
   <energy>
    <i name="e_fr_energy">   -107.00409994 </i>
    <i name="e_wo_entrp">   -107.00409994 </i>
    <i name="e_0_energy">   -107.00409994 </i>
   </energy>
  </scstep>
  <scstep>
   <time name="dav">    4.52    4.52</time>
   <time name="total">    4.89    4.90</time>
   <energy>
    <i name="e_fr_energy">   -107.00421405 </i>
    <i name="e_wo_entrp">   -107.00421405 </i>
    <i name="e_0_energy">   -107.00421405 </i>
   </energy>
  </scstep>
  <scstep>
   <time name="dav">    4.54    4.54</time>
   <time name="total">    4.91    4.94</time>
   <energy>
    <i name="e_fr_energy">   -107.00442076 </i>
    <i name="e_wo_entrp">   -107.00442076 </i>
    <i name="e_0_energy">   -107.00442076 </i>
   </energy>
  </scstep>
  <scstep>
   <time name="dav">    4.59    4.59</time>
   <time name="total">    4.96    4.99</time>
   <energy>
    <i name="e_fr_energy">   -107.00466236 </i>
    <i name="e_wo_entrp">   -107.00466236 </i>
    <i name="e_0_energy">   -107.00466236 </i>
   </energy>
  </scstep>
  <scstep>
   <time name="dav">    4.48    4.48</time>
   <time name="total">    4.85    4.95</time>
   <energy>
    <i name="e_fr_energy">   -107.00492020 </i>
    <i name="e_wo_entrp">   -107.00492020 </i>
    <i name="e_0_energy">   -107.00492020 </i>
   </energy>
  </scstep>
  <scstep>
   <time name="dav">    4.52    4.53</time>
   <time name="total">    4.90    5.07</time>
   <energy>
    <i name="e_fr_energy">   -107.00524627 </i>
    <i name="e_wo_entrp">   -107.00524627 </i>
    <i name="e_0_energy">   -107.00524627 </i>
   </energy>
  </scstep>
  <scstep>
   <time name="dav">    4.54    4.55</time>
   <time name="total">    4.92    4.93</time>
   <energy>
    <i name="e_fr_energy">   -107.00550843 </i>
    <i name="e_wo_entrp">   -107.00550843 </i>
    <i name="e_0_energy">   -107.00550843 </i>
   </energy>
  </scstep>
  <scstep>
   <time name="dav">    4.61    4.62</time>
   <time name="total">    4.99    5.00</time>
   <energy>
    <i name="e_fr_energy">   -107.00563657 </i>
    <i name="e_wo_entrp">   -107.00563657 </i>
    <i name="e_0_energy">   -107.00563657 </i>
   </energy>
  </scstep>
  <scstep>
   <time name="dav">    4.39    4.40</time>
   <time name="total">    4.62    4.63</time>
   <energy>
    <i name="alphaZ">    168.65294162 </i>
    <i name="ewald"> 146239.12951142 </i>
    <i name="hartreedc">-196044.79398100 </i>
    <i name="XCdc">   -564.58798674 </i>
    <i name="pawpsdc">  54270.85125131 </i>
    <i name="pawaedc"> -52061.68963011 </i>
    <i name="eentropy">      0.00000000 </i>
    <i name="bandstr">  -3974.49933073 </i>
    <i name="atom">  51859.93150432 </i>
    <i name="e_fr_energy">   -107.00571991 </i>
    <i name="e_wo_entrp">   -107.00571991 </i>
    <i name="e_0_energy">   -107.00571991 </i>
   </energy>
  </scstep>
  <structure>
   <crystal>
    <varray name="basis" >
     <v>      23.27484280       0.00000000       0.00000000 </v>
     <v>       0.00000000      23.27484280       0.00000000 </v>
     <v>       0.00000000       0.00000000      23.27484280 </v>
    </varray>
    <i name="volume">  12608.40843987 </i>
    <varray name="rec_basis" >
     <v>       0.04296484       0.00000000       0.00000000 </v>
     <v>       0.00000000       0.04296484       0.00000000 </v>
     <v>       0.00000000       0.00000000       0.04296484 </v>
    </varray>
   </crystal>
   <varray name="positions" >
    <v>       0.72386527       0.39598977       0.37564770 </v>
    <v>       0.66275453       0.49849521       0.37278463 </v>
    <v>       0.60604880       0.38734177       0.35668412 </v>
    <v>       0.73803263       0.47447004       0.46647851 </v>
    <v>       0.66741963       0.32795005       0.45579087 </v>
    <v>       0.59865620       0.59716154       0.36766829 </v>
    <v>       0.48779474       0.38382519       0.35548294 </v>
    <v>       0.54272775       0.48997657       0.36721856 </v>
    <v>       0.68093792       0.57835274       0.46395301 </v>
    <v>       0.61928382       0.43656203       0.47022103 </v>
    <v>       0.71957416       0.39376982       0.55095233 </v>
    <v>       0.54811455       0.32966301       0.44910307 </v>
    <v>       0.52928927       0.69288468       0.36842927 </v>
    <v>       0.41905693       0.48579035       0.36715546 </v>
    <v>       0.61762439       0.67623410       0.45683727 </v>
    <v>       0.60652494       0.34485300       0.55622958 </v>
    <v>       0.36749592       0.37800017       0.35891303 </v>
    <v>       0.47396420       0.58864579       0.37191731 </v>
    <v>       0.66612809       0.50828226       0.56119777 </v>
    <v>       0.56355399       0.54226294       0.47370462 </v>
    <v>       0.42953167       0.33337389       0.45140814 </v>
    <v>       0.45245716       0.78150504       0.39157594 </v>
    <v>       0.54663384       0.77065724       0.46076233 </v>
    <v>       0.49026021       0.44213288       0.46538461 </v>
    <v>       0.60905267       0.61317070       0.56208855 </v>
    <v>       0.64569398       0.42088568       0.63980285 </v>
    <v>       0.40385204       0.67382704       0.41589251 </v>
    <v>       0.50328644       0.64742879       0.48439006 </v>
    <v>       0.58627274       0.53622115       0.65129599 </v>
    <v>       0.42113585       0.54926113       0.47083755 </v>
    <v>       0.57195392       0.72472053       0.56484804 </v>
    <v>       0.54848006       0.45677145       0.57153304 </v>
    <v>       0.43836229       0.74751362       0.50970406 </v>
    <v>       0.49085968       0.35211467       0.55454420 </v>
    <v>       0.36130390       0.44079001       0.46296984 </v>
    <v>       0.37275609       0.35363212       0.55453193 </v>
    <v>       0.49309114       0.56676664       0.57206492 </v>
    <v>       0.54684871       0.42410834       0.69959838 </v>
    <v>       0.37638041       0.64743996       0.52984569 </v>
    <v>       0.42346072       0.46709237       0.56321895 </v>
    <v>       0.48935715       0.61222944       0.69757539 </v>
    <v>       0.46846218       0.68144269       0.60439128 </v>
    <v>       0.53845870       0.52754449       0.75997295 </v>
    <v>       0.32388270       0.54412566       0.54486125 </v>
    <v>       0.46158130       0.50124624       0.67267911 </v>
    <v>       0.43487227       0.38516845       0.65698955 </v>
    <v>       0.28676606       0.43637808       0.56172613 </v>
    <v>       0.31150856       0.36861302       0.65730113 </v>
    <v>       0.38816509       0.59358954       0.63783034 </v>
    <v>       0.34583887       0.48316307       0.65638053 </v>
   </varray>
  </structure>
  <varray name="forces" >
   <v>      -0.00484569       0.20701383       0.15128937 </v>
   <v>       0.23974046      -0.04676948       0.05678801 </v>
   <v>       0.09646177      -0.02108252       0.15032262 </v>
   <v>       0.13029124       0.09462509      -0.16386473 </v>
   <v>       0.24500490      -0.18279400      -0.04234702 </v>
   <v>      -0.02898246       0.22016804      -0.01733513 </v>
   <v>      -0.02874069      -0.29673344      -0.00237959 </v>
   <v>       0.05207267      -0.01897711      -0.31926277 </v>
   <v>       0.15049106      -0.08057415      -0.20135978 </v>
   <v>       0.02692155      -0.23147032      -0.07338372 </v>
   <v>      -0.23187641      -0.12701733      -0.00394032 </v>
   <v>       0.05535575       0.09194931      -0.02417702 </v>
   <v>       0.02903527       0.05764860       0.12151034 </v>
   <v>      -0.12997982      -0.12042194      -0.13346326 </v>
   <v>       0.00771732       0.13967933      -0.05942752 </v>
   <v>       0.23954273       0.00317381       0.13335697 </v>
   <v>      -0.12582309       0.04583211       0.14937335 </v>
   <v>       0.30134577       0.08717269      -0.14911326 </v>
   <v>       0.02573942      -0.06157117      -0.02691533 </v>
   <v>      -0.12943675      -0.00003226       0.17184964 </v>
   <v>      -0.20261063      -0.00078428       0.04357290 </v>
   <v>      -0.12955589       0.11335811       0.11608644 </v>
   <v>      -0.12151784       0.11941656      -0.22852730 </v>
   <v>       0.16877944       0.01272515      -0.05060018 </v>
   <v>      -0.05433421       0.01358146       0.04036220 </v>
   <v>       0.14545970      -0.02857388       0.04387787 </v>
   <v>       0.18620999       0.01422570      -0.14827857 </v>
   <v>      -0.10798546       0.15930550       0.01378229 </v>
   <v>       0.16502614      -0.02796278       0.25848909 </v>
   <v>       0.22830439       0.20815919      -0.01118538 </v>
   <v>      -0.23594591      -0.08258069      -0.05682618 </v>
   <v>       0.10335227      -0.15000898       0.00318491 </v>
   <v>       0.00889926       0.31962850      -0.01483324 </v>
   <v>      -0.20517215      -0.20385474      -0.01732223 </v>
   <v>      -0.29170409      -0.08950763       0.07656422 </v>
   <v>      -0.06862103      -0.08958667       0.02266567 </v>
   <v>       0.00228431       0.14304029       0.04423402 </v>
   <v>      -0.22275349      -0.04361301      -0.32161166 </v>
   <v>       0.17401637       0.16987332       0.25910661 </v>
   <v>      -0.23012687      -0.05579943       0.17780372 </v>
   <v>       0.19088592       0.31974970      -0.11059028 </v>
   <v>      -0.18099604       0.06571099      -0.07080232 </v>
   <v>       0.06283798      -0.20935545       0.30488683 </v>
   <v>       0.18247415      -0.10841847       0.21645739 </v>
   <v>       0.07593837      -0.05444804       0.12952203 </v>
   <v>      -0.14783697       0.11418242      -0.13158117 </v>
   <v>      -0.00832184      -0.23954488       0.03331950 </v>
   <v>       0.04953025      -0.13152152      -0.04361846 </v>
   <v>      -0.17168222      -0.00518691      -0.20058112 </v>
   <v>      -0.28486888      -0.01202862      -0.09507847 </v>
  </varray>
  <varray name="stress" >
   <v>      -1.63983238       0.01519078      -0.29706864 </v>
   <v>       0.01519079      -0.80500683      -0.18125314 </v>
   <v>      -0.29706865      -0.18125314      -2.12833130 </v>
  </varray>
  <energy>
   <i name="e_fr_energy">   -107.00571991 </i>
   <i name="e_wo_entrp">   -107.00571991 </i>
   <i name="e_0_energy">      0.00000000 </i>
  </energy>
  <time name="totalsc">   82.93   83.72</time>
 </calculation>
 <calculation>
  <scstep>
   <time name="dav">    6.04    6.05</time>
   <time name="total">    6.42    6.45</time>
   <energy>
    <i name="alphaZ">    168.65294162 </i>
    <i name="ewald"> 145923.42474435 </i>
    <i name="hartreedc">-195730.55192930 </i>
    <i name="XCdc">   -564.75939177 </i>
    <i name="pawpsdc">  54270.86823084 </i>
    <i name="pawaedc"> -52061.70665871 </i>
    <i name="eentropy">      0.00000000 </i>
    <i name="bandstr">  -3972.99093610 </i>
    <i name="atom">  51859.93150432 </i>
    <i name="e_fr_energy">   -107.13149475 </i>
    <i name="e_wo_entrp">   -107.13149475 </i>
    <i name="e_0_energy">   -107.13149475 </i>
   </energy>
  </scstep>
  <scstep>
   <time name="dav">    6.17    6.17</time>
   <time name="total">    6.55    6.55</time>
   <energy>
    <i name="e_fr_energy">   -107.18496416 </i>
    <i name="e_wo_entrp">   -107.18496416 </i>
    <i name="e_0_energy">   -107.18496416 </i>
   </energy>
  </scstep>
  <scstep>
   <time name="dav">    6.33    6.33</time>
   <time name="total">    6.70    6.71</time>
   <energy>
    <i name="e_fr_energy">   -107.18376774 </i>
    <i name="e_wo_entrp">   -107.18376774 </i>
    <i name="e_0_energy">   -107.18376774 </i>
   </energy>
  </scstep>
  <scstep>
   <time name="dav">    6.32    6.32</time>
   <time name="total">    6.70    6.73</time>
   <energy>
    <i name="e_fr_energy">   -107.18235859 </i>
    <i name="e_wo_entrp">   -107.18235859 </i>
    <i name="e_0_energy">   -107.18235859 </i>
   </energy>
  </scstep>
  <scstep>
   <time name="dav">    5.45    5.46</time>
   <time name="total">    5.82    5.93</time>
   <energy>
    <i name="e_fr_energy">   -107.18217739 </i>
    <i name="e_wo_entrp">   -107.18217739 </i>
    <i name="e_0_energy">   -107.18217739 </i>
   </energy>
  </scstep>
  <scstep>
   <time name="dav">    4.50    4.51</time>
   <time name="total">    4.73    4.76</time>
   <energy>
    <i name="alphaZ">    168.65294162 </i>
    <i name="ewald"> 145923.42474435 </i>
    <i name="hartreedc">-195732.12485713 </i>
    <i name="XCdc">   -564.73020168 </i>
    <i name="pawpsdc">  54246.20127979 </i>
    <i name="pawaedc"> -52036.62790537 </i>
    <i name="eentropy">      0.00000000 </i>
    <i name="bandstr">  -3971.90967565 </i>
    <i name="atom">  51859.93150432 </i>
    <i name="e_fr_energy">   -107.18216974 </i>
    <i name="e_wo_entrp">   -107.18216974 </i>
    <i name="e_0_energy">   -107.18216974 </i>
   </energy>
  </scstep>
  <structure>
   <crystal>
    <varray name="basis" >
     <v>      23.27484280       0.00000000       0.00000000 </v>
     <v>       0.00000000      23.27484280       0.00000000 </v>
     <v>       0.00000000       0.00000000      23.27484280 </v>
    </varray>
    <i name="volume">  12608.40843987 </i>
    <varray name="rec_basis" >
     <v>       0.04296484       0.00000000       0.00000000 </v>
     <v>       0.00000000       0.04296484       0.00000000 </v>
     <v>       0.00000000       0.00000000       0.04296484 </v>
    </varray>
   </crystal>
   <varray name="positions" >
    <v>       0.72374139       0.39658646       0.37609437 </v>
    <v>       0.66361691       0.49812289       0.37298895 </v>
    <v>       0.60638351       0.38731283       0.35712339 </v>
    <v>       0.73832331       0.47480133       0.46584883 </v>
    <v>       0.66812244       0.32752583       0.45560699 </v>
    <v>       0.59845052       0.59802349       0.36756312 </v>
    <v>       0.48765152       0.38302455       0.35542581 </v>
    <v>       0.54282119       0.48985970       0.36626292 </v>
    <v>       0.68149611       0.57799923       0.46337816 </v>
    <v>       0.61936829       0.43580953       0.47000940 </v>
    <v>       0.71882854       0.39339456       0.55106492 </v>
    <v>       0.54828714       0.32988732       0.44894422 </v>
    <v>       0.52939165       0.69290284       0.36882270 </v>
    <v>       0.41856322       0.48523248       0.36665221 </v>
    <v>       0.61759736       0.67671299       0.45662077 </v>
    <v>       0.60746616       0.34493849       0.55666321 </v>
    <v>       0.36722848       0.37817297       0.35932114 </v>
    <v>       0.47484303       0.58916027       0.37154354 </v>
    <v>       0.66622564       0.50805397       0.56120959 </v>
    <v>       0.56313102       0.54238252       0.47428834 </v>
    <v>       0.42893656       0.33339124       0.45150744 </v>
    <v>       0.45216889       0.78173708       0.39191756 </v>
    <v>       0.54624049       0.77093273       0.46013568 </v>
    <v>       0.49081132       0.44214889       0.46521318 </v>
    <v>       0.60885027       0.61326718       0.56221120 </v>
    <v>       0.64612817       0.42077476       0.63979227 </v>
    <v>       0.40434963       0.67387499       0.41547278 </v>
    <v>       0.50296306       0.64782737       0.48442235 </v>
    <v>       0.58676658       0.53618472       0.65204011 </v>
    <v>       0.42173120       0.54998845       0.47084503 </v>
    <v>       0.57145043       0.72446344       0.56475203 </v>
    <v>       0.54881868       0.45631527       0.57152889 </v>
    <v>       0.43840347       0.74839119       0.50963243 </v>
    <v>       0.48995198       0.35157855       0.55455303 </v>
    <v>       0.36045785       0.44040859       0.46316252 </v>
    <v>       0.37263951       0.35349186       0.55463150 </v>
    <v>       0.49311828       0.56730205       0.57210261 </v>
    <v>       0.54616378       0.42400529       0.69881666 </v>
    <v>       0.37688029       0.64786590       0.53065744 </v>
    <v>       0.42268429       0.46683772       0.56391891 </v>
    <v>       0.48985249       0.61349020       0.69722486 </v>
    <v>       0.46796905       0.68146231       0.60421244 </v>
    <v>       0.53873629       0.52692859       0.76091620 </v>
    <v>       0.32436668       0.54385829       0.54548841 </v>
    <v>       0.46190561       0.50071654       0.67300160 </v>
    <v>       0.43451154       0.38554134       0.65658435 </v>
    <v>       0.28680194       0.43567639       0.56187028 </v>
    <v>       0.31167582       0.36830782       0.65712252 </v>
    <v>       0.38754129       0.59370608       0.63716883 </v>
    <v>       0.34500128       0.48304586       0.65603891 </v>
   </varray>
  </structure>
  <varray name="forces" >
   <v>       0.06215171       0.12558895       0.11177329 </v>
   <v>       0.06945805       0.10421111       0.01216887 </v>
   <v>       0.04772142      -0.03298857       0.10561481 </v>
   <v>       0.15795943       0.03810061      -0.03431732 </v>
   <v>       0.19504026      -0.19957801      -0.01059064 </v>
   <v>       0.06302853       0.02589185       0.01174295 </v>
   <v>      -0.00380577      -0.25695118       0.02015847 </v>
   <v>       0.07076189       0.02062441      -0.23642826 </v>
   <v>       0.03870691       0.01454322      -0.15659669 </v>
   <v>       0.02019923      -0.12935417      -0.04996165 </v>
   <v>      -0.11913804      -0.08887679      -0.07785219 </v>
   <v>       0.03963842       0.08695698       0.03245457 </v>
   <v>       0.00284364       0.14924185       0.07084208 </v>
   <v>      -0.03632240       0.01147264      -0.03918996 </v>
   <v>       0.03663642       0.07249673      -0.01007758 </v>
   <v>       0.05019554      -0.04367982       0.06992541 </v>
   <v>      -0.15228172       0.00684478       0.11545760 </v>
   <v>       0.21825954      -0.08750476      -0.14460134 </v>
   <v>       0.00258143      -0.01652208      -0.06918074 </v>
   <v>      -0.06775422      -0.06277496       0.07651827 </v>
   <v>      -0.15423044      -0.00003378       0.03660506 </v>
   <v>      -0.15408993       0.12911513       0.06836918 </v>
   <v>      -0.04811015       0.12269918      -0.15980139 </v>
   <v>       0.08728094       0.02097896      -0.02851406 </v>
   <v>      -0.00644738      -0.02935797       0.02715431 </v>
   <v>       0.09160342       0.00412466       0.12479697 </v>
   <v>       0.15555278       0.00114769      -0.10589100 </v>
   <v>      -0.07379649       0.16844124       0.01284419 </v>
   <v>       0.10612611      -0.04025527       0.19837379 </v>
   <v>       0.19341143       0.10245540      -0.03488889 </v>
   <v>      -0.25550454      -0.04565855      -0.09105000 </v>
   <v>       0.06244649      -0.10242785       0.01237460 </v>
   <v>      -0.00555630       0.27523256       0.01639767 </v>
   <v>       0.01063629      -0.18528991      -0.04313267 </v>
   <v>      -0.20980071      -0.00985646       0.07161373 </v>
   <v>      -0.11072759      -0.13557999       0.00379223 </v>
   <v>      -0.01080663       0.03543929       0.10305402 </v>
   <v>      -0.11997300      -0.07012133      -0.30052542 </v>
   <v>       0.12528233       0.15935805       0.12765634 </v>
   <v>      -0.11761883       0.00979661       0.02249722 </v>
   <v>       0.18301725       0.06371810      -0.06973590 </v>
   <v>      -0.15727049       0.14634100      -0.06157363 </v>
   <v>       0.00427408      -0.13752418       0.19785413 </v>
   <v>       0.15836644      -0.10038967       0.14256844 </v>
   <v>       0.00100111       0.17927014       0.12095091 </v>
   <v>      -0.15356205       0.05189434      -0.07757937 </v>
   <v>      -0.04452592      -0.17351148       0.00503871 </v>
   <v>       0.02385271      -0.15084940      -0.00399202 </v>
   <v>      -0.06301580      -0.05885693      -0.08355040 </v>
   <v>      -0.21369540       0.03195763      -0.02956672 </v>
  </varray>
  <varray name="stress" >
   <v>      -1.75704524       0.00319523      -0.26848938 </v>
   <v>       0.00319524      -0.94908459      -0.14713843 </v>
   <v>      -0.26848937      -0.14713843      -2.18699648 </v>
  </varray>
  <energy>
   <i name="e_fr_energy">   -107.18216974 </i>
   <i name="e_wo_entrp">   -107.18216974 </i>
   <i name="e_0_energy">      0.00000000 </i>
  </energy>
  <time name="totalsc">   49.13   50.65</time>
 </calculation>
 <calculation>
  <scstep>
   <time name="dav">    6.05    6.06</time>
   <time name="total">    6.43    6.44</time>
   <energy>
    <i name="alphaZ">    168.65294162 </i>
    <i name="ewald"> 145304.25538718 </i>
    <i name="hartreedc">-195114.90346642 </i>
    <i name="XCdc">   -564.93384895 </i>
    <i name="pawpsdc">  54245.89658712 </i>
    <i name="pawaedc"> -52036.32380944 </i>
    <i name="eentropy">      0.00000000 </i>
    <i name="bandstr">  -3969.61473777 </i>
    <i name="atom">  51859.93150432 </i>
    <i name="e_fr_energy">   -107.03944235 </i>
    <i name="e_wo_entrp">   -107.03944235 </i>
    <i name="e_0_energy">   -107.03944235 </i>
   </energy>
  </scstep>
  <scstep>
   <time name="dav">    6.20    6.21</time>
   <time name="total">    6.58    6.58</time>
   <energy>
    <i name="e_fr_energy">   -107.25756997 </i>
    <i name="e_wo_entrp">   -107.25756997 </i>
    <i name="e_0_energy">   -107.25756997 </i>
   </energy>
  </scstep>
  <scstep>
   <time name="dav">    6.28    6.29</time>
   <time name="total">    6.66    6.67</time>
   <energy>
    <i name="e_fr_energy">   -107.25379503 </i>
    <i name="e_wo_entrp">   -107.25379503 </i>
    <i name="e_0_energy">   -107.25379503 </i>
   </energy>
  </scstep>
  <scstep>
   <time name="dav">    6.23    6.24</time>
   <time name="total">    6.61    6.65</time>
   <energy>
    <i name="e_fr_energy">   -107.24989120 </i>
    <i name="e_wo_entrp">   -107.24989120 </i>
    <i name="e_0_energy">   -107.24989120 </i>
   </energy>
  </scstep>
  <scstep>
   <time name="dav">    6.44    6.45</time>
   <time name="total">    6.81    6.83</time>
   <energy>
    <i name="e_fr_energy">   -107.25009249 </i>
    <i name="e_wo_entrp">   -107.25009249 </i>
    <i name="e_0_energy">   -107.25009249 </i>
   </energy>
  </scstep>
  <scstep>
   <time name="dav">    4.69    4.70</time>
   <time name="total">    4.92    5.43</time>
   <energy>
    <i name="alphaZ">    168.65294162 </i>
    <i name="ewald"> 145304.25538718 </i>
    <i name="hartreedc">-195116.93057073 </i>
    <i name="XCdc">   -564.89332491 </i>
    <i name="pawpsdc">  54229.91903326 </i>
    <i name="pawaedc"> -52019.92012123 </i>
    <i name="eentropy">      0.00000000 </i>
    <i name="bandstr">  -3968.26494250 </i>
    <i name="atom">  51859.93150432 </i>
    <i name="e_fr_energy">   -107.25009299 </i>
    <i name="e_wo_entrp">   -107.25009299 </i>
    <i name="e_0_energy">   -107.25009299 </i>
   </energy>
  </scstep>
  <structure>
   <crystal>
    <varray name="basis" >
     <v>      23.27484280       0.00000000       0.00000000 </v>
     <v>       0.00000000      23.27484280       0.00000000 </v>
     <v>       0.00000000       0.00000000      23.27484280 </v>
    </varray>
    <i name="volume">  12608.40843987 </i>
    <varray name="rec_basis" >
     <v>       0.04296484       0.00000000       0.00000000 </v>
     <v>       0.00000000       0.04296484       0.00000000 </v>
     <v>       0.00000000       0.00000000       0.04296484 </v>
    </varray>
   </crystal>
   <varray name="positions" >
    <v>       0.72349362       0.39777983       0.37698773 </v>
    <v>       0.66534165       0.49737826       0.37339759 </v>
    <v>       0.60705294       0.38725495       0.35800193 </v>
    <v>       0.73890466       0.47546390       0.46458946 </v>
    <v>       0.66952806       0.32667740       0.45523924 </v>
    <v>       0.59803917       0.59974739       0.36735280 </v>
    <v>       0.48736508       0.38142326       0.35531155 </v>
    <v>       0.54300807       0.48962595       0.36435164 </v>
    <v>       0.68261249       0.57729220       0.46222846 </v>
    <v>       0.61953724       0.43430454       0.46958614 </v>
    <v>       0.71733729       0.39264405       0.55129011 </v>
    <v>       0.54863233       0.33033592       0.44862650 </v>
    <v>       0.52959643       0.69293916       0.36960957 </v>
    <v>       0.41757580       0.48411673       0.36564571 </v>
    <v>       0.61754330       0.67767079       0.45618776 </v>
    <v>       0.60934861       0.34510949       0.55753046 </v>
    <v>       0.36669360       0.37851857       0.36013738 </v>
    <v>       0.47660070       0.59018924       0.37079600 </v>
    <v>       0.66642073       0.50759739       0.56123322 </v>
    <v>       0.56228508       0.54262167       0.47545579 </v>
    <v>       0.42774634       0.33342594       0.45170605 </v>
    <v>       0.45159235       0.78220115       0.39260078 </v>
    <v>       0.54545378       0.77148370       0.45888238 </v>
    <v>       0.49191355       0.44218090       0.46487033 </v>
    <v>       0.60844545       0.61346013       0.56245650 </v>
    <v>       0.64699653       0.42055292       0.63977111 </v>
    <v>       0.40534482       0.67397091       0.41463332 </v>
    <v>       0.50231631       0.64862453       0.48448694 </v>
    <v>       0.58775426       0.53611186       0.65352835 </v>
    <v>       0.42292191       0.55144310       0.47086000 </v>
    <v>       0.57044344       0.72394928       0.56456001 </v>
    <v>       0.54949593       0.45540291       0.57152059 </v>
    <v>       0.43848584       0.75014634       0.50948919 </v>
    <v>       0.48813658       0.35050629       0.55457069 </v>
    <v>       0.35876575       0.43964574       0.46354788 </v>
    <v>       0.37240635       0.35321135       0.55483065 </v>
    <v>       0.49317256       0.56837288       0.57217800 </v>
    <v>       0.54479391       0.42379918       0.69725320 </v>
    <v>       0.37788005       0.64871778       0.53228095 </v>
    <v>       0.42113143       0.46632843       0.56531882 </v>
    <v>       0.49084315       0.61601173       0.69652382 </v>
    <v>       0.46698279       0.68150155       0.60385475 </v>
    <v>       0.53929147       0.52569679       0.76280271 </v>
    <v>       0.32533466       0.54332354       0.54674272 </v>
    <v>       0.46255422       0.49965714       0.67364656 </v>
    <v>       0.43379008       0.38628714       0.65577393 </v>
    <v>       0.28687371       0.43427302       0.56215858 </v>
    <v>       0.31201034       0.36769743       0.65676532 </v>
    <v>       0.38629367       0.59393916       0.63584579 </v>
    <v>       0.34332612       0.48281144       0.65535566 </v>
   </varray>
  </structure>
  <varray name="forces" >
   <v>       0.21386085      -0.10478914       0.02042183 </v>
   <v>      -0.28711586       0.40342517      -0.10805283 </v>
   <v>      -0.05036500      -0.05480628      -0.00656531 </v>
   <v>       0.24459960      -0.06998482       0.24309159 </v>
   <v>       0.10226127      -0.23611638       0.03982917 </v>
   <v>       0.26023032      -0.32801351       0.05381186 </v>
   <v>       0.03106873      -0.17050806       0.05619601 </v>
   <v>       0.09310646       0.08449544      -0.08649370 </v>
   <v>      -0.14918606       0.21245996      -0.08085866 </v>
   <v>       0.01764043       0.06181808       0.01492598 </v>
   <v>       0.14550351       0.00452796      -0.22880869 </v>
   <v>       0.00437995       0.05431732       0.14233331 </v>
   <v>      -0.05625051       0.36200666      -0.03809349 </v>
[...]
       <r>     1.0484    24.2199   333.0000 </r>
       <r>     1.0897     0.0000   335.0000 </r>
       <r>     1.1310     0.0000   336.0000 </r>
       <r>     1.1723     0.0000   339.0000 </r>
       <r>     1.2136     0.0000   340.0000 </r>
       <r>     1.2548     0.0000   341.0000 </r>
       <r>     1.2961     0.0000   343.0000 </r>
       <r>     1.3374     0.0000   345.0000 </r>
       <r>     1.3787     0.0000   347.0000 </r>
       <r>     1.4200     0.0000   349.0000 </r>
       <r>     1.4613     0.0000   350.0000 </r>
       <r>     1.5026     0.0000   353.0000 </r>
       <r>     1.5439     0.0000   354.0000 </r>
       <r>     1.5852     0.0000   356.0000 </r>
       <r>     1.6264     0.0000   356.0000 </r>
       <r>     1.6677     0.0000   356.0000 </r>
       <r>     1.7090     0.0000   356.0000 </r>
       <r>     1.7503     0.0000   356.0000 </r>
       <r>     1.7916     0.0000   356.0000 </r>
       <r>     1.8329     0.0000   356.0000 </r>
       <r>     1.8742     0.0000   356.0000 </r>
       <r>     1.9155     0.0000   356.0000 </r>
       <r>     1.9567     0.0000   356.0000 </r>
       <r>     1.9980     0.0000   356.0000 </r>
       <r>     2.0393     0.0000   356.0000 </r>
       <r>     2.0806     0.0000   356.0000 </r>
       <r>     2.1219     0.0000   356.0000 </r>
      </set>
      <set comment="spin 2">
       <r>   -10.2646     0.0000     0.0000 </r>
       <r>   -10.2233     0.0000     0.0000 </r>
       <r>   -10.1820     0.0000     0.0000 </r>
       <r>   -10.1408     0.0000     0.0000 </r>
       <r>   -10.0995     0.0000     0.0000 </r>
       <r>   -10.0582     0.0000     0.0000 </r>
       <r>   -10.0169     0.0000     0.0000 </r>
       <r>    -9.9756     0.0000     0.0000 </r>
       <r>    -9.9343     0.0000     0.0000 </r>
       <r>    -9.8930     0.0000     0.0000 </r>
       <r>    -9.8517     0.0000     0.0000 </r>
       <r>    -9.8104     0.0000     0.0000 </r>
       <r>    -9.7692     0.0000     0.0000 </r>
       <r>    -9.7279     0.0000     0.0000 </r>
       <r>    -9.6866     0.0000     1.0000 </r>
       <r>    -9.6453     0.0000     1.0000 </r>
       <r>    -9.6040     0.0000     1.0000 </r>
       <r>    -9.5627     0.0000     1.0000 </r>
       <r>    -9.5214     0.0000     1.0000 </r>
       <r>    -9.4801     0.0000     1.0000 </r>
       <r>    -9.4388     0.0000     1.0000 </r>
       <r>    -9.3976     0.0000     1.0000 </r>
       <r>    -9.3563     0.0000     1.0000 </r>
       <r>    -9.3150     0.0000     1.0000 </r>
       <r>    -9.2737     0.0000     1.0000 </r>
       <r>    -9.2324     0.0000     1.0000 </r>
       <r>    -9.1911     0.0000     1.0000 </r>
       <r>    -9.1498     0.0000     2.0000 </r>
       <r>    -9.1085     0.0000     2.0000 </r>
       <r>    -9.0673     0.0000     3.0000 </r>
       <r>    -9.0260     0.0000     3.0000 </r>
       <r>    -8.9847     0.0000     5.0000 </r>
       <r>    -8.9434     0.0000     7.0000 </r>
       <r>    -8.9021    24.2199    10.0000 </r>
       <r>    -8.8608     0.0000    11.0000 </r>
       <r>    -8.8195     0.0000    12.0000 </r>
       <r>    -8.7782    24.2199    15.0000 </r>
       <r>    -8.7369     0.0000    17.0000 </r>
       <r>    -8.6957     0.0000    18.0000 </r>
       <r>    -8.6544     0.0000    22.0000 </r>
       <r>    -8.6131     0.0000    25.0000 </r>
       <r>    -8.5718     0.0000    29.0000 </r>
       <r>    -8.5305     0.0000    32.0000 </r>
       <r>    -8.4892     0.0000    34.0000 </r>
       <r>    -8.4479     0.0000    37.0000 </r>
       <r>    -8.4066     0.0043    40.0002 </r>
       <r>    -8.3654     0.0000    43.0000 </r>
       <r>    -8.3241     0.0000    46.0000 </r>
       <r>    -8.2828     0.0000    48.0000 </r>
       <r>    -8.2415     0.0000    52.0000 </r>
       <r>    -8.2002     0.0000    55.0000 </r>
       <r>    -8.1589     0.0000    59.0000 </r>
       <r>    -8.1176     0.0000    63.0000 </r>
       <r>    -8.0763     0.0000    66.0000 </r>
       <r>    -8.0350     0.0000    70.0000 </r>
       <r>    -7.9938     0.0000    73.0000 </r>
       <r>    -7.9525     0.0000    77.0000 </r>
       <r>    -7.9112     0.0000    81.0000 </r>
       <r>    -7.8699     0.0000    84.0000 </r>
       <r>    -7.8286     0.0000    88.0000 </r>
       <r>    -7.7873     0.0000    90.0000 </r>
       <r>    -7.7460     0.0000    93.0000 </r>
       <r>    -7.7047     0.0000    95.0000 </r>
       <r>    -7.6634    23.8384    99.9842 </r>
       <r>    -7.6222     0.0000   102.0000 </r>
       <r>    -7.5809     0.0000   106.0000 </r>
       <r>    -7.5396     0.0000   109.0000 </r>
       <r>    -7.4983     0.0000   113.0000 </r>
       <r>    -7.4570     0.0000   116.0000 </r>
       <r>    -7.4157     0.0000   119.0000 </r>
       <r>    -7.3744     0.0000   122.0000 </r>
       <r>    -7.3331     0.0000   124.0000 </r>
       <r>    -7.2919     0.0000   128.0000 </r>
       <r>    -7.2506     0.0000   130.0000 </r>
       <r>    -7.2093     0.0000   134.0000 </r>
       <r>    -7.1680    24.2199   137.0000 </r>
       <r>    -7.1267     0.0000   140.0000 </r>
       <r>    -7.0854     0.0000   144.0000 </r>
       <r>    -7.0441     0.0000   147.0000 </r>
       <r>    -7.0028     0.0000   151.0000 </r>
       <r>    -6.9615     0.0000   155.0000 </r>
       <r>    -6.9203     0.0000   159.0000 </r>
       <r>    -6.8790    24.2199   164.0000 </r>
       <r>    -6.8377     0.0000   168.0000 </r>
       <r>    -6.7964     0.0000   172.0000 </r>
       <r>    -6.7551    24.2047   177.9994 </r>
       <r>    -6.7138     0.0000   183.0000 </r>
       <r>    -6.6725     0.0000   188.0000 </r>
       <r>    -6.6312     0.0000   193.0000 </r>
       <r>    -6.5899     0.0000   198.0000 </r>
       <r>    -6.5487     0.0000   204.0000 </r>
       <r>    -6.5074     0.0000   209.0000 </r>
       <r>    -6.4661     0.0000   213.0000 </r>
       <r>    -6.4248     0.0000   217.0000 </r>
       <r>    -6.3835     0.0000   222.0000 </r>
       <r>    -6.3422     0.0000   227.0000 </r>
       <r>    -6.3009     0.0000   233.0000 </r>
       <r>    -6.2596     0.0000   236.0000 </r>
       <r>    -6.2184     0.0000   240.0000 </r>
       <r>    -6.1771     0.0000   245.0000 </r>
       <r>    -6.1358    24.2199   249.0000 </r>
       <r>    -6.0945     0.0000   252.0000 </r>
       <r>    -6.0532     0.0000   254.0000 </r>
       <r>    -6.0119     0.0000   256.0000 </r>
       <r>    -5.9706     0.0000   257.0000 </r>
       <r>    -5.9293     0.0000   257.0000 </r>
       <r>    -5.8880     0.0000   257.0000 </r>
       <r>    -5.8468     0.0000   258.0000 </r>
       <r>    -5.8055     0.0000   258.0000 </r>
       <r>    -5.7642     0.0000   259.0000 </r>
       <r>    -5.7229     0.0000   259.0000 </r>
       <r>    -5.6816     0.0000   259.0000 </r>
       <r>    -5.6403     0.0000   259.0000 </r>
       <r>    -5.5990     0.0000   259.0000 </r>
       <r>    -5.5577     0.0000   260.0000 </r>
       <r>    -5.5165     0.0000   260.0000 </r>
       <r>    -5.4752     0.0000   260.0000 </r>
       <r>    -5.4339     0.0000   260.0000 </r>
       <r>    -5.3926     0.0000   260.0000 </r>
       <r>    -5.3513     0.0000   260.0000 </r>
       <r>    -5.3100     0.0000   260.0000 </r>
       <r>    -5.2687     0.0000   260.0000 </r>
       <r>    -5.2274     0.0000   260.0000 </r>
       <r>    -5.1861     0.0000   260.0000 </r>
       <r>    -5.1449     0.0000   261.0000 </r>
       <r>    -5.1036     0.0000   262.0000 </r>
       <r>    -5.0623     0.0000   262.0000 </r>
       <r>    -5.0210     0.0000   262.0000 </r>
       <r>    -4.9797     0.0000   263.0000 </r>
       <r>    -4.9384     0.0000   263.0000 </r>
       <r>    -4.8971     0.0000   264.0000 </r>
       <r>    -4.8558     0.0000   264.0000 </r>
       <r>    -4.8145     0.0000   264.0000 </r>
       <r>    -4.7733     0.0000   265.0000 </r>
       <r>    -4.7320     0.0000   265.0000 </r>
       <r>    -4.6907     0.0000   265.0000 </r>
       <r>    -4.6494     0.0000   265.0000 </r>
       <r>    -4.6081     0.0000   266.0000 </r>
       <r>    -4.5668     0.0000   267.0000 </r>
       <r>    -4.5255     0.0000   267.0000 </r>
       <r>    -4.4842     0.0000   267.0000 </r>
       <r>    -4.4430     0.0000   267.0000 </r>
       <r>    -4.4017     0.0000   267.0000 </r>
       <r>    -4.3604     0.0000   267.0000 </r>
       <r>    -4.3191     0.0000   267.0000 </r>
       <r>    -4.2778     0.0000   267.0000 </r>
       <r>    -4.2365     0.0000   267.0000 </r>
       <r>    -4.1952     0.0000   267.0000 </r>
       <r>    -4.1539     0.0000   268.0000 </r>
       <r>    -4.1126     0.0000   268.0000 </r>
       <r>    -4.0714     0.0000   268.0000 </r>
       <r>    -4.0301     0.0000   268.0000 </r>
       <r>    -3.9888     0.0000   269.0000 </r>
       <r>    -3.9475     0.0000   269.0000 </r>
       <r>    -3.9062     0.0000   270.0000 </r>
       <r>    -3.8649     0.0000   270.0000 </r>
       <r>    -3.8236     0.0000   270.0000 </r>
       <r>    -3.7823     0.0000   270.0000 </r>
       <r>    -3.7410     0.0000   270.0000 </r>
       <r>    -3.6998     0.0000   270.0000 </r>
       <r>    -3.6585     0.0000   271.0000 </r>
       <r>    -3.6172     0.0000   271.0000 </r>
       <r>    -3.5759     0.0000   272.0000 </r>
       <r>    -3.5346     0.0000   272.0000 </r>
       <r>    -3.4933     0.0000   273.0000 </r>
       <r>    -3.4520     0.0000   273.0000 </r>
       <r>    -3.4107     0.0000   274.0000 </r>
       <r>    -3.3695     0.0000   274.0000 </r>
       <r>    -3.3282     0.0000   275.0000 </r>
       <r>    -3.2869     0.0000   275.0000 </r>
       <r>    -3.2456     0.0000   275.0000 </r>
       <r>    -3.2043     0.0000   275.0000 </r>
       <r>    -3.1630     0.0000   275.0000 </r>
       <r>    -3.1217     0.0000   276.0000 </r>
       <r>    -3.0804     0.0000   277.0000 </r>
       <r>    -3.0391     0.0000   277.0000 </r>
       <r>    -2.9979     0.0000   278.0000 </r>
       <r>    -2.9566     0.0000   278.0000 </r>
       <r>    -2.9153     0.0000   279.0000 </r>
       <r>    -2.8740     0.0000   279.0000 </r>
       <r>    -2.8327     0.0000   279.0000 </r>
       <r>    -2.7914     0.0000   279.0000 </r>
       <r>    -2.7501     0.0000   279.0000 </r>
       <r>    -2.7088     0.0000   279.0000 </r>
       <r>    -2.6676     0.0000   279.0000 </r>
       <r>    -2.6263     0.0000   280.0000 </r>
       <r>    -2.5850     0.0000   280.0000 </r>
       <r>    -2.5437     0.0000   281.0000 </r>
       <r>    -2.5024     0.0000   281.0000 </r>
       <r>    -2.4611     0.0000   281.0000 </r>
       <r>    -2.4198     0.0000   282.0000 </r>
       <r>    -2.3785     0.0000   282.0000 </r>
       <r>    -2.3372     0.0000   283.0000 </r>
       <r>    -2.2960     0.0000   283.0000 </r>
       <r>    -2.2547     0.0000   284.0000 </r>
       <r>    -2.2134     0.0000   284.0000 </r>
       <r>    -2.1721     0.0000   284.0000 </r>
       <r>    -2.1308     0.0000   285.0000 </r>
       <r>    -2.0895     0.0000   285.0000 </r>
       <r>    -2.0482     0.0000   286.0000 </r>
       <r>    -2.0069     0.0000   286.0000 </r>
       <r>    -1.9656     0.0000   288.0000 </r>
       <r>    -1.9244     0.0000   288.0000 </r>
       <r>    -1.8831     0.0000   289.0000 </r>
       <r>    -1.8418     0.0000   290.0000 </r>
       <r>    -1.8005     0.0000   290.0000 </r>
       <r>    -1.7592     0.0000   290.0000 </r>
       <r>    -1.7179     0.0000   291.0000 </r>
       <r>    -1.6766     0.0000   291.0000 </r>
       <r>    -1.6353     0.0000   292.0000 </r>
       <r>    -1.5941     0.0000   292.0000 </r>
       <r>    -1.5528     0.0000   293.0000 </r>
       <r>    -1.5115     0.0000   294.0000 </r>
       <r>    -1.4702     0.0000   294.0000 </r>
       <r>    -1.4289     0.0000   294.0000 </r>
       <r>    -1.3876     0.0000   296.0000 </r>
       <r>    -1.3463     0.0000   296.0000 </r>
       <r>    -1.3050     0.0000   296.0000 </r>
       <r>    -1.2637     0.0000   297.0000 </r>
       <r>    -1.2225     0.0000   297.0000 </r>
       <r>    -1.1812     0.0000   297.0000 </r>
       <r>    -1.1399     0.0000   298.0000 </r>
       <r>    -1.0986     0.0000   298.0000 </r>
       <r>    -1.0573     0.0000   298.0000 </r>
       <r>    -1.0160     0.0000   298.0000 </r>
       <r>    -0.9747     0.0000   298.0000 </r>
       <r>    -0.9334     0.0000   299.0000 </r>
       <r>    -0.8922     0.0000   300.0000 </r>
       <r>    -0.8509     0.0000   300.0000 </r>
       <r>    -0.8096    24.2199   301.0000 </r>
       <r>    -0.7683     0.0000   301.0000 </r>
       <r>    -0.7270     0.0000   302.0000 </r>
       <r>    -0.6857     0.0000   302.0000 </r>
       <r>    -0.6444     0.0000   303.0000 </r>
       <r>    -0.6031     0.0000   304.0000 </r>
       <r>    -0.5618     0.0000   304.0000 </r>
       <r>    -0.5206     0.0000   305.0000 </r>
       <r>    -0.4793     0.0000   305.0000 </r>
       <r>    -0.4380     0.0000   306.0000 </r>
       <r>    -0.3967     0.0000   306.0000 </r>
       <r>    -0.3554     0.0000   307.0000 </r>
       <r>    -0.3141     0.0000   308.0000 </r>
       <r>    -0.2728     0.0000   309.0000 </r>
       <r>    -0.2315     0.0000   309.0000 </r>
       <r>    -0.1902     0.0000   309.0000 </r>
       <r>    -0.1490     0.0000   310.0000 </r>
       <r>    -0.1077     0.0000   310.0000 </r>
       <r>    -0.0664     0.0000   311.0000 </r>
       <r>    -0.0251     0.0000   311.0000 </r>
       <r>     0.0162     0.0000   311.0000 </r>
       <r>     0.0575     0.0000   313.0000 </r>
       <r>     0.0988     0.0000   313.0000 </r>
       <r>     0.1401     0.0000   313.0000 </r>
       <r>     0.1813     0.0000   314.0000 </r>
       <r>     0.2226     0.0000   315.0000 </r>
       <r>     0.2639     0.0000   316.0000 </r>
       <r>     0.3052     0.0000   316.0000 </r>
       <r>     0.3465     0.0000   317.0000 </r>
       <r>     0.3878     0.0000   317.0000 </r>
       <r>     0.4291     0.0000   318.0000 </r>
       <r>     0.4704     0.0000   319.0000 </r>
       <r>     0.5117     0.0000   319.0000 </r>
       <r>     0.5529     0.0000   321.0000 </r>
       <r>     0.5942     0.0000   321.0000 </r>
       <r>     0.6355     0.0000   322.0000 </r>
       <r>     0.6768     0.0000   323.0000 </r>
       <r>     0.7181     0.0000   324.0000 </r>
       <r>     0.7594    24.2199   325.0000 </r>
       <r>     0.8007     0.0000   325.0000 </r>
       <r>     0.8420     0.0000   325.0000 </r>
       <r>     0.8833     0.0000   326.0000 </r>
       <r>     0.9245     0.0000   328.0000 </r>
       <r>     0.9658     0.0000   330.0000 </r>
       <r>     1.0071     0.0000   331.0000 </r>
       <r>     1.0484    24.2199   333.0000 </r>
       <r>     1.0897     0.0000   335.0000 </r>
       <r>     1.1310     0.0000   336.0000 </r>
       <r>     1.1723     0.0000   339.0000 </r>
       <r>     1.2136     0.0000   340.0000 </r>
       <r>     1.2548     0.0000   341.0000 </r>
       <r>     1.2961     0.0000   343.0000 </r>
       <r>     1.3374     0.0000   345.0000 </r>
       <r>     1.3787     0.0000   347.0000 </r>
       <r>     1.4200     0.0000   349.0000 </r>
       <r>     1.4613     0.0000   350.0000 </r>
       <r>     1.5026     0.0000   353.0000 </r>
       <r>     1.5439     0.0000   354.0000 </r>
       <r>     1.5852     0.0000   356.0000 </r>
       <r>     1.6264     0.0000   356.0000 </r>
       <r>     1.6677     0.0000   356.0000 </r>
       <r>     1.7090     0.0000   356.0000 </r>
       <r>     1.7503     0.0000   356.0000 </r>
       <r>     1.7916     0.0000   356.0000 </r>
       <r>     1.8329     0.0000   356.0000 </r>
       <r>     1.8742     0.0000   356.0000 </r>
       <r>     1.9155     0.0000   356.0000 </r>
       <r>     1.9567     0.0000   356.0000 </r>
       <r>     1.9980     0.0000   356.0000 </r>
       <r>     2.0393     0.0000   356.0000 </r>
       <r>     2.0806     0.0000   356.0000 </r>
       <r>     2.1219     0.0000   356.0000 </r>
      </set>
     </set>
    </array>
   </total>
  </dos>
 </calculation>
 <structure name="finalpos" >
  <crystal>
   <varray name="basis" >
    <v>      23.27484280       0.00000000       0.00000000 </v>
    <v>       0.00000000      23.27484280       0.00000000 </v>
    <v>       0.00000000       0.00000000      23.27484280 </v>
   </varray>
   <i name="volume">  12608.40843987 </i>
   <varray name="rec_basis" >
    <v>       0.04296484       0.00000000       0.00000000 </v>
    <v>       0.00000000       0.04296484       0.00000000 </v>
    <v>       0.00000000       0.00000000       0.04296484 </v>
   </varray>
  </crystal>
  <varray name="positions" >
   <v>       0.72093828       0.39207980       0.40544392 </v>
   <v>       0.66711289       0.49700233       0.37869272 </v>
   <v>       0.60840744       0.37488087       0.36430010 </v>
   <v>       0.75223992       0.48802334       0.46660747 </v>
   <v>       0.66366572       0.31011358       0.46886274 </v>
   <v>       0.60577360       0.60192381       0.36507953 </v>
   <v>       0.48783979       0.37046002       0.35746688 </v>
   <v>       0.55081409       0.48018613       0.35639756 </v>
   <v>       0.68733545       0.58798045       0.45599481 </v>
   <v>       0.62094252       0.42796693       0.46877051 </v>
   <v>       0.71277859       0.39795909       0.54277513 </v>
   <v>       0.54496097       0.32589778       0.45861461 </v>
   <v>       0.52736083       0.69735241       0.36872000 </v>
   <v>       0.42488774       0.48149791       0.36577361 </v>
   <v>       0.62095582       0.68689182       0.45327492 </v>
   <v>       0.60212411       0.34912584       0.56677397 </v>
   <v>       0.36489829       0.37839905       0.36541150 </v>
   <v>       0.48872116       0.58340104       0.36524430 </v>
   <v>       0.66942478       0.51350684       0.55201868 </v>
   <v>       0.56724924       0.54100948       0.46324368 </v>
   <v>       0.42461090       0.33235496       0.45686931 </v>
   <v>       0.44033902       0.77808024       0.40918840 </v>
   <v>       0.54569015       0.77741620       0.45954898 </v>
   <v>       0.49359717       0.43876754       0.45910097 </v>
   <v>       0.60908473       0.61559440       0.55147484 </v>
   <v>       0.64572188       0.43497913       0.63806897 </v>
   <v>       0.41176161       0.66211880       0.41115804 </v>
   <v>       0.50782096       0.65291252       0.47989408 </v>
   <v>       0.59056835       0.54338183       0.64531491 </v>
   <v>       0.43516230       0.55005314       0.46971489 </v>
   <v>       0.55487275       0.72081590       0.56619757 </v>
   <v>       0.55200628       0.46943609       0.55848625 </v>
   <v>       0.44472354       0.75798906       0.52637182 </v>
   <v>       0.48326120       0.35511154       0.56006817 </v>
   <v>       0.36312566       0.44422433       0.46527449 </v>
   <v>       0.36312860       0.34413705       0.55632831 </v>
   <v>       0.49211771       0.58023355       0.57638441 </v>
   <v>       0.52997254       0.41048304       0.65933503 </v>
   <v>       0.39214858       0.64890617       0.53306127 </v>
   <v>       0.42723487       0.46799274       0.56482865 </v>
   <v>       0.50066449       0.60843037       0.69726246 </v>
   <v>       0.45526750       0.69315175       0.62568840 </v>
   <v>       0.54826541       0.49974274       0.74569830 </v>
   <v>       0.33596923       0.54392862       0.54525617 </v>
   <v>       0.45323328       0.50148870       0.67802255 </v>
   <v>       0.41035599       0.38904666       0.65620704 </v>
   <v>       0.28767783       0.43624055       0.55716607 </v>
   <v>       0.29212538       0.36784786       0.65351972 </v>
   <v>       0.38618905       0.59639010       0.64315213 </v>
   <v>       0.33428596       0.48651086       0.65426574 </v>
  </varray>
 </structure>
</modeling>
