unknown system                          
           1
    18.186806    0.000000    0.000000
     0.000000   18.186806    0.000000
     0.000000    0.000000   18.186806
   Ag
  13
Direct configuration=     1
   0.42409901  0.40399325  0.39059596
   0.52162560  0.40749011  0.50091176
   0.56767936  0.43543938  0.63442682
   0.38386149  0.44298986  0.52768684
   0.43585787  0.49715992  0.65534264
   0.66507779  0.39001304  0.53270709
   0.57351766  0.57037360  0.58454644
   0.63605276  0.51555855  0.46581715
   0.45623710  0.64732117  0.64079745
   0.44196027  0.57303056  0.50906883
   0.50087391  0.52680718  0.38622042
   0.59633259  0.63694667  0.39464570
   0.52910707  0.68801145  0.51401571
Direct configuration=     2
   0.42396421  0.40376831  0.39033263
   0.52175663  0.40748611  0.50066454
   0.56777038  0.43509447  0.63491057
   0.38340492  0.44272127  0.52786077
   0.43584984  0.49725816  0.65532513
   0.66530286  0.38975498  0.53270058
   0.57362389  0.57052308  0.58492546
   0.63621824  0.51548596  0.46557011
   0.45621890  0.64743788  0.64083721
   0.44161730  0.57318235  0.50928388
   0.50104407  0.52672805  0.38585837
   0.59641513  0.63713803  0.39451489
   0.52909612  0.68855608  0.51399869
Direct configuration=     3
   0.42355981  0.40309352  0.38954263
   0.52214970  0.40747410  0.49992290
   0.56804345  0.43405975  0.63636180
   0.38203522  0.44191551  0.52838255
   0.43582574  0.49755289  0.65527261
   0.66597805  0.38898078  0.53268105
   0.57394257  0.57097150  0.58606250
   0.63671469  0.51526822  0.46482898
   0.45616429  0.64778801  0.64095647
   0.44058840  0.57363774  0.50992902
   0.50155456  0.52649066  0.38477220
   0.59666275  0.63771212  0.39412247
   0.52906325  0.69018996  0.51394763
Direct configuration=     4
   0.42275100  0.40174393  0.38796262
   0.52293584  0.40745010  0.49843961
   0.56858960  0.43199030  0.63926427
   0.37929582  0.44030399  0.52942611
   0.43577755  0.49814234  0.65516757
   0.66732845  0.38743239  0.53264200
   0.57457995  0.57186833  0.58833659
   0.63770758  0.51483273  0.46334673
   0.45605508  0.64848827  0.64119500
   0.43853059  0.57454850  0.51121931
   0.50257553  0.52601588  0.38259987
   0.59715799  0.63886029  0.39333764
   0.52899751  0.69345771  0.51384551
Direct configuration=     5
   0.42113340  0.39904474  0.38480262
   0.52450812  0.40740208  0.49547304
   0.56968189  0.42785141  0.64506920
   0.37381701  0.43708094  0.53151325
   0.43568116  0.49932124  0.65495748
   0.67002924  0.38433561  0.53256388
   0.57585469  0.57366200  0.59288476
   0.63969336  0.51396175  0.46038223
   0.45583666  0.64988878  0.64167206
   0.43441497  0.57637003  0.51379987
   0.50461748  0.52506631  0.37825521
   0.59814846  0.64115664  0.39176796
   0.52886604  0.69999322  0.51364127
Direct configuration=     6
   0.42170206  0.39999363  0.38591350
   0.52395539  0.40741896  0.49651593
   0.56929790  0.42930642  0.64302850
   0.37574306  0.43821399  0.53077952
   0.43571505  0.49890680  0.65503133
   0.66907979  0.38542427  0.53259134
   0.57540656  0.57303145  0.59128587
   0.63899526  0.51426794  0.46142439
   0.45591344  0.64939644  0.64150435
   0.43586179  0.57572968  0.51289269
   0.50389964  0.52540013  0.37978255
   0.59780027  0.64034937  0.39231977
   0.52891226  0.69769569  0.51371307
Direct configuration=     7
   0.42189303  0.40009735  0.38571364
   0.52407306  0.40836346  0.49632620
   0.56921149  0.42924471  0.64284462
   0.37558744  0.43776063  0.53091313
   0.43634114  0.49925092  0.65455407
   0.66908915  0.38502428  0.53260145
   0.57476107  0.57279182  0.59214859
   0.63849864  0.51355202  0.46062942
   0.45624033  0.64985802  0.64179613
   0.43559338  0.57559251  0.51325907
   0.50458146  0.52431110  0.37982061
   0.59773391  0.64098528  0.39248023
   0.52867838  0.69830266  0.51369566
Direct configuration=     8
   0.42246594  0.40040853  0.38511406
   0.52442605  0.41119697  0.49575701
   0.56895227  0.42905958  0.64229298
   0.37512060  0.43640055  0.53131393
   0.43821942  0.50028326  0.65312229
   0.66911723  0.38382433  0.53263176
   0.57282458  0.57207292  0.59473675
   0.63700878  0.51140428  0.45824452
   0.45722098  0.65124276  0.64267145
   0.43478814  0.57518100  0.51435824
   0.50662691  0.52104400  0.37993476
   0.59753483  0.64289301  0.39296163
   0.52797674  0.70012356  0.51364344
Direct configuration=     9
   0.42361176  0.40103088  0.38391490
   0.52513204  0.41686399  0.49461863
   0.56843381  0.42868933  0.64118970
   0.37418691  0.43368039  0.53211554
   0.44197598  0.50234794  0.65025872
   0.66917340  0.38142442  0.53269239
   0.56895161  0.57063514  0.59991306
   0.63402906  0.50710879  0.45347472
   0.45918229  0.65401225  0.64442210
   0.43317765  0.57435799  0.51655657
   0.51071782  0.51450981  0.38016308
   0.59713668  0.64670846  0.39392442
   0.52657347  0.70376537  0.51353899
Direct configuration=    10
   0.42275588  0.40056601  0.38481063
   0.52460469  0.41263095  0.49546895
   0.56882108  0.42896589  0.64201381
   0.37488434  0.43571224  0.53151677
   0.43916998  0.50080570  0.65239769
   0.66913144  0.38321706  0.53264710
   0.57184457  0.57170910  0.59604656
   0.63625479  0.51031735  0.45703757
   0.45771727  0.65194356  0.64311444
   0.43438062  0.57497275  0.51491450
   0.50766208  0.51939059  0.37999254
   0.59743408  0.64385847  0.39320525
   0.52762166  0.70104508  0.51361701
Direct configuration=    11
   0.42269116  0.40023351  0.38511779
   0.52409156  0.41396287  0.49592461
   0.56926868  0.42838256  0.64105516
   0.37547961  0.43507241  0.53119583
   0.43985614  0.50126402  0.65191482
   0.66844494  0.38313565  0.53255789
   0.57120383  0.57148973  0.59616379
   0.63607821  0.51013691  0.45646582
   0.45767476  0.65358610  0.64348102
   0.43455084  0.57479403  0.51482366
   0.50914301  0.51914598  0.37987525
   0.59665155  0.64347216  0.39430288
   0.52714818  0.70045883  0.51390429
Direct configuration=    12
   0.42252808  0.39939568  0.38589179
   0.52279858  0.41731900  0.49707275
   0.57039653  0.42691270  0.63863960
   0.37697958  0.43346018  0.53038714
   0.44158512  0.50241887  0.65069809
   0.66671511  0.38293052  0.53233310
   0.56958931  0.57093696  0.59645917
   0.63563326  0.50968225  0.45502515
   0.45756766  0.65772494  0.64440472
   0.43497976  0.57434370  0.51459477
   0.51287463  0.51852961  0.37957970
   0.59467974  0.64249874  0.39706865
   0.52595512  0.69898161  0.51462819
Direct configuration=    13
   0.42256846  0.39960315  0.38570013
   0.52311875  0.41648794  0.49678844
   0.57011724  0.42727667  0.63923775
   0.37660816  0.43385941  0.53058739
   0.44115699  0.50213290  0.65099938
   0.66714346  0.38298131  0.53238877
   0.56998910  0.57107384  0.59638603
   0.63574344  0.50979484  0.45538190
   0.45759418  0.65670006  0.64417599
   0.43487355  0.57445521  0.51465145
   0.51195059  0.51868224  0.37965288
   0.59516801  0.64273978  0.39638378
   0.52625055  0.69934740  0.51444893
Direct configuration=    14
   0.42274155  0.39945739  0.38623136
   0.52221065  0.41782147  0.49725062
   0.57057958  0.42616278  0.63903265
   0.37719068  0.43284906  0.53027328
   0.44154777  0.50305882  0.65070956
   0.66651846  0.38285887  0.53153043
   0.56940166  0.57144705  0.59587412
   0.63767026  0.50937087  0.45590581
   0.45711558  0.65821307  0.64420115
   0.43537670  0.57444174  0.51446739
   0.51188551  0.51770097  0.37815811
   0.59426709  0.64280298  0.39815479
   0.52577699  0.69894968  0.51499353
Direct configuration=    15
   0.42288009  0.39934072  0.38665657
   0.52148379  0.41888885  0.49762056
   0.57094963  0.42527120  0.63886849
   0.37765695  0.43204036  0.53002187
   0.44186056  0.50379994  0.65047757
   0.66601820  0.38276087  0.53084340
   0.56893146  0.57174578  0.59546439
   0.63921253  0.50903153  0.45632517
   0.45673249  0.65942411  0.64422129
   0.43577943  0.57443097  0.51432007
   0.51183341  0.51691555  0.37696166
   0.59354598  0.64285356  0.39957234
   0.52539795  0.69863134  0.51542944
Direct configuration=    16
   0.42273810  0.39863762  0.38671278
   0.52182332  0.42059429  0.49802938
   0.57067005  0.42476063  0.63957994
   0.37732673  0.43125238  0.53059579
   0.44208146  0.50470392  0.65027252
   0.66570807  0.38189942  0.52941208
   0.56882094  0.57195966  0.59473929
   0.64061692  0.50914552  0.45629216
   0.45571384  0.66020943  0.64413826
   0.43639166  0.57411567  0.51389199
   0.51286413  0.51590469  0.37513524
   0.59259957  0.64207248  0.40143284
   0.52492767  0.69987905  0.51655053
Direct configuration=    17
   0.42254609  0.39768686  0.38678879
   0.52228244  0.42290048  0.49858221
   0.57029198  0.42407020  0.64054201
   0.37688020  0.43018684  0.53137187
   0.44238018  0.50592632  0.64999524
   0.66528871  0.38073453  0.52747658
   0.56867149  0.57224888  0.59375879
   0.64251601  0.50929968  0.45624752
   0.45433636  0.66127137  0.64402600
   0.43721956  0.57368931  0.51331313
   0.51425793  0.51453776  0.37266546
   0.59131979  0.64101627  0.40394870
   0.52429174  0.70156626  0.51806652
Direct configuration=    18
   0.42303881  0.39750557  0.38753115
   0.52258636  0.42513861  0.49821233
   0.57004321  0.42473004  0.64065439
   0.37687330  0.43038104  0.53216126
   0.44217195  0.50636426  0.64987746
   0.66476155  0.37964658  0.52704899
   0.56913321  0.57217799  0.59305892
   0.64190557  0.50927715  0.45532452
   0.45329655  0.65990359  0.64404878
   0.43816845  0.57309877  0.51237792
   0.51626177  0.51273513  0.37212064
   0.58971604  0.64008261  0.40537839
   0.52432570  0.70409341  0.51898806
Direct configuration=    19
   0.42351980  0.39732859  0.38825584
   0.52288305  0.42732345  0.49785127
   0.56980037  0.42537417  0.64076408
   0.37686656  0.43057062  0.53293186
   0.44196868  0.50679177  0.64976249
   0.66424695  0.37858454  0.52663158
   0.56958394  0.57210878  0.59237571
   0.64130967  0.50925516  0.45442350
   0.45228150  0.65856837  0.64407101
   0.43909475  0.57252229  0.51146499
   0.51821789  0.51097543  0.37158880
   0.58815048  0.63917119  0.40677404
   0.52435886  0.70656039  0.51988766
Direct configuration=    20
   0.42383536  0.39718692  0.38878992
   0.52283211  0.42831676  0.49817353
   0.56981485  0.42587180  0.64053723
   0.37698094  0.43075696  0.53330028
   0.44177623  0.50693736  0.64970416
   0.66363068  0.37802893  0.52653862
   0.56981905  0.57235669  0.59171938
   0.64174792  0.50877931  0.45423162
   0.45181409  0.65750411  0.64386194
   0.43997549  0.57248694  0.51078609
   0.51887884  0.50988597  0.37064070
   0.58683524  0.63908624  0.40782119
   0.52434170  0.70793677  0.52067819
Direct configuration=    21
   0.42478202  0.39676188  0.39039214
   0.52267928  0.43129671  0.49914031
   0.56985830  0.42736468  0.63985665
   0.37732409  0.43131597  0.53440557
   0.44119889  0.50737414  0.64952915
   0.66178187  0.37636208  0.52625974
   0.57052437  0.57310039  0.58975036
   0.64306268  0.50735176  0.45365600
   0.45041187  0.65431134  0.64323471
   0.44261768  0.57238090  0.50874939
   0.52086168  0.50661762  0.36779639
   0.58288953  0.63883138  0.41096264
   0.52429021  0.71206590  0.52304977
Direct configuration=    22
   0.42523678  0.39655770  0.39116182
   0.52260587  0.43272821  0.49960473
   0.56987918  0.42808183  0.63952972
   0.37748893  0.43158451  0.53493652
   0.44092155  0.50758396  0.64944509
   0.66089375  0.37556136  0.52612578
   0.57086320  0.57345765  0.58880449
   0.64369425  0.50666600  0.45337948
   0.44973828  0.65277761  0.64293340
   0.44388694  0.57232996  0.50777101
   0.52181419  0.50504757  0.36643005
   0.58099409  0.63870896  0.41247172
   0.52426547  0.71404944  0.52418902
Direct configuration=    23
   0.42536645  0.39618815  0.39168675
   0.52234614  0.43332477  0.50007196
   0.57018115  0.42866503  0.63947408
   0.37751107  0.43175073  0.53514816
   0.44085102  0.50721118  0.64927751
   0.66001658  0.37485351  0.52603062
   0.57117168  0.57416415  0.58782028
   0.64460527  0.50612106  0.45316518
   0.44917423  0.65258819  0.64255151
   0.44489764  0.57278915  0.50665822
   0.52273366  0.50402255  0.36504330
   0.57934964  0.63818556  0.41419715
   0.52407794  0.71527072  0.52565809
Direct configuration=    24
   0.42575547  0.39507951  0.39326155
   0.52156695  0.43511443  0.50147367
   0.57108705  0.43041463  0.63930716
   0.37757748  0.43224936  0.53578309
   0.44063944  0.50609286  0.64877478
   0.65738510  0.37272996  0.52574515
   0.57209714  0.57628366  0.58486765
   0.64733833  0.50448624  0.45252228
   0.44748208  0.65201994  0.64140583
   0.44792975  0.57416674  0.50331988
   0.52549205  0.50094748  0.36088307
   0.57441629  0.63661538  0.41937343
   0.52351535  0.71893456  0.53006528
Direct configuration=    25
   0.42579782  0.39483839  0.39353242
   0.52166465  0.43503252  0.50080579
   0.57198124  0.43088269  0.63991804
   0.37704709  0.43223021  0.53534657
   0.44130960  0.50601347  0.64823924
   0.65694394  0.37226623  0.52561795
   0.57226462  0.57708937  0.58450281
   0.64735366  0.50403303  0.45233013
   0.44687848  0.65294856  0.64139210
   0.44778343  0.57501705  0.50242035
   0.52665339  0.50047813  0.36048582
   0.57318949  0.63515529  0.42106815
   0.52341507  0.71914981  0.53112346
Direct configuration=    26
   0.42590319  0.39423848  0.39420632
   0.52190772  0.43482876  0.49914413
   0.57420594  0.43204720  0.64143788
   0.37572751  0.43218257  0.53426052
   0.44297693  0.50581594  0.64690684
   0.65584634  0.37111248  0.52530147
   0.57268131  0.57909393  0.58359512
   0.64739178  0.50290546  0.45185207
   0.44537675  0.65525893  0.64135794
   0.44741939  0.57713259  0.50018235
   0.52954274  0.49931041  0.35949748
   0.57013726  0.63152265  0.42528454
   0.52316560  0.71968536  0.53375615
Direct configuration=    27
   0.42587905  0.39437592  0.39405194
   0.52185203  0.43487544  0.49952480
   0.57369628  0.43178043  0.64108970
   0.37602981  0.43219349  0.53450932
   0.44259496  0.50586119  0.64721208
   0.65609779  0.37137679  0.52537397
   0.57258585  0.57863470  0.58380306
   0.64738305  0.50316378  0.45196159
   0.44572078  0.65472964  0.64136576
   0.44750279  0.57664794  0.50069505
   0.52888082  0.49957792  0.35972389
   0.57083650  0.63235485  0.42431861
   0.52322275  0.71956267  0.53315303
Direct configuration=    28
   0.42593702  0.39421317  0.39370543
   0.52195857  0.43465914  0.49967610
   0.57508961  0.43272019  0.64086425
   0.37562447  0.43259125  0.53321694
   0.44400225  0.50719911  0.64552710
   0.65595304  0.37093781  0.52524013
   0.57201781  0.57939789  0.58397801
   0.64753062  0.50226911  0.45209765
   0.44457871  0.65526000  0.64200057
   0.44609747  0.57721004  0.50107336
   0.52966263  0.49863928  0.35926491
   0.57038434  0.63036081  0.42654489
   0.52344593  0.71967695  0.53359350
Direct configuration=    29
   0.42611092  0.39372494  0.39266590
   0.52227818  0.43401023  0.50013001
   0.57926960  0.43553949  0.64018789
   0.37440844  0.43378453  0.52933979
   0.44822413  0.51121287  0.64047216
   0.65551879  0.36962088  0.52483859
   0.57031369  0.58168744  0.58450284
   0.64797332  0.49958511  0.45250584
   0.44115248  0.65685105  0.64390497
   0.44188153  0.57889635  0.50220826
   0.53200804  0.49582336  0.35788794
   0.56902787  0.62437869  0.43322373
   0.52411548  0.72001982  0.53491490
Direct configuration=    30
   0.42606572  0.39385185  0.39293610
   0.52219511  0.43417889  0.50001203
   0.57818313  0.43480669  0.64036369
   0.37472452  0.43347437  0.53034755
   0.44712677  0.51016960  0.64178605
   0.65563166  0.36996318  0.52494296
   0.57075663  0.58109233  0.58436642
   0.64785825  0.50028275  0.45239974
   0.44204303  0.65643750  0.64340997
   0.44297735  0.57845804  0.50191327
   0.53139842  0.49655528  0.35824584
   0.56938045  0.62593358  0.43148775
   0.52394145  0.71993070  0.53457144
Direct configuration=    31
   0.42652119  0.39340312  0.39157586
   0.52088327  0.43446181  0.50086304
   0.58014111  0.43626498  0.63923044
   0.37502529  0.43486032  0.52883376
   0.44719311  0.51030227  0.64032697
   0.65633993  0.36839101  0.52502794
   0.57041472  0.58201321  0.58495926
   0.64893917  0.49870685  0.45292979
   0.44088419  0.65803349  0.64407260
   0.44024571  0.57855152  0.50396119
   0.53144350  0.49492492  0.35779820
   0.57052798  0.62492589  0.43210101
   0.52372331  0.72029539  0.53510275
Direct configuration=    32
   0.42677439  0.39315366  0.39081969
   0.52015400  0.43461909  0.50133612
   0.58122958  0.43707566  0.63860046
   0.37519250  0.43563078  0.52799223
   0.44722998  0.51037602  0.63951585
   0.65673366  0.36751701  0.52507518
   0.57022465  0.58252514  0.58528882
   0.64954007  0.49783079  0.45322444
   0.44023997  0.65892072  0.64444096
   0.43872715  0.57860348  0.50509966
   0.53146856  0.49401859  0.35754935
   0.57116591  0.62436569  0.43244193
   0.52360205  0.72049812  0.53539811
Direct configuration=    33
   0.42712604  0.39179115  0.38898135
   0.52040575  0.43534800  0.50153022
   0.58391930  0.43924437  0.63710482
   0.37392587  0.43706757  0.52621218
   0.44626157  0.50979750  0.64065807
   0.65683794  0.36547581  0.52529160
   0.56986876  0.58392785  0.58530334
   0.64968554  0.49602895  0.45382186
   0.43944105  0.65967148  0.64487745
   0.43720006  0.58024693  0.50683118
   0.53248438  0.49273509  0.35808644
   0.57194613  0.62357316  0.43282160
   0.52318010  0.72022691  0.53526271
Direct configuration=    34
   0.42759791  0.38996280  0.38651448
   0.52074356  0.43632612  0.50179069
   0.58752865  0.44215457  0.63509783
   0.37222617  0.43899558  0.52382352
   0.44496206  0.50902118  0.64219081
   0.65697787  0.36273671  0.52558200
   0.56939118  0.58581015  0.58532283
   0.64988076  0.49361106  0.45462352
   0.43836897  0.66067894  0.64546318
   0.43515087  0.58245228  0.50915471
   0.53384751  0.49101276  0.35880716
   0.57299309  0.62250965  0.43333107
   0.52261388  0.71986296  0.53508102
Direct configuration=    35
   0.42808125  0.38876786  0.38626028
   0.51973809  0.43684180  0.50155532
   0.58924017  0.44420250  0.63388134
   0.37205750  0.44053047  0.52210966
   0.44487117  0.50892503  0.64283535
   0.65664245  0.36076163  0.52572755
   0.56879140  0.58636396  0.58548776
   0.65027371  0.49269114  0.45510685
   0.43798280  0.66044337  0.64582592
   0.43451003  0.58413857  0.51080614
   0.53495080  0.49006608  0.35908439
   0.57314139  0.62153196  0.43367242
   0.52200172  0.71987040  0.53442982
Direct configuration=    36
   0.42943699  0.38541612  0.38554729
   0.51691780  0.43828825  0.50089513
   0.59404089  0.44994684  0.63046917
   0.37158438  0.44483571  0.51730240
   0.44461623  0.50865533  0.64464325
   0.65570163  0.35522163  0.52613580
   0.56710905  0.58791735  0.58595037
   0.65137591  0.49011082  0.45646254
   0.43689961  0.65978264  0.64684339
   0.43271252  0.58886848  0.51543832
   0.53804547  0.48741070  0.35986201
   0.57355733  0.61878961  0.43462990
   0.52028465  0.71989126  0.53260325
Direct configuration=    37
   0.42900815  0.38647631  0.38577282
   0.51780988  0.43783072  0.50110395
   0.59252238  0.44812985  0.63154847
   0.37173404  0.44347393  0.51882298
   0.44469687  0.50874064  0.64407140
   0.65599922  0.35697398  0.52600667
   0.56764119  0.58742600  0.58580404
   0.65102727  0.49092700  0.45603372
   0.43724223  0.65999164  0.64652155
   0.43328109  0.58737237  0.51397312
   0.53706660  0.48825062  0.35961604
   0.57342577  0.61965704  0.43432704
   0.52082778  0.71988466  0.53318101
Direct configuration=    38
   0.42982401  0.38536396  0.38684219
   0.51712804  0.43851173  0.50139450
   0.59429692  0.44934905  0.62953683
   0.37177085  0.44577731  0.51654330
   0.44549884  0.50873790  0.64390199
   0.65440555  0.35571042  0.52613002
   0.56712120  0.58813159  0.58635753
   0.65174371  0.48944593  0.45750620
   0.43701803  0.65983374  0.64785813
   0.43253402  0.58899597  0.51501285
   0.53890815  0.48718929  0.35893782
   0.57283313  0.61762171  0.43489614
   0.51920002  0.72046614  0.53186531
Direct configuration=    39
   0.43227156  0.38202693  0.39005032
   0.51508251  0.44055475  0.50226613
   0.59962055  0.45300664  0.62350191
   0.37188131  0.45268746  0.50970427
   0.44790474  0.50872968  0.64339377
   0.64962454  0.35191975  0.52650009
   0.56556120  0.59024835  0.58801798
   0.65389300  0.48500273  0.46192363
   0.43634542  0.65936006  0.65186788
   0.43029281  0.59386680  0.51813205
   0.54443283  0.48400532  0.35690314
   0.57105523  0.61151571  0.43660344
   0.51431677  0.72221059  0.52791819
Direct configuration=    40
   0.43325027  0.38130803  0.39061903
   0.51551569  0.44133777  0.50221497
   0.60122893  0.45351529  0.62248036
   0.37107942  0.45481379  0.50838362
   0.44864111  0.50850700  0.64289845
   0.64808159  0.35040683  0.52641742
   0.56518030  0.59171543  0.58840758
   0.65409003  0.48408939  0.46298203
   0.43643705  0.65951665  0.65349936
   0.42960815  0.59505489  0.51812029
   0.54600543  0.48265749  0.35636451
   0.57026253  0.60985497  0.43739544
   0.51290197  0.72235722  0.52699977
Direct configuration=    41
   0.43618642  0.37915131  0.39232517
   0.51681524  0.44368683  0.50206147
   0.60605407  0.45504124  0.61941570
   0.36867373  0.46119279  0.50442170
   0.45085022  0.50783898  0.64141249
   0.64345273  0.34586808  0.52616939
   0.56403758  0.59611668  0.58957638
   0.65468110  0.48134937  0.46615724
   0.43671193  0.65998640  0.65839379
   0.42755417  0.59861918  0.51808498
   0.55072325  0.47861403  0.35474861
   0.56788444  0.60487277  0.43977143
   0.50865758  0.72279710  0.52424448
Direct configuration=    42
   0.43774505  0.37909142  0.39267333
   0.51583900  0.44480967  0.50167151
   0.60724445  0.45598217  0.61929065
   0.36838235  0.46255831  0.50340809
   0.45179112  0.50792947  0.64025225
   0.64170505  0.34351864  0.52588836
   0.56343810  0.59779332  0.59068515
   0.65512470  0.48142007  0.46681733
   0.43752809  0.65986438  0.65946684
   0.42671491  0.59916301  0.51779871
   0.55226298  0.47648633  0.35455255
   0.56678189  0.60337503  0.44032427
   0.50772480  0.72314294  0.52395377
Direct configuration=    43
   0.43970443  0.37901613  0.39311101
   0.51461173  0.44622123  0.50118128
   0.60874091  0.45716504  0.61913345
   0.36801605  0.46427494  0.50213387
   0.45297394  0.50804323  0.63879370
   0.63950801  0.34056511  0.52553507
   0.56268447  0.59990107  0.59207901
   0.65568237  0.48150895  0.46764715
   0.43855410  0.65971098  0.66081579
   0.42565985  0.59984666  0.51743882
   0.55419862  0.47381154  0.35430609
   0.56539584  0.60149219  0.44101927
   0.50655217  0.72357769  0.52358830
Direct configuration=    44
   0.44103299  0.37894473  0.39271497
   0.51466670  0.44759111  0.50176568
   0.60904852  0.45779561  0.61829147
   0.36763704  0.46428796  0.50158852
   0.45366543  0.50815755  0.63769825
   0.63758893  0.34033140  0.52543298
   0.56248397  0.60083308  0.59333544
   0.65569150  0.48126402  0.46850741
   0.43983937  0.65944655  0.66089403
   0.42514581  0.60016303  0.51721361
   0.55562149  0.47160736  0.35434617
   0.56402674  0.60059866  0.44114394
   0.50583399  0.72411370  0.52385036
Direct configuration=    45
   0.44245322  0.37886841  0.39229160
   0.51472546  0.44905552  0.50239041
   0.60937737  0.45846969  0.61739139
   0.36723188  0.46430188  0.50100554
   0.45440463  0.50827977  0.63652721
   0.63553742  0.34008156  0.52532385
   0.56226963  0.60182940  0.59467856
   0.65570127  0.48100219  0.46942704
   0.44121332  0.65916388  0.66097766
   0.42459630  0.60050122  0.51697285
   0.55714255  0.46925107  0.35438901
   0.56256316  0.59964347  0.44127720
   0.50506625  0.72468670  0.52413049
Direct configuration=    46
   0.44312894  0.37863577  0.39177169
   0.51435852  0.44980432  0.50217912
   0.60949482  0.45873367  0.61733142
   0.36748499  0.46333176  0.50084801
   0.45420168  0.50777751  0.63636557
   0.63361260  0.34137531  0.52540532
   0.56367017  0.60199803  0.59480798
   0.65610457  0.48095625  0.46977882
   0.44173839  0.65951018  0.66088013
   0.42449073  0.60058653  0.51674497
   0.55836469  0.46827952  0.35465240
   0.56107842  0.59926886  0.44131895
   0.50455396  0.72487704  0.52469843
Direct configuration=    47
   0.44441593  0.37819269  0.39078147
   0.51365964  0.45123050  0.50177669
   0.60971853  0.45923643  0.61721719
   0.36796706  0.46148407  0.50054798
   0.45381513  0.50682091  0.63605772
   0.62994658  0.34383939  0.52556049
   0.56633762  0.60231921  0.59505448
   0.65687269  0.48086875  0.47044882
   0.44273842  0.66016973  0.66069438
   0.42428968  0.60074902  0.51631097
   0.56069237  0.46642911  0.35515405
   0.55825058  0.59855539  0.44139848
   0.50357824  0.72523957  0.52578011
Direct configuration=    48
   0.44410095  0.37830113  0.39102382
   0.51383069  0.45088145  0.50187518
   0.60966378  0.45911338  0.61724514
   0.36784907  0.46193628  0.50062141
   0.45390974  0.50705503  0.63613306
   0.63084382  0.34323632  0.52552251
   0.56568478  0.60224061  0.59499415
   0.65668470  0.48089016  0.47028484
   0.44249366  0.66000830  0.66073984
   0.42433888  0.60070925  0.51641719
   0.56012268  0.46688199  0.35503127
   0.55894268  0.59873001  0.44137901
   0.50381705  0.72515084  0.52551537
Direct configuration=    49
   0.44439731  0.37750942  0.39024362
   0.51418815  0.45194832  0.50102863
   0.60937790  0.45988223  0.61855089
   0.36803457  0.46050898  0.50078951
   0.45392586  0.50760334  0.63604181
   0.62820649  0.34366636  0.52537141
   0.56712693  0.60192186  0.59472643
   0.65708723  0.48235651  0.47026299
   0.44325556  0.65994470  0.66000883
   0.42419647  0.59982801  0.51708236
   0.56138128  0.46663897  0.35508672
   0.55775883  0.59840888  0.44103938
   0.50334591  0.72491716  0.52655025
Direct configuration=    50
   0.44466016  0.37680723  0.38955165
   0.51450519  0.45289455  0.50027781
   0.60912435  0.46056414  0.61970898
   0.36819910  0.45924308  0.50093860
   0.45394015  0.50808965  0.63596087
   0.62586741  0.34404778  0.52523739
   0.56840599  0.60163917  0.59448899
   0.65744424  0.48365703  0.47024360
   0.44393130  0.65988829  0.65936048
   0.42407016  0.59904642  0.51767231
   0.56249754  0.46642344  0.35513589
   0.55670885  0.59812408  0.44073814
   0.50292804  0.72470991  0.52746809
Direct configuration=    51
   0.44525790  0.37625975  0.38942914
   0.51497722  0.45378705  0.49992241
   0.60857365  0.45973946  0.62023957
   0.36863871  0.45813580  0.50123558
   0.45441819  0.50883304  0.63654001
   0.62411545  0.34465166  0.52500080
   0.56840083  0.60200099  0.59360168
   0.65749618  0.48509341  0.47139462
   0.44452077  0.65965316  0.65917805
   0.42379423  0.59785115  0.51803784
   0.56266934  0.46636073  0.35428792
   0.55659897  0.59890351  0.44002016
   0.50282104  0.72386505  0.52789502
Direct configuration=    52
   0.44595982  0.37561684  0.38928528
   0.51553151  0.45483512  0.49950505
   0.60792697  0.45877105  0.62086264
   0.36915496  0.45683553  0.50158432
   0.45497954  0.50970601  0.63722010
   0.62205813  0.34536080  0.52472296
   0.56839476  0.60242587  0.59255971
   0.65755717  0.48678013  0.47274626
   0.44521300  0.65937704  0.65896383
   0.42347020  0.59644755  0.51846708
   0.56287109  0.46628710  0.35329216
   0.55646993  0.59981879  0.43917704
   0.50269539  0.72287294  0.52839637
Direct configuration=    53
   0.44666947  0.37587807  0.39023585
   0.51423211  0.45539556  0.49915007
   0.60714132  0.45942633  0.62128962
   0.36949224  0.45647236  0.50158136
   0.45544124  0.50841574  0.63866026
   0.62247729  0.34456894  0.52382263
   0.56935879  0.60054036  0.59189056
   0.65683214  0.48686955  0.47248998
   0.44439847  0.66014397  0.66027686
   0.42363703  0.59704636  0.51731318
   0.56315838  0.46680395  0.35439231
   0.55696168  0.60005230  0.43866117
   0.50248231  0.72352127  0.52701896
Direct configuration=    54
   0.44642923  0.37578964  0.38991406
   0.51467199  0.45520583  0.49927024
   0.60740728  0.45920450  0.62114508
   0.36937806  0.45659530  0.50158236
   0.45528494  0.50885253  0.63817272
   0.62233539  0.34483701  0.52412742
   0.56903244  0.60117866  0.59211709
   0.65707759  0.48683928  0.47257674
   0.44467421  0.65988435  0.65983236
   0.42358056  0.59684365  0.51770381
   0.56306113  0.46662898  0.35401988
   0.55679521  0.59997325  0.43883581
   0.50255445  0.72330179  0.52748526
Direct configuration=    55
   0.44693699  0.37566658  0.39050621
   0.51476565  0.45580408  0.49972537
   0.60676136  0.45852155  0.62107381
   0.36892712  0.45648060  0.50175388
   0.45554020  0.50883053  0.63896561
   0.62255804  0.34498574  0.52341394
   0.56846351  0.60072710  0.59125839
   0.65644290  0.48664262  0.47283307
   0.44475986  0.65969714  0.65985555
   0.42410806  0.59702001  0.51773459
   0.56335508  0.46711357  0.35454856
   0.55717966  0.60049837  0.43833989
   0.50248403  0.72314685  0.52677395
Direct configuration=    56
   0.44743534  0.37554581  0.39108739
   0.51485758  0.45639123  0.50017205
   0.60612741  0.45785127  0.62100386
   0.36848453  0.45636803  0.50192222
   0.45579073  0.50880894  0.63974380
   0.62277656  0.34513172  0.52271370
   0.56790514  0.60028392  0.59041562
   0.65581998  0.48644961  0.47308465
   0.44484392  0.65951340  0.65987831
   0.42462578  0.59719310  0.51776480
   0.56364359  0.46758919  0.35506744
   0.55755699  0.60101376  0.43785317
   0.50241493  0.72299478  0.52607582
Direct configuration=    57
   0.44769661  0.37550099  0.39142157
   0.51455313  0.45664993  0.50036355
   0.60584696  0.45749246  0.62109266
   0.36841484  0.45639041  0.50202111
   0.45581346  0.50886066  0.64005651
   0.62287033  0.34514813  0.52232096
   0.56769962  0.60010496  0.59001985
   0.65581858  0.48647416  0.47323757
   0.44490344  0.65943464  0.65983735
   0.42474621  0.59702200  0.51784145
   0.56374416  0.46777623  0.35518522
   0.55773365  0.60128124  0.43757537
   0.50244149  0.72299895  0.52580965
Direct configuration=    58
   0.44777300  0.37548788  0.39151927