 vasp.5.3.5 31Mar14 (build Feb 01 2018 12:10:03) gamma-only                     
  
 executed on             LinuxIFC date 2019.04.02  05:20:53
 running on   32 total cores
 distrk:  each k-point on   32 cores,    1 groups
 distr:  one band on NCORES_PER_BAND=   8 cores,    4 groups


--------------------------------------------------------------------------------------------------------


 INCAR:
 POTCAR:    PAW_PBE Cu 22Jun2005                  
 POTCAR:    PAW_PBE Cu 22Jun2005                  
   VRHFIN =Cu: d10 p1                                                           
   LEXCH  = PE                                                                  
   EATOM  =  1390.9808 eV,  102.2342 Ry                                         
                                                                                
   TITEL  = PAW_PBE Cu 22Jun2005                                                
   LULTRA =        F    use ultrasoft PP ?                                      
   IUNSCR =        1    unscreen: 0-lin 1-nonlin 2-no                           
   RPACOR =    2.000    partial core radius                                     
   POMASS =   63.546; ZVAL   =   11.000    mass and valenz                      
   RCORE  =    2.300    outmost cutoff radius                                   
   RWIGS  =    2.200; RWIGS  =    1.164    wigner-seitz radius (au A)           
   ENMAX  =  295.446; ENMIN  =  221.585 eV                                      
   ICORE  =        3    local potential                                         
   LCOR   =        T    correct aug charges                                     
   LPAW   =        T    paw PP                                                  
   EAUG   =  586.980                                                            
   DEXC   =    0.000                                                            
   RMAX   =    2.344    core radius for proj-oper                               
   RAUG   =    1.300    factor for augmentation sphere                          
   RDEP   =    2.302    radius for radial grids                                 
   RDEPT  =    1.771    core radius for aug-charge                              
                                                                                
   Atomic configuration                                                         
    9 entries                                                                   
     n  l   j            E        occ.                                          
     1  0  0.50     -8850.2468   2.0000                                         
     2  0  0.50     -1062.3498   2.0000                                         
     2  1  1.50      -916.8226   6.0000                                         
     3  0  0.50      -114.6929   2.0000                                         
     3  1  1.50       -72.1325   6.0000                                         
     3  2  2.50        -5.0394  10.0000                                         
     4  0  0.50        -4.6097   1.0000                                         
     4  1  0.50        -4.0817   0.0000                                         
     4  3  2.50        -1.3606   0.0000                                         
   Description                                                                  
     l       E           TYP  RCUT    TYP  RCUT                                 
     2     -5.0393973     23  2.200                                             
     2     10.8846608     23  2.200                                             
     0     -4.6097109     23  2.200                                             
     0      8.2520465     23  2.200                                             
     1     -2.7211652     23  2.200                                             
     1     21.7055443     23  2.200                                             
     3      2.7211652     23  2.300                                             
  local pseudopotential read in
  partial core-charges read in
  partial kinetic energy density read in
  atomic valenz-charges read in
  non local Contribution for L=           2  read in
    real space projection operators read in
  non local Contribution for L=           2  read in
    real space projection operators read in
  non local Contribution for L=           0  read in
    real space projection operators read in
  non local Contribution for L=           0  read in
    real space projection operators read in
  non local Contribution for L=           1  read in
    real space projection operators read in
  non local Contribution for L=           1  read in
    real space projection operators read in
    PAW grid and wavefunctions read in
 
   number of l-projection  operators is LMAX  =           6
   number of lm-projection operators is LMMAX =          18
 
  PAW_PBE Cu 22Jun2005                  :
 energy of atom  1       EATOM=-1390.9808
 kinetic energy error for atom=    0.0452 (will be added to EATOM!!)
 
 
 POSCAR: Ag13, -897.0 <s> Cu </s>                
  positions in direct lattice
  No initial velocities read in
 exchange correlation table for  LEXCH =        8
   RHO(1)=    0.500       N(1)  =     2000
   RHO(2)=  100.500       N(2)  =     4000
 


--------------------------------------------------------------------------------------------------------


 ion  position               nearest neighbor table
   1  0.500  0.582  0.589-  13 2.45   5 2.46   3 2.46  11 2.47   2 2.47
   2  0.564  0.563  0.485-   1 2.47  10 2.49  12 2.51   8 2.55   3 2.56  11 2.57
   3  0.592  0.500  0.593-   1 2.46   9 2.46  13 2.53  10 2.56   2 2.56
   4  0.395  0.500  0.381-   7 2.44  12 2.44  11 2.55   6 2.55
   5  0.408  0.500  0.593-   1 2.46   9 2.46  13 2.53  11 2.56   6 2.56
   6  0.436  0.437  0.485-   9 2.47  11 2.49   7 2.51   4 2.55   5 2.56  10 2.57
   7  0.500  0.437  0.377-   4 2.44   8 2.44   6 2.51  10 2.51  12 2.53
   8  0.605  0.500  0.381-   7 2.44  12 2.44  10 2.55   2 2.55
   9  0.500  0.418  0.589-  13 2.45   5 2.46   3 2.46  10 2.47   6 2.47
  10  0.564  0.437  0.485-   9 2.47   2 2.49   7 2.51   8 2.55   3 2.56   6 2.57
  11  0.436  0.563  0.485-   1 2.47   6 2.49  12 2.51   4 2.55   5 2.56   2 2.57
  12  0.500  0.563  0.377-   4 2.44   8 2.44   2 2.51  11 2.51   7 2.53
  13  0.500  0.500  0.681-   1 2.45   9 2.45   5 2.53   3 2.53
 
  LATTYP: Found a simple cubic cell.
 ALAT       =    19.9474320000
  
  Lattice vectors:
  
 A1 = (  19.9474320000,   0.0000000000,   0.0000000000)
 A2 = (   0.0000000000,  19.9474320000,   0.0000000000)
 A3 = (   0.0000000000,   0.0000000000,  19.9474320000)


Analysis of symmetry for initial positions (statically):
=====================================================================
 Subroutine PRICEL returns:
 Original cell was already a primitive cell.
 

 Routine SETGRP: Setting up the symmetry group for a 
 simple cubic supercell.


 Subroutine GETGRP returns: Found  4 space group operations
 (whereof  4 operations were pure point group operations)
 out of a pool of 48 trial point group operations.


The static configuration has the point symmetry C_2v.


Analysis of symmetry for dynamics (positions and initial velocities):
=====================================================================
 Subroutine PRICEL returns:
 Original cell was already a primitive cell.
 

 Routine SETGRP: Setting up the symmetry group for a 
 simple cubic supercell.


 Subroutine GETGRP returns: Found  4 space group operations
 (whereof  4 operations were pure point group operations)
 out of a pool of 48 trial point group operations.


The dynamic configuration has the point symmetry C_2v.


Analysis of magnetic symmetry:
=====================================================================
 Subroutine PRICEL returns:
 Original cell was already a primitive cell.
 

 Subroutine MAGSYM returns: Found  4 space group operations
 (whereof  4 operations were pure point group operations)
 out of a pool of  4 trial space group operations
 (whereof  4 operations were pure point group operations)
 and found also     1 'primitive' translations


The magnetic configuration has the point symmetry C_2v.
 
 
 KPOINTS: Gamma-point only                        
  k-points in reciprocal lattice
Space group operators:
 irot       det(A)        alpha          n_x          n_y          n_z        tau_x        tau_y        tau_z
    1     1.000000     0.000000     1.000000     0.000000     0.000000     0.000000     0.000000     0.000000
    2     1.000000   180.000000     0.000000     0.000000     1.000000     0.000000     0.000000     0.000000
    3    -1.000000   180.000000     1.000000     0.000000     0.000000     0.000000     0.000000     0.000000
    4    -1.000000   180.000000     0.000000     1.000000     0.000000     0.000000     0.000000     0.000000


--------------------------------------------------------------------------------------------------------




 Dimension of arrays:
   k-points           NKPTS =      1   k-points in BZ     NKDIM =      1   number of bands    NBANDS=     92
   number of dos      NEDOS =    301   number of ions     NIONS =     13
   non local maximal  LDIM  =      6   non local SUM 2l+1 LMDIM =     18
   total plane-waves  NPLWV = 592704
   max r-space proj   IRMAX =      1   max aug-charges    IRDMAX=   2362
   dimension x,y,z NGX =    84 NGY =   84 NGZ =   84
   dimension x,y,z NGXF=   168 NGYF=  168 NGZF=  168
   support grid    NGXF=   168 NGYF=  168 NGZF=  168
   ions per type =              13
 NGX,Y,Z   is equivalent  to a cutoff of   7.00,  7.00,  7.00 a.u.
 NGXF,Y,Z  is equivalent  to a cutoff of  14.00, 14.00, 14.00 a.u.


 I would recommend the setting:
   dimension x,y,z NGX =    84 NGY =   84 NGZ =   84
 SYSTEM =  unknown system                          
 POSCAR =  Ag13, -897.0 <s> Cu </s>                

 Startparameter for this run:
   NWRITE =      2    write-flag & timer
   PREC   = normal    normal or accurate (medium, high low for compatibility)
   ISTART =      0    job   : 0-new  1-cont  2-samecut
   ICHARG =      2    charge: 1-file 2-atom 10-const
   ISPIN  =      2    spin polarized calculation?
   LNONCOLLINEAR =      F non collinear calculations
   LSORBIT =      F    spin-orbit coupling
   INIWAV =      1    electr: 0-lowe 1-rand  2-diag
   LASPH  =      F    aspherical Exc in radial PAW
   METAGGA=      F    non-selfconsistent MetaGGA calc.

 Electronic Relaxation 1
   ENCUT  =  295.4 eV  21.71 Ry    4.66 a.u.  27.96 27.96 27.96*2*pi/ulx,y,z
   ENINI  =  295.4     initial cutoff
   ENAUG  =  587.0 eV  augmentation charge cutoff
   NELM   =     60;   NELMIN=  2; NELMDL= -5     # of ELM steps 
   EDIFF  = 0.1E-03   stopping-criterion for ELM
   LREAL  =      F    real-space projection
   NLSPLINE    = F    spline interpolate recip. space projectors
   LCOMPAT=      F    compatible to vasp.4.4
   GGA_COMPAT  = T    GGA compatible to vasp.4.4-vasp.4.6
   LMAXPAW     = -100 max onsite density
   LMAXMIX     =    2 max onsite mixed and CHGCAR
   VOSKOWN=      0    Vosko Wilk Nusair interpolation
   ROPT   =    0.00000
 Ionic relaxation
   EDIFFG = 0.1E-02   stopping-criterion for IOM
   NSW    =   1000    number of steps for IOM
   NBLOCK =      1;   KBLOCK =   1000    inner block; outer block 
   IBRION =      2    ionic relax: 0-MD 1-quasi-New 2-CG
   NFREE  =      1    steps in history (QN), initial steepest desc. (CG)
   ISIF   =      2    stress and relaxation
   IWAVPR =     11    prediction:  0-non 1-charg 2-wave 3-comb
   ISYM   =      2    0-nonsym 1-usesym 2-fastsym
   LCORR  =      T    Harris-Foulkes like correction to forces

   POTIM  = 0.1000    time-step for ionic-motion
   TEIN   =    0.0    initial temperature
   TEBEG  =    0.0;   TEEND  =   0.0 temperature during run
   SMASS  =  -3.00    Nose mass-parameter (am)
   estimated Nose-frequenzy (Omega)   =  0.10E-29 period in steps =****** mass=  -0.909E-26a.u.
   SCALEE = 1.0000    scale energy and forces
   NPACO  =    256;   APACO  = 16.0  distance and # of slots for P.C.
   PSTRESS=    0.0 pullay stress

  Mass of Ions in am
   POMASS =  63.55
  Ionic Valenz
   ZVAL   =  11.00
  Atomic Wigner-Seitz radii
   RWIGS  =  -1.00
  virtual crystal weights 
   VCA    =   1.00
   NELECT =     143.0000    total number of electrons
   NUPDOWN=      -1.0000    fix difference up-down

 DOS related values:
   EMIN   =  10.00;   EMAX   =-10.00  energy-range for DOS
   EFERMI =   0.00
   ISMEAR =     0;   SIGMA  =   0.00  broadening in eV -4-tet -1-fermi 0-gaus

 Electronic relaxation 2 (details)
   IALGO  =     38    algorithm
   LDIAG  =      T    sub-space diagonalisation (order eigenvalues)
   LSUBROT=      F    optimize rotation matrix (better conditioning)
   TURBO    =      0    0=normal 1=particle mesh
   IRESTART =      0    0=no restart 2=restart with 2 vectors
   NREBOOT  =      0    no. of reboots
   NMIN     =      0    reboot dimension
   EREF     =   0.00    reference energy to select bands
   IMIX   =      4    mixing-type and parameters
     AMIX     =   0.40;   BMIX     =  1.00
     AMIX_MAG =   1.60;   BMIX_MAG =  1.00
     AMIN     =   0.10
     WC   =   100.;   INIMIX=   1;  MIXPRE=   1;  MAXMIX= -45

 Intra band minimization:
   WEIMIN = 0.0010     energy-eigenvalue tresh-hold
   EBREAK =  0.27E-06  absolut break condition
   DEPER  =   0.30     relativ break condition  

   TIME   =   0.40     timestep for ELM

  volume/ion in A,a.u.               =     610.54      4120.16
  Fermi-wavevector in a.u.,A,eV,Ry     =   0.429174  0.811021  2.506059  0.184190
  Thomas-Fermi vector in A             =   1.396917
 
 Write flags
   LWAVE  =      F    write WAVECAR
   LCHARG =      F    write CHGCAR
   LVTOT  =      F    write LOCPOT, total local potential
   LVHAR  =      F    write LOCPOT, Hartree potential only
   LELF   =      F    write electronic localiz. function (ELF)
   LORBIT =      0    0 simple, 1 ext, 2 COOP (PROOUT)


 Dipole corrections
   LMONO  =      F    monopole corrections only (constant potential shift)
   LDIPOL =      F    correct potential (dipole corrections)
   IDIPOL =      0    1-x, 2-y, 3-z, 4-all directions 
   EPSILON=  1.0000000 bulk dielectric constant

 Exchange correlation treatment:
   GGA     =    PE    GGA type
   LEXCH   =     8    internal setting for exchange type
   VOSKOWN=      0    Vosko Wilk Nusair interpolation
   LHFCALC =     F    Hartree Fock is set to
   LHFONE  =     F    Hartree Fock one center treatment
   AEXX    =    0.0000 exact exchange contribution

 Linear response parameters
   LEPSILON=     F    determine dielectric tensor
   LRPA    =     F    only Hartree local field effects (RPA)
   LNABLA  =     F    use nabla operator in PAW spheres
   LVEL    =     F    velocity operator in full k-point grid
   LINTERFAST=   F  fast interpolation
   KINTER  =     0    interpolate to denser k-point grid
   CSHIFT  =0.1000    complex shift for real part using Kramers Kronig
   OMEGAMAX=  -1.0    maximum frequency
   DEG_THRESHOLD= 0.2000000E-02 threshold for treating states as degnerate
   RTIME   =    0.100 relaxation time in fs

 Orbital magnetization related:
   ORBITALMAG=     F  switch on orbital magnetization
   LCHIMAG   =     F  perturbation theory with respect to B field
   DQ        =  0.001000  dq finite difference perturbation B field



--------------------------------------------------------------------------------------------------------


 conjugate gradient relaxation of ions
 charge density and potential will be updated during run
 spin polarized calculation
 Variant of blocked Davidson
 Davidson routine will perform the subspace rotation
 perform sub-space diagonalisation
    after iterative eigenvector-optimisation
 modified Broyden-mixing scheme, WC =      100.0
 initial mixing is a Kerker type mixing with AMIX =  0.4000 and BMIX =      1.0000
 Hartree-type preconditioning will be used
 using additional bands           20
 reciprocal scheme for non local part
 use partial core corrections
 calculate Harris-corrections to forces 
   (improved forces if not selfconsistent)
 use gradient corrections 
 use of overlap-Matrix (Vanderbilt PP)
 Gauss-broadening in eV      SIGMA  =   0.00


--------------------------------------------------------------------------------------------------------


  energy-cutoff  :      295.45
  volume of cell :     7937.08
      direct lattice vectors                 reciprocal lattice vectors
    19.947432000  0.000000000  0.000000000     0.050131766  0.000000000  0.000000000
     0.000000000 19.947432000  0.000000000     0.000000000  0.050131766  0.000000000
     0.000000000  0.000000000 19.947432000     0.000000000  0.000000000  0.050131766

  length of vectors
    19.947432000 19.947432000 19.947432000     0.050131766  0.050131766  0.050131766


 
 k-points in units of 2pi/SCALE and weight: Gamma-point only                        
   0.00000000  0.00000000  0.00000000       1.000
 
 k-points in reciprocal lattice and weights: Gamma-point only                        
   0.00000000  0.00000000  0.00000000       1.000
 
 position of ions in fractional coordinates (direct lattice) 
   0.50000000  0.58189548  0.58900119
   0.56436180  0.56250854  0.48486344
   0.59193191  0.50000000  0.59332376
   0.39546227  0.50000000  0.38078445
   0.40806809  0.50000000  0.59332376
   0.43563820  0.43749146  0.48486344
   0.50000000  0.43665514  0.37685638
   0.60453773  0.50000000  0.38078445
   0.50000000  0.41810452  0.58900119
   0.56436180  0.43749146  0.48486344
   0.43563820  0.56250854  0.48486344
   0.50000000  0.56334486  0.37685638
   0.50000000  0.50000000  0.68061467
 
 position of ions in cartesian coordinates  (Angst):
   9.97371600 11.60732050 11.74906126
  11.25756858 11.22060079  9.67178046
  11.80752150  9.97371600 11.83528542
   7.88845678  9.97371600  7.59567183
   8.13991050  9.97371600 11.83528542
   8.68986342  8.72683121  9.67178046
   9.97371600  8.71014874  7.51731706
  12.05897522  9.97371600  7.59567183
   9.97371600  8.34011150 11.74906126
  11.25756858  8.72683121  9.67178046
   8.68986342 11.22060079  9.67178046
   9.97371600 11.23728326  7.51731706
   9.97371600  9.97371600 13.57651489
 


--------------------------------------------------------------------------------------------------------


 use parallel FFT for wavefunctions z direction half grid
 k-point  1 :   0.0000 0.0000 0.0000  plane waves:   45812

 maximum and minimum number of plane-waves per node :      5731     5719

 maximum number of plane-waves:     45812
 maximum index in each direction: 
   IXMAX=   27   IYMAX=   27   IZMAX=   27
   IXMIN=  -27   IYMIN=  -27   IZMIN=    0

 WARNING: aliasing errors must be expected set NGX to 110 to avoid them
 WARNING: aliasing errors must be expected set NGY to 110 to avoid them
 WARNING: aliasing errors must be expected set NGZ to 110 to avoid them
 aliasing errors are usually negligible using standard VASP settings
 and one can safely disregard these warnings

 parallel 3D FFT for wavefunctions:
    minimum data exchange during FFTs selected (reduces bandwidth)
 parallel 3D FFT for charge:
    minimum data exchange during FFTs selected (reduces bandwidth)


 total amount of memory used by VASP on root node    62074. kBytes
========================================================================

   base      :      30000. kBytes
   nonl-proj :       2017. kBytes
   fftplans  :       7250. kBytes
   grid      :      18544. kBytes
   one-center:         31. kBytes
   wavefun   :       4232. kBytes
 
     INWAV:  cpu time    0.00: real time    0.00
 Broyden mixing: mesh for mixing (old mesh)
   NGX = 55   NGY = 55   NGZ = 55
  (NGX  =168   NGY  =168   NGZ  =168)
  gives a total of 166375 points

 initial charge density was supplied:
 charge density of overlapping atoms calculated
 number of electron     143.0000000 magnetization      13.0000000
 keeping initial charge density in first step


--------------------------------------------------------------------------------------------------------


 Maximum index for augmentation-charges          192 (set IRDMAX)


--------------------------------------------------------------------------------------------------------


 First call to EWALD:  gamma=   0.089
 Maximum number of real-space cells 3x 3x 3
 Maximum number of reciprocal cells 3x 3x 3

 FEWALD executed in parallel
    FEWALD:  cpu time    0.00: real time    0.00


----------------------------------------- Iteration    1(   1)  ---------------------------------------


    POTLOK:  cpu time    0.29: real time    0.29
    SETDIJ:  cpu time    0.01: real time    0.01
     EDDAV:  cpu time    1.14: real time    1.14
       DOS:  cpu time    0.00: real time    0.00
    --------------------------------------------
      LOOP:  cpu time    1.44: real time    1.48

 eigenvalue-minimisations  :   368
 total energy-change (2. order) : 0.9324678E+03  (-0.2533036E+04)
 number of electron     143.0000000 magnetization      13.0000000
 augmentation part      143.0000000 magnetization      13.0000000

 Free energy of the ion-electron system (eV)
  ---------------------------------------------------
  alpha Z        PSCENC =        15.57176884
  Ewald energy   TEWEN  =     20718.92607613
  -Hartree energ DENC   =    -37219.48704487
  -exchange      EXHF   =         0.00000000
  -V(xc)+E(xc)   XCENC  =       583.25100912
  PAW double counting   =     15965.26744864   -17340.97210982
  entropy T*S    EENTRO =         0.00000000
  eigenvalues    EBANDS =       127.74803160
  atomic energy  EATOM  =     18082.16260055
  ---------------------------------------------------
  free energy    TOTEN  =       932.46778019 eV

  energy without entropy =      932.46778019  energy(sigma->0) =      932.46778019


--------------------------------------------------------------------------------------------------------




----------------------------------------- Iteration    1(   2)  ---------------------------------------


     EDDAV:  cpu time    1.21: real time    1.21
       DOS:  cpu time    0.00: real time    0.00
    --------------------------------------------
      LOOP:  cpu time    1.21: real time    1.21

 eigenvalue-minimisations  :   392
 total energy-change (2. order) :-0.7744859E+03  (-0.6911257E+03)
 number of electron     143.0000000 magnetization      13.0000000
 augmentation part      143.0000000 magnetization      13.0000000

 Free energy of the ion-electron system (eV)
  ---------------------------------------------------
  alpha Z        PSCENC =        15.57176884
  Ewald energy   TEWEN  =     20718.92607613
  -Hartree energ DENC   =    -37219.48704487
  -exchange      EXHF   =         0.00000000
  -V(xc)+E(xc)   XCENC  =       583.25100912
  PAW double counting   =     15965.26744864   -17340.97210982
  entropy T*S    EENTRO =         0.00000000
  eigenvalues    EBANDS =      -646.73790122
  atomic energy  EATOM  =     18082.16260055
  ---------------------------------------------------
  free energy    TOTEN  =       157.98184736 eV

  energy without entropy =      157.98184736  energy(sigma->0) =      157.98184736


--------------------------------------------------------------------------------------------------------




----------------------------------------- Iteration    1(   3)  ---------------------------------------


     EDDAV:  cpu time    1.35: real time    1.35
       DOS:  cpu time    0.00: real time    0.00
    --------------------------------------------
      LOOP:  cpu time    1.35: real time    1.36

 eigenvalue-minimisations  :   448
 total energy-change (2. order) :-0.1685280E+03  (-0.1604470E+03)
 number of electron     143.0000000 magnetization      13.0000000
 augmentation part      143.0000000 magnetization      13.0000000

 Free energy of the ion-electron system (eV)
  ---------------------------------------------------
  alpha Z        PSCENC =        15.57176884
  Ewald energy   TEWEN  =     20718.92607613
  -Hartree energ DENC   =    -37219.48704487
  -exchange      EXHF   =         0.00000000
  -V(xc)+E(xc)   XCENC  =       583.25100912
  PAW double counting   =     15965.26744864   -17340.97210982
  entropy T*S    EENTRO =         0.00000000
  eigenvalues    EBANDS =      -815.26588934
  atomic energy  EATOM  =     18082.16260055
  ---------------------------------------------------
  free energy    TOTEN  =       -10.54614075 eV

  energy without entropy =      -10.54614075  energy(sigma->0) =      -10.54614075


--------------------------------------------------------------------------------------------------------




----------------------------------------- Iteration    1(   4)  ---------------------------------------


     EDDAV:  cpu time    1.29: real time    1.29
       DOS:  cpu time    0.00: real time    0.00
    --------------------------------------------
      LOOP:  cpu time    1.30: real time    1.30

 eigenvalue-minimisations  :   424
 total energy-change (2. order) :-0.2496273E+02  (-0.2234117E+02)
 number of electron     143.0000000 magnetization      13.0000000
 augmentation part      143.0000000 magnetization      13.0000000

 Free energy of the ion-electron system (eV)
  ---------------------------------------------------
  alpha Z        PSCENC =        15.57176884
  Ewald energy   TEWEN  =     20718.92607613
  -Hartree energ DENC   =    -37219.48704487
  -exchange      EXHF   =         0.00000000
  -V(xc)+E(xc)   XCENC  =       583.25100912
  PAW double counting   =     15965.26744864   -17340.97210982
  entropy T*S    EENTRO =         0.00000000
  eigenvalues    EBANDS =      -840.22862077
  atomic energy  EATOM  =     18082.16260055
  ---------------------------------------------------
  free energy    TOTEN  =       -35.50887219 eV

  energy without entropy =      -35.50887219  energy(sigma->0) =      -35.50887219


--------------------------------------------------------------------------------------------------------




----------------------------------------- Iteration    1(   5)  ---------------------------------------


     EDDAV:  cpu time    1.36: real time    1.37
       DOS:  cpu time    0.00: real time    0.00
    CHARGE:  cpu time    0.18: real time    0.18
    MIXING:  cpu time    0.01: real time    0.01
    --------------------------------------------
      LOOP:  cpu time    1.55: real time    1.56

 eigenvalue-minimisations  :   456
 total energy-change (2. order) :-0.8766601E+00  (-0.8697128E+00)
 number of electron     142.9999719 magnetization      11.2669800
 augmentation part       87.6626206 magnetization      11.6512996

 Broyden mixing:
  rms(total) = 0.28079E+01    rms(broyden)= 0.28071E+01
  rms(prec ) = 0.29078E+01
  weight for this iteration     100.00

 Free energy of the ion-electron system (eV)
  ---------------------------------------------------
  alpha Z        PSCENC =        15.57176884
  Ewald energy   TEWEN  =     20718.92607613
  -Hartree energ DENC   =    -37219.48704487
  -exchange      EXHF   =         0.00000000
  -V(xc)+E(xc)   XCENC  =       583.25100912
  PAW double counting   =     15965.26744864   -17340.97210982
  entropy T*S    EENTRO =         0.00000000
  eigenvalues    EBANDS =      -841.10528090
  atomic energy  EATOM  =     18082.16260055
  ---------------------------------------------------
  free energy    TOTEN  =       -36.38553231 eV

  energy without entropy =      -36.38553231  energy(sigma->0) =      -36.38553231


--------------------------------------------------------------------------------------------------------




----------------------------------------- Iteration    1(   6)  ---------------------------------------


    POTLOK:  cpu time    0.28: real time    0.28
    SETDIJ:  cpu time    0.01: real time    0.01
     EDDAV:  cpu time    1.21: real time    1.21
       DOS:  cpu time    0.00: real time    0.00
    CHARGE:  cpu time    0.18: real time    0.18
    MIXING:  cpu time    0.01: real time    0.01
    --------------------------------------------
      LOOP:  cpu time    1.69: real time    1.70

 eigenvalue-minimisations  :   388
 total energy-change (2. order) : 0.2114685E+02  (-0.1269676E+02)
 number of electron     142.9999691 magnetization      10.3880555
 augmentation part       95.0215045 magnetization       6.3040151

 Broyden mixing:
  rms(total) = 0.12240E+01    rms(broyden)= 0.12231E+01
  rms(prec ) = 0.13202E+01
  weight for this iteration     100.00

 eigenvalues of (default mixing * dielectric matrix)
  average eigenvalue GAMMA=   0.8213
  0.8213

 Free energy of the ion-electron system (eV)
  ---------------------------------------------------
  alpha Z        PSCENC =        15.57176884
  Ewald energy   TEWEN  =     20718.92607613
  -Hartree energ DENC   =    -37007.79762996
  -exchange      EXHF   =         0.00000000
  -V(xc)+E(xc)   XCENC  =       585.06100821
  PAW double counting   =     16068.83949514   -17399.11203425
  entropy T*S    EENTRO =         0.00000000
  eigenvalues    EBANDS =     -1078.88996611
  atomic energy  EATOM  =     18082.16260055
  ---------------------------------------------------
  free energy    TOTEN  =       -15.23868145 eV

  energy without entropy =      -15.23868145  energy(sigma->0) =      -15.23868145


--------------------------------------------------------------------------------------------------------




----------------------------------------- Iteration    1(   7)  ---------------------------------------


    POTLOK:  cpu time    0.29: real time    0.28
    SETDIJ:  cpu time    0.00: real time    0.01
     EDDAV:  cpu time    1.35: real time    1.35
       DOS:  cpu time    0.00: real time    0.00
    CHARGE:  cpu time    0.18: real time    0.18
    MIXING:  cpu time    0.01: real time    0.01
    --------------------------------------------
      LOOP:  cpu time    1.83: real time    1.84

 eigenvalue-minimisations  :   448
 total energy-change (2. order) : 0.2665273E+01  (-0.3352982E+01)
 number of electron     142.9999709 magnetization       9.2784102
 augmentation part       92.0414822 magnetization       5.2228768

 Broyden mixing:
  rms(total) = 0.45366E+00    rms(broyden)= 0.45316E+00
  rms(prec ) = 0.48449E+00
  weight for this iteration     100.00

 eigenvalues of (default mixing * dielectric matrix)
  average eigenvalue GAMMA=   0.8449
  0.6595  1.0302

 Free energy of the ion-electron system (eV)
  ---------------------------------------------------
  alpha Z        PSCENC =        15.57176884
  Ewald energy   TEWEN  =     20718.92607613
  -Hartree energ DENC   =    -37161.23680971
  -exchange      EXHF   =         0.00000000
  -V(xc)+E(xc)   XCENC  =       590.94112147
  PAW double counting   =     16356.43142660   -17738.06907986
  entropy T*S    EENTRO =         0.00000000
  eigenvalues    EBANDS =      -877.30051280
  atomic energy  EATOM  =     18082.16260055
  ---------------------------------------------------
  free energy    TOTEN  =       -12.57340879 eV

  energy without entropy =      -12.57340879  energy(sigma->0) =      -12.57340879


--------------------------------------------------------------------------------------------------------




----------------------------------------- Iteration    1(   8)  ---------------------------------------


    POTLOK:  cpu time    0.28: real time    0.28
    SETDIJ:  cpu time    0.01: real time    0.01
     EDDAV:  cpu time    1.34: real time    1.35
       DOS:  cpu time    0.00: real time    0.00
    CHARGE:  cpu time    0.18: real time    0.18
    MIXING:  cpu time    0.01: real time    0.01
    --------------------------------------------
      LOOP:  cpu time    1.83: real time    1.83

 eigenvalue-minimisations  :   448
 total energy-change (2. order) : 0.1658972E+00  (-0.4428970E+00)
 number of electron     142.9999707 magnetization       8.5288430
 augmentation part       91.6370534 magnetization       4.4553980

 Broyden mixing:
  rms(total) = 0.38187E+00    rms(broyden)= 0.38165E+00
  rms(prec ) = 0.40541E+00
  weight for this iteration     100.00

 eigenvalues of (default mixing * dielectric matrix)
  average eigenvalue GAMMA=   0.8115
  1.1391  0.6477  0.6477

 Free energy of the ion-electron system (eV)
  ---------------------------------------------------
  alpha Z        PSCENC =        15.57176884
  Ewald energy   TEWEN  =     20718.92607613
  -Hartree energ DENC   =    -37191.08111473
  -exchange      EXHF   =         0.00000000
  -V(xc)+E(xc)   XCENC  =       590.91630685
  PAW double counting   =     16536.62818800   -17926.94022560
  entropy T*S    EENTRO =         0.00000000
  eigenvalues    EBANDS =      -838.59111159
  atomic energy  EATOM  =     18082.16260055
  ---------------------------------------------------
  free energy    TOTEN  =       -12.40751154 eV

  energy without entropy =      -12.40751154  energy(sigma->0) =      -12.40751154


--------------------------------------------------------------------------------------------------------




----------------------------------------- Iteration    1(   9)  ---------------------------------------


    POTLOK:  cpu time    0.28: real time    0.28
    SETDIJ:  cpu time    0.01: real time    0.01
     EDDAV:  cpu time    1.44: real time    1.44
       DOS:  cpu time    0.00: real time    0.00
    CHARGE:  cpu time    0.18: real time    0.18
    MIXING:  cpu time    0.01: real time    0.01
    --------------------------------------------
      LOOP:  cpu time    1.92: real time    1.92

 eigenvalue-minimisations  :   488
 total energy-change (2. order) :-0.1516796E+01  (-0.1158271E+00)
 number of electron     142.9999709 magnetization       7.1328705
 augmentation part       91.7108323 magnetization       3.1398996

 Broyden mixing:
  rms(total) = 0.25267E+00    rms(broyden)= 0.25256E+00
  rms(prec ) = 0.26343E+00
  weight for this iteration     100.00

 eigenvalues of (default mixing * dielectric matrix)
  average eigenvalue GAMMA=   0.9560
  1.2946  1.2946  0.7337  0.5009

 Free energy of the ion-electron system (eV)
  ---------------------------------------------------
  alpha Z        PSCENC =        15.57176884
  Ewald energy   TEWEN  =     20718.92607613
  -Hartree energ DENC   =    -37194.29382648
  -exchange      EXHF   =         0.00000000
  -V(xc)+E(xc)   XCENC  =       589.19276590
  PAW double counting   =     16601.98823806   -17993.03697106
  entropy T*S    EENTRO =         0.00000000
  eigenvalues    EBANDS =      -834.43495998
  atomic energy  EATOM  =     18082.16260055
  ---------------------------------------------------
  free energy    TOTEN  =       -13.92430802 eV

  energy without entropy =      -13.92430802  energy(sigma->0) =      -13.92430802


--------------------------------------------------------------------------------------------------------




----------------------------------------- Iteration    1(  10)  ---------------------------------------


    POTLOK:  cpu time    0.28: real time    0.28
    SETDIJ:  cpu time    0.01: real time    0.01
     EDDAV:  cpu time    1.44: real time    1.45
       DOS:  cpu time    0.00: real time    0.00
    CHARGE:  cpu time    0.18: real time    0.18
    MIXING:  cpu time    0.01: real time    0.01
    --------------------------------------------
      LOOP:  cpu time    1.93: real time    1.93

 eigenvalue-minimisations  :   492
 total energy-change (2. order) :-0.5334883E+01  (-0.2871279E+00)
 number of electron     142.9999716 magnetization       6.8005255
 augmentation part       92.1031374 magnetization       4.8475707

 Broyden mixing:
  rms(total) = 0.30461E+00    rms(broyden)= 0.30304E+00
  rms(prec ) = 0.31996E+00
  weight for this iteration     100.00

 eigenvalues of (default mixing * dielectric matrix)
  average eigenvalue GAMMA=   0.8281
  1.3303  1.3303  0.7382  0.4791  0.2628

 Free energy of the ion-electron system (eV)
  ---------------------------------------------------
  alpha Z        PSCENC =        15.57176884
  Ewald energy   TEWEN  =     20718.92607613
  -Hartree energ DENC   =    -37195.13681473
  -exchange      EXHF   =         0.00000000
  -V(xc)+E(xc)   XCENC  =       584.46926402
  PAW double counting   =     16657.16131087   -18046.37220907
  entropy T*S    EENTRO =         0.00000000
  eigenvalues    EBANDS =      -836.04118777
  atomic energy  EATOM  =     18082.16260055
  ---------------------------------------------------
  free energy    TOTEN  =       -19.25919116 eV

  energy without entropy =      -19.25919116  energy(sigma->0) =      -19.25919116


--------------------------------------------------------------------------------------------------------




----------------------------------------- Iteration    1(  11)  ---------------------------------------


    POTLOK:  cpu time    0.28: real time    0.28
    SETDIJ:  cpu time    0.00: real time    0.01
     EDDAV:  cpu time    1.40: real time    1.40
       DOS:  cpu time    0.00: real time    0.00
    CHARGE:  cpu time    0.18: real time    0.18
    MIXING:  cpu time    0.01: real time    0.01
    --------------------------------------------
      LOOP:  cpu time    1.88: real time    1.89

 eigenvalue-minimisations  :   472
 total energy-change (2. order) : 0.8163441E-01  (-0.2477555E-01)
 number of electron     142.9999715 magnetization       5.8757535
 augmentation part       92.1151951 magnetization       3.9754917

 Broyden mixing:
  rms(total) = 0.25424E+00    rms(broyden)= 0.25416E+00
  rms(prec ) = 0.26755E+00
  weight for this iteration     100.00

 eigenvalues of (default mixing * dielectric matrix)
  average eigenvalue GAMMA=   0.9535
  1.7035  1.4329  0.7362  0.7362  0.5560  0.5560

 Free energy of the ion-electron system (eV)
  ---------------------------------------------------
  alpha Z        PSCENC =        15.57176884
  Ewald energy   TEWEN  =     20718.92607613
  -Hartree energ DENC   =    -37199.96937283
  -exchange      EXHF   =         0.00000000
  -V(xc)+E(xc)   XCENC  =       584.70977861
  PAW double counting   =     16671.73965420   -18061.74160985
  entropy T*S    EENTRO =         0.00000000
  eigenvalues    EBANDS =      -830.57645242
  atomic energy  EATOM  =     18082.16260055
  ---------------------------------------------------
  free energy    TOTEN  =       -19.17755676 eV

  energy without entropy =      -19.17755676  energy(sigma->0) =      -19.17755676


--------------------------------------------------------------------------------------------------------




----------------------------------------- Iteration    1(  12)  ---------------------------------------


    POTLOK:  cpu time    0.28: real time    0.28
    SETDIJ:  cpu time    0.00: real time    0.01
     EDDAV:  cpu time    1.64: real time    1.64
       DOS:  cpu time    0.00: real time    0.00
    CHARGE:  cpu time    0.18: real time    0.18
    MIXING:  cpu time    0.01: real time    0.01
    --------------------------------------------
      LOOP:  cpu time    2.12: real time    2.12

 eigenvalue-minimisations  :   572
 total energy-change (2. order) :-0.1882075E+01  (-0.7014363E-01)
 number of electron     142.9999716 magnetization       4.1930697
 augmentation part       91.9328736 magnetization       2.4447044

 Broyden mixing:
  rms(total) = 0.18460E+00    rms(broyden)= 0.18458E+00
  rms(prec ) = 0.19196E+00
  weight for this iteration     100.00

 eigenvalues of (default mixing * dielectric matrix)
  average eigenvalue GAMMA=   1.1011
  2.5594  1.9091  0.7793  0.7793  0.7106  0.4851  0.4851

 Free energy of the ion-electron system (eV)
  ---------------------------------------------------
  alpha Z        PSCENC =        15.57176884
  Ewald energy   TEWEN  =     20718.92607613
  -Hartree energ DENC   =    -37212.98702049
  -exchange      EXHF   =         0.00000000
  -V(xc)+E(xc)   XCENC  =       583.66845816
  PAW double counting   =     16682.79094285   -18075.06160417
  entropy T*S    EENTRO =         0.00000000
  eigenvalues    EBANDS =      -816.13085386
  atomic energy  EATOM  =     18082.16260055
  ---------------------------------------------------
  free energy    TOTEN  =       -21.05963199 eV

  energy without entropy =      -21.05963199  energy(sigma->0) =      -21.05963199


--------------------------------------------------------------------------------------------------------




----------------------------------------- Iteration    1(  13)  ---------------------------------------


    POTLOK:  cpu time    0.28: real time    0.28
    SETDIJ:  cpu time    0.00: real time    0.01
     EDDAV:  cpu time    1.50: real time    1.50
       DOS:  cpu time    0.00: real time    0.00
    CHARGE:  cpu time    0.18: real time    0.18
    MIXING:  cpu time    0.01: real time    0.01
    --------------------------------------------
      LOOP:  cpu time    1.98: real time    1.98

 eigenvalue-minimisations  :   512
 total energy-change (2. order) :-0.4851706E+01  (-0.2665027E+00)
 number of electron     142.9999714 magnetization       3.6053660
 augmentation part       91.8965426 magnetization       2.2317356

 Broyden mixing:
  rms(total) = 0.10426E+00    rms(broyden)= 0.10416E+00
  rms(prec ) = 0.10735E+00
  weight for this iteration     100.00

 eigenvalues of (default mixing * dielectric matrix)
  average eigenvalue GAMMA=   1.1508
  2.4908  2.4908  0.9707  0.9707  0.6552  0.6552  0.4866  0.4866

 Free energy of the ion-electron system (eV)
  ---------------------------------------------------
  alpha Z        PSCENC =        15.57176884
  Ewald energy   TEWEN  =     20718.92607613
  -Hartree energ DENC   =    -37217.09370271
  -exchange      EXHF   =         0.00000000
  -V(xc)+E(xc)   XCENC  =       579.91692115
  PAW double counting   =     16659.79564387   -18050.95903833
  entropy T*S    EENTRO =         0.00000000
  eigenvalues    EBANDS =      -814.23160742
  atomic energy  EATOM  =     18082.16260055
  ---------------------------------------------------
  free energy    TOTEN  =       -25.91133792 eV

  energy without entropy =      -25.91133792  energy(sigma->0) =      -25.91133792


--------------------------------------------------------------------------------------------------------




----------------------------------------- Iteration    1(  14)  ---------------------------------------


    POTLOK:  cpu time    0.28: real time    0.28
    SETDIJ:  cpu time    0.00: real time    0.01
     EDDAV:  cpu time    1.44: real time    1.44
       DOS:  cpu time    0.00: real time    0.00
    CHARGE:  cpu time    0.18: real time    0.18
    MIXING:  cpu time    0.01: real time    0.01
    --------------------------------------------
      LOOP:  cpu time    1.92: real time    1.93

 eigenvalue-minimisations  :   488
 total energy-change (2. order) :-0.2356858E+01  (-0.8374033E-01)
 number of electron     142.9999714 magnetization       2.9781289
 augmentation part       91.9812200 magnetization       1.7875960

 Broyden mixing:
  rms(total) = 0.91276E-01    rms(broyden)= 0.91235E-01
  rms(prec ) = 0.94587E-01
  weight for this iteration     100.00

 eigenvalues of (default mixing * dielectric matrix)
  average eigenvalue GAMMA=   1.2301
  3.0224  3.0224  0.9870  0.9870  0.7577  0.7577  0.5893  0.4738  0.4738

 Free energy of the ion-electron system (eV)
  ---------------------------------------------------
  alpha Z        PSCENC =        15.57176884
  Ewald energy   TEWEN  =     20718.92607613
  -Hartree energ DENC   =    -37209.04225905
  -exchange      EXHF   =         0.00000000
  -V(xc)+E(xc)   XCENC  =       577.83239232
  PAW double counting   =     16630.47723904   -18019.47224916
  entropy T*S    EENTRO =         0.00000000
  eigenvalues    EBANDS =      -824.72376428
  atomic energy  EATOM  =     18082.16260055
  ---------------------------------------------------
  free energy    TOTEN  =       -28.26819559 eV

  energy without entropy =      -28.26819559  energy(sigma->0) =      -28.26819559


--------------------------------------------------------------------------------------------------------




----------------------------------------- Iteration    1(  15)  ---------------------------------------


    POTLOK:  cpu time    0.28: real time    0.28
    SETDIJ:  cpu time    0.00: real time    0.01
     EDDAV:  cpu time    1.44: real time    1.44
       DOS:  cpu time    0.00: real time    0.00
    CHARGE:  cpu time    0.18: real time    0.18
    MIXING:  cpu time    0.01: real time    0.01
    --------------------------------------------
      LOOP:  cpu time    1.92: real time    1.93

 eigenvalue-minimisations  :   488
 total energy-change (2. order) :-0.1776870E+01  (-0.5168986E-01)
 number of electron     142.9999713 magnetization       2.1309628
 augmentation part       91.9897321 magnetization       1.0716544

 Broyden mixing:
  rms(total) = 0.73546E-01    rms(broyden)= 0.73522E-01
  rms(prec ) = 0.76843E-01
  weight for this iteration     100.00

 eigenvalues of (default mixing * dielectric matrix)
  average eigenvalue GAMMA=   1.3031
  3.5421  3.4456  1.3188  0.9254  0.9254  0.7905  0.6245  0.4967  0.4967  0.4656

 Free energy of the ion-electron system (eV)
  ---------------------------------------------------
  alpha Z        PSCENC =        15.57176884
  Ewald energy   TEWEN  =     20718.92607613
  -Hartree energ DENC   =    -37201.70199734
  -exchange      EXHF   =         0.00000000
  -V(xc)+E(xc)   XCENC  =       576.31113493
  PAW double counting   =     16596.69148217   -17985.09500880
  entropy T*S    EENTRO =         0.00000000
  eigenvalues    EBANDS =      -832.91112207
  atomic energy  EATOM  =     18082.16260055
  ---------------------------------------------------
  free energy    TOTEN  =       -30.04506560 eV

  energy without entropy =      -30.04506560  energy(sigma->0) =      -30.04506560


--------------------------------------------------------------------------------------------------------




----------------------------------------- Iteration    1(  16)  ---------------------------------------


    POTLOK:  cpu time    0.28: real time    0.28
    SETDIJ:  cpu time    0.00: real time    0.01
     EDDAV:  cpu time    1.46: real time    1.46
       DOS:  cpu time    0.00: real time    0.00
    CHARGE:  cpu time    0.18: real time    0.18
    MIXING:  cpu time    0.01: real time    0.01
    --------------------------------------------
      LOOP:  cpu time    1.94: real time    1.94

 eigenvalue-minimisations  :   496
 total energy-change (2. order) :-0.1060134E+01  (-0.2713838E-01)
 number of electron     142.9999713 magnetization       1.5234094
 augmentation part       91.9004264 magnetization       0.5734904

 Broyden mixing:
  rms(total) = 0.38073E-01    rms(broyden)= 0.38028E-01
  rms(prec ) = 0.40980E-01
  weight for this iteration     100.00

 eigenvalues of (default mixing * dielectric matrix)
  average eigenvalue GAMMA=   1.3644
  5.1625  2.1764  2.1764  0.9640  0.9640  0.7426  0.7426  0.6723  0.4757  0.4757
  0.4555

 Free energy of the ion-electron system (eV)
  ---------------------------------------------------
  alpha Z        PSCENC =        15.57176884
  Ewald energy   TEWEN  =     20718.92607613
  -Hartree energ DENC   =    -37199.31997456
  -exchange      EXHF   =         0.00000000
  -V(xc)+E(xc)   XCENC  =       575.49294484
  PAW double counting   =     16580.71352324   -17970.55121165
  entropy T*S    EENTRO =         0.00000000
  eigenvalues    EBANDS =      -834.10092667
  atomic energy  EATOM  =     18082.16260055
  ---------------------------------------------------
  free energy    TOTEN  =       -31.10519927 eV

  energy without entropy =      -31.10519927  energy(sigma->0) =      -31.10519927


--------------------------------------------------------------------------------------------------------




----------------------------------------- Iteration    1(  17)  ---------------------------------------


    POTLOK:  cpu time    0.28: real time    0.28
    SETDIJ:  cpu time    0.01: real time    0.01
     EDDAV:  cpu time    1.46: real time    1.46
       DOS:  cpu time    0.00: real time    0.00
    CHARGE:  cpu time    0.18: real time    0.18
    MIXING:  cpu time    0.01: real time    0.01
    --------------------------------------------
      LOOP:  cpu time    1.94: real time    2.03

 eigenvalue-minimisations  :   496
 total energy-change (2. order) :-0.7123520E+00  (-0.8934293E-02)
 number of electron     142.9999713 magnetization       1.4015499
 augmentation part       91.8859241 magnetization       0.5079913

 Broyden mixing:
  rms(total) = 0.29665E-01    rms(broyden)= 0.29653E-01
  rms(prec ) = 0.32992E-01
  weight for this iteration     100.00

 eigenvalues of (default mixing * dielectric matrix)
  average eigenvalue GAMMA=   1.4031
  5.4651  2.5204  2.5204  0.9009  0.9009  0.9702  0.7515  0.7515  0.6421  0.4803
  0.4803  0.4540

 Free energy of the ion-electron system (eV)
  ---------------------------------------------------
  alpha Z        PSCENC =        15.57176884
  Ewald energy   TEWEN  =     20718.92607613
  -Hartree energ DENC   =    -37194.84232714
  -exchange      EXHF   =         0.00000000
  -V(xc)+E(xc)   XCENC  =       574.76780571
  PAW double counting   =     16580.16371513   -17970.79680947
  entropy T*S    EENTRO =         0.00000000
  eigenvalues    EBANDS =      -837.77038099
  atomic energy  EATOM  =     18082.16260055
  ---------------------------------------------------
  free energy    TOTEN  =       -31.81755123 eV

  energy without entropy =      -31.81755123  energy(sigma->0) =      -31.81755123


--------------------------------------------------------------------------------------------------------




----------------------------------------- Iteration    1(  18)  ---------------------------------------


    POTLOK:  cpu time    0.28: real time    0.28
    SETDIJ:  cpu time    0.00: real time    0.01
     EDDAV:  cpu time    1.48: real time    1.48
       DOS:  cpu time    0.00: real time    0.00
    CHARGE:  cpu time    0.18: real time    0.18
    MIXING:  cpu time    0.01: real time    0.01
    --------------------------------------------
      LOOP:  cpu time    1.97: real time    1.97

 eigenvalue-minimisations  :   504
 total energy-change (2. order) :-0.3620033E+00  (-0.2119649E-02)
 number of electron     142.9999712 magnetization       1.2673151
 augmentation part       91.9311486 magnetization       0.3777116

 Broyden mixing:
  rms(total) = 0.17588E-01    rms(broyden)= 0.17574E-01
  rms(prec ) = 0.20259E-01
  weight for this iteration     100.00

 eigenvalues of (default mixing * dielectric matrix)
  average eigenvalue GAMMA=   1.4027
  5.7236  2.7032  2.7032  1.1105  0.9060  0.9060  0.7718  0.7718  0.6677  0.5669
  0.4692  0.4692  0.4658

 Free energy of the ion-electron system (eV)
  ---------------------------------------------------
  alpha Z        PSCENC =        15.57176884
  Ewald energy   TEWEN  =     20718.92607613
  -Hartree energ DENC   =    -37189.60762571
  -exchange      EXHF   =         0.00000000
  -V(xc)+E(xc)   XCENC  =       574.29269322
  PAW double counting   =     16581.22611749   -17971.49254511
  entropy T*S    EENTRO =         0.00000000
  eigenvalues    EBANDS =      -843.25864000
  atomic energy  EATOM  =     18082.16260055
  ---------------------------------------------------
  free energy    TOTEN  =       -32.17955458 eV

  energy without entropy =      -32.17955458  energy(sigma->0) =      -32.17955458


--------------------------------------------------------------------------------------------------------




----------------------------------------- Iteration    1(  19)  ---------------------------------------


    POTLOK:  cpu time    0.28: real time    0.28
    SETDIJ:  cpu time    0.01: real time    0.01
     EDDAV:  cpu time    1.43: real time    1.43
       DOS:  cpu time    0.00: real time    0.00
    CHARGE:  cpu time    0.18: real time    0.18
    MIXING:  cpu time    0.02: real time    0.01
    --------------------------------------------
      LOOP:  cpu time    1.92: real time    1.93

 eigenvalue-minimisations  :   484
 total energy-change (2. order) :-0.2846470E+00  (-0.1073068E-02)
 number of electron     142.9999713 magnetization       1.1588821
 augmentation part       91.9434596 magnetization       0.2751161

 Broyden mixing:
  rms(total) = 0.11654E-01    rms(broyden)= 0.11651E-01
  rms(prec ) = 0.13604E-01
  weight for this iteration     100.00

 eigenvalues of (default mixing * dielectric matrix)
  average eigenvalue GAMMA=   1.4405
  5.8014  3.5852  2.2008  1.7899  0.9073  0.9073  0.8526  0.8526  0.6834  0.6834
  0.4771  0.4771  0.4533  0.4957

 Free energy of the ion-electron system (eV)
  ---------------------------------------------------
  alpha Z        PSCENC =        15.57176884
  Ewald energy   TEWEN  =     20718.92607613
  -Hartree energ DENC   =    -37185.58850662
  -exchange      EXHF   =         0.00000000
  -V(xc)+E(xc)   XCENC  =       573.97483489
  PAW double counting   =     16581.27091955   -17971.56822017
  entropy T*S    EENTRO =         0.00000000
  eigenvalues    EBANDS =      -847.21367477
  atomic energy  EATOM  =     18082.16260055
  ---------------------------------------------------
  free energy    TOTEN  =       -32.46420160 eV

  energy without entropy =      -32.46420160  energy(sigma->0) =      -32.46420160


--------------------------------------------------------------------------------------------------------




----------------------------------------- Iteration    1(  20)  ---------------------------------------


    POTLOK:  cpu time    0.28: real time    0.28
    SETDIJ:  cpu time    0.01: real time    0.01
     EDDAV:  cpu time    1.46: real time    1.46
       DOS:  cpu time    0.00: real time    0.00
    CHARGE:  cpu time    0.18: real time    0.18
    MIXING:  cpu time    0.01: real time    0.01
    --------------------------------------------
      LOOP:  cpu time    1.95: real time    1.95

 eigenvalue-minimisations  :   496
 total energy-change (2. order) :-0.1290073E+00  (-0.4379265E-03)
 number of electron     142.9999713 magnetization       1.0565284
 augmentation part       91.9386678 magnetization       0.1781276

 Broyden mixing:
  rms(total) = 0.68030E-02    rms(broyden)= 0.68014E-02
  rms(prec ) = 0.83152E-02
  weight for this iteration     100.00

 eigenvalues of (default mixing * dielectric matrix)
  average eigenvalue GAMMA=   1.4803
  6.4023  3.3537  2.6068  2.1682  0.9098  0.9098  1.0100  0.7897  0.7897  0.7593
  0.6147  0.4761  0.4761  0.4813  0.4575

 Free energy of the ion-electron system (eV)
  ---------------------------------------------------
  alpha Z        PSCENC =        15.57176884
  Ewald energy   TEWEN  =     20718.92607613
  -Hartree energ DENC   =    -37182.82994966
  -exchange      EXHF   =         0.00000000
  -V(xc)+E(xc)   XCENC  =       573.84290219
  PAW double counting   =     16582.96417293   -17973.37598113
  entropy T*S    EENTRO =         0.00000000
  eigenvalues    EBANDS =      -849.85479871
  atomic energy  EATOM  =     18082.16260055
  ---------------------------------------------------
  free energy    TOTEN  =       -32.59320885 eV

  energy without entropy =      -32.59320885  energy(sigma->0) =      -32.59320885


--------------------------------------------------------------------------------------------------------




----------------------------------------- Iteration    1(  21)  ---------------------------------------


    POTLOK:  cpu time    0.28: real time    0.29
    SETDIJ:  cpu time    0.01: real time    0.01
     EDDAV:  cpu time    1.49: real time    1.49
       DOS:  cpu time    0.00: real time    0.00
    CHARGE:  cpu time    0.18: real time    0.18
    MIXING:  cpu time    0.02: real time    0.01
    --------------------------------------------
      LOOP:  cpu time    1.98: real time    1.99

 eigenvalue-minimisations  :   508
 total energy-change (2. order) :-0.4518868E-01  (-0.2347737E-03)
 number of electron     142.9999713 magnetization       1.0251408
 augmentation part       91.9289560 magnetization       0.1548567

 Broyden mixing:
  rms(total) = 0.35220E-02    rms(broyden)= 0.35188E-02
  rms(prec ) = 0.48408E-02
  weight for this iteration     100.00

 eigenvalues of (default mixing * dielectric matrix)
  average eigenvalue GAMMA=   1.4945
  6.5861  3.2333  3.2333  2.1624  1.2443  0.9083  0.9083  0.8230  0.8230  0.7460
  0.7460  0.6147  0.4779  0.4779  0.4638  0.4638

 Free energy of the ion-electron system (eV)
  ---------------------------------------------------
  alpha Z        PSCENC =        15.57176884
  Ewald energy   TEWEN  =     20718.92607613
  -Hartree energ DENC   =    -37181.27654181
  -exchange      EXHF   =         0.00000000
  -V(xc)+E(xc)   XCENC  =       573.80324902
  PAW double counting   =     16585.01643128   -17975.55705167
  entropy T*S    EENTRO =         0.00000000
  eigenvalues    EBANDS =      -851.28492987
  atomic energy  EATOM  =     18082.16260055
  ---------------------------------------------------
  free energy    TOTEN  =       -32.63839753 eV

  energy without entropy =      -32.63839753  energy(sigma->0) =      -32.63839753


--------------------------------------------------------------------------------------------------------




----------------------------------------- Iteration    1(  22)  ---------------------------------------


    POTLOK:  cpu time    0.28: real time    0.28
    SETDIJ:  cpu time    0.01: real time    0.01
     EDDAV:  cpu time    1.20: real time    1.20
       DOS:  cpu time    0.00: real time    0.00
    CHARGE:  cpu time    0.18: real time    0.18
    MIXING:  cpu time    0.01: real time    0.01
    --------------------------------------------
      LOOP:  cpu time    1.68: real time    1.69

 eigenvalue-minimisations  :   380
 total energy-change (2. order) :-0.1120766E-01  (-0.7697527E-04)
 number of electron     142.9999713 magnetization       1.0220503
 augmentation part       91.9258303 magnetization       0.1531748

 Broyden mixing:
  rms(total) = 0.30745E-02    rms(broyden)= 0.30728E-02
  rms(prec ) = 0.40599E-02
  weight for this iteration     100.00

 eigenvalues of (default mixing * dielectric matrix)
  average eigenvalue GAMMA=   1.4835
  6.6839  3.6439  3.0397  2.3089  1.4387  0.9059  0.9059  0.8263  0.8263  0.8156
  0.8156  0.6171  0.5227  0.4726  0.4726  0.4619  0.4619

 Free energy of the ion-electron system (eV)
  ---------------------------------------------------
  alpha Z        PSCENC =        15.57176884
  Ewald energy   TEWEN  =     20718.92607613
  -Hartree energ DENC   =    -37180.33433797
  -exchange      EXHF   =         0.00000000
  -V(xc)+E(xc)   XCENC  =       573.78957308
  PAW double counting   =     16586.49835724   -17977.07052770
  entropy T*S    EENTRO =         0.00000000
  eigenvalues    EBANDS =      -852.19311536
  atomic energy  EATOM  =     18082.16260055
  ---------------------------------------------------
  free energy    TOTEN  =       -32.64960519 eV

  energy without entropy =      -32.64960519  energy(sigma->0) =      -32.64960519


--------------------------------------------------------------------------------------------------------




----------------------------------------- Iteration    1(  23)  ---------------------------------------


    POTLOK:  cpu time    0.28: real time    0.28
    SETDIJ:  cpu time    0.00: real time    0.01
     EDDAV:  cpu time    0.99: real time    0.99
       DOS:  cpu time    0.00: real time    0.00
    CHARGE:  cpu time    0.18: real time    0.18
    MIXING:  cpu time    0.01: real time    0.02
    --------------------------------------------
      LOOP:  cpu time    1.48: real time    1.51

 eigenvalue-minimisations  :   284
 total energy-change (2. order) :-0.1192769E-02  (-0.3523516E-04)
 number of electron     142.9999713 magnetization       1.0101219
 augmentation part       91.9274119 magnetization       0.1405228

 Broyden mixing:
  rms(total) = 0.17684E-02    rms(broyden)= 0.17672E-02
  rms(prec ) = 0.25860E-02
  weight for this iteration     100.00

 eigenvalues of (default mixing * dielectric matrix)
  average eigenvalue GAMMA=   1.4872
  6.7980  3.8061  2.7657  2.7657  1.6391  0.9069  0.9069  0.9768  0.9768  0.8119
  0.8119  0.6723  0.6197  0.4740  0.4740  0.4779  0.4589  0.4273

 Free energy of the ion-electron system (eV)
  ---------------------------------------------------
  alpha Z        PSCENC =        15.57176884
  Ewald energy   TEWEN  =     20718.92607613
  -Hartree energ DENC   =    -37179.36502859
  -exchange      EXHF   =         0.00000000
  -V(xc)+E(xc)   XCENC  =       573.77922129
  PAW double counting   =     16586.80626621   -17977.34326446
  entropy T*S    EENTRO =         0.00000000
  eigenvalues    EBANDS =      -853.18843794
  atomic energy  EATOM  =     18082.16260055
  ---------------------------------------------------
  free energy    TOTEN  =       -32.65079796 eV

  energy without entropy =      -32.65079796  energy(sigma->0) =      -32.65079796


--------------------------------------------------------------------------------------------------------




----------------------------------------- Iteration    1(  24)  ---------------------------------------


    POTLOK:  cpu time    0.28: real time    0.29
    SETDIJ:  cpu time    0.01: real time    0.01
     EDDAV:  cpu time    1.19: real time    1.19
       DOS:  cpu time    0.00: real time    0.00
    CHARGE:  cpu time    0.18: real time    0.18
    MIXING:  cpu time    0.02: real time    0.02
    --------------------------------------------
      LOOP:  cpu time    1.68: real time    2.36

 eigenvalue-minimisations  :   376
 total energy-change (2. order) :-0.7350511E-03  (-0.5842468E-04)
 number of electron     142.9999713 magnetization       1.0090498
 augmentation part       91.9333880 magnetization       0.1402413

 Broyden mixing:
  rms(total) = 0.18456E-02    rms(broyden)= 0.18450E-02
  rms(prec ) = 0.22902E-02
  weight for this iteration     100.00

 eigenvalues of (default mixing * dielectric matrix)
  average eigenvalue GAMMA=   1.4884
  6.7236  4.1633  2.7505  2.7505  2.0384  0.9068  0.9068  1.0767  1.0767  0.7832
  0.7832  0.8121  0.6130  0.6130  0.4774  0.4774  0.4590  0.4590  0.4084

 Free energy of the ion-electron system (eV)
  ---------------------------------------------------
  alpha Z        PSCENC =        15.57176884
  Ewald energy   TEWEN  =     20718.92607613
  -Hartree energ DENC   =    -37178.26771684
  -exchange      EXHF   =         0.00000000
  -V(xc)+E(xc)   XCENC  =       573.76599429
  PAW double counting   =     16586.13559765   -17976.61146484
  entropy T*S    EENTRO =         0.00000000
  eigenvalues    EBANDS =      -854.33438880
  atomic energy  EATOM  =     18082.16260055
  ---------------------------------------------------
  free energy    TOTEN  =       -32.65153301 eV

  energy without entropy =      -32.65153301  energy(sigma->0) =      -32.65153301


--------------------------------------------------------------------------------------------------------




----------------------------------------- Iteration    1(  25)  ---------------------------------------


    POTLOK:  cpu time    0.28: real time    0.28
    SETDIJ:  cpu time    0.01: real time    0.01
     EDDAV:  cpu time    0.99: real time    0.99
       DOS:  cpu time    0.00: real time    0.00
    CHARGE:  cpu time    0.18: real time    0.18
    MIXING:  cpu time    0.02: real time    0.02
    --------------------------------------------
      LOOP:  cpu time    1.48: real time    3.07

 eigenvalue-minimisations  :   292
 total energy-change (2. order) :-0.1611527E-02  (-0.1261877E-04)
 number of electron     142.9999713 magnetization       1.0018225
 augmentation part       91.9309948 magnetization       0.1323289

 Broyden mixing:
  rms(total) = 0.93919E-03    rms(broyden)= 0.93892E-03
  rms(prec ) = 0.13129E-02
  weight for this iteration     100.00

 eigenvalues of (default mixing * dielectric matrix)
  average eigenvalue GAMMA=   1.4943
  6.7704  4.2259  3.5295  2.3301  2.3301  1.1592  1.1592  0.9065  0.9065  0.8048
  0.8048  0.8477  0.6123  0.6123  0.6042  0.4773  0.4773  0.4593  0.4593  0.4100

 Free energy of the ion-electron system (eV)
  ---------------------------------------------------
  alpha Z        PSCENC =        15.57176884
  Ewald energy   TEWEN  =     20718.92607613
  -Hartree energ DENC   =    -37177.88769557
  -exchange      EXHF   =         0.00000000
  -V(xc)+E(xc)   XCENC  =       573.76646117
  PAW double counting   =     16586.54645807   -17977.05582476
  entropy T*S    EENTRO =         0.00000000
  eigenvalues    EBANDS =      -854.68298897
  atomic energy  EATOM  =     18082.16260055
  ---------------------------------------------------
  free energy    TOTEN  =       -32.65314454 eV

  energy without entropy =      -32.65314454  energy(sigma->0) =      -32.65314454


--------------------------------------------------------------------------------------------------------




----------------------------------------- Iteration    1(  26)  ---------------------------------------


    POTLOK:  cpu time    0.28: real time    0.28
    SETDIJ:  cpu time    0.01: real time    0.01
     EDDAV:  cpu time    0.96: real time    0.96
       DOS:  cpu time    0.00: real time    0.00
    CHARGE:  cpu time    0.18: real time    0.18
    MIXING:  cpu time    0.02: real time    0.02
    --------------------------------------------
      LOOP:  cpu time    1.45: real time    1.47

 eigenvalue-minimisations  :   280
 total energy-change (2. order) :-0.1135555E-02  (-0.6534869E-05)
 number of electron     142.9999713 magnetization       0.9972163
 augmentation part       91.9296673 magnetization       0.1284324

 Broyden mixing:
  rms(total) = 0.60037E-03    rms(broyden)= 0.59980E-03
  rms(prec ) = 0.85567E-03
  weight for this iteration     100.00

 eigenvalues of (default mixing * dielectric matrix)
  average eigenvalue GAMMA=   1.5394
  6.9526  4.2668  4.2668  2.3750  2.3750  1.7366  0.9069  0.9069  0.9974  0.9974
  0.8016  0.8016  0.8028  0.6708  0.6000  0.6000  0.4766  0.4766  0.4585  0.4585
  0.3986

 Free energy of the ion-electron system (eV)
  ---------------------------------------------------
  alpha Z        PSCENC =        15.57176884
  Ewald energy   TEWEN  =     20718.92607613
  -Hartree energ DENC   =    -37177.48216495
  -exchange      EXHF   =         0.00000000
  -V(xc)+E(xc)   XCENC  =       573.76549754
  PAW double counting   =     16586.70165938   -17977.23104967
  entropy T*S    EENTRO =         0.00000000
  eigenvalues    EBANDS =      -855.06866792
  atomic energy  EATOM  =     18082.16260055
  ---------------------------------------------------
  free energy    TOTEN  =       -32.65428009 eV

  energy without entropy =      -32.65428009  energy(sigma->0) =      -32.65428009


--------------------------------------------------------------------------------------------------------




----------------------------------------- Iteration    1(  27)  ---------------------------------------


    POTLOK:  cpu time    0.28: real time    0.28
    SETDIJ:  cpu time    0.01: real time    0.01
     EDDAV:  cpu time    0.92: real time    0.92
       DOS:  cpu time    0.00: real time    0.00
    CHARGE:  cpu time    0.18: real time    0.18
    MIXING:  cpu time    0.02: real time    0.02
    --------------------------------------------
      LOOP:  cpu time    1.41: real time    1.41

 eigenvalue-minimisations  :   256
 total energy-change (2. order) :-0.8116414E-03  (-0.5031237E-05)
 number of electron     142.9999713 magnetization       1.0011487
 augmentation part       91.9299605 magnetization       0.1332658

 Broyden mixing:
  rms(total) = 0.64822E-03    rms(broyden)= 0.64803E-03
  rms(prec ) = 0.77668E-03
  weight for this iteration     100.00

 eigenvalues of (default mixing * dielectric matrix)
  average eigenvalue GAMMA=   1.5539
  6.8881  5.2723  3.8951  2.5254  2.5254  1.6487  1.1661  1.1661  0.9071  0.9071
  0.8294  0.8294  0.7717  0.7717  0.6039  0.6039  0.6092  0.4772  0.4772  0.4576
  0.4576  0.3960

 Free energy of the ion-electron system (eV)
  ---------------------------------------------------
  alpha Z        PSCENC =        15.57176884
  Ewald energy   TEWEN  =     20718.92607613
  -Hartree energ DENC   =    -37177.11519627
  -exchange      EXHF   =         0.00000000
  -V(xc)+E(xc)   XCENC  =       573.76293768
  PAW double counting   =     16586.63338305   -17977.16163260
  entropy T*S    EENTRO =         0.00000000
  eigenvalues    EBANDS =      -855.43502912
  atomic energy  EATOM  =     18082.16260055
  ---------------------------------------------------
  free energy    TOTEN  =       -32.65509173 eV

  energy without entropy =      -32.65509173  energy(sigma->0) =      -32.65509173


--------------------------------------------------------------------------------------------------------




----------------------------------------- Iteration    1(  28)  ---------------------------------------


    POTLOK:  cpu time    0.28: real time    0.28
    SETDIJ:  cpu time    0.00: real time    0.01
     EDDAV:  cpu time    0.91: real time    0.91
       DOS:  cpu time    0.00: real time    0.00
    CHARGE:  cpu time    0.18: real time    0.18
    MIXING:  cpu time    0.02: real time    0.02
    --------------------------------------------
      LOOP:  cpu time    1.40: real time    1.41

 eigenvalue-minimisations  :   252
 total energy-change (2. order) :-0.1640109E-03  (-0.2020391E-05)
 number of electron     142.9999713 magnetization       0.9998885
 augmentation part       91.9298588 magnetization       0.1314775

 Broyden mixing:
  rms(total) = 0.35963E-03    rms(broyden)= 0.35943E-03
  rms(prec ) = 0.47210E-03
  weight for this iteration     100.00

 eigenvalues of (default mixing * dielectric matrix)
  average eigenvalue GAMMA=   1.5452
  6.9083  5.6963  3.7963  2.5632  2.5632  1.9988  0.9071  0.9071  1.0920  0.9779
  0.9779  0.8012  0.8012  0.8095  0.7036  0.6020  0.5841  0.5841  0.4766  0.4766
  0.4587  0.4587  0.3957

 Free energy of the ion-electron system (eV)
  ---------------------------------------------------
  alpha Z        PSCENC =        15.57176884
  Ewald energy   TEWEN  =     20718.92607613
  -Hartree energ DENC   =    -37177.01555454
  -exchange      EXHF   =         0.00000000
  -V(xc)+E(xc)   XCENC  =       573.76232995
  PAW double counting   =     16586.82250117   -17977.35499757
  entropy T*S    EENTRO =         0.00000000
  eigenvalues    EBANDS =      -855.52998028
  atomic energy  EATOM  =     18082.16260055
  ---------------------------------------------------
  free energy    TOTEN  =       -32.65525574 eV

  energy without entropy =      -32.65525574  energy(sigma->0) =      -32.65525574


--------------------------------------------------------------------------------------------------------




----------------------------------------- Iteration    1(  29)  ---------------------------------------


    POTLOK:  cpu time    0.28: real time    0.28
    SETDIJ:  cpu time    0.00: real time    0.01
     EDDAV:  cpu time    0.89: real time    0.89
       DOS:  cpu time    0.00: real time    0.00
    --------------------------------------------
      LOOP:  cpu time    1.18: real time    1.19

 eigenvalue-minimisations  :   244
 total energy-change (2. order) :-0.8427281E-04  (-0.1120223E-05)
 number of electron     142.9999713 magnetization       0.9998885
 augmentation part       91.9298588 magnetization       0.1314775

 Free energy of the ion-electron system (eV)
  ---------------------------------------------------
  alpha Z        PSCENC =        15.57176884
  Ewald energy   TEWEN  =     20718.92607613
  -Hartree energ DENC   =    -37176.88405018
  -exchange      EXHF   =         0.00000000
  -V(xc)+E(xc)   XCENC  =       573.76177599
  PAW double counting   =     16586.77002674   -17977.30311352
  entropy T*S    EENTRO =         0.00000000
  eigenvalues    EBANDS =      -855.66042457
  atomic energy  EATOM  =     18082.16260055
  ---------------------------------------------------
  free energy    TOTEN  =       -32.65534002 eV

  energy without entropy =      -32.65534002  energy(sigma->0) =      -32.65534002


--------------------------------------------------------------------------------------------------------




 average (electrostatic) potential at core
  the test charge radii are     0.9430
  (the norm of the test charge is              1.0000)
       1 -74.3625       2 -74.4535       3 -74.3057       4 -74.4306       5 -74.3057
       6 -74.4535       7 -74.4485       8 -74.4306       9 -74.3625      10 -74.4535
      11 -74.4535      12 -74.4485      13 -74.1772
 
 
 
 E-fermi :  -4.0059     XC(G=0):  -0.5989     alpha+bet : -0.2597


 spin component 1

 k-point     1 :       0.0000    0.0000    0.0000
  band No.  band energies     occupation 
      1      -9.8264      1.00000
      2      -8.6011      1.00000
      3      -7.9724      1.00000
      4      -7.7536      1.00000
      5      -7.3429      1.00000
      6      -7.1783      1.00000
      7      -7.0441      1.00000
      8      -7.0271      1.00000
      9      -6.9843      1.00000
     10      -6.9773      1.00000
     11      -6.9178      1.00000
     12      -6.8287      1.00000
     13      -6.8020      1.00000
     14      -6.7890      1.00000
     15      -6.7527      1.00000
     16      -6.7042      1.00000
     17      -6.5966      1.00000
     18      -6.5952      1.00000
     19      -6.5726      1.00000
     20      -6.5594      1.00000
     21      -6.5328      1.00000
     22      -6.4718      1.00000
     23      -6.3755      1.00000
     24      -6.3232      1.00000
     25      -6.2165      1.00000
     26      -6.1734      1.00000
     27      -6.1430      1.00000
     28      -6.0926      1.00000
     29      -6.0887      1.00000
     30      -6.0373      1.00000
     31      -5.9889      1.00000
     32      -5.9812      1.00000
     33      -5.9050      1.00000
     34      -5.8466      1.00000
     35      -5.8370      1.00000
     36      -5.8176      1.00000
     37      -5.7380      1.00000
     38      -5.6942      1.00000
     39      -5.6536      1.00000
     40      -5.6443      1.00000
     41      -5.6379      1.00000
     42      -5.5707      1.00000
     43      -5.5676      1.00000
     44      -5.5379      1.00000
     45      -5.5095      1.00000
     46      -5.4926      1.00000
     47      -5.4895      1.00000
     48      -5.4708      1.00000
     49      -5.4158      1.00000
     50      -5.3864      1.00000
     51      -5.3653      1.00000
     52      -5.3629      1.00000
     53      -5.3407      1.00000
     54      -5.3168      1.00000
     55      -5.2925      1.00000
     56      -5.2820      1.00000
     57      -5.2455      1.00000
     58      -5.2188      1.00000
     59      -5.2072      1.00000
     60      -5.1855      1.00000
     61      -5.1363      1.00000
     62      -5.1312      1.00000
     63      -5.1223      1.00000
     64      -5.1082      1.00000
     65      -5.0772      1.00000
     66      -5.0703      1.00000
     67      -5.0370      1.00000
     68      -4.9840      1.00000
     69      -4.9775      1.00000
     70      -4.5922      1.00000
     71      -4.4523      1.00000
     72      -4.0322      1.00000
     73      -3.4742      0.00000
     74      -3.1533      0.00000
     75      -2.8026      0.00000
     76      -2.5249      0.00000
     77      -2.3455      0.00000
     78      -2.0275      0.00000
     79      -1.8485      0.00000
     80      -1.6964      0.00000
     81      -1.0267      0.00000
     82      -0.8151      0.00000
     83      -0.7750      0.00000
     84      -0.3209      0.00000
     85      -0.2770      0.00000
     86      -0.0880      0.00000
     87      -0.0642      0.00000
     88      -0.0212      0.00000
     89       0.1382      0.00000
     90       0.1531      0.00000
     91       0.2348      0.00000
     92       0.4201      0.00000

 spin component 2

 k-point     1 :       0.0000    0.0000    0.0000
  band No.  band energies     occupation 
      1      -9.7881      1.00000
      2      -8.5521      1.00000
      3      -7.9446      1.00000
      4      -7.6980      1.00000
      5      -7.3202      1.00000
      6      -7.1494      1.00000
      7      -7.0099      1.00000
      8      -6.9991      1.00000
      9      -6.9580      1.00000
     10      -6.9208      1.00000
     11      -6.8834      1.00000
     12      -6.7966      1.00000
     13      -6.7777      1.00000
     14      -6.7565      1.00000
     15      -6.7380      1.00000
     16      -6.6889      1.00000
     17      -6.5533      1.00000
     18      -6.5506      1.00000
     19      -6.5449      1.00000
     20      -6.5201      1.00000
     21      -6.4858      1.00000
     22      -6.4451      1.00000
     23      -6.3371      1.00000
     24      -6.2935      1.00000
     25      -6.1832      1.00000
     26      -6.1544      1.00000
     27      -6.1105      1.00000
     28      -6.0706      1.00000
     29      -6.0592      1.00000
     30      -6.0061      1.00000
     31      -5.9639      1.00000
     32      -5.9489      1.00000
     33      -5.8862      1.00000
     34      -5.8099      1.00000
     35      -5.8080      1.00000
     36      -5.7834      1.00000
     37      -5.7170      1.00000
     38      -5.6535      1.00000
     39      -5.6229      1.00000
     40      -5.6142      1.00000
     41      -5.6097      1.00000
     42      -5.5524      1.00000
     43      -5.5405      1.00000
     44      -5.5214      1.00000
     45      -5.4689      1.00000
     46      -5.4590      1.00000
     47      -5.4579      1.00000
     48      -5.4451      1.00000
     49      -5.3981      1.00000
     50      -5.3696      1.00000
     51      -5.3407      1.00000
     52      -5.3267      1.00000
     53      -5.3084      1.00000
     54      -5.2755      1.00000
     55      -5.2547      1.00000
     56      -5.2504      1.00000
     57      -5.2236      1.00000
     58      -5.1857      1.00000
     59      -5.1763      1.00000
     60      -5.1635      1.00000
     61      -5.1118      1.00000
     62      -5.0990      1.00000
     63      -5.0855      1.00000
     64      -5.0496      1.00000
     65      -5.0363      1.00000
     66      -5.0318      1.00000
     67      -5.0100      1.00000
     68      -4.9519      1.00000
     69      -4.9026      1.00000
     70      -4.5462      1.00000
     71      -4.4004      1.00000
     72      -3.8618      0.00000
     73      -3.4279      0.00000
     74      -3.0958      0.00000
     75      -2.7412      0.00000
     76      -2.4490      0.00000
     77      -2.3168      0.00000
     78      -1.8838      0.00000
     79      -1.8038      0.00000
     80      -1.5799      0.00000
     81      -0.8510      0.00000
     82      -0.7806      0.00000
     83      -0.7077      0.00000
     84      -0.2718      0.00000
     85      -0.2504      0.00000
     86      -0.0539      0.00000
     87      -0.0295      0.00000
     88       0.1027      0.00000
     89       0.1570      0.00000
     90       0.2363      0.00000
     91       0.2678      0.00000
     92       0.4405      0.00000


--------------------------------------------------------------------------------------------------------


 soft charge-density along one line, spin component           1
         0         1         2         3         4         5         6         7         8         9
 total charge-density along one line
 
 soft charge-density along one line, spin component           2
         0         1         2         3         4         5         6         7         8         9
 total charge-density along one line
 
 pseudopotential strength for first ion, spin component:           1
-10.592   0.000   0.000   0.022  -0.000   1.072  -0.000  -0.000
  0.000 -10.601   0.015  -0.000  -0.023  -0.000   1.080  -0.012
  0.000   0.015 -10.658   0.000   0.038  -0.000  -0.012   1.125
[...]
     63      -5.1481      1.00000
     64      -5.1343      1.00000
     65      -5.1112      1.00000
     66      -5.0912      1.00000
     67      -5.0587      1.00000
     68      -5.0073      1.00000
     69      -5.0038      1.00000
     70      -4.6227      1.00000
     71      -4.4708      1.00000
     72      -4.0041      1.00000
     73      -3.4876      0.00000
     74      -3.1204      0.00000
     75      -2.8034      0.00000
     76      -2.5564      0.00000
     77      -2.3118      0.00000
     78      -1.9643      0.00000
     79      -1.8084      0.00000
     80      -1.6677      0.00000
     81      -0.9647      0.00000
     82      -0.8202      0.00000
     83      -0.7327      0.00000
     84      -0.2510      0.00000
     85      -0.2361      0.00000
     86      -0.0523      0.00000
     87       0.0194      0.00000
     88       0.0598      0.00000
     89       0.1521      0.00000
     90       0.2102      0.00000
     91       0.2919      0.00000
     92       0.4311      0.00000

 spin component 2

 k-point     1 :       0.0000    0.0000    0.0000
  band No.  band energies     occupation 
      1     -10.1221      1.00000
      2      -8.8383      1.00000
      3      -8.1996      1.00000
      4      -7.9132      1.00000
      5      -7.5767      1.00000
      6      -7.3935      1.00000
      7      -7.2450      1.00000
      8      -7.2223      1.00000
      9      -7.2193      1.00000
     10      -7.1221      1.00000
     11      -7.1204      1.00000
     12      -7.0167      1.00000
     13      -6.9976      1.00000
     14      -6.9737      1.00000
     15      -6.9586      1.00000
     16      -6.8961      1.00000
     17      -6.7517      1.00000
     18      -6.7436      1.00000
     19      -6.7399      1.00000
     20      -6.7084      1.00000
     21      -6.6559      1.00000
     22      -6.6150      1.00000
     23      -6.4874      1.00000
     24      -6.4599      1.00000
     25      -6.3121      1.00000
     26      -6.2914      1.00000
     27      -6.2341      1.00000
     28      -6.2293      1.00000
     29      -6.1691      1.00000
     30      -6.1425      1.00000
     31      -6.0914      1.00000
     32      -6.0642      1.00000
     33      -6.0093      1.00000
     34      -5.9200      1.00000
     35      -5.9094      1.00000
     36      -5.9027      1.00000
     37      -5.8197      1.00000
     38      -5.7773      1.00000
     39      -5.7203      1.00000
     40      -5.7133      1.00000
     41      -5.6977      1.00000
     42      -5.6370      1.00000
     43      -5.6305      1.00000
     44      -5.6028      1.00000
     45      -5.5424      1.00000
     46      -5.5409      1.00000
     47      -5.5293      1.00000
     48      -5.5195      1.00000
     49      -5.4626      1.00000
     50      -5.4261      1.00000
     51      -5.4049      1.00000
     52      -5.3779      1.00000
     53      -5.3628      1.00000
     54      -5.3311      1.00000
     55      -5.3078      1.00000
     56      -5.2874      1.00000
     57      -5.2629      1.00000
     58      -5.2254      1.00000
     59      -5.2157      1.00000
     60      -5.2069      1.00000
     61      -5.1527      1.00000
     62      -5.1414      1.00000
     63      -5.1102      1.00000
     64      -5.0837      1.00000
     65      -5.0594      1.00000
     66      -5.0536      1.00000
     67      -5.0318      1.00000
     68      -4.9714      1.00000
     69      -4.9309      1.00000
     70      -4.5749      1.00000
     71      -4.4177      1.00000
     72      -3.8300      0.00000
     73      -3.4439      0.00000
     74      -3.0613      0.00000
     75      -2.7408      0.00000
     76      -2.4773      0.00000
     77      -2.2818      0.00000
     78      -1.8171      0.00000
     79      -1.7680      0.00000
     80      -1.5492      0.00000
     81      -0.7915      0.00000
     82      -0.7865      0.00000
     83      -0.6524      0.00000
     84      -0.2122      0.00000
     85      -0.2041      0.00000
     86      -0.0225      0.00000
     87       0.0526      0.00000
     88       0.1885      0.00000
     89       0.1959      0.00000
     90       0.3034      0.00000
     91       0.3215      0.00000
     92       0.4568      0.00000


--------------------------------------------------------------------------------------------------------


 soft charge-density along one line, spin component           1
         0         1         2         3         4         5         6         7         8         9
 total charge-density along one line
 
 soft charge-density along one line, spin component           2
         0         1         2         3         4         5         6         7         8         9
 total charge-density along one line
 
 pseudopotential strength for first ion, spin component:           1
-10.668   0.000  -0.000   0.023  -0.000   1.133  -0.000   0.000
  0.000 -10.678   0.016   0.000  -0.026  -0.000   1.141  -0.013
 -0.000   0.016 -10.738   0.000   0.040   0.000  -0.013   1.187
  0.023   0.000   0.000 -10.751   0.000  -0.019  -0.000  -0.000
 -0.000  -0.026   0.040   0.000 -10.675   0.000   0.020  -0.032
  1.133  -0.000   0.000  -0.019   0.000   6.212   0.000  -0.000
 -0.000   1.141  -0.013  -0.000   0.020   0.000   6.206   0.009
  0.000  -0.013   1.187  -0.000  -0.032  -0.000   0.009   6.171
 -0.019  -0.000  -0.000   1.199  -0.000   0.014   0.000   0.000
  0.000   0.020  -0.032  -0.000   1.139  -0.000  -0.014   0.025
 -0.000  -0.008   0.008  -0.000   0.012  -0.000   0.003  -0.005
 -0.000  -0.014   0.015  -0.000   0.022  -0.000   0.005  -0.008
 -0.000   0.004  -0.012   0.000  -0.021   0.000  -0.001   0.009
  0.000   0.022   0.005  -0.000  -0.000   0.000  -0.018  -0.003
  0.021   0.000   0.000   0.004  -0.000  -0.018   0.000  -0.000
 -0.000   0.004  -0.014  -0.000  -0.024  -0.000   0.001   0.011
 -0.000   0.025   0.005  -0.000  -0.000   0.000  -0.022  -0.002
  0.025  -0.000   0.000   0.004  -0.000  -0.022   0.000   0.000
 pseudopotential strength for first ion, spin component:           2
-10.665   0.000  -0.000   0.024   0.000   1.130  -0.000   0.000
  0.000 -10.675   0.016   0.000  -0.021  -0.000   1.139  -0.013
 -0.000   0.016 -10.735   0.000   0.037   0.000  -0.013   1.185
  0.024   0.000   0.000 -10.747   0.000  -0.019  -0.000  -0.000
  0.000  -0.021   0.037   0.000 -10.660  -0.000   0.017  -0.029
  1.130  -0.000   0.000  -0.019  -0.000   6.212   0.000  -0.000
 -0.000   1.139  -0.013  -0.000   0.017   0.000   6.204   0.010
  0.000  -0.013   1.185  -0.000  -0.029  -0.000   0.010   6.170
 -0.019  -0.000  -0.000   1.194  -0.000   0.015   0.000   0.000
 -0.000   0.017  -0.029  -0.000   1.126   0.000  -0.012   0.021
 -0.000  -0.008   0.009  -0.000   0.009  -0.000   0.004  -0.005
 -0.000  -0.015   0.016  -0.000   0.017  -0.000   0.006  -0.009
 -0.000   0.004  -0.012   0.000  -0.022   0.000  -0.001   0.010
  0.000   0.022   0.004  -0.000  -0.000   0.000  -0.019  -0.004
  0.021   0.000   0.000   0.003  -0.000  -0.019   0.000  -0.000
 -0.000   0.004  -0.014  -0.000  -0.026  -0.000   0.000   0.012
 -0.000   0.025   0.004  -0.000  -0.000   0.000  -0.023  -0.004
  0.025  -0.000   0.000   0.003  -0.000  -0.023   0.000   0.000
 total augmentation occupancy for first ion, spin component:           1
  1.963   0.000   0.000   0.010   0.000  -0.017   0.000   0.000  -0.005   0.000   0.000   0.000   0.000   0.000  -0.048   0.000
  0.000   1.957   0.011   0.000  -0.007   0.000  -0.022  -0.004   0.000   0.005   0.011   0.006  -0.009  -0.036   0.000   0.008
  0.000   0.011   1.922   0.000   0.017  -0.000  -0.005  -0.007   0.000  -0.004   0.008  -0.004   0.028  -0.028   0.000  -0.012
  0.010   0.000   0.000   1.923   0.000  -0.005   0.000   0.000  -0.007   0.000   0.000   0.000   0.000   0.000  -0.035   0.000
  0.000  -0.007   0.017   0.000   1.941   0.000   0.005  -0.004   0.000  -0.024  -0.015  -0.006   0.022  -0.006   0.000  -0.019
 -0.017   0.000  -0.000  -0.005   0.000   0.014   0.000   0.000   0.001   0.000  -0.000   0.000   0.000   0.000  -0.039   0.000
  0.000  -0.022  -0.005   0.000   0.005   0.000   0.012   0.001   0.000   0.002  -0.028   0.001   0.007  -0.031   0.000  -0.001
  0.000  -0.004  -0.007   0.000  -0.004   0.000   0.001   0.011   0.000   0.001   0.020  -0.001   0.011  -0.014   0.000  -0.000
 -0.005   0.000   0.000  -0.007   0.000   0.001   0.000   0.000   0.009   0.000   0.000   0.000  -0.000   0.000  -0.013   0.000
  0.000   0.005  -0.004   0.000  -0.024   0.000   0.002   0.001   0.000   0.009   0.025   0.001   0.014  -0.012   0.000  -0.001
  0.000   0.011   0.008   0.000  -0.015  -0.000  -0.028   0.020   0.000   0.025   1.670  -0.117  -0.209  -0.077   0.000   0.028
  0.000   0.006  -0.004   0.000  -0.006   0.000   0.001  -0.001   0.000   0.001  -0.117   0.013   0.028   0.008   0.000  -0.003
  0.000  -0.009   0.028   0.000   0.022   0.000   0.007   0.011  -0.000   0.014  -0.209   0.028   0.101  -0.032   0.000  -0.009
  0.000  -0.036  -0.028   0.000  -0.006   0.000  -0.031  -0.014   0.000  -0.012  -0.077   0.008  -0.032   0.173   0.000   0.001
 -0.048   0.000   0.000  -0.035   0.000  -0.039   0.000   0.000  -0.013   0.000   0.000   0.000   0.000   0.000   0.157   0.000
  0.000   0.008  -0.012   0.000  -0.019   0.000  -0.001  -0.000   0.000  -0.001   0.028  -0.003  -0.009   0.001   0.000   0.001
  0.000   0.023   0.011   0.000   0.001   0.000   0.001   0.001   0.000   0.001   0.010  -0.001   0.001  -0.010   0.000   0.000
  0.024   0.000   0.000   0.010   0.000   0.002   0.000   0.000   0.001   0.000   0.000   0.000   0.000   0.000  -0.009   0.000
 total augmentation occupancy for first ion, spin component:           2
  0.001   0.000   0.000  -0.000  -0.000   0.002   0.000   0.000   0.000   0.000   0.000   0.000   0.000   0.000   0.002   0.000
  0.000   0.003  -0.000   0.000   0.003  -0.000   0.002   0.000   0.000  -0.001  -0.009  -0.002   0.000   0.001   0.000   0.000
  0.000  -0.000   0.000   0.000   0.001  -0.000   0.000   0.002   0.000   0.001   0.000  -0.000  -0.001   0.001   0.000  -0.000
 -0.000   0.000   0.000   0.000   0.000   0.000   0.000   0.000   0.002   0.000   0.000   0.000   0.000   0.000   0.001   0.000
 -0.000   0.003   0.001   0.000   0.008   0.000  -0.001   0.001   0.000   0.000  -0.028  -0.005  -0.006  -0.003   0.000  -0.001
  0.002  -0.000  -0.000   0.000   0.000  -0.000   0.000   0.000  -0.000   0.000  -0.000   0.000   0.000   0.000   0.000   0.000
  0.000   0.002   0.000   0.000  -0.001   0.000  -0.000  -0.000   0.000   0.000   0.003   0.000   0.000   0.000   0.000   0.000
  0.000   0.000   0.002   0.000   0.001   0.000  -0.000  -0.000   0.000  -0.000  -0.000  -0.000  -0.000   0.000   0.000  -0.000
  0.000   0.000   0.000   0.002   0.000  -0.000   0.000   0.000  -0.000   0.000   0.000   0.000  -0.000   0.000   0.000   0.000
  0.000  -0.001   0.001   0.000   0.000   0.000   0.000  -0.000   0.000   0.000   0.006   0.000   0.001   0.001   0.000   0.000
  0.000  -0.009   0.000   0.000  -0.028  -0.000   0.003  -0.000   0.000   0.006   0.119   0.006   0.017   0.015   0.000   0.000
  0.000  -0.002  -0.000   0.000  -0.005   0.000   0.000  -0.000   0.000   0.000   0.006   0.001   0.001   0.001   0.000   0.000
  0.000   0.000  -0.001   0.000  -0.006   0.000   0.000  -0.000  -0.000   0.001   0.017   0.001   0.001   0.002   0.000   0.000
  0.000   0.001   0.001   0.000  -0.003   0.000   0.000   0.000   0.000   0.001   0.015   0.001   0.002   0.002   0.000   0.000
  0.002   0.000   0.000   0.001   0.000   0.000   0.000   0.000   0.000   0.000   0.000   0.000   0.000   0.000   0.001   0.000
  0.000   0.000  -0.000   0.000  -0.001   0.000   0.000  -0.000   0.000   0.000   0.000   0.000   0.000   0.000   0.000   0.000
  0.000   0.000   0.000   0.000  -0.000   0.000   0.000  -0.000   0.000  -0.000  -0.000  -0.000   0.000   0.000   0.000  -0.000
  0.000   0.000   0.000   0.000   0.000   0.000  -0.000   0.000  -0.000   0.000   0.000   0.000   0.000   0.000  -0.000   0.000


------------------------ aborting loop because EDIFF is reached ----------------------------------------


    CHARGE:  cpu time    0.18: real time    0.18
    FORLOC:  cpu time    0.01: real time    0.01
    FORNL :  cpu time    0.54: real time    0.54
    STRESS:  cpu time    0.69: real time    0.69
    FORCOR:  cpu time    0.28: real time    0.28
    FORHAR:  cpu time    0.04: real time    0.04
    MIXING:  cpu time    0.00: real time    0.01
    OFIELD:  cpu time    0.00: real time    0.00

  FORCE on cell =-STRESS in cart. coord.  units (eV):
  Direction    XX          YY          ZZ          XY          YZ          ZX
  --------------------------------------------------------------------------------------
  Alpha Z    15.57177    15.57177    15.57177
  Ewald    6065.93717  3260.99034 12324.90201     0.00000     0.00000     0.00000
  Hartree 11572.80394  9157.59103 17360.27899    -0.00000    -0.00000    -0.00000
  E(xc)    -834.12694  -834.90040  -833.28317     0.00000    -0.00000    -0.00000
  Local  -18899.86724-13687.54089-30947.86297     0.00000     0.00000     0.00000
  n-local  -313.67380  -315.72509  -307.42184     0.00000     0.00000     0.00000
  augment  1218.26213  1222.94840  1215.44420     0.00000    -0.00000     0.00000
  Kinetic  1172.00082  1177.87413  1168.93024     0.00000     0.00000     0.00000
  Fock        0.00000     0.00000     0.00000     0.00000     0.00000     0.00000
  -------------------------------------------------------------------------------------
  Total      -3.09215    -3.19071    -3.44079     0.00000     0.00000     0.00000
  in kB      -0.62418    -0.64408    -0.69456     0.00000     0.00000     0.00000
  external pressure =       -0.65 kB  Pullay stress =        0.00 kB


 VOLUME and BASIS-vectors are now :
 -----------------------------------------------------------------------------
  energy-cutoff  :      295.45
  volume of cell :     7937.08
      direct lattice vectors                 reciprocal lattice vectors
    19.947432000  0.000000000  0.000000000     0.050131766  0.000000000  0.000000000
     0.000000000 19.947432000  0.000000000     0.000000000  0.050131766  0.000000000
     0.000000000  0.000000000 19.947432000     0.000000000  0.000000000  0.050131766

  length of vectors
    19.947432000 19.947432000 19.947432000     0.050131766  0.050131766  0.050131766


 FORCES acting on ions
    electron-ion (+dipol)            ewald-force                    non-local-force                 convergence-correction
 -----------------------------------------------------------------------------------------------
   0.447E-11 -.115E+04 -.656E+03   0.570E-13 0.114E+04 0.654E+03   0.126E-25 0.499E+01 0.258E+01   -.268E-11 0.867E-02 -.185E+00
   -.824E+03 -.906E+03 0.837E+02   0.820E+03 0.903E+03 -.823E+02   0.388E+01 0.320E+01 -.139E+01   0.671E-01 0.664E-01 0.459E-01
   -.117E+04 0.101E-10 -.677E+03   0.116E+04 0.110E-12 0.674E+03   0.727E+01 0.418E-26 0.273E+01   0.187E+00 -.178E-11 -.131E+00
   0.109E+04 0.115E-10 0.823E+03   -.108E+04 0.568E-13 -.819E+03   -.103E+02 0.112E-27 -.419E+01   -.170E+00 -.589E-12 0.197E+00
   0.117E+04 0.136E-10 -.677E+03   -.116E+04 -.220E-12 0.674E+03   -.727E+01 -.301E-25 0.273E+01   -.187E+00 -.554E-11 -.131E+00
   0.824E+03 0.906E+03 0.837E+02   -.820E+03 -.903E+03 -.823E+02   -.388E+01 -.320E+01 -.139E+01   -.671E-01 -.664E-01 0.459E-01
   0.413E-11 0.882E+03 0.102E+04   0.924E-13 -.878E+03 -.101E+04   -.160E-28 -.396E+01 -.443E+01   0.446E-11 0.654E-01 0.711E-01
   -.109E+04 -.232E-12 0.823E+03   0.108E+04 0.284E-13 -.819E+03   0.103E+02 -.131E-27 -.419E+01   0.170E+00 -.559E-12 0.197E+00
   0.454E-11 0.115E+04 -.656E+03   -.107E-12 -.114E+04 0.654E+03   -.482E-26 -.499E+01 0.258E+01   -.271E-11 -.867E-02 -.185E+00
   -.824E+03 0.906E+03 0.837E+02   0.820E+03 -.903E+03 -.823E+02   0.388E+01 -.320E+01 -.139E+01   0.671E-01 -.664E-01 0.459E-01
   0.824E+03 -.906E+03 0.837E+02   -.820E+03 0.903E+03 -.823E+02   -.388E+01 0.320E+01 -.139E+01   -.671E-01 0.664E-01 0.459E-01
   0.410E-11 -.882E+03 0.102E+04   0.285E-13 0.878E+03 -.101E+04   -.710E-28 0.396E+01 -.443E+01   0.300E-11 -.654E-01 0.711E-01
   0.424E-11 -.463E-11 -.134E+04   -.782E-13 -.728E-13 0.133E+04   -.411E-27 0.252E-25 0.100E+02   -.107E-10 -.642E-11 -.669E-01
 -----------------------------------------------------------------------------------------------
   0.467E-10 0.109E-09 0.221E+01   -.163E-12 0.268E-12 0.227E-12   -.178E-14 -.888E-15 -.216E+01   -.320E-12 -.215E-10 0.199E-01
 
 
 POSITION                                       TOTAL-FORCE (eV/Angst)
 -----------------------------------------------------------------------------------
      9.97372     11.55475     11.71318         0.000000     -0.013155      0.007530
     11.22280     11.18447      9.66909         0.009297      0.006821     -0.006422
     11.76999      9.97372     11.80579         0.005434     -0.000000     -0.000956
      7.91113      9.97372      7.64605        -0.002752      0.000000      0.017537
      8.17744      9.97372     11.80579        -0.005434     -0.000000     -0.000956
      8.72463      8.76296      9.66909        -0.009297     -0.006821     -0.006422
      9.97372      8.76076      7.57102         0.000000      0.009440      0.005280
     12.03630      9.97372      7.64605         0.002752     -0.000000      0.017537
      9.97372      8.39268     11.71318         0.000000      0.013155      0.007530
     11.22280      8.76296      9.66909         0.009297     -0.006821     -0.006422
      8.72463     11.18447      9.66909        -0.009297      0.006821     -0.006422
      9.97372     11.18667      7.57102         0.000000     -0.009440      0.005280
      9.97372      9.97372     13.50987         0.000000     -0.000000     -0.033096
 -----------------------------------------------------------------------------------
    total drift:                                0.000000      0.000000      0.076638


--------------------------------------------------------------------------------------------------------



  FREE ENERGIE OF THE ION-ELECTRON SYSTEM (eV)
  ---------------------------------------------------
  free  energy   TOTEN  =       -32.84895789 eV

  energy  without entropy=      -32.84895789  energy(sigma->0) =      -32.84895789
 
 d Force = 0.3256610E-03[ 0.176E-03, 0.475E-03]  d Energy = 0.5104734E-03-0.185E-03
 d Force = 0.1631155E+01[ 0.163E+01, 0.164E+01]  d Ewald  = 0.1631152E+01 0.262E-05


--------------------------------------------------------------------------------------------------------


    POTLOK:  cpu time    0.30: real time    0.30


--------------------------------------------------------------------------------------------------------




--------------------------------------------------------------------------------------------------------


  
 reached required accuracy - stopping structural energy minimisation
     LOOP+:  cpu time    7.13: real time    7.16
    4ORBIT:  cpu time    0.00: real time    0.00

 total amount of memory used by VASP on root node    62074. kBytes
========================================================================

   base      :      30000. kBytes
   nonl-proj :       2017. kBytes
   fftplans  :       7250. kBytes
   grid      :      18544. kBytes
   one-center:         31. kBytes
   wavefun   :       4232. kBytes
 
  
  
 General timing and accounting informations for this job:
 ========================================================
  
                  Total CPU time used (sec):      137.409
                            User time (sec):      133.940
                          System time (sec):        3.468
                         Elapsed time (sec):      145.615
  
                   Maximum memory used (kb):       77004.
                   Average memory used (kb):           0.
  
                          Minor page faults:       723337
                          Major page faults:            0
                 Voluntary context switches:         3884
