  25  25   0   0
  0.3820102E+03  0.2121640E-08  0.2121640E-08  0.2121640E-08  0.1000000E-15
  1.000000000000000E-004
  CAR 
 unknown system                          
      1.53258289     -9.75899231  301     -3.50157772      1.00000000
     -9.759  0.0000E+00  0.0000E+00  0.0000E+00  0.0000E+00
     -9.721  0.0000E+00  0.0000E+00  0.0000E+00  0.0000E+00
     -9.684  0.0000E+00  0.0000E+00  0.0000E+00  0.0000E+00
     -9.646  0.0000E+00  0.0000E+00  0.0000E+00  0.0000E+00
     -9.608  0.0000E+00  0.0000E+00  0.0000E+00  0.0000E+00
     -9.571  0.0000E+00  0.0000E+00  0.0000E+00  0.0000E+00
     -9.533  0.0000E+00  0.0000E+00  0.0000E+00  0.0000E+00
     -9.496  0.0000E+00  0.0000E+00  0.0000E+00  0.0000E+00
     -9.458  0.0000E+00  0.0000E+00  0.0000E+00  0.0000E+00
     -9.420  0.0000E+00  0.0000E+00  0.0000E+00  0.0000E+00
     -9.383  0.0000E+00  0.0000E+00  0.0000E+00  0.0000E+00
     -9.345  0.0000E+00  0.0000E+00  0.0000E+00  0.0000E+00
     -9.307  0.0000E+00  0.0000E+00  0.0000E+00  0.0000E+00
     -9.270  0.0000E+00  0.0000E+00  0.0000E+00  0.0000E+00
     -9.232  0.0000E+00  0.0000E+00  0.1000E-02  0.0000E+00
     -9.194  0.0000E+00  0.0000E+00  0.1000E-02  0.1000E-02
     -9.157  0.0000E+00  0.0000E+00  0.1000E-02  0.1000E-02
     -9.119  0.0000E+00  0.0000E+00  0.1000E-02  0.1000E-02
     -9.081  0.0000E+00  0.0000E+00  0.1000E-02  0.1000E-02
     -9.044  0.0000E+00  0.0000E+00  0.1000E-02  0.1000E-02
     -9.006  0.0000E+00  0.0000E+00  0.2000E-02  0.1000E-02
     -8.969  0.0000E+00  0.0000E+00  0.3000E-02  0.3000E-02
     -8.931  0.0000E+00  0.0000E+00  0.4000E-02  0.4000E-02
     -8.893  0.0000E+00  0.0000E+00  0.4000E-02  0.4000E-02
     -8.856  0.3648E-06  0.0000E+00  0.4000E-02  0.4000E-02
     -8.818  0.0000E+00  0.0000E+00  0.5000E-02  0.5000E-02
     -8.780  0.0000E+00  0.0000E+00  0.6000E-02  0.6000E-02
     -8.743  0.0000E+00  0.0000E+00  0.8000E-02  0.7000E-02
     -8.705  0.0000E+00  0.0000E+00  0.9000E-02  0.8000E-02
     -8.667  0.0000E+00  0.0000E+00  0.1000E-01  0.1000E-01
     -8.630  0.0000E+00  0.0000E+00  0.1000E-01  0.1000E-01
     -8.592  0.0000E+00  0.0000E+00  0.1200E-01  0.1200E-01
     -8.555  0.0000E+00  0.0000E+00  0.1300E-01  0.1300E-01
     -8.517  0.0000E+00  0.0000E+00  0.1500E-01  0.1400E-01
     -8.479  0.0000E+00  0.0000E+00  0.1600E-01  0.1600E-01
     -8.442  0.0000E+00  0.0000E+00  0.1800E-01  0.1700E-01
     -8.404  0.0000E+00  0.0000E+00  0.1900E-01  0.1800E-01
     -8.366  0.0000E+00  0.0000E+00  0.2000E-01  0.2000E-01
     -8.329  0.0000E+00  0.2657E-01  0.2100E-01  0.2100E-01
     -8.291  0.2614E-01  0.7374E-17  0.2398E-01  0.2200E-01
     -8.253  0.0000E+00  0.0000E+00  0.2400E-01  0.2400E-01
     -8.216  0.0000E+00  0.0000E+00  0.2600E-01  0.2600E-01
     -8.178  0.0000E+00  0.0000E+00  0.2800E-01  0.2800E-01
     -8.141  0.0000E+00  0.0000E+00  0.3000E-01  0.3000E-01
     -8.103  0.0000E+00  0.0000E+00  0.3400E-01  0.3300E-01
     -8.065  0.0000E+00  0.0000E+00  0.3400E-01  0.3400E-01
     -8.028  0.0000E+00  0.0000E+00  0.3500E-01  0.3500E-01
     -7.990  0.0000E+00  0.0000E+00  0.3700E-01  0.3700E-01
     -7.952  0.0000E+00  0.0000E+00  0.3800E-01  0.3800E-01
     -7.915  0.0000E+00  0.0000E+00  0.4000E-01  0.4000E-01
     -7.877  0.0000E+00  0.0000E+00  0.4200E-01  0.4100E-01
     -7.839  0.0000E+00  0.0000E+00  0.4300E-01  0.4200E-01
     -7.802  0.0000E+00  0.0000E+00  0.4400E-01  0.4300E-01
     -7.764  0.0000E+00  0.0000E+00  0.4600E-01  0.4500E-01
     -7.727  0.0000E+00  0.2798E-08  0.4800E-01  0.4700E-01
     -7.689  0.0000E+00  0.0000E+00  0.4900E-01  0.4800E-01
     -7.651  0.0000E+00  0.0000E+00  0.5000E-01  0.4900E-01
     -7.614  0.0000E+00  0.0000E+00  0.5200E-01  0.5100E-01
     -7.576  0.0000E+00  0.0000E+00  0.5300E-01  0.5300E-01
     -7.538  0.0000E+00  0.0000E+00  0.5600E-01  0.5400E-01
     -7.501  0.0000E+00  0.0000E+00  0.5600E-01  0.5600E-01
     -7.463  0.0000E+00  0.0000E+00  0.5800E-01  0.5800E-01
     -7.425  0.0000E+00  0.0000E+00  0.5900E-01  0.5900E-01
     -7.388  0.0000E+00  0.0000E+00  0.6100E-01  0.6000E-01
     -7.350  0.0000E+00  0.0000E+00  0.6200E-01  0.6200E-01
     -7.312  0.2657E-01  0.0000E+00  0.6300E-01  0.6200E-01
     -7.275  0.0000E+00  0.0000E+00  0.6400E-01  0.6400E-01
     -7.237  0.0000E+00  0.0000E+00  0.6600E-01  0.6600E-01
     -7.200  0.0000E+00  0.2580E-01  0.6800E-01  0.6797E-01
     -7.162  0.0000E+00  0.0000E+00  0.6900E-01  0.6900E-01
     -7.124  0.0000E+00  0.2657E-01  0.7200E-01  0.7100E-01
     -7.087  0.0000E+00  0.0000E+00  0.7400E-01  0.7400E-01
     -7.049  0.0000E+00  0.0000E+00  0.7600E-01  0.7600E-01
     -7.011  0.0000E+00  0.2657E-01  0.7900E-01  0.7900E-01
     -6.974  0.0000E+00  0.2657E-01  0.8200E-01  0.8200E-01
     -6.936  0.0000E+00  0.0000E+00  0.8300E-01  0.8300E-01
     -6.898  0.0000E+00  0.0000E+00  0.8700E-01  0.8600E-01
     -6.861  0.0000E+00  0.0000E+00  0.8900E-01  0.8900E-01
     -6.823  0.0000E+00  0.2656E-01  0.9200E-01  0.9200E-01
     -6.786  0.0000E+00  0.2656E-01  0.9500E-01  0.9400E-01
     -6.748  0.0000E+00  0.0000E+00  0.9800E-01  0.9700E-01
     -6.710  0.0000E+00  0.0000E+00  0.9900E-01  0.9900E-01
     -6.673  0.0000E+00  0.0000E+00  0.1020E+00  0.1010E+00
     -6.635  0.0000E+00  0.0000E+00  0.1030E+00  0.1030E+00
     -6.597  0.0000E+00  0.0000E+00  0.1060E+00  0.1050E+00
     -6.560  0.0000E+00  0.1237E-14  0.1080E+00  0.1070E+00
     -6.522  0.0000E+00  0.0000E+00  0.1090E+00  0.1080E+00
     -6.484  0.0000E+00  0.0000E+00  0.1110E+00  0.1110E+00
     -6.447  0.0000E+00  0.0000E+00  0.1150E+00  0.1140E+00
     -6.409  0.2657E-01  0.0000E+00  0.1170E+00  0.1160E+00
     -6.372  0.0000E+00  0.0000E+00  0.1190E+00  0.1190E+00
     -6.334  0.2657E-01  0.2657E-01  0.1210E+00  0.1200E+00
     -6.296  0.0000E+00  0.0000E+00  0.1220E+00  0.1220E+00
     -6.259  0.0000E+00  0.0000E+00  0.1240E+00  0.1240E+00
     -6.221  0.0000E+00  0.0000E+00  0.1250E+00  0.1250E+00
     -6.183  0.0000E+00  0.0000E+00  0.1260E+00  0.1260E+00
     -6.146  0.0000E+00  0.0000E+00  0.1270E+00  0.1270E+00
     -6.108  0.0000E+00  0.0000E+00  0.1280E+00  0.1270E+00
     -6.070  0.0000E+00  0.0000E+00  0.1290E+00  0.1290E+00
     -6.033  0.0000E+00  0.0000E+00  0.1290E+00  0.1290E+00
     -5.995  0.0000E+00  0.0000E+00  0.1290E+00  0.1290E+00
     -5.957  0.0000E+00  0.0000E+00  0.1290E+00  0.1290E+00
     -5.920  0.0000E+00  0.0000E+00  0.1290E+00  0.1290E+00
     -5.882  0.0000E+00  0.0000E+00  0.1290E+00  0.1290E+00
     -5.845  0.0000E+00  0.0000E+00  0.1290E+00  0.1290E+00
     -5.807  0.0000E+00  0.0000E+00  0.1290E+00  0.1290E+00
     -5.769  0.0000E+00  0.0000E+00  0.1290E+00  0.1290E+00
     -5.732  0.0000E+00  0.0000E+00  0.1300E+00  0.1290E+00
     -5.694  0.0000E+00  0.0000E+00  0.1300E+00  0.1300E+00
     -5.656  0.0000E+00  0.0000E+00  0.1300E+00  0.1300E+00
     -5.619  0.0000E+00  0.0000E+00  0.1300E+00  0.1300E+00
     -5.581  0.0000E+00  0.0000E+00  0.1300E+00  0.1300E+00
     -5.543  0.0000E+00  0.0000E+00  0.1300E+00  0.1300E+00
     -5.506  0.0000E+00  0.0000E+00  0.1300E+00  0.1300E+00
     -5.468  0.0000E+00  0.0000E+00  0.1300E+00  0.1300E+00
     -5.431  0.0000E+00  0.0000E+00  0.1300E+00  0.1300E+00
     -5.393  0.0000E+00  0.0000E+00  0.1300E+00  0.1300E+00
     -5.355  0.0000E+00  0.0000E+00  0.1300E+00  0.1300E+00
     -5.318  0.0000E+00  0.0000E+00  0.1310E+00  0.1300E+00
     -5.280  0.0000E+00  0.0000E+00  0.1310E+00  0.1310E+00
     -5.242  0.0000E+00  0.0000E+00  0.1310E+00  0.1310E+00
     -5.205  0.0000E+00  0.0000E+00  0.1310E+00  0.1310E+00
     -5.167  0.0000E+00  0.0000E+00  0.1310E+00  0.1310E+00
     -5.129  0.0000E+00  0.0000E+00  0.1310E+00  0.1310E+00
     -5.092  0.0000E+00  0.0000E+00  0.1310E+00  0.1310E+00
     -5.054  0.0000E+00  0.0000E+00  0.1310E+00  0.1310E+00
     -5.017  0.0000E+00  0.0000E+00  0.1310E+00  0.1310E+00
     -4.979  0.0000E+00  0.0000E+00  0.1310E+00  0.1310E+00
     -4.941  0.0000E+00  0.0000E+00  0.1310E+00  0.1310E+00
     -4.904  0.0000E+00  0.0000E+00  0.1310E+00  0.1310E+00
     -4.866  0.0000E+00  0.0000E+00  0.1310E+00  0.1310E+00
     -4.828  0.0000E+00  0.0000E+00  0.1310E+00  0.1310E+00
     -4.791  0.0000E+00  0.0000E+00  0.1320E+00  0.1310E+00
     -4.753  0.0000E+00  0.0000E+00  0.1330E+00  0.1320E+00
     -4.715  0.0000E+00  0.0000E+00  0.1330E+00  0.1330E+00
     -4.678  0.0000E+00  0.0000E+00  0.1330E+00  0.1330E+00
     -4.640  0.0000E+00  0.0000E+00  0.1330E+00  0.1330E+00
     -4.603  0.0000E+00  0.0000E+00  0.1330E+00  0.1330E+00
     -4.565  0.0000E+00  0.0000E+00  0.1330E+00  0.1330E+00
     -4.527  0.0000E+00  0.0000E+00  0.1340E+00  0.1330E+00
     -4.490  0.0000E+00  0.0000E+00  0.1340E+00  0.1340E+00
     -4.452  0.0000E+00  0.0000E+00  0.1340E+00  0.1340E+00
     -4.414  0.0000E+00  0.0000E+00  0.1340E+00  0.1340E+00
     -4.377  0.0000E+00  0.0000E+00  0.1350E+00  0.1340E+00
     -4.339  0.0000E+00  0.0000E+00  0.1350E+00  0.1350E+00
     -4.301  0.0000E+00  0.0000E+00  0.1350E+00  0.1350E+00
     -4.264  0.0000E+00  0.0000E+00  0.1350E+00  0.1350E+00
     -4.226  0.0000E+00  0.0000E+00  0.1350E+00  0.1350E+00
     -4.188  0.0000E+00  0.0000E+00  0.1350E+00  0.1350E+00
     -4.151  0.0000E+00  0.0000E+00  0.1360E+00  0.1350E+00
     -4.113  0.0000E+00  0.0000E+00  0.1360E+00  0.1360E+00
     -4.076  0.0000E+00  0.0000E+00  0.1360E+00  0.1360E+00
     -4.038  0.0000E+00  0.0000E+00  0.1360E+00  0.1360E+00
     -4.000  0.0000E+00  0.0000E+00  0.1360E+00  0.1360E+00
     -3.963  0.0000E+00  0.0000E+00  0.1360E+00  0.1360E+00
     -3.925  0.0000E+00  0.0000E+00  0.1360E+00  0.1360E+00
     -3.887  0.0000E+00  0.0000E+00  0.1360E+00  0.1360E+00
     -3.850  0.0000E+00  0.0000E+00  0.1360E+00  0.1360E+00
     -3.812  0.0000E+00  0.0000E+00  0.1370E+00  0.1360E+00
     -3.774  0.0000E+00  0.0000E+00  0.1370E+00  0.1370E+00
     -3.737  0.0000E+00  0.0000E+00  0.1370E+00  0.1370E+00
     -3.699  0.0000E+00  0.0000E+00  0.1370E+00  0.1370E+00
     -3.662  0.0000E+00  0.0000E+00  0.1370E+00  0.1370E+00
     -3.624  0.0000E+00  0.0000E+00  0.1370E+00  0.1370E+00
     -3.586  0.0000E+00  0.0000E+00  0.1370E+00  0.1370E+00
     -3.549  0.0000E+00  0.0000E+00  0.1370E+00  0.1370E+00
     -3.511  0.0000E+00  0.0000E+00  0.1380E+00  0.1370E+00
     -3.473  0.0000E+00  0.0000E+00  0.1380E+00  0.1370E+00
     -3.436  0.0000E+00  0.0000E+00  0.1380E+00  0.1370E+00
     -3.398  0.0000E+00  0.0000E+00  0.1380E+00  0.1370E+00
     -3.360  0.0000E+00  0.0000E+00  0.1380E+00  0.1380E+00
     -3.323  0.0000E+00  0.0000E+00  0.1380E+00  0.1380E+00
     -3.285  0.0000E+00  0.0000E+00  0.1380E+00  0.1380E+00
     -3.248  0.0000E+00  0.0000E+00  0.1380E+00  0.1380E+00
     -3.210  0.0000E+00  0.0000E+00  0.1380E+00  0.1380E+00
     -3.172  0.0000E+00  0.0000E+00  0.1380E+00  0.1380E+00
     -3.135  0.0000E+00  0.0000E+00  0.1390E+00  0.1380E+00
     -3.097  0.0000E+00  0.0000E+00  0.1390E+00  0.1390E+00
     -3.059  0.0000E+00  0.0000E+00  0.1390E+00  0.1390E+00
     -3.022  0.0000E+00  0.0000E+00  0.1400E+00  0.1390E+00
     -2.984  0.0000E+00  0.0000E+00  0.1400E+00  0.1400E+00
     -2.946  0.0000E+00  0.0000E+00  0.1400E+00  0.1400E+00
     -2.909  0.0000E+00  0.0000E+00  0.1400E+00  0.1400E+00
     -2.871  0.0000E+00  0.0000E+00  0.1400E+00  0.1400E+00
     -2.833  0.0000E+00  0.0000E+00  0.1400E+00  0.1400E+00
     -2.796  0.0000E+00  0.0000E+00  0.1400E+00  0.1400E+00
     -2.758  0.0000E+00  0.0000E+00  0.1400E+00  0.1400E+00
     -2.721  0.0000E+00  0.0000E+00  0.1400E+00  0.1400E+00
     -2.683  0.0000E+00  0.0000E+00  0.1400E+00  0.1400E+00
     -2.645  0.0000E+00  0.0000E+00  0.1410E+00  0.1400E+00
     -2.608  0.0000E+00  0.0000E+00  0.1410E+00  0.1410E+00
     -2.570  0.0000E+00  0.0000E+00  0.1410E+00  0.1410E+00
     -2.532  0.0000E+00  0.0000E+00  0.1410E+00  0.1410E+00
     -2.495  0.0000E+00  0.0000E+00  0.1410E+00  0.1410E+00
     -2.457  0.0000E+00  0.0000E+00  0.1420E+00  0.1410E+00
     -2.419  0.0000E+00  0.0000E+00  0.1420E+00  0.1420E+00
     -2.382  0.0000E+00  0.0000E+00  0.1420E+00  0.1420E+00
     -2.344  0.0000E+00  0.0000E+00  0.1430E+00  0.1420E+00
     -2.307  0.0000E+00  0.0000E+00  0.1430E+00  0.1430E+00
     -2.269  0.0000E+00  0.0000E+00  0.1430E+00  0.1430E+00
     -2.231  0.0000E+00  0.0000E+00  0.1440E+00  0.1430E+00
     -2.194  0.0000E+00  0.0000E+00  0.1440E+00  0.1440E+00
     -2.156  0.0000E+00  0.0000E+00  0.1450E+00  0.1440E+00
     -2.118  0.0000E+00  0.0000E+00  0.1450E+00  0.1450E+00
     -2.081  0.0000E+00  0.0000E+00  0.1450E+00  0.1450E+00
     -2.043  0.0000E+00  0.0000E+00  0.1450E+00  0.1450E+00
     -2.005  0.0000E+00  0.0000E+00  0.1450E+00  0.1450E+00
     -1.968  0.0000E+00  0.0000E+00  0.1450E+00  0.1450E+00
     -1.930  0.0000E+00  0.0000E+00  0.1450E+00  0.1450E+00
     -1.893  0.0000E+00  0.0000E+00  0.1460E+00  0.1450E+00
     -1.855  0.0000E+00  0.0000E+00  0.1470E+00  0.1460E+00
     -1.817  0.0000E+00  0.0000E+00  0.1470E+00  0.1470E+00
     -1.780  0.0000E+00  0.0000E+00  0.1470E+00  0.1470E+00
     -1.742  0.0000E+00  0.0000E+00  0.1470E+00  0.1470E+00
     -1.704  0.0000E+00  0.0000E+00  0.1470E+00  0.1470E+00
     -1.667  0.0000E+00  0.0000E+00  0.1480E+00  0.1470E+00
     -1.629  0.0000E+00  0.0000E+00  0.1480E+00  0.1480E+00
     -1.591  0.0000E+00  0.0000E+00  0.1490E+00  0.1480E+00
     -1.554  0.0000E+00  0.0000E+00  0.1490E+00  0.1490E+00
     -1.516  0.0000E+00  0.0000E+00  0.1490E+00  0.1490E+00
     -1.479  0.0000E+00  0.0000E+00  0.1490E+00  0.1490E+00
     -1.441  0.0000E+00  0.0000E+00  0.1490E+00  0.1490E+00
     -1.403  0.0000E+00  0.0000E+00  0.1490E+00  0.1490E+00
     -1.366  0.0000E+00  0.0000E+00  0.1490E+00  0.1490E+00
     -1.328  0.0000E+00  0.0000E+00  0.1500E+00  0.1490E+00
     -1.290  0.0000E+00  0.0000E+00  0.1500E+00  0.1500E+00
     -1.253  0.0000E+00  0.0000E+00  0.1500E+00  0.1500E+00
     -1.215  0.0000E+00  0.0000E+00  0.1500E+00  0.1500E+00
     -1.177  0.0000E+00  0.0000E+00  0.1500E+00  0.1500E+00
     -1.140  0.0000E+00  0.0000E+00  0.1500E+00  0.1500E+00
     -1.102  0.0000E+00  0.0000E+00  0.1510E+00  0.1500E+00
     -1.064  0.0000E+00  0.0000E+00  0.1510E+00  0.1510E+00
     -1.027  0.0000E+00  0.0000E+00  0.1520E+00  0.1510E+00
     -0.989  0.0000E+00  0.0000E+00  0.1520E+00  0.1520E+00
     -0.952  0.0000E+00  0.0000E+00  0.1530E+00  0.1520E+00
     -0.914  0.0000E+00  0.0000E+00  0.1530E+00  0.1530E+00
     -0.876  0.0000E+00  0.0000E+00  0.1530E+00  0.1530E+00
     -0.839  0.0000E+00  0.0000E+00  0.1530E+00  0.1530E+00
     -0.801  0.0000E+00  0.0000E+00  0.1540E+00  0.1540E+00
     -0.763  0.0000E+00  0.0000E+00  0.1540E+00  0.1540E+00
     -0.726  0.0000E+00  0.0000E+00  0.1540E+00  0.1540E+00
     -0.688  0.0000E+00  0.0000E+00  0.1550E+00  0.1540E+00
     -0.650  0.0000E+00  0.0000E+00  0.1550E+00  0.1550E+00
     -0.613  0.0000E+00  0.0000E+00  0.1560E+00  0.1550E+00
     -0.575  0.0000E+00  0.0000E+00  0.1560E+00  0.1560E+00
     -0.538  0.0000E+00  0.0000E+00  0.1560E+00  0.1560E+00
     -0.500  0.0000E+00  0.0000E+00  0.1560E+00  0.1560E+00
     -0.462  0.0000E+00  0.0000E+00  0.1560E+00  0.1560E+00
     -0.425  0.0000E+00  0.0000E+00  0.1570E+00  0.1560E+00
     -0.387  0.0000E+00  0.0000E+00  0.1570E+00  0.1570E+00
     -0.349  0.0000E+00  0.0000E+00  0.1580E+00  0.1570E+00
     -0.312  0.0000E+00  0.0000E+00  0.1580E+00  0.1580E+00
     -0.274  0.0000E+00  0.0000E+00  0.1590E+00  0.1580E+00
     -0.236  0.0000E+00  0.0000E+00  0.1600E+00  0.1590E+00
     -0.199  0.0000E+00  0.0000E+00  0.1600E+00  0.1600E+00
     -0.161  0.0000E+00  0.0000E+00  0.1600E+00  0.1600E+00
     -0.124  0.0000E+00  0.0000E+00  0.1610E+00  0.1600E+00
     -0.086  0.0000E+00  0.0000E+00  0.1610E+00  0.1600E+00
     -0.048  0.0000E+00  0.0000E+00  0.1610E+00  0.1610E+00
     -0.011  0.0000E+00  0.0000E+00  0.1610E+00  0.1610E+00
      0.027  0.0000E+00  0.0000E+00  0.1620E+00  0.1610E+00
      0.065  0.0000E+00  0.0000E+00  0.1620E+00  0.1610E+00
      0.102  0.0000E+00  0.0000E+00  0.1630E+00  0.1620E+00
      0.140  0.0000E+00  0.0000E+00  0.1630E+00  0.1620E+00
      0.178  0.0000E+00  0.0000E+00  0.1630E+00  0.1630E+00
      0.215  0.0000E+00  0.0000E+00  0.1630E+00  0.1630E+00
      0.253  0.0000E+00  0.0000E+00  0.1630E+00  0.1630E+00
      0.291  0.0000E+00  0.0000E+00  0.1640E+00  0.1630E+00
      0.328  0.0000E+00  0.0000E+00  0.1650E+00  0.1640E+00
      0.366  0.0000E+00  0.0000E+00  0.1650E+00  0.1650E+00
      0.403  0.0000E+00  0.0000E+00  0.1660E+00  0.1650E+00
      0.441  0.0000E+00  0.0000E+00  0.1660E+00  0.1660E+00
      0.479  0.0000E+00  0.0000E+00  0.1670E+00  0.1660E+00
      0.516  0.2657E-01  0.0000E+00  0.1680E+00  0.1670E+00
      0.554  0.0000E+00  0.0000E+00  0.1680E+00  0.1680E+00
      0.592  0.0000E+00  0.0000E+00  0.1680E+00  0.1680E+00
      0.629  0.0000E+00  0.1997E-07  0.1690E+00  0.1680E+00
      0.667  0.0000E+00  0.0000E+00  0.1690E+00  0.1690E+00
      0.705  0.0000E+00  0.0000E+00  0.1700E+00  0.1690E+00
      0.742  0.0000E+00  0.0000E+00  0.1710E+00  0.1710E+00
      0.780  0.0000E+00  0.0000E+00  0.1730E+00  0.1730E+00
      0.817  0.0000E+00  0.0000E+00  0.1730E+00  0.1730E+00
      0.855  0.0000E+00  0.0000E+00  0.1740E+00  0.1740E+00
      0.893  0.0000E+00  0.0000E+00  0.1750E+00  0.1750E+00
      0.930  0.0000E+00  0.0000E+00  0.1770E+00  0.1770E+00
      0.968  0.0000E+00  0.0000E+00  0.1770E+00  0.1770E+00
      1.006  0.0000E+00  0.2656E-01  0.1790E+00  0.1790E+00
      1.043  0.0000E+00  0.0000E+00  0.1800E+00  0.1800E+00
      1.081  0.0000E+00  0.0000E+00  0.1800E+00  0.1800E+00
      1.119  0.0000E+00  0.0000E+00  0.1800E+00  0.1800E+00
      1.156  0.0000E+00  0.0000E+00  0.1800E+00  0.1800E+00
      1.194  0.0000E+00  0.0000E+00  0.1800E+00  0.1800E+00
      1.231  0.0000E+00  0.0000E+00  0.1800E+00  0.1800E+00
      1.269  0.0000E+00  0.0000E+00  0.1800E+00  0.1800E+00
      1.307  0.0000E+00  0.0000E+00  0.1800E+00  0.1800E+00
      1.344  0.0000E+00  0.0000E+00  0.1800E+00  0.1800E+00
      1.382  0.0000E+00  0.0000E+00  0.1800E+00  0.1800E+00
      1.420  0.0000E+00  0.0000E+00  0.1800E+00  0.1800E+00
      1.457  0.0000E+00  0.0000E+00  0.1800E+00  0.1800E+00
      1.495  0.0000E+00  0.0000E+00  0.1800E+00  0.1800E+00
      1.533  0.0000E+00  0.0000E+00  0.1800E+00  0.1800E+00
