 vasp.5.3.5 31Mar14 (build Feb 01 2018 12:10:03) gamma-only                     
  
 executed on             LinuxIFC date 2019.03.21  15:25:31
 running on   32 total cores
 distrk:  each k-point on   32 cores,    1 groups
 distr:  one band on NCORES_PER_BAND=   8 cores,    4 groups


--------------------------------------------------------------------------------------------------------


 INCAR:
 POTCAR:    PAW_PBE Ag 02Apr2005                  
 POTCAR:    PAW_PBE Ag 02Apr2005                  
   VRHFIN =Ag : s1 d10                                                          
   LEXCH  = PE                                                                  
   EATOM  =  1037.2675 eV,   76.2370 Ry                                         
                                                                                
   TITEL  = PAW_PBE Ag 02Apr2005                                                
   LULTRA =        F    use ultrasoft PP ?                                      
   IUNSCR =        1    unscreen: 0-lin 1-nonlin 2-no                           
   RPACOR =    2.000    partial core radius                                     
   POMASS =  107.868; ZVAL   =   11.000    mass and valenz                      
   RCORE  =    2.500    outmost cutoff radius                                   
   RWIGS  =    2.840; RWIGS  =    1.503    wigner-seitz radius (au A)           
   ENMAX  =  249.844; ENMIN  =  187.383 eV                                      
   ICORE  =        3    local potential                                         
   LCOR   =        T    correct aug charges                                     
   LPAW   =        T    paw PP                                                  
   EAUG   =  412.496                                                            
   DEXC   =    0.000                                                            
   RMAX   =    2.560    core radius for proj-oper                               
   RAUG   =    1.300    factor for augmentation sphere                          
   RDEP   =    2.576    radius for radial grids                                 
   RDEPT  =    2.072    core radius for aug-charge                              
                                                                                
   Atomic configuration                                                         
   12 entries                                                                   
     n  l   j            E        occ.                                          
     1  0  0.50    -25324.9161   2.0000                                         
     2  0  0.50     -3728.5341   2.0000                                         
     2  1  1.50     -3344.0404   6.0000                                         
     3  0  0.50      -683.5581   2.0000                                         
     3  1  1.50      -557.3225   6.0000                                         
     3  2  2.50      -358.3853  10.0000                                         
     4  0  0.50       -95.0341   2.0000                                         
     4  1  1.50       -58.5511   6.0000                                         
     4  2  2.50        -7.4440  10.0000                                         
     5  0  0.50        -4.4045   1.0000                                         
     5  1  0.50        -1.3606   0.0000                                         
     4  3  2.50        -1.3606   0.0000                                         
   Description                                                                  
     l       E           TYP  RCUT    TYP  RCUT                                 
     2     -7.4439781     23  2.400                                             
     2     -8.8045607     23  2.400                                             
     0     -4.4044681     23  2.400                                             
     0      1.9520038     23  2.400                                             
     1     -1.3605826     23  2.500                                             
     1     27.2116520     23  2.500                                             
     3     -4.0817478     23  2.400                                             
  local pseudopotential read in
  partial core-charges read in
  partial kinetic energy density read in
  atomic valenz-charges read in
  non local Contribution for L=           2  read in
    real space projection operators read in
  non local Contribution for L=           2  read in
    real space projection operators read in
  non local Contribution for L=           0  read in
    real space projection operators read in
  non local Contribution for L=           0  read in
    real space projection operators read in
  non local Contribution for L=           1  read in
    real space projection operators read in
  non local Contribution for L=           1  read in
    real space projection operators read in
    PAW grid and wavefunctions read in
 
   number of l-projection  operators is LMAX  =           6
   number of lm-projection operators is LMMAX =          18
 
  PAW_PBE Ag 02Apr2005                  :
 energy of atom  1       EATOM=-1037.2675
 kinetic energy error for atom=    0.0689 (will be added to EATOM!!)
 
 
 POSCAR: Ag10, -17.83664528 <s> Ag </s>          
  positions in direct lattice
  No initial velocities read in
 exchange correlation table for  LEXCH =        8
   RHO(1)=    0.500       N(1)  =     2000
   RHO(2)=  100.500       N(2)  =     4000
 


--------------------------------------------------------------------------------------------------------


 ion  position               nearest neighbor table
   1  0.474  0.551  0.311-   4 2.78   2 2.80   3 2.81
   2  0.460  0.435  0.396-   3 2.72   5 2.77   1 2.80   4 2.82   7 2.84
   3  0.579  0.507  0.399-   2 2.72   7 2.78   6 2.78   1 2.81   4 2.89
   4  0.455  0.569  0.452-   8 2.74   1 2.78   2 2.82   6 2.85   3 2.89   5 2.94   7 3.29
   5  0.396  0.450  0.522-   8 2.75   2 2.77   7 2.81   9 2.85   4 2.94
   6  0.583  0.578  0.523-   8 2.77   3 2.78  10 2.82   7 2.85   4 2.85
   7  0.539  0.438  0.518-   3 2.78   5 2.81   9 2.82   2 2.84   6 2.85  10 2.86   8 3.11   4 3.29

   8  0.460  0.555  0.591-   4 2.74   5 2.75   6 2.77  10 2.83   9 2.87   7 3.11
   9  0.471  0.418  0.644-  10 2.68   7 2.82   5 2.85   8 2.87
  10  0.583  0.499  0.644-   9 2.68   6 2.82   8 2.83   7 2.86
 
  LATTYP: Found a simple cubic cell.
 ALAT       =    19.4941109921
  
  Lattice vectors:
  
 A1 = (  19.4941109921,   0.0000000000,   0.0000000000)
 A2 = (   0.0000000000,  19.4941109921,   0.0000000000)
 A3 = (   0.0000000000,   0.0000000000,  19.4941109921)


Analysis of symmetry for initial positions (statically):
=====================================================================
 Subroutine PRICEL returns:
 Original cell was already a primitive cell.
 

 Routine SETGRP: Setting up the symmetry group for a 
 simple cubic supercell.


 Subroutine GETGRP returns: Found  1 space group operations
 (whereof  1 operations were pure point group operations)
 out of a pool of 48 trial point group operations.


The static configuration has the point symmetry C_1 .


Analysis of symmetry for dynamics (positions and initial velocities):
=====================================================================
 Subroutine PRICEL returns:
 Original cell was already a primitive cell.
 

 Routine SETGRP: Setting up the symmetry group for a 
 simple cubic supercell.


 Subroutine GETGRP returns: Found  1 space group operations
 (whereof  1 operations were pure point group operations)
 out of a pool of 48 trial point group operations.


The dynamic configuration has the point symmetry C_1 .


Analysis of magnetic symmetry:
=====================================================================
 Subroutine PRICEL returns:
 Original cell was already a primitive cell.
 

 Subroutine MAGSYM returns: Found  1 space group operations
 (whereof  1 operations were pure point group operations)
 out of a pool of  1 trial space group operations
 (whereof  1 operations were pure point group operations)
 and found also     1 'primitive' translations


The magnetic configuration has the point symmetry C_1 .
 
 
 KPOINTS: Gamma-point only                        
  k-points in reciprocal lattice
Space group operators:
 irot       det(A)        alpha          n_x          n_y          n_z        tau_x        tau_y        tau_z
    1     1.000000     0.000000     1.000000     0.000000     0.000000     0.000000     0.000000     0.000000


--------------------------------------------------------------------------------------------------------




 Dimension of arrays:
   k-points           NKPTS =      1   k-points in BZ     NKDIM =      1   number of bands    NBANDS=     72
   number of dos      NEDOS =    301   number of ions     NIONS =     10
   non local maximal  LDIM  =      6   non local SUM 2l+1 LMDIM =     18
   total plane-waves  NPLWV = 512000
   max r-space proj   IRMAX =      1   max aug-charges    IRDMAX=   3597
   dimension x,y,z NGX =    80 NGY =   80 NGZ =   80
   dimension x,y,z NGXF=   160 NGYF=  160 NGZF=  160
   support grid    NGXF=   160 NGYF=  160 NGZF=  160
   ions per type =              10
 NGX,Y,Z   is equivalent  to a cutoff of   6.82,  6.82,  6.82 a.u.
 NGXF,Y,Z  is equivalent  to a cutoff of  13.64, 13.64, 13.64 a.u.


 I would recommend the setting:
   dimension x,y,z NGX =    75 NGY =   75 NGZ =   75
 SYSTEM =  unknown system                          
 POSCAR =  Ag10, -17.83664528 <s> Ag </s>          

 Startparameter for this run:
   NWRITE =      2    write-flag & timer
   PREC   = normal    normal or accurate (medium, high low for compatibility)
   ISTART =      0    job   : 0-new  1-cont  2-samecut
   ICHARG =      2    charge: 1-file 2-atom 10-const
   ISPIN  =      2    spin polarized calculation?
   LNONCOLLINEAR =      F non collinear calculations
   LSORBIT =      F    spin-orbit coupling
   INIWAV =      1    electr: 0-lowe 1-rand  2-diag
   LASPH  =      F    aspherical Exc in radial PAW
   METAGGA=      F    non-selfconsistent MetaGGA calc.

 Electronic Relaxation 1
   ENCUT  =  249.8 eV  18.36 Ry    4.29 a.u.  25.12 25.12 25.12*2*pi/ulx,y,z
   ENINI  =  249.8     initial cutoff
   ENAUG  =  412.5 eV  augmentation charge cutoff
   NELM   =     60;   NELMIN=  2; NELMDL= -5     # of ELM steps 
   EDIFF  = 0.1E-03   stopping-criterion for ELM
   LREAL  =      F    real-space projection
   NLSPLINE    = F    spline interpolate recip. space projectors
   LCOMPAT=      F    compatible to vasp.4.4
   GGA_COMPAT  = T    GGA compatible to vasp.4.4-vasp.4.6
   LMAXPAW     = -100 max onsite density
   LMAXMIX     =    2 max onsite mixed and CHGCAR
   VOSKOWN=      0    Vosko Wilk Nusair interpolation
   ROPT   =    0.00000
 Ionic relaxation
   EDIFFG = 0.1E-02   stopping-criterion for IOM
   NSW    =   1000    number of steps for IOM
   NBLOCK =      1;   KBLOCK =   1000    inner block; outer block 
   IBRION =      2    ionic relax: 0-MD 1-quasi-New 2-CG
   NFREE  =      1    steps in history (QN), initial steepest desc. (CG)
   ISIF   =      2    stress and relaxation
   IWAVPR =     11    prediction:  0-non 1-charg 2-wave 3-comb
   ISYM   =      2    0-nonsym 1-usesym 2-fastsym
   LCORR  =      T    Harris-Foulkes like correction to forces

   POTIM  = 0.1000    time-step for ionic-motion
   TEIN   =    0.0    initial temperature
   TEBEG  =    0.0;   TEEND  =   0.0 temperature during run
   SMASS  =  -3.00    Nose mass-parameter (am)
   estimated Nose-frequenzy (Omega)   =  0.10E-29 period in steps =****** mass=  -0.868E-26a.u.
   SCALEE = 1.0000    scale energy and forces
   NPACO  =    256;   APACO  = 16.0  distance and # of slots for P.C.
   PSTRESS=    0.0 pullay stress

  Mass of Ions in am
   POMASS = 107.87
  Ionic Valenz
   ZVAL   =  11.00
  Atomic Wigner-Seitz radii
   RWIGS  =  -1.00
  virtual crystal weights 
   VCA    =   1.00
   NELECT =     110.0000    total number of electrons
   NUPDOWN=      -1.0000    fix difference up-down

 DOS related values:
   EMIN   =  10.00;   EMAX   =-10.00  energy-range for DOS
   EFERMI =   0.00
   ISMEAR =     0;   SIGMA  =   0.00  broadening in eV -4-tet -1-fermi 0-gaus

 Electronic relaxation 2 (details)
   IALGO  =     38    algorithm
   LDIAG  =      T    sub-space diagonalisation (order eigenvalues)
   LSUBROT=      F    optimize rotation matrix (better conditioning)
   TURBO    =      0    0=normal 1=particle mesh
   IRESTART =      0    0=no restart 2=restart with 2 vectors
   NREBOOT  =      0    no. of reboots
   NMIN     =      0    reboot dimension
   EREF     =   0.00    reference energy to select bands
   IMIX   =      4    mixing-type and parameters
     AMIX     =   0.40;   BMIX     =  1.00
     AMIX_MAG =   1.60;   BMIX_MAG =  1.00
     AMIN     =   0.10
     WC   =   100.;   INIMIX=   1;  MIXPRE=   1;  MAXMIX= -45

 Intra band minimization:
   WEIMIN = 0.0010     energy-eigenvalue tresh-hold
   EBREAK =  0.35E-06  absolut break condition
   DEPER  =   0.30     relativ break condition  

   TIME   =   0.40     timestep for ELM

  volume/ion in A,a.u.               =     740.82      4999.27
  Fermi-wavevector in a.u.,A,eV,Ry     =   0.402379  0.760387  2.202907  0.161909
  Thomas-Fermi vector in A             =   1.352607
 
 Write flags
   LWAVE  =      F    write WAVECAR
   LCHARG =      F    write CHGCAR
   LVTOT  =      F    write LOCPOT, total local potential
   LVHAR  =      F    write LOCPOT, Hartree potential only
   LELF   =      F    write electronic localiz. function (ELF)
   LORBIT =      0    0 simple, 1 ext, 2 COOP (PROOUT)


 Dipole corrections
   LMONO  =      F    monopole corrections only (constant potential shift)
   LDIPOL =      F    correct potential (dipole corrections)
   IDIPOL =      0    1-x, 2-y, 3-z, 4-all directions 
   EPSILON=  1.0000000 bulk dielectric constant

 Exchange correlation treatment:
   GGA     =    PE    GGA type
   LEXCH   =     8    internal setting for exchange type
   VOSKOWN=      0    Vosko Wilk Nusair interpolation
   LHFCALC =     F    Hartree Fock is set to
   LHFONE  =     F    Hartree Fock one center treatment
   AEXX    =    0.0000 exact exchange contribution

 Linear response parameters
   LEPSILON=     F    determine dielectric tensor
   LRPA    =     F    only Hartree local field effects (RPA)
   LNABLA  =     F    use nabla operator in PAW spheres
   LVEL    =     F    velocity operator in full k-point grid
   LINTERFAST=   F  fast interpolation
   KINTER  =     0    interpolate to denser k-point grid
   CSHIFT  =0.1000    complex shift for real part using Kramers Kronig
   OMEGAMAX=  -1.0    maximum frequency
   DEG_THRESHOLD= 0.2000000E-02 threshold for treating states as degnerate
   RTIME   =    0.100 relaxation time in fs

 Orbital magnetization related:
   ORBITALMAG=     F  switch on orbital magnetization
   LCHIMAG   =     F  perturbation theory with respect to B field
   DQ        =  0.001000  dq finite difference perturbation B field



--------------------------------------------------------------------------------------------------------


 conjugate gradient relaxation of ions
 charge density and potential will be updated during run
 spin polarized calculation
 Variant of blocked Davidson
 Davidson routine will perform the subspace rotation
 perform sub-space diagonalisation
    after iterative eigenvector-optimisation
 modified Broyden-mixing scheme, WC =      100.0
 initial mixing is a Kerker type mixing with AMIX =  0.4000 and BMIX =      1.0000
 Hartree-type preconditioning will be used
 using additional bands           17
 reciprocal scheme for non local part
 use partial core corrections
 calculate Harris-corrections to forces 
   (improved forces if not selfconsistent)
 use gradient corrections 
 use of overlap-Matrix (Vanderbilt PP)
 Gauss-broadening in eV      SIGMA  =   0.00


--------------------------------------------------------------------------------------------------------


  energy-cutoff  :      249.84
  volume of cell :     7408.16
      direct lattice vectors                 reciprocal lattice vectors
    19.494110992  0.000000000  0.000000000     0.051297543  0.000000000  0.000000000
     0.000000000 19.494110992  0.000000000     0.000000000  0.051297543  0.000000000
     0.000000000  0.000000000 19.494110992     0.000000000  0.000000000  0.051297543

  length of vectors
    19.494110992 19.494110992 19.494110992     0.051297543  0.051297543  0.051297543


 
 k-points in units of 2pi/SCALE and weight: Gamma-point only                        
   0.00000000  0.00000000  0.00000000       1.000
 
 k-points in reciprocal lattice and weights: Gamma-point only                        
   0.00000000  0.00000000  0.00000000       1.000
 
 position of ions in fractional coordinates (direct lattice) 
   0.47392833  0.55063726  0.31117745
   0.45954462  0.43542391  0.39592035
   0.57934963  0.50668732  0.39904956
   0.45528934  0.56908224  0.45161063
   0.39594778  0.45008256  0.52242779
   0.58282403  0.57754908  0.52284181
   0.53938228  0.43818477  0.51763976
   0.46017001  0.55547784  0.59122666
   0.47105016  0.41822010  0.64379662
   0.58251381  0.49865491  0.64430938
 
 position of ions in cartesian coordinates  (Angst):
   9.23881147 10.73418393  6.06612767
   8.95841392  8.48820205  7.71811521
  11.29390608  9.87741893  7.77911641
   8.87546101 11.09375240  8.80374771
   7.71864992  8.77395931 10.18426532
  11.36163632 11.25880595 10.19233619
  10.51477796  8.54202262 10.09092691
   8.97060518 10.82854669 11.52543817
   9.18270415  8.15282901 12.55024270
  11.35558895  9.72083407 12.56023866
 


--------------------------------------------------------------------------------------------------------


 use parallel FFT for wavefunctions z direction half grid
 k-point  1 :   0.0000 0.0000 0.0000  plane waves:   33270

 maximum and minimum number of plane-waves per node :      4162     4155

 maximum number of plane-waves:     33270
 maximum index in each direction: 
   IXMAX=   25   IYMAX=   25   IZMAX=   25
   IXMIN=  -25   IYMIN=  -25   IZMIN=    0

 WARNING: aliasing errors must be expected set NGX to 102 to avoid them
 WARNING: aliasing errors must be expected set NGY to 102 to avoid them
 WARNING: aliasing errors must be expected set NGZ to 102 to avoid them
 aliasing errors are usually negligible using standard VASP settings
 and one can safely disregard these warnings

 parallel 3D FFT for wavefunctions:
    minimum data exchange during FFTs selected (reduces bandwidth)
 parallel 3D FFT for charge:
    minimum data exchange during FFTs selected (reduces bandwidth)


 total amount of memory used by VASP on root node    53920. kBytes
========================================================================

   base      :      30000. kBytes
   nonl-proj :       1264. kBytes
   fftplans  :       5768. kBytes
   grid      :      14451. kBytes
   one-center:         31. kBytes
   wavefun   :       2406. kBytes
 
     INWAV:  cpu time    0.00: real time    0.00
 Broyden mixing: mesh for mixing (old mesh)
   NGX = 51   NGY = 51   NGZ = 51
  (NGX  =160   NGY  =160   NGZ  =160)
  gives a total of 132651 points

 initial charge density was supplied:
 charge density of overlapping atoms calculated
 number of electron     110.0000000 magnetization      10.0000000
 keeping initial charge density in first step


--------------------------------------------------------------------------------------------------------


 Maximum index for augmentation-charges          268 (set IRDMAX)


--------------------------------------------------------------------------------------------------------


 First call to EWALD:  gamma=   0.091
 Maximum number of real-space cells 3x 3x 3
 Maximum number of reciprocal cells 3x 3x 3

 FEWALD executed in parallel
    FEWALD:  cpu time    0.00: real time    0.00


----------------------------------------- Iteration    1(   1)  ---------------------------------------


    POTLOK:  cpu time    0.24: real time    0.23
    SETDIJ:  cpu time    0.01: real time    0.01
     EDDAV:  cpu time    0.64: real time    0.65
       DOS:  cpu time    0.00: real time    0.00
    --------------------------------------------
      LOOP:  cpu time    0.89: real time    0.91

 eigenvalue-minimisations  :   288
 total energy-change (2. order) : 0.9715629E+03  (-0.1596011E+04)
 number of electron     110.0000000 magnetization      10.0000000
 augmentation part      110.0000000 magnetization      10.0000000

 Free energy of the ion-electron system (eV)
  ---------------------------------------------------
  alpha Z        PSCENC =        11.48163873
  Ewald energy   TEWEN  =     10393.63740851
  -Hartree energ DENC   =    -20307.00524517
  -exchange      EXHF   =         0.00000000
  -V(xc)+E(xc)   XCENC  =      -112.16226853
  PAW double counting   =     10033.72178070    -9572.64608879
  entropy T*S    EENTRO =         0.00000000
  eigenvalues    EBANDS =       152.54932819
  atomic energy  EATOM  =     10371.98630086
  ---------------------------------------------------
  free energy    TOTEN  =       971.56285451 eV

  energy without entropy =      971.56285451  energy(sigma->0) =      971.56285451


--------------------------------------------------------------------------------------------------------




----------------------------------------- Iteration    1(   2)  ---------------------------------------


     EDDAV:  cpu time    1.08: real time    1.08
       DOS:  cpu time    0.00: real time    0.00
    --------------------------------------------
      LOOP:  cpu time    1.08: real time    1.08

 eigenvalue-minimisations  :   552
 total energy-change (2. order) :-0.5551481E+03  (-0.4866263E+03)
 number of electron     110.0000000 magnetization      10.0000000
 augmentation part      110.0000000 magnetization      10.0000000

 Free energy of the ion-electron system (eV)
  ---------------------------------------------------
  alpha Z        PSCENC =        11.48163873
  Ewald energy   TEWEN  =     10393.63740851
  -Hartree energ DENC   =    -20307.00524517
  -exchange      EXHF   =         0.00000000
  -V(xc)+E(xc)   XCENC  =      -112.16226853
  PAW double counting   =     10033.72178070    -9572.64608879
  entropy T*S    EENTRO =         0.00000000
  eigenvalues    EBANDS =      -402.59879369
  atomic energy  EATOM  =     10371.98630086
  ---------------------------------------------------
  free energy    TOTEN  =       416.41473263 eV

  energy without entropy =      416.41473263  energy(sigma->0) =      416.41473263


--------------------------------------------------------------------------------------------------------




----------------------------------------- Iteration    1(   3)  ---------------------------------------


     EDDAV:  cpu time    0.91: real time    0.91
       DOS:  cpu time    0.00: real time    0.00
    --------------------------------------------
      LOOP:  cpu time    0.91: real time    0.92

 eigenvalue-minimisations  :   440
 total energy-change (2. order) :-0.3803456E+03  (-0.3535963E+03)
 number of electron     110.0000000 magnetization      10.0000000
 augmentation part      110.0000000 magnetization      10.0000000

 Free energy of the ion-electron system (eV)
  ---------------------------------------------------
  alpha Z        PSCENC =        11.48163873
  Ewald energy   TEWEN  =     10393.63740851
  -Hartree energ DENC   =    -20307.00524517
  -exchange      EXHF   =         0.00000000
  -V(xc)+E(xc)   XCENC  =      -112.16226853
  PAW double counting   =     10033.72178070    -9572.64608879
  entropy T*S    EENTRO =         0.00000000
  eigenvalues    EBANDS =      -782.94439037
  atomic energy  EATOM  =     10371.98630086
  ---------------------------------------------------
  free energy    TOTEN  =        36.06913595 eV

  energy without entropy =       36.06913595  energy(sigma->0) =       36.06913595


--------------------------------------------------------------------------------------------------------




----------------------------------------- Iteration    1(   4)  ---------------------------------------


     EDDAV:  cpu time    0.80: real time    0.80
       DOS:  cpu time    0.00: real time    0.00
    --------------------------------------------
      LOOP:  cpu time    0.80: real time    0.81

 eigenvalue-minimisations  :   376
 total energy-change (2. order) :-0.5202340E+02  (-0.4535350E+02)
 number of electron     110.0000000 magnetization      10.0000000
 augmentation part      110.0000000 magnetization      10.0000000

 Free energy of the ion-electron system (eV)
  ---------------------------------------------------
  alpha Z        PSCENC =        11.48163873
  Ewald energy   TEWEN  =     10393.63740851
  -Hartree energ DENC   =    -20307.00524517
  -exchange      EXHF   =         0.00000000
  -V(xc)+E(xc)   XCENC  =      -112.16226853
  PAW double counting   =     10033.72178070    -9572.64608879
  entropy T*S    EENTRO =         0.00000000
  eigenvalues    EBANDS =      -834.96779459
  atomic energy  EATOM  =     10371.98630086
  ---------------------------------------------------
  free energy    TOTEN  =       -15.95426827 eV

  energy without entropy =      -15.95426827  energy(sigma->0) =      -15.95426827


--------------------------------------------------------------------------------------------------------




----------------------------------------- Iteration    1(   5)  ---------------------------------------


     EDDAV:  cpu time    0.69: real time    0.69
       DOS:  cpu time    0.00: real time    0.00
    CHARGE:  cpu time    0.05: real time    0.05
    MIXING:  cpu time    0.01: real time    0.01
    --------------------------------------------
      LOOP:  cpu time    0.75: real time    0.76

 eigenvalue-minimisations  :   312
 total energy-change (2. order) :-0.1894563E+01  (-0.1871156E+01)
 number of electron     110.0000210 magnetization       8.4942634
 augmentation part       52.1485556 magnetization       8.6878893

 Broyden mixing:
  rms(total) = 0.17103E+01    rms(broyden)= 0.17100E+01
  rms(prec ) = 0.17468E+01
  weight for this iteration     100.00

 Free energy of the ion-electron system (eV)
  ---------------------------------------------------
  alpha Z        PSCENC =        11.48163873
  Ewald energy   TEWEN  =     10393.63740851
  -Hartree energ DENC   =    -20307.00524517
  -exchange      EXHF   =         0.00000000
  -V(xc)+E(xc)   XCENC  =      -112.16226853
  PAW double counting   =     10033.72178070    -9572.64608879
  entropy T*S    EENTRO =         0.00000000
  eigenvalues    EBANDS =      -836.86235742
  atomic energy  EATOM  =     10371.98630086
  ---------------------------------------------------
  free energy    TOTEN  =       -17.84883110 eV

  energy without entropy =      -17.84883110  energy(sigma->0) =      -17.84883110


--------------------------------------------------------------------------------------------------------




----------------------------------------- Iteration    1(   6)  ---------------------------------------


    POTLOK:  cpu time    0.23: real time    0.23
    SETDIJ:  cpu time    0.00: real time    0.01
     EDDAV:  cpu time    0.66: real time    0.66
       DOS:  cpu time    0.00: real time    0.00
    CHARGE:  cpu time    0.05: real time    0.05
    MIXING:  cpu time    0.01: real time    0.01
    --------------------------------------------
      LOOP:  cpu time    0.94: real time    0.95

 eigenvalue-minimisations  :   288
 total energy-change (2. order) : 0.1646240E+02  (-0.4582995E+01)
 number of electron     110.0000216 magnetization       7.5989161
 augmentation part       53.0694901 magnetization       4.8890501

 Broyden mixing:
  rms(total) = 0.80111E+00    rms(broyden)= 0.80101E+00
  rms(prec ) = 0.81965E+00
  weight for this iteration     100.00

 eigenvalues of (default mixing * dielectric matrix)
  average eigenvalue GAMMA=   0.8436
  0.8436

 Free energy of the ion-electron system (eV)
  ---------------------------------------------------
  alpha Z        PSCENC =        11.48163873
  Ewald energy   TEWEN  =     10393.63740851
  -Hartree energ DENC   =    -20280.79399613
  -exchange      EXHF   =         0.00000000
  -V(xc)+E(xc)   XCENC  =      -102.76184274
  PAW double counting   =     10318.06676270    -9862.81034716
  entropy T*S    EENTRO =         0.00000000
  eigenvalues    EBANDS =      -850.19235722
  atomic energy  EATOM  =     10371.98630086
  ---------------------------------------------------
  free energy    TOTEN  =        -1.38643244 eV

  energy without entropy =       -1.38643244  energy(sigma->0) =       -1.38643244


--------------------------------------------------------------------------------------------------------




----------------------------------------- Iteration    1(   7)  ---------------------------------------


    POTLOK:  cpu time    0.23: real time    0.23
    SETDIJ:  cpu time    0.00: real time    0.01
     EDDAV:  cpu time    0.70: real time    0.70
       DOS:  cpu time    0.00: real time    0.00
    CHARGE:  cpu time    0.05: real time    0.05
    MIXING:  cpu time    0.01: real time    0.01
    --------------------------------------------
      LOOP:  cpu time    0.98: real time    0.99

 eigenvalue-minimisations  :   312
 total energy-change (2. order) : 0.3653584E+00  (-0.2210218E+00)
 number of electron     110.0000216 magnetization       6.3670158
 augmentation part       53.0048334 magnetization       3.8002145

 Broyden mixing:
  rms(total) = 0.45216E+00    rms(broyden)= 0.45214E+00
  rms(prec ) = 0.46344E+00
  weight for this iteration     100.00

 eigenvalues of (default mixing * dielectric matrix)
  average eigenvalue GAMMA=   0.9415
  0.7537  1.1293

 Free energy of the ion-electron system (eV)
  ---------------------------------------------------
  alpha Z        PSCENC =        11.48163873
  Ewald energy   TEWEN  =     10393.63740851
  -Hartree energ DENC   =    -20302.23730189
  -exchange      EXHF   =         0.00000000
  -V(xc)+E(xc)   XCENC  =      -102.05071033
  PAW double counting   =     10489.65840262   -10038.28443005
  entropy T*S    EENTRO =         0.00000000
  eigenvalues    EBANDS =      -825.21238245
  atomic energy  EATOM  =     10371.98630086
  ---------------------------------------------------
  free energy    TOTEN  =        -1.02107400 eV

  energy without entropy =       -1.02107400  energy(sigma->0) =       -1.02107400


--------------------------------------------------------------------------------------------------------




----------------------------------------- Iteration    1(   8)  ---------------------------------------


    POTLOK:  cpu time    0.23: real time    0.23
    SETDIJ:  cpu time    0.01: real time    0.01
     EDDAV:  cpu time    0.68: real time    0.68
       DOS:  cpu time    0.00: real time    0.00
    CHARGE:  cpu time    0.05: real time    0.05
    MIXING:  cpu time    0.01: real time    0.01
    --------------------------------------------
      LOOP:  cpu time    0.97: real time    0.98

 eigenvalue-minimisations  :   304
 total energy-change (2. order) :-0.3313069E+01  (-0.1621183E+00)
 number of electron     110.0000215 magnetization       5.4838939
 augmentation part       52.9133676 magnetization       3.0370026

 Broyden mixing:
  rms(total) = 0.22890E+00    rms(broyden)= 0.22889E+00
  rms(prec ) = 0.23327E+00
  weight for this iteration     100.00

 eigenvalues of (default mixing * dielectric matrix)
  average eigenvalue GAMMA=   1.1702
  1.9733  0.9135  0.6239

 Free energy of the ion-electron system (eV)
  ---------------------------------------------------
  alpha Z        PSCENC =        11.48163873
  Ewald energy   TEWEN  =     10393.63740851
  -Hartree energ DENC   =    -20323.31375836
  -exchange      EXHF   =         0.00000000
  -V(xc)+E(xc)   XCENC  =      -104.35837861
  PAW double counting   =     10667.61047976   -10219.90544439
  entropy T*S    EENTRO =         0.00000000
  eigenvalues    EBANDS =      -801.47238959
  atomic energy  EATOM  =     10371.98630086
  ---------------------------------------------------
  free energy    TOTEN  =        -4.33414308 eV

  energy without entropy =       -4.33414308  energy(sigma->0) =       -4.33414308


--------------------------------------------------------------------------------------------------------




----------------------------------------- Iteration    1(   9)  ---------------------------------------


    POTLOK:  cpu time    0.22: real time    0.23
    SETDIJ:  cpu time    0.01: real time    0.01
     EDDAV:  cpu time    0.70: real time    0.70
       DOS:  cpu time    0.00: real time    0.00
    CHARGE:  cpu time    0.05: real time    0.05
    MIXING:  cpu time    0.01: real time    0.01
    --------------------------------------------
      LOOP:  cpu time    0.99: real time    1.00

 eigenvalue-minimisations  :   312
 total energy-change (2. order) :-0.2856249E+01  (-0.8649386E-01)
 number of electron     110.0000214 magnetization       4.7138222
 augmentation part       52.9023136 magnetization       2.3528283

 Broyden mixing:
  rms(total) = 0.12941E+00    rms(broyden)= 0.12940E+00
  rms(prec ) = 0.13442E+00
  weight for this iteration     100.00

 eigenvalues of (default mixing * dielectric matrix)
  average eigenvalue GAMMA=   1.1890
  1.9794  0.6220  0.8090  1.3455

 Free energy of the ion-electron system (eV)
  ---------------------------------------------------
  alpha Z        PSCENC =        11.48163873
  Ewald energy   TEWEN  =     10393.63740851
  -Hartree energ DENC   =    -20328.70962194
  -exchange      EXHF   =         0.00000000
  -V(xc)+E(xc)   XCENC  =      -106.54253603
  PAW double counting   =     10735.01710267   -10288.71685519
  entropy T*S    EENTRO =         0.00000000
  eigenvalues    EBANDS =      -795.34382945
  atomic energy  EATOM  =     10371.98630086
  ---------------------------------------------------
  free energy    TOTEN  =        -7.19039184 eV

  energy without entropy =       -7.19039184  energy(sigma->0) =       -7.19039184


--------------------------------------------------------------------------------------------------------




----------------------------------------- Iteration    1(  10)  ---------------------------------------


    POTLOK:  cpu time    0.22: real time    0.23
    SETDIJ:  cpu time    0.01: real time    0.01
     EDDAV:  cpu time    0.66: real time    0.66
       DOS:  cpu time    0.00: real time    0.00
    CHARGE:  cpu time    0.05: real time    0.05
    MIXING:  cpu time    0.00: real time    0.01
    --------------------------------------------
      LOOP:  cpu time    0.95: real time    0.96

 eigenvalue-minimisations  :   288
 total energy-change (2. order) :-0.3559753E+01  (-0.1222149E+00)
 number of electron     110.0000212 magnetization       4.7101906
 augmentation part       52.9358574 magnetization       4.4315096

 Broyden mixing:
  rms(total) = 0.23703E+00    rms(broyden)= 0.23687E+00
  rms(prec ) = 0.25788E+00
  weight for this iteration     100.00

 eigenvalues of (default mixing * dielectric matrix)
  average eigenvalue GAMMA=   0.9711
  2.0108  1.3396  0.6233  0.8138  0.0680

 Free energy of the ion-electron system (eV)
  ---------------------------------------------------
  alpha Z        PSCENC =        11.48163873
  Ewald energy   TEWEN  =     10393.63740851
  -Hartree energ DENC   =    -20326.27634927
  -exchange      EXHF   =         0.00000000
  -V(xc)+E(xc)   XCENC  =      -109.21040159
  PAW double counting   =     10733.28530903   -10287.13959466
  entropy T*S    EENTRO =         0.00000000
  eigenvalues    EBANDS =      -798.51445621
  atomic energy  EATOM  =     10371.98630086
  ---------------------------------------------------
  free energy    TOTEN  =       -10.75014460 eV

  energy without entropy =      -10.75014460  energy(sigma->0) =      -10.75014460


--------------------------------------------------------------------------------------------------------




----------------------------------------- Iteration    1(  11)  ---------------------------------------


    POTLOK:  cpu time    0.22: real time    0.23
    SETDIJ:  cpu time    0.01: real time    0.01
     EDDAV:  cpu time    0.75: real time    0.75
       DOS:  cpu time    0.00: real time    0.00
    CHARGE:  cpu time    0.05: real time    0.05
    MIXING:  cpu time    0.01: real time    0.01
    --------------------------------------------
      LOOP:  cpu time    1.04: real time    1.05

 eigenvalue-minimisations  :   344
 total energy-change (2. order) : 0.6502581E-01  (-0.2227530E-02)
 number of electron     110.0000212 magnetization       4.7326768
 augmentation part       52.9274986 magnetization       4.4627479

 Broyden mixing:
  rms(total) = 0.23547E+00    rms(broyden)= 0.23547E+00
  rms(prec ) = 0.25644E+00
  weight for this iteration     100.00

 eigenvalues of (default mixing * dielectric matrix)
  average eigenvalue GAMMA=   0.8343
  2.1142  1.2469  0.6222  0.8155  0.1152  0.0916

 Free energy of the ion-electron system (eV)
  ---------------------------------------------------
  alpha Z        PSCENC =        11.48163873
  Ewald energy   TEWEN  =     10393.63740851
  -Hartree energ DENC   =    -20326.29804131
  -exchange      EXHF   =         0.00000000
  -V(xc)+E(xc)   XCENC  =      -109.13819305
  PAW double counting   =     10733.37713758   -10287.23381258
  entropy T*S    EENTRO =         0.00000000
  eigenvalues    EBANDS =      -798.49755754
  atomic energy  EATOM  =     10371.98630086
  ---------------------------------------------------
  free energy    TOTEN  =       -10.68511879 eV

  energy without entropy =      -10.68511879  energy(sigma->0) =      -10.68511879


--------------------------------------------------------------------------------------------------------




----------------------------------------- Iteration    1(  12)  ---------------------------------------


    POTLOK:  cpu time    0.23: real time    0.23
    SETDIJ:  cpu time    0.00: real time    0.01
     EDDAV:  cpu time    0.68: real time    0.68
       DOS:  cpu time    0.00: real time    0.00
    CHARGE:  cpu time    0.05: real time    0.05
    MIXING:  cpu time    0.01: real time    0.01
    --------------------------------------------
      LOOP:  cpu time    0.98: real time    0.98

 eigenvalue-minimisations  :   304
 total energy-change (2. order) : 0.1246263E-01  (-0.1002118E-02)
 number of electron     110.0000212 magnetization       4.5792394
 augmentation part       52.9091126 magnetization       4.3015165

 Broyden mixing:
  rms(total) = 0.23985E+00    rms(broyden)= 0.23985E+00
  rms(prec ) = 0.26150E+00
  weight for this iteration     100.00

 eigenvalues of (default mixing * dielectric matrix)
  average eigenvalue GAMMA=   0.7757
  2.0881  1.2662  0.8143  0.6194  0.2322  0.2322  0.1776

 Free energy of the ion-electron system (eV)
  ---------------------------------------------------
  alpha Z        PSCENC =        11.48163873
  Ewald energy   TEWEN  =     10393.63740851
  -Hartree energ DENC   =    -20328.38069358
  -exchange      EXHF   =         0.00000000
  -V(xc)+E(xc)   XCENC  =      -109.08275826
  PAW double counting   =     10749.84333104   -10303.78701223
  entropy T*S    EENTRO =         0.00000000
  eigenvalues    EBANDS =      -796.37087123
  atomic energy  EATOM  =     10371.98630086
  ---------------------------------------------------
  free energy    TOTEN  =       -10.67265616 eV

  energy without entropy =      -10.67265616  energy(sigma->0) =      -10.67265616


--------------------------------------------------------------------------------------------------------




----------------------------------------- Iteration    1(  13)  ---------------------------------------


    POTLOK:  cpu time    0.23: real time    0.23
    SETDIJ:  cpu time    0.00: real time    0.01
     EDDAV:  cpu time    0.67: real time    0.67
       DOS:  cpu time    0.00: real time    0.00
    CHARGE:  cpu time    0.05: real time    0.05
    MIXING:  cpu time    0.01: real time    0.01
    --------------------------------------------
      LOOP:  cpu time    0.96: real time    0.96

 eigenvalue-minimisations  :   296
 total energy-change (2. order) :-0.3318498E+00  (-0.4158452E-02)
 number of electron     110.0000212 magnetization       3.3931028
 augmentation part       52.9351649 magnetization       3.1387818

 Broyden mixing:
  rms(total) = 0.22968E+00    rms(broyden)= 0.22968E+00
  rms(prec ) = 0.25026E+00
  weight for this iteration     100.00

 eigenvalues of (default mixing * dielectric matrix)
  average eigenvalue GAMMA=   0.9874
  2.3522  1.1555  1.1555  1.1251  0.8393  0.6411  0.3154  0.3154

 Free energy of the ion-electron system (eV)
  ---------------------------------------------------
  alpha Z        PSCENC =        11.48163873
  Ewald energy   TEWEN  =     10393.63740851
  -Hartree energ DENC   =    -20325.46790253
  -exchange      EXHF   =         0.00000000
  -V(xc)+E(xc)   XCENC  =      -109.37767996
  PAW double counting   =     10718.66209599   -10272.66284626
  entropy T*S    EENTRO =         0.00000000
  eigenvalues    EBANDS =      -799.26352132
  atomic energy  EATOM  =     10371.98630086
  ---------------------------------------------------
  free energy    TOTEN  =       -11.00450597 eV

  energy without entropy =      -11.00450597  energy(sigma->0) =      -11.00450597


--------------------------------------------------------------------------------------------------------




----------------------------------------- Iteration    1(  14)  ---------------------------------------


    POTLOK:  cpu time    0.23: real time    0.23
    SETDIJ:  cpu time    0.00: real time    0.01
     EDDAV:  cpu time    0.67: real time    0.67
       DOS:  cpu time    0.00: real time    0.00
    CHARGE:  cpu time    0.05: real time    0.05
    MIXING:  cpu time    0.01: real time    0.01
    --------------------------------------------
      LOOP:  cpu time    0.96: real time    0.96

 eigenvalue-minimisations  :   296
 total energy-change (2. order) :-0.2129187E+01  (-0.1173249E+00)
 number of electron     110.0000213 magnetization       1.9465322
 augmentation part       53.0644241 magnetization       1.8234363

 Broyden mixing:
  rms(total) = 0.32885E+00    rms(broyden)= 0.32885E+00
  rms(prec ) = 0.34246E+00
  weight for this iteration     100.00

 eigenvalues of (default mixing * dielectric matrix)
  average eigenvalue GAMMA=   1.1545
  2.9673  1.8614  1.8614  1.0364  0.7756  0.5942  0.5942  0.3499  0.3499

 Free energy of the ion-electron system (eV)
  ---------------------------------------------------
  alpha Z        PSCENC =        11.48163873
  Ewald energy   TEWEN  =     10393.63740851
  -Hartree energ DENC   =    -20311.19379641
  -exchange      EXHF   =         0.00000000
  -V(xc)+E(xc)   XCENC  =      -111.20250741
  PAW double counting   =     10531.25383272   -10085.91858428
  entropy T*S    EENTRO =        -0.00000000
  eigenvalues    EBANDS =      -813.17798591
  atomic energy  EATOM  =     10371.98630086
  ---------------------------------------------------
  free energy    TOTEN  =       -13.13369319 eV

  energy without entropy =      -13.13369319  energy(sigma->0) =      -13.13369319


--------------------------------------------------------------------------------------------------------




----------------------------------------- Iteration    1(  15)  ---------------------------------------


    POTLOK:  cpu time    0.23: real time    0.23
    SETDIJ:  cpu time    0.00: real time    0.01
     EDDAV:  cpu time    0.70: real time    0.71
       DOS:  cpu time    0.00: real time    0.00
    CHARGE:  cpu time    0.05: real time    0.05
    MIXING:  cpu time    0.01: real time    0.01
    --------------------------------------------
      LOOP:  cpu time    1.00: real time    1.00

 eigenvalue-minimisations  :   320
 total energy-change (2. order) :-0.1882669E+01  (-0.1225495E+00)
 number of electron     110.0000214 magnetization       1.0982291
 augmentation part       53.1674615 magnetization       1.0953131

 Broyden mixing:
  rms(total) = 0.49715E+00    rms(broyden)= 0.49715E+00
  rms(prec ) = 0.51277E+00
  weight for this iteration     100.00

 eigenvalues of (default mixing * dielectric matrix)
  average eigenvalue GAMMA=   1.2552
  3.9788  1.9164  1.9164  0.9802  0.8629  0.8629  0.7312  0.6160  0.3434  0.3434

 Free energy of the ion-electron system (eV)
  ---------------------------------------------------
  alpha Z        PSCENC =        11.48163873
  Ewald energy   TEWEN  =     10393.63740851
  -Hartree energ DENC   =    -20298.91554180
  -exchange      EXHF   =         0.00000000
  -V(xc)+E(xc)   XCENC  =      -112.77770551
  PAW double counting   =     10354.92422225    -9910.09846996
  entropy T*S    EENTRO =         0.00000000
  eigenvalues    EBANDS =      -825.25421485
  atomic energy  EATOM  =     10371.98630086
  ---------------------------------------------------
  free energy    TOTEN  =       -15.01636176 eV

  energy without entropy =      -15.01636176  energy(sigma->0) =      -15.01636176


--------------------------------------------------------------------------------------------------------




----------------------------------------- Iteration    1(  16)  ---------------------------------------


    POTLOK:  cpu time    0.23: real time    0.23
    SETDIJ:  cpu time    0.01: real time    0.01
     EDDAV:  cpu time    0.68: real time    0.68
       DOS:  cpu time    0.00: real time    0.00
    CHARGE:  cpu time    0.05: real time    0.05
    MIXING:  cpu time    0.01: real time    0.01
    --------------------------------------------
      LOOP:  cpu time    0.97: real time    0.98

 eigenvalue-minimisations  :   304
 total energy-change (2. order) :-0.9092895E+00  (-0.2361198E-01)
 number of electron     110.0000214 magnetization       0.5717897
 augmentation part       53.1695150 magnetization       0.6136403

 Broyden mixing:
  rms(total) = 0.50000E+00    rms(broyden)= 0.50000E+00
  rms(prec ) = 0.51495E+00
  weight for this iteration     100.00

 eigenvalues of (default mixing * dielectric matrix)
  average eigenvalue GAMMA=   1.2813
  4.3467  1.8077  1.6772  1.6772  1.0082  1.0082  0.6413  0.6191  0.6191  0.3446
  0.3446

 Free energy of the ion-electron system (eV)
  ---------------------------------------------------
  alpha Z        PSCENC =        11.48163873
  Ewald energy   TEWEN  =     10393.63740851
  -Hartree energ DENC   =    -20297.15767260
  -exchange      EXHF   =         0.00000000
  -V(xc)+E(xc)   XCENC  =      -113.55346142
  PAW double counting   =     10331.47372314    -9886.58705493
  entropy T*S    EENTRO =         0.00000000
  eigenvalues    EBANDS =      -827.20653353
  atomic energy  EATOM  =     10371.98630086
  ---------------------------------------------------
  free energy    TOTEN  =       -15.92565122 eV

  energy without entropy =      -15.92565122  energy(sigma->0) =      -15.92565122


--------------------------------------------------------------------------------------------------------




----------------------------------------- Iteration    1(  17)  ---------------------------------------


    POTLOK:  cpu time    0.23: real time    0.23
    SETDIJ:  cpu time    0.01: real time    0.01
     EDDAV:  cpu time    0.70: real time    0.71
       DOS:  cpu time    0.00: real time    0.00
    CHARGE:  cpu time    0.05: real time    0.05
    MIXING:  cpu time    0.01: real time    0.01
    --------------------------------------------
      LOOP:  cpu time    1.00: real time    1.00

 eigenvalue-minimisations  :   320
 total energy-change (2. order) :-0.6235304E+00  (-0.7938495E-02)
 number of electron     110.0000214 magnetization       0.1116656
 augmentation part       53.1529322 magnetization       0.1704309

 Broyden mixing:
  rms(total) = 0.45760E+00    rms(broyden)= 0.45760E+00
  rms(prec ) = 0.47146E+00
  weight for this iteration     100.00

 eigenvalues of (default mixing * dielectric matrix)
  average eigenvalue GAMMA=   1.4312
  5.4024  2.2377  2.0208  2.0208  1.1495  0.9121  0.7457  0.7457  0.6561  0.5945
  0.3443  0.3443

 Free energy of the ion-electron system (eV)
  ---------------------------------------------------
  alpha Z        PSCENC =        11.48163873
  Ewald energy   TEWEN  =     10393.63740851
  -Hartree energ DENC   =    -20297.40488428
  -exchange      EXHF   =         0.00000000
  -V(xc)+E(xc)   XCENC  =      -114.12099143
  PAW double counting   =     10356.88887603    -9911.65094085
  entropy T*S    EENTRO =         0.00000000
  eigenvalues    EBANDS =      -827.36658922
  atomic energy  EATOM  =     10371.98630086
  ---------------------------------------------------
  free energy    TOTEN  =       -16.54918165 eV

  energy without entropy =      -16.54918165  energy(sigma->0) =      -16.54918165


--------------------------------------------------------------------------------------------------------




----------------------------------------- Iteration    1(  18)  ---------------------------------------


    POTLOK:  cpu time    0.23: real time    0.23
    SETDIJ:  cpu time    0.01: real time    0.01
     EDDAV:  cpu time    0.70: real time    0.70
       DOS:  cpu time    0.00: real time    0.00
    CHARGE:  cpu time    0.05: real time    0.05
    MIXING:  cpu time    0.01: real time    0.01
    --------------------------------------------
      LOOP:  cpu time    0.99: real time    0.99

 eigenvalue-minimisations  :   312
 total energy-change (2. order) :-0.5993396E+00  (-0.1067571E-01)
 number of electron     110.0000213 magnetization      -0.0140461
 augmentation part       53.0992839 magnetization       0.0452229

 Broyden mixing:
  rms(total) = 0.33512E+00    rms(broyden)= 0.33512E+00
  rms(prec ) = 0.34554E+00
  weight for this iteration     100.00

 eigenvalues of (default mixing * dielectric matrix)
  average eigenvalue GAMMA=   1.4845
  5.6813  2.4418  2.4418  2.2602  1.2391  0.9128  0.9128  0.8880  0.3443  0.3443
  0.5970  0.5970  0.6377

 Free energy of the ion-electron system (eV)
  ---------------------------------------------------
  alpha Z        PSCENC =        11.48163873
  Ewald energy   TEWEN  =     10393.63740851
  -Hartree energ DENC   =    -20302.05537051
  -exchange      EXHF   =         0.00000000
  -V(xc)+E(xc)   XCENC  =      -114.65625592
  PAW double counting   =     10441.79587864    -9996.18111487
  entropy T*S    EENTRO =         0.00000000
  eigenvalues    EBANDS =      -823.15700664
  atomic energy  EATOM  =     10371.98630086
  ---------------------------------------------------
  free energy    TOTEN  =       -17.14852120 eV

  energy without entropy =      -17.14852120  energy(sigma->0) =      -17.14852120


--------------------------------------------------------------------------------------------------------




----------------------------------------- Iteration    1(  19)  ---------------------------------------


    POTLOK:  cpu time    0.23: real time    0.23
    SETDIJ:  cpu time    0.00: real time    0.01
     EDDAV:  cpu time    0.68: real time    0.68
       DOS:  cpu time    0.00: real time    0.00
    CHARGE:  cpu time    0.05: real time    0.05
    MIXING:  cpu time    0.01: real time    0.01
    --------------------------------------------
      LOOP:  cpu time    0.98: real time    0.98

 eigenvalue-minimisations  :   304
 total energy-change (2. order) :-0.3307330E+00  (-0.1450352E-01)
 number of electron     110.0000213 magnetization      -0.1049914
 augmentation part       53.0192048 magnetization      -0.0690357

 Broyden mixing:
  rms(total) = 0.17381E+00    rms(broyden)= 0.17380E+00
  rms(prec ) = 0.17910E+00
  weight for this iteration     100.00

 eigenvalues of (default mixing * dielectric matrix)
  average eigenvalue GAMMA=   1.6286
  6.4478  2.9442  2.9442  2.6544  1.2973  1.2973  0.9617  0.9617  0.3443  0.3443
  0.6773  0.6773  0.6244  0.6244

 Free energy of the ion-electron system (eV)
  ---------------------------------------------------
  alpha Z        PSCENC =        11.48163873
  Ewald energy   TEWEN  =     10393.63740851
  -Hartree energ DENC   =    -20309.31238963
  -exchange      EXHF   =         0.00000000
  -V(xc)+E(xc)   XCENC  =      -114.89826325
  PAW double counting   =     10559.09343560   -10113.08147999
  entropy T*S    EENTRO =        -0.00000000
  eigenvalues    EBANDS =      -816.38590501
  atomic energy  EATOM  =     10371.98630086
  ---------------------------------------------------
  free energy    TOTEN  =       -17.47925418 eV

  energy without entropy =      -17.47925418  energy(sigma->0) =      -17.47925418


--------------------------------------------------------------------------------------------------------




----------------------------------------- Iteration    1(  20)  ---------------------------------------


    POTLOK:  cpu time    0.23: real time    0.23
    SETDIJ:  cpu time    0.00: real time    0.01
     EDDAV:  cpu time    0.68: real time    0.68
       DOS:  cpu time    0.00: real time    0.00
    CHARGE:  cpu time    0.05: real time    0.05
    MIXING:  cpu time    0.01: real time    0.01
    --------------------------------------------
      LOOP:  cpu time    0.98: real time    0.98

 eigenvalue-minimisations  :   304
 total energy-change (2. order) :-0.2078360E+00  (-0.1017280E-01)
 number of electron     110.0000212 magnetization      -0.0951669
 augmentation part       52.9546150 magnetization      -0.0811197

 Broyden mixing:
  rms(total) = 0.34619E-01    rms(broyden)= 0.34609E-01
  rms(prec ) = 0.37233E-01
  weight for this iteration     100.00

 eigenvalues of (default mixing * dielectric matrix)
  average eigenvalue GAMMA=   1.6429
  6.6339  3.1120  3.1120  2.6816  1.5751  1.5751  1.0512  0.3443  0.3443  0.8187
  0.7521  0.7521  0.6512  0.6201  0.6201

 Free energy of the ion-electron system (eV)
  ---------------------------------------------------
  alpha Z        PSCENC =        11.48163873
  Ewald energy   TEWEN  =     10393.63740851
  -Hartree energ DENC   =    -20314.32510992
  -exchange      EXHF   =         0.00000000
  -V(xc)+E(xc)   XCENC  =      -115.03014179
  PAW double counting   =     10668.66659095   -10222.18918192
  entropy T*S    EENTRO =         0.00000000
  eigenvalues    EBANDS =      -811.91459558
  atomic energy  EATOM  =     10371.98630086
  ---------------------------------------------------
  free energy    TOTEN  =       -17.68709015 eV

  energy without entropy =      -17.68709015  energy(sigma->0) =      -17.68709015


--------------------------------------------------------------------------------------------------------




----------------------------------------- Iteration    1(  21)  ---------------------------------------


    POTLOK:  cpu time    0.23: real time    0.23
    SETDIJ:  cpu time    0.00: real time    0.01
     EDDAV:  cpu time    0.72: real time    0.72
       DOS:  cpu time    0.00: real time    0.00
    CHARGE:  cpu time    0.05: real time    0.05
    MIXING:  cpu time    0.01: real time    0.01
    --------------------------------------------
      LOOP:  cpu time    1.02: real time    1.06

 eigenvalue-minimisations  :   328
 total energy-change (2. order) :-0.3831007E-01  (-0.2280544E-02)
 number of electron     110.0000212 magnetization      -0.0578281
 augmentation part       52.9276628 magnetization      -0.0575267

 Broyden mixing:
  rms(total) = 0.38015E-01    rms(broyden)= 0.38012E-01
  rms(prec ) = 0.40397E-01
  weight for this iteration     100.00

 eigenvalues of (default mixing * dielectric matrix)
  average eigenvalue GAMMA=   1.5839
  6.3415  3.2536  3.2536  2.4434  1.6893  1.6893  1.1004  0.3443  0.3443  0.7956
  0.7956  0.8583  0.6161  0.6161  0.6370  0.5634

 Free energy of the ion-electron system (eV)
  ---------------------------------------------------
  alpha Z        PSCENC =        11.48163873
  Ewald energy   TEWEN  =     10393.63740851
  -Hartree energ DENC   =    -20316.17417434
  -exchange      EXHF   =         0.00000000
  -V(xc)+E(xc)   XCENC  =      -115.03785493
  PAW double counting   =     10718.09077713   -10271.44546928
  entropy T*S    EENTRO =         0.00000000
  eigenvalues    EBANDS =      -810.26402691
  atomic energy  EATOM  =     10371.98630086
  ---------------------------------------------------
  free energy    TOTEN  =       -17.72540022 eV

  energy without entropy =      -17.72540022  energy(sigma->0) =      -17.72540022


--------------------------------------------------------------------------------------------------------




----------------------------------------- Iteration    1(  22)  ---------------------------------------


    POTLOK:  cpu time    0.23: real time    0.23
    SETDIJ:  cpu time    0.01: real time    0.01
     EDDAV:  cpu time    0.72: real time    0.72
       DOS:  cpu time    0.00: real time    0.00
    CHARGE:  cpu time    0.05: real time    0.05
    MIXING:  cpu time    0.02: real time    0.01
    --------------------------------------------
      LOOP:  cpu time    1.02: real time    4.45

 eigenvalue-minimisations  :   328
 total energy-change (2. order) :-0.3612352E-02  (-0.8750326E-04)
 number of electron     110.0000212 magnetization       0.0005423
 augmentation part       52.9306022 magnetization      -0.0004273

 Broyden mixing:
  rms(total) = 0.33988E-01    rms(broyden)= 0.33988E-01
  rms(prec ) = 0.35907E-01
  weight for this iteration     100.00

 eigenvalues of (default mixing * dielectric matrix)
  average eigenvalue GAMMA=   1.5886
  6.1966  3.6357  3.6357  2.0169  1.8758  1.8758  0.9368  0.9368  0.9658  0.9658
  0.3443  0.3443  0.6948  0.6948  0.6450  0.6204  0.6204

 Free energy of the ion-electron system (eV)
  ---------------------------------------------------
  alpha Z        PSCENC =        11.48163873
  Ewald energy   TEWEN  =     10393.63740851
  -Hartree energ DENC   =    -20315.38176758
  -exchange      EXHF   =         0.00000000
  -V(xc)+E(xc)   XCENC  =      -115.05085329
  PAW double counting   =     10715.21622533   -10268.58183344
  entropy T*S    EENTRO =        -0.00000000
  eigenvalues    EBANDS =      -811.03613170
  atomic energy  EATOM  =     10371.98630086
  ---------------------------------------------------
  free energy    TOTEN  =       -17.72901258 eV

  energy without entropy =      -17.72901258  energy(sigma->0) =      -17.72901258


--------------------------------------------------------------------------------------------------------




----------------------------------------- Iteration    1(  23)  ---------------------------------------


    POTLOK:  cpu time    0.23: real time    0.23
    SETDIJ:  cpu time    0.01: real time    0.01
     EDDAV:  cpu time    0.68: real time    0.68
       DOS:  cpu time    0.00: real time    0.00
    CHARGE:  cpu time    0.05: real time    0.05
    MIXING:  cpu time    0.02: real time    0.01
    --------------------------------------------
      LOOP:  cpu time    0.98: real time    0.98

 eigenvalue-minimisations  :   304
 total energy-change (2. order) :-0.6816454E-02  (-0.1399547E-03)
 number of electron     110.0000212 magnetization       0.0421983
 augmentation part       52.9349561 magnetization       0.0394385

 Broyden mixing:
  rms(total) = 0.25849E-01    rms(broyden)= 0.25849E-01
  rms(prec ) = 0.26960E-01
  weight for this iteration     100.00

 eigenvalues of (default mixing * dielectric matrix)
  average eigenvalue GAMMA=   1.5601
  4.2286  4.1917  4.1917  2.2830  2.0890  2.0890  1.2483  1.2483  0.3443  0.3443
  0.9217  0.8196  0.8196  0.6596  0.6596  0.7081  0.6175  0.6175

 Free energy of the ion-electron system (eV)
  ---------------------------------------------------
  alpha Z        PSCENC =        11.48163873
  Ewald energy   TEWEN  =     10393.63740851
  -Hartree energ DENC   =    -20313.62413355
  -exchange      EXHF   =         0.00000000
  -V(xc)+E(xc)   XCENC  =      -115.07801977
  PAW double counting   =     10708.75526075   -10262.14415949
  entropy T*S    EENTRO =         0.00000000
  eigenvalues    EBANDS =      -812.75012507
  atomic energy  EATOM  =     10371.98630086
  ---------------------------------------------------
  free energy    TOTEN  =       -17.73582903 eV

  energy without entropy =      -17.73582903  energy(sigma->0) =      -17.73582903


--------------------------------------------------------------------------------------------------------




----------------------------------------- Iteration    1(  24)  ---------------------------------------


    POTLOK:  cpu time    0.23: real time    0.23
    SETDIJ:  cpu time    0.01: real time    0.01
     EDDAV:  cpu time    0.57: real time    0.57
       DOS:  cpu time    0.00: real time    0.00
    CHARGE:  cpu time    0.05: real time    0.05
    MIXING:  cpu time    0.02: real time    0.01
    --------------------------------------------
      LOOP:  cpu time    0.87: real time    0.87

 eigenvalue-minimisations  :   232
 total energy-change (2. order) :-0.4384910E-02  (-0.4631659E-04)
 number of electron     110.0000212 magnetization       0.0392526
 augmentation part       52.9344253 magnetization       0.0336891

 Broyden mixing:
  rms(total) = 0.27966E-01    rms(broyden)= 0.27966E-01
  rms(prec ) = 0.28969E-01
  weight for this iteration     100.00

 eigenvalues of (default mixing * dielectric matrix)
  average eigenvalue GAMMA=   1.5960
  4.9761  4.9761  3.2250  3.2250  2.0518  2.0518  1.2214  1.2214  0.3443  0.3443
  0.8810  0.8810  0.9191  0.7891  0.6631  0.6631  0.6210  0.6210  0.6478

 Free energy of the ion-electron system (eV)
  ---------------------------------------------------
  alpha Z        PSCENC =        11.48163873
  Ewald energy   TEWEN  =     10393.63740851
  -Hartree energ DENC   =    -20312.93634359
  -exchange      EXHF   =         0.00000000
  -V(xc)+E(xc)   XCENC  =      -115.08909387
  PAW double counting   =     10710.20115004   -10263.57862568
  entropy T*S    EENTRO =         0.00000000
  eigenvalues    EBANDS =      -813.44264894
  atomic energy  EATOM  =     10371.98630086
  ---------------------------------------------------
  free energy    TOTEN  =       -17.74021394 eV

  energy without entropy =      -17.74021394  energy(sigma->0) =      -17.74021394


--------------------------------------------------------------------------------------------------------




----------------------------------------- Iteration    1(  25)  ---------------------------------------


    POTLOK:  cpu time    0.23: real time    0.23
    SETDIJ:  cpu time    0.01: real time    0.01
     EDDAV:  cpu time    0.59: real time    0.59
       DOS:  cpu time    0.00: real time    0.00
    CHARGE:  cpu time    0.05: real time    0.05
    MIXING:  cpu time    0.02: real time    0.01
    --------------------------------------------
      LOOP:  cpu time    0.89: real time    0.89

 eigenvalue-minimisations  :   248
 total energy-change (2. order) :-0.5299375E-02  (-0.5687759E-04)
 number of electron     110.0000212 magnetization       0.0273780
 augmentation part       52.9398359 magnetization       0.0227669

 Broyden mixing:
  rms(total) = 0.19376E-01    rms(broyden)= 0.19376E-01
  rms(prec ) = 0.20047E-01
  weight for this iteration     100.00

 eigenvalues of (default mixing * dielectric matrix)
  average eigenvalue GAMMA=   1.6460
  4.9276  4.5483  4.5483  3.3381  2.2012  2.2012  1.4057  1.4057  0.3443  0.3443
  0.9839  0.9839  0.8323  0.8323  0.8222  0.6686  0.6686  0.6131  0.6131  0.6377

 Free energy of the ion-electron system (eV)
  ---------------------------------------------------
  alpha Z        PSCENC =        11.48163873
  Ewald energy   TEWEN  =     10393.63740851
  -Hartree energ DENC   =    -20311.81163630
  -exchange      EXHF   =         0.00000000
  -V(xc)+E(xc)   XCENC  =      -115.10980472
  PAW double counting   =     10704.00798179   -10257.39125356
  entropy T*S    EENTRO =         0.00000000
  eigenvalues    EBANDS =      -814.54614863
  atomic energy  EATOM  =     10371.98630086
  ---------------------------------------------------
  free energy    TOTEN  =       -17.74551331 eV

  energy without entropy =      -17.74551331  energy(sigma->0) =      -17.74551331


--------------------------------------------------------------------------------------------------------




----------------------------------------- Iteration    1(  26)  ---------------------------------------


    POTLOK:  cpu time    0.23: real time    0.23
    SETDIJ:  cpu time    0.01: real time    0.01
     EDDAV:  cpu time    0.69: real time    0.70
       DOS:  cpu time    0.00: real time    0.00
    CHARGE:  cpu time    0.05: real time    0.05
    MIXING:  cpu time    0.02: real time    0.02
    --------------------------------------------
      LOOP:  cpu time    0.99: real time    1.00

 eigenvalue-minimisations  :   312
 total energy-change (2. order) :-0.4536835E-02  (-0.2364947E-03)
 number of electron     110.0000212 magnetization       0.0276484
 augmentation part       52.9505328 magnetization       0.0268117

 Broyden mixing:
  rms(total) = 0.23147E-02    rms(broyden)= 0.23122E-02
  rms(prec ) = 0.27095E-02
  weight for this iteration     100.00

 eigenvalues of (default mixing * dielectric matrix)
  average eigenvalue GAMMA=   1.6480
  5.1306  5.1306  3.8613  3.8613  2.0825  2.0825  2.1137  1.0832  1.0832  1.0777
  0.3443  0.3443  0.8450  0.8450  0.8676  0.6734  0.6734  0.6412  0.6412  0.6127
  0.6127

 Free energy of the ion-electron system (eV)
  ---------------------------------------------------
  alpha Z        PSCENC =        11.48163873
  Ewald energy   TEWEN  =     10393.63740851
  -Hartree energ DENC   =    -20309.87435645
  -exchange      EXHF   =         0.00000000
  -V(xc)+E(xc)   XCENC  =      -115.14001081
  PAW double counting   =     10689.36601297   -10242.79857373
  entropy T*S    EENTRO =         0.00000000
  eigenvalues    EBANDS =      -816.40847024
  atomic energy  EATOM  =     10371.98630086
  ---------------------------------------------------
  free energy    TOTEN  =       -17.75005015 eV

  energy without entropy =      -17.75005015  energy(sigma->0) =      -17.75005015


--------------------------------------------------------------------------------------------------------




----------------------------------------- Iteration    1(  27)  ---------------------------------------


    POTLOK:  cpu time    0.23: real time    0.23
    SETDIJ:  cpu time    0.01: real time    0.01
     EDDAV:  cpu time    0.54: real time    0.54
       DOS:  cpu time    0.00: real time    0.00
    CHARGE:  cpu time    0.05: real time    0.05
    MIXING:  cpu time    0.02: real time    0.02
    --------------------------------------------
      LOOP:  cpu time    0.84: real time    0.85

 eigenvalue-minimisations  :   216
 total energy-change (2. order) :-0.8734721E-03  (-0.4780695E-05)
 number of electron     110.0000212 magnetization       0.0170152
 augmentation part       52.9498677 magnetization       0.0159873

 Broyden mixing:
  rms(total) = 0.23858E-02    rms(broyden)= 0.23857E-02
  rms(prec ) = 0.27049E-02
  weight for this iteration     100.00

 eigenvalues of (default mixing * dielectric matrix)
  average eigenvalue GAMMA=   1.6628
  5.1506  5.1506  4.1505  4.1505  2.3189  2.1334  2.1334  1.1841  1.1367  1.1367
  0.3443  0.3443  0.8673  0.8673  0.8628  0.7506  0.7506  0.6582  0.6582  0.6308
  0.6006  0.6006

 Free energy of the ion-electron system (eV)
  ---------------------------------------------------
  alpha Z        PSCENC =        11.48163873
  Ewald energy   TEWEN  =     10393.63740851
  -Hartree energ DENC   =    -20309.77410335
  -exchange      EXHF   =         0.00000000
  -V(xc)+E(xc)   XCENC  =      -115.14041620
  PAW double counting   =     10689.55577489   -10242.99483738
  entropy T*S    EENTRO =         0.00000000
  eigenvalues    EBANDS =      -816.50268968
  atomic energy  EATOM  =     10371.98630086
  ---------------------------------------------------
  free energy    TOTEN  =       -17.75092362 eV

  energy without entropy =      -17.75092362  energy(sigma->0) =      -17.75092362


--------------------------------------------------------------------------------------------------------




----------------------------------------- Iteration    1(  28)  ---------------------------------------


    POTLOK:  cpu time    0.23: real time    0.23
    SETDIJ:  cpu time    0.00: real time    0.01
     EDDAV:  cpu time    0.51: real time    0.52
       DOS:  cpu time    0.00: real time    0.00
    CHARGE:  cpu time    0.05: real time    0.05
    MIXING:  cpu time    0.02: real time    0.02
    --------------------------------------------
      LOOP:  cpu time    0.82: real time    0.82

 eigenvalue-minimisations  :   200
 total energy-change (2. order) :-0.6891822E-03  (-0.3689321E-05)
 number of electron     110.0000212 magnetization       0.0044946
 augmentation part       52.9501413 magnetization       0.0039860

 Broyden mixing:
  rms(total) = 0.23592E-02    rms(broyden)= 0.23592E-02
  rms(prec ) = 0.25718E-02
  weight for this iteration     100.00

 eigenvalues of (default mixing * dielectric matrix)
  average eigenvalue GAMMA=   1.6787
  5.6838  5.0440  5.0440  2.8281  2.8281  2.2444  2.2444  1.5887  1.1152  1.1152
  0.3443  0.3443  0.8901  0.8901  0.8690  0.8690  0.8326  0.6641  0.6641  0.6614
  0.6227  0.6227  0.6007

 Free energy of the ion-electron system (eV)
  ---------------------------------------------------
  alpha Z        PSCENC =        11.48163873
  Ewald energy   TEWEN  =     10393.63740851
  -Hartree energ DENC   =    -20309.61461624
  -exchange      EXHF   =         0.00000000
  -V(xc)+E(xc)   XCENC  =      -115.14200926
  PAW double counting   =     10689.17948168   -10242.62108905
  entropy T*S    EENTRO =         0.00000000
  eigenvalues    EBANDS =      -816.65872804
  atomic energy  EATOM  =     10371.98630086
  ---------------------------------------------------
  free energy    TOTEN  =       -17.75161280 eV

  energy without entropy =      -17.75161280  energy(sigma->0) =      -17.75161280


--------------------------------------------------------------------------------------------------------




----------------------------------------- Iteration    1(  29)  ---------------------------------------


    POTLOK:  cpu time    0.23: real time    0.23
    SETDIJ:  cpu time    0.01: real time    0.01
     EDDAV:  cpu time    0.54: real time    0.54
       DOS:  cpu time    0.00: real time    0.00
    CHARGE:  cpu time    0.05: real time    0.05
    MIXING:  cpu time    0.02: real time    0.02
    --------------------------------------------
      LOOP:  cpu time    0.84: real time    0.85

 eigenvalue-minimisations  :   216
 total energy-change (2. order) :-0.1070806E-03  (-0.4673356E-05)
 number of electron     110.0000212 magnetization      -0.0015876
 augmentation part       52.9508145 magnetization      -0.0013059

 Broyden mixing:
  rms(total) = 0.33789E-02    rms(broyden)= 0.33789E-02
  rms(prec ) = 0.35201E-02
  weight for this iteration     100.00

 eigenvalues of (default mixing * dielectric matrix)
  average eigenvalue GAMMA=   1.7080
  6.3061  5.1195  5.1195  3.0844  3.0844  2.2115  2.2115  1.5545  1.5338  0.3443
  0.3443  1.0366  1.0366  0.8858  0.8858  0.8140  0.8140  0.7810  0.6666  0.6666
  0.6575  0.6246  0.6048  0.6048

 Free energy of the ion-electron system (eV)
  ---------------------------------------------------
  alpha Z        PSCENC =        11.48163873
  Ewald energy   TEWEN  =     10393.63740851
  -Hartree energ DENC   =    -20309.42699737
  -exchange      EXHF   =         0.00000000
  -V(xc)+E(xc)   XCENC  =      -115.14342913
  PAW double counting   =     10688.29815942   -10241.74465484
  entropy T*S    EENTRO =         0.00000000
  eigenvalues    EBANDS =      -816.84014606
  atomic energy  EATOM  =     10371.98630086
  ---------------------------------------------------
  free energy    TOTEN  =       -17.75171988 eV

  energy without entropy =      -17.75171988  energy(sigma->0) =      -17.75171988


--------------------------------------------------------------------------------------------------------




----------------------------------------- Iteration    1(  30)  ---------------------------------------


    POTLOK:  cpu time    0.23: real time    0.23
    SETDIJ:  cpu time    0.01: real time    0.01
     EDDAV:  cpu time    0.53: real time    0.53
       DOS:  cpu time    0.00: real time    0.00
    --------------------------------------------
      LOOP:  cpu time    0.77: real time    0.78

 eigenvalue-minimisations  :   208
 total energy-change (2. order) :-0.3978517E-04  (-0.1698621E-05)
 number of electron     110.0000212 magnetization      -0.0015876
 augmentation part       52.9508145 magnetization      -0.0013059

 Free energy of the ion-electron system (eV)
  ---------------------------------------------------
  alpha Z        PSCENC =        11.48163873
  Ewald energy   TEWEN  =     10393.63740851
  -Hartree energ DENC   =    -20309.44337267
  -exchange      EXHF   =         0.00000000
  -V(xc)+E(xc)   XCENC  =      -115.14204916
  PAW double counting   =     10689.00850969   -10242.45582237
  entropy T*S    EENTRO =         0.00000000
  eigenvalues    EBANDS =      -816.82437328
  atomic energy  EATOM  =     10371.98630086
  ---------------------------------------------------
  free energy    TOTEN  =       -17.75175967 eV

  energy without entropy =      -17.75175967  energy(sigma->0) =      -17.75175967


--------------------------------------------------------------------------------------------------------




 average (electrostatic) potential at core
  the test charge radii are     1.1249
  (the norm of the test charge is              1.0000)
       1 -82.0327       2 -82.5053       3 -82.4718       4 -82.3137       5 -82.4049
       6 -82.3985       7 -82.3851       8 -82.4296       9 -82.4069      10 -82.4285
 
 
 
 E-fermi :  -4.1131     XC(G=0):  -0.6214     alpha+bet : -0.3098


 spin component 1

 k-point     1 :       0.0000    0.0000    0.0000
  band No.  band energies     occupation 
      1      -9.1745      1.00000
      2      -9.0073      1.00000
      3      -8.9079      1.00000
      4      -8.7917      1.00000
      5      -8.7698      1.00000
      6      -8.6745      1.00000
      7      -8.6668      1.00000
      8      -8.5674      1.00000
      9      -8.5405      1.00000
     10      -8.4938      1.00000
     11      -8.4319      1.00000
     12      -8.3774      1.00000
     13      -8.3245      1.00000
     14      -8.2986      1.00000
     15      -8.2604      1.00000
     16      -8.2000      1.00000
     17      -8.1021      1.00000
     18      -8.0655      1.00000
     19      -7.9336      1.00000
     20      -7.9144      1.00000
     21      -7.8392      1.00000
     22      -7.7248      1.00000
     23      -7.6097      1.00000
     24      -7.5833      1.00000
     25      -7.4845      1.00000
     26      -7.3714      1.00000
     27      -7.3618      1.00000
     28      -7.2826      1.00000
     29      -7.2647      1.00000
     30      -7.2330      1.00000
     31      -7.2211      1.00000
     32      -7.1506      1.00000
     33      -7.1137      1.00000
     34      -7.1068      1.00000
     35      -7.0672      1.00000
     36      -7.0635      1.00000
     37      -7.0502      1.00000
     38      -6.9888      1.00000
     39      -6.9490      1.00000
     40      -6.9210      1.00000
     41      -6.8727      1.00000
     42      -6.8627      1.00000
     43      -6.8401      1.00000
     44      -6.7757      1.00000
     45      -6.7455      1.00000
     46      -6.7344      1.00000
     47      -6.7233      1.00000
     48      -6.6708      1.00000
     49      -6.6259      1.00000
     50      -6.5556      1.00000
     51      -6.5048      1.00000
     52      -6.0007      1.00000
     53      -5.0798      1.00000
     54      -4.4116      1.00000
     55      -4.1207      1.00000
     56      -3.4167      0.00000
     57      -2.7645      0.00000
     58      -2.6382      0.00000
     59      -2.1345      0.00000
     60      -2.1085      0.00000
     61      -1.5270      0.00000
     62      -1.3141      0.00000
     63      -0.9533      0.00000
     64      -0.8666      0.00000
     65      -0.5061      0.00000
     66      -0.4324      0.00000
     67      -0.2639      0.00000
     68      -0.0612      0.00000
     69       0.2271      0.00000
     70       0.2555      0.00000
     71       0.3356      0.00000
     72       0.5559      0.00000

 spin component 2

 k-point     1 :       0.0000    0.0000    0.0000
  band No.  band energies     occupation 
      1      -9.1739      1.00000
      2      -9.0069      1.00000
      3      -8.9075      1.00000
      4      -8.7913      1.00000
      5      -8.7695      1.00000
      6      -8.6741      1.00000
      7      -8.6665      1.00000
      8      -8.5672      1.00000
      9      -8.5403      1.00000
     10      -8.4936      1.00000
     11      -8.4318      1.00000
     12      -8.3772      1.00000
     13      -8.3244      1.00000
     14      -8.2984      1.00000
     15      -8.2603      1.00000
     16      -8.1999      1.00000
     17      -8.1020      1.00000
     18      -8.0653      1.00000
     19      -7.9335      1.00000
     20      -7.9144      1.00000
     21      -7.8391      1.00000
     22      -7.7247      1.00000
     23      -7.6096      1.00000
     24      -7.5833      1.00000
     25      -7.4844      1.00000
     26      -7.3714      1.00000
     27      -7.3618      1.00000
     28      -7.2826      1.00000
     29      -7.2647      1.00000
     30      -7.2329      1.00000
     31      -7.2211      1.00000
     32      -7.1506      1.00000
     33      -7.1137      1.00000
     34      -7.1069      1.00000
     35      -7.0672      1.00000
     36      -7.0635      1.00000
     37      -7.0501      1.00000
     38      -6.9888      1.00000
     39      -6.9490      1.00000
     40      -6.9211      1.00000
     41      -6.8727      1.00000
     42      -6.8627      1.00000
     43      -6.8400      1.00000
     44      -6.7757      1.00000
     45      -6.7455      1.00000
     46      -6.7343      1.00000
     47      -6.7233      1.00000
     48      -6.6708      1.00000
     49      -6.6258      1.00000
     50      -6.5555      1.00000
     51      -6.5047      1.00000
     52      -6.0009      1.00000
     53      -5.0804      1.00000
     54      -4.4121      1.00000
     55      -4.1212      1.00000
     56      -3.4175      0.00000
     57      -2.7652      0.00000
     58      -2.6395      0.00000
     59      -2.1351      0.00000
     60      -2.1095      0.00000
     61      -1.5279      0.00000
     62      -1.3148      0.00000
     63      -0.9541      0.00000
     64      -0.8677      0.00000
     65      -0.5083      0.00000
     66      -0.4360      0.00000
     67      -0.2657      0.00000
     68      -0.0644      0.00000
     69       0.2275      0.00000
     70       0.2510      0.00000
     71       0.3312      0.00000
     72       0.5046      0.00000


--------------------------------------------------------------------------------------------------------


 soft charge-density along one line, spin component           1
         0         1         2         3         4         5         6         7         8         9
 total charge-density along one line
 
 soft charge-density along one line, spin component           2
         0         1         2         3         4         5         6         7         8         9
 total charge-density along one line
 
 pseudopotential strength for first ion, spin component:           1
-10.214  -0.003  -0.002   0.011   0.003 -10.192  -0.003  -0.001
 -0.003 -10.232   0.000   0.002  -0.011  -0.003 -10.210   0.000
 -0.002   0.000 -10.238   0.001  -0.002  -0.001   0.000 -10.216
[...]
      4      -8.7903      1.00000
      5      -8.7680      1.00000
      6      -8.6736      1.00000
      7      -8.6648      1.00000
      8      -8.5657      1.00000
      9      -8.5372      1.00000
     10      -8.4934      1.00000
     11      -8.4327      1.00000
     12      -8.3774      1.00000
     13      -8.3227      1.00000
     14      -8.2976      1.00000
     15      -8.2587      1.00000
     16      -8.1987      1.00000
     17      -8.1024      1.00000
     18      -8.0640      1.00000
     19      -7.9341      1.00000
     20      -7.9128      1.00000
     21      -7.8394      1.00000
     22      -7.7239      1.00000
     23      -7.6091      1.00000
     24      -7.5831      1.00000
     25      -7.4846      1.00000
     26      -7.3712      1.00000
     27      -7.3614      1.00000
     28      -7.2825      1.00000
     29      -7.2642      1.00000
     30      -7.2324      1.00000
     31      -7.2206      1.00000
     32      -7.1505      1.00000
     33      -7.1134      1.00000
     34      -7.1068      1.00000
     35      -7.0668      1.00000
     36      -7.0633      1.00000
     37      -7.0499      1.00000
     38      -6.9884      1.00000
     39      -6.9483      1.00000
     40      -6.9210      1.00000
     41      -6.8725      1.00000
     42      -6.8628      1.00000
     43      -6.8403      1.00000
     44      -6.7754      1.00000
     45      -6.7447      1.00000
     46      -6.7346      1.00000
     47      -6.7230      1.00000
     48      -6.6703      1.00000
     49      -6.6260      1.00000
     50      -6.5550      1.00000
     51      -6.5055      1.00000
     52      -6.0011      1.00000
     53      -5.0806      1.00000
     54      -4.4120      1.00000
     55      -4.1212      1.00000
     56      -3.4178      0.00000
     57      -2.7653      0.00000
     58      -2.6396      0.00000
     59      -2.1352      0.00000
     60      -2.1094      0.00000
     61      -1.5278      0.00000
     62      -1.3153      0.00000
     63      -0.9535      0.00000
     64      -0.8682      0.00000
     65      -0.5080      0.00000
     66      -0.4321      0.00000
     67      -0.2651      0.00000
     68      -0.0641      0.00000
     69       0.2272      0.00000
     70       0.2549      0.00000
     71       0.3329      0.00000
     72       0.5347      0.00000

 spin component 2

 k-point     1 :       0.0000    0.0000    0.0000
  band No.  band energies     occupation 
      1      -9.1724      1.00000
      2      -9.0061      1.00000
      3      -8.9078      1.00000
      4      -8.7903      1.00000
      5      -8.7680      1.00000
      6      -8.6736      1.00000
      7      -8.6648      1.00000
      8      -8.5657      1.00000
      9      -8.5372      1.00000
     10      -8.4934      1.00000
     11      -8.4327      1.00000
     12      -8.3774      1.00000
     13      -8.3227      1.00000
     14      -8.2976      1.00000
     15      -8.2587      1.00000
     16      -8.1987      1.00000
     17      -8.1024      1.00000
     18      -8.0640      1.00000
     19      -7.9341      1.00000
     20      -7.9128      1.00000
     21      -7.8394      1.00000
     22      -7.7239      1.00000
     23      -7.6091      1.00000
     24      -7.5831      1.00000
     25      -7.4846      1.00000
     26      -7.3712      1.00000
     27      -7.3614      1.00000
     28      -7.2825      1.00000
     29      -7.2642      1.00000
     30      -7.2324      1.00000
     31      -7.2206      1.00000
     32      -7.1505      1.00000
     33      -7.1134      1.00000
     34      -7.1068      1.00000
     35      -7.0668      1.00000
     36      -7.0633      1.00000
     37      -7.0499      1.00000
     38      -6.9884      1.00000
     39      -6.9483      1.00000
     40      -6.9210      1.00000
     41      -6.8725      1.00000
     42      -6.8628      1.00000
     43      -6.8403      1.00000
     44      -6.7754      1.00000
     45      -6.7447      1.00000
     46      -6.7346      1.00000
     47      -6.7230      1.00000
     48      -6.6703      1.00000
     49      -6.6260      1.00000
     50      -6.5550      1.00000
     51      -6.5055      1.00000
     52      -6.0011      1.00000
     53      -5.0807      1.00000
     54      -4.4120      1.00000
     55      -4.1213      1.00000
     56      -3.4179      0.00000
     57      -2.7655      0.00000
     58      -2.6400      0.00000
     59      -2.1356      0.00000
     60      -2.1098      0.00000
     61      -1.5286      0.00000
     62      -1.3160      0.00000
     63      -0.9548      0.00000
     64      -0.8693      0.00000
     65      -0.5103      0.00000
     66      -0.4372      0.00000
     67      -0.2672      0.00000
     68      -0.0684      0.00000
     69       0.2244      0.00000
     70       0.2508      0.00000
     71       0.3261      0.00000
     72       0.4915      0.00000


--------------------------------------------------------------------------------------------------------


 soft charge-density along one line, spin component           1
         0         1         2         3         4         5         6         7         8         9
 total charge-density along one line
 
 soft charge-density along one line, spin component           2
         0         1         2         3         4         5         6         7         8         9
 total charge-density along one line
 
 pseudopotential strength for first ion, spin component:           1
-10.214  -0.003  -0.002   0.011   0.003 -10.193  -0.003  -0.001
 -0.003 -10.232   0.000   0.002  -0.011  -0.003 -10.210   0.000
 -0.002   0.000 -10.238   0.001  -0.002  -0.001   0.000 -10.216
  0.011   0.002   0.001 -10.230  -0.008   0.010   0.002   0.001
  0.003  -0.011  -0.002  -0.008 -10.218   0.003  -0.011  -0.002
-10.193  -0.003  -0.001   0.010   0.003 -10.147  -0.003  -0.001
 -0.003 -10.210   0.000   0.002  -0.011  -0.003 -10.164   0.000
 -0.001   0.000 -10.216   0.001  -0.002  -0.001   0.000 -10.170
  0.010   0.002   0.001 -10.208  -0.007   0.010   0.002   0.001
  0.003  -0.011  -0.002  -0.007 -10.196   0.003  -0.010  -0.001
 -0.001  -0.005   0.005   0.002  -0.001  -0.001  -0.005   0.005
 -0.002  -0.008   0.007   0.003  -0.001  -0.002  -0.008   0.007
 -0.005  -0.025  -0.007  -0.000  -0.012  -0.005  -0.024  -0.007
 -0.000   0.012  -0.028  -0.005  -0.000  -0.000   0.012  -0.027
  0.012  -0.000   0.003  -0.025  -0.005   0.012  -0.000   0.003
 -0.006  -0.029  -0.009  -0.000  -0.015  -0.006  -0.028  -0.009
 -0.000   0.014  -0.033  -0.006  -0.000  -0.000   0.014  -0.032
  0.015  -0.000   0.004  -0.030  -0.006   0.014  -0.000   0.004
 pseudopotential strength for first ion, spin component:           2
-10.214  -0.003  -0.002   0.011   0.003 -10.193  -0.003  -0.001
 -0.003 -10.232   0.000   0.002  -0.011  -0.003 -10.210   0.000
 -0.002   0.000 -10.238   0.001  -0.002  -0.001   0.000 -10.216
  0.011   0.002   0.001 -10.230  -0.008   0.010   0.002   0.001
  0.003  -0.011  -0.002  -0.008 -10.218   0.003  -0.011  -0.002
-10.193  -0.003  -0.001   0.010   0.003 -10.147  -0.003  -0.001
 -0.003 -10.210   0.000   0.002  -0.011  -0.003 -10.164   0.000
 -0.001   0.000 -10.216   0.001  -0.002  -0.001   0.000 -10.170
  0.010   0.002   0.001 -10.208  -0.007   0.010   0.002   0.001
  0.003  -0.011  -0.002  -0.007 -10.196   0.003  -0.010  -0.001
 -0.001  -0.005   0.005   0.002  -0.001  -0.001  -0.005   0.005
 -0.002  -0.008   0.007   0.003  -0.001  -0.002  -0.008   0.007
 -0.005  -0.025  -0.007  -0.000  -0.012  -0.005  -0.024  -0.007
 -0.000   0.012  -0.028  -0.005  -0.000  -0.000   0.012  -0.027
  0.012  -0.000   0.003  -0.025  -0.005   0.012  -0.000   0.003
 -0.006  -0.029  -0.009  -0.000  -0.015  -0.006  -0.028  -0.009
 -0.000   0.014  -0.033  -0.006  -0.000  -0.000   0.014  -0.032
  0.015  -0.000   0.004  -0.030  -0.006   0.014  -0.000   0.004
 total augmentation occupancy for first ion, spin component:           1
  2.278   0.055   0.005  -0.046   0.028  -0.238  -0.051  -0.009   0.094   0.006   0.120  -0.023  -0.016   0.015   0.022  -0.002
  0.055   2.473  -0.126  -0.041   0.042  -0.051  -0.505   0.079   0.057  -0.094   0.354  -0.093  -0.075   0.068   0.017  -0.010
  0.005  -0.126   2.449   0.073  -0.002  -0.008   0.079  -0.511  -0.036  -0.007  -0.373   0.098   0.012  -0.099  -0.006  -0.006
 -0.046  -0.041   0.073   2.408  -0.012   0.094   0.057  -0.036  -0.434  -0.045  -0.153   0.046   0.017  -0.034  -0.055  -0.001
  0.028   0.042  -0.002  -0.012   2.254   0.006  -0.094  -0.007  -0.044  -0.251   0.079  -0.015  -0.021   0.009  -0.006  -0.006
 -0.238  -0.051  -0.008   0.094   0.006   0.183   0.048   0.011  -0.133  -0.033  -0.102   0.020   0.016  -0.016  -0.040  -0.001
 -0.051  -0.505   0.079   0.057  -0.094   0.048   0.512  -0.043  -0.071   0.136  -0.299   0.074   0.110  -0.071  -0.018  -0.008
 -0.009   0.079  -0.511  -0.036  -0.007   0.011  -0.043   0.540   0.007   0.013   0.324  -0.080   0.007   0.135  -0.006  -0.000
  0.094   0.057  -0.036  -0.434  -0.044  -0.133  -0.071   0.007   0.435   0.090   0.130  -0.037  -0.017   0.033   0.091   0.001
  0.006  -0.094  -0.007  -0.045  -0.251  -0.033   0.136   0.013   0.090   0.223  -0.066   0.012   0.041  -0.009   0.026  -0.003
  0.120   0.354  -0.373  -0.153   0.079  -0.102  -0.299   0.324   0.130  -0.066   1.775  -0.156  -0.101   0.214   0.049   0.009
 -0.023  -0.093   0.098   0.046  -0.015   0.020   0.074  -0.080  -0.037   0.012  -0.156   0.033   0.018  -0.040  -0.010  -0.001
 -0.016  -0.075   0.012   0.017  -0.021   0.016   0.110   0.007  -0.017   0.041  -0.101   0.018   0.030  -0.016  -0.006  -0.002
  0.015   0.068  -0.099  -0.034   0.009  -0.016  -0.071   0.135   0.033  -0.009   0.214  -0.040  -0.016   0.055   0.008   0.001
  0.022   0.017  -0.006  -0.055  -0.006  -0.040  -0.018  -0.006   0.091   0.026   0.049  -0.010  -0.006   0.008   0.024   0.000
 -0.002  -0.010  -0.006  -0.001  -0.006  -0.001  -0.008  -0.000   0.001  -0.003   0.009  -0.001  -0.002   0.001   0.000   0.000
 -0.001   0.002  -0.010  -0.001  -0.001   0.001   0.006  -0.010  -0.003   0.001  -0.019   0.003   0.001  -0.005  -0.001  -0.000
  0.006  -0.001   0.003  -0.012  -0.003   0.003   0.001   0.000  -0.006  -0.002  -0.004   0.001   0.000  -0.001  -0.002  -0.000
 total augmentation occupancy for first ion, spin component:           2
  0.000   0.000  -0.000   0.000   0.000  -0.000  -0.000   0.000  -0.000  -0.000   0.000  -0.000   0.000   0.000  -0.000  -0.000
  0.000   0.000  -0.000  -0.000  -0.000  -0.000  -0.000   0.000   0.000  -0.000   0.000   0.000   0.000   0.000   0.000  -0.000
 -0.000  -0.000   0.000  -0.000  -0.000   0.000   0.000  -0.000  -0.000  -0.000  -0.000  -0.000   0.000   0.000  -0.000   0.000
  0.000  -0.000  -0.000   0.000  -0.000   0.000   0.000   0.000  -0.000   0.000   0.000  -0.000   0.000  -0.000   0.000  -0.000
  0.000  -0.000  -0.000  -0.000   0.000  -0.000  -0.000   0.000   0.000  -0.000   0.000  -0.000   0.000   0.000  -0.000  -0.000
 -0.000  -0.000   0.000   0.000  -0.000   0.000   0.000  -0.000  -0.000  -0.000  -0.000   0.000   0.000  -0.000  -0.000   0.000
 -0.000  -0.000   0.000   0.000  -0.000   0.000   0.000  -0.000  -0.000   0.000  -0.000   0.000   0.000  -0.000   0.000   0.000
  0.000   0.000  -0.000   0.000   0.000  -0.000  -0.000   0.000   0.000   0.000   0.000  -0.000  -0.000   0.000   0.000  -0.000
 -0.000   0.000  -0.000  -0.000   0.000  -0.000  -0.000   0.000   0.000   0.000   0.000  -0.000   0.000   0.000   0.000  -0.000
 -0.000  -0.000  -0.000   0.000  -0.000  -0.000   0.000   0.000   0.000   0.000  -0.000   0.000   0.000  -0.000   0.000  -0.000
  0.000   0.000  -0.000   0.000   0.000  -0.000  -0.000   0.000   0.000  -0.000  -0.000   0.000  -0.000   0.000   0.000  -0.000
 -0.000   0.000  -0.000  -0.000  -0.000   0.000   0.000  -0.000  -0.000   0.000   0.000   0.000  -0.000  -0.000  -0.000   0.000
  0.000   0.000   0.000   0.000   0.000   0.000   0.000  -0.000   0.000   0.000  -0.000  -0.000  -0.000  -0.000   0.000  -0.000
  0.000   0.000   0.000  -0.000   0.000  -0.000  -0.000   0.000   0.000  -0.000   0.000  -0.000  -0.000   0.000   0.000  -0.000
 -0.000   0.000  -0.000   0.000  -0.000  -0.000   0.000   0.000   0.000   0.000   0.000  -0.000   0.000   0.000  -0.000  -0.000
 -0.000  -0.000   0.000  -0.000  -0.000   0.000   0.000  -0.000  -0.000  -0.000  -0.000   0.000  -0.000  -0.000  -0.000   0.000
 -0.000  -0.000  -0.000  -0.000  -0.000   0.000   0.000  -0.000  -0.000   0.000  -0.000   0.000   0.000  -0.000  -0.000   0.000
  0.000  -0.000  -0.000  -0.000   0.000  -0.000   0.000   0.000   0.000  -0.000  -0.000  -0.000   0.000   0.000  -0.000   0.000


------------------------ aborting loop because EDIFF is reached ----------------------------------------


    CHARGE:  cpu time    0.04: real time    0.05
    FORLOC:  cpu time    0.01: real time    0.01
    FORNL :  cpu time    0.24: real time    0.25
    STRESS:  cpu time    0.30: real time    0.30
    FORCOR:  cpu time    0.22: real time    0.23
    FORHAR:  cpu time    0.03: real time    0.03
    MIXING:  cpu time    0.00: real time    0.01
    OFIELD:  cpu time    0.00: real time    0.00

  FORCE on cell =-STRESS in cart. coord.  units (eV):
  Direction    XX          YY          ZZ          XY          YZ          ZX
  --------------------------------------------------------------------------------------
  Alpha Z    11.48164    11.48164    11.48164
  Ewald    2189.14316  1477.12264  6726.04094   876.15719  -860.18092   478.25669
  Hartree  5611.88521  5041.55994  9654.69164   699.88794  -737.47382   410.41053
  E(xc)    -579.73511  -580.13973  -578.47284     0.51991    -0.37595     0.19813
  Local   -9411.48413 -8135.63213-17986.99121 -1568.19046  1596.65150  -888.25066
  n-local  -115.19860  -114.26594  -113.67629    -1.35340    -0.37854     0.22023
  augment   918.22101   919.86609   916.02980    -1.96814     0.58574    -0.27983
  Kinetic  1372.26862  1376.41040  1367.35766    -5.08380     1.14941    -0.54284
  Fock        0.00000     0.00000     0.00000     0.00000     0.00000     0.00000
  -------------------------------------------------------------------------------------
  Total      -3.41821    -3.59710    -3.53866    -0.03077    -0.02258     0.01226
  in kB      -0.73926    -0.77795    -0.76531    -0.00665    -0.00488     0.00265
  external pressure =       -0.76 kB  Pullay stress =        0.00 kB


 VOLUME and BASIS-vectors are now :
 -----------------------------------------------------------------------------
  energy-cutoff  :      249.84
  volume of cell :     7408.16
      direct lattice vectors                 reciprocal lattice vectors
    19.494110992  0.000000000  0.000000000     0.051297543  0.000000000  0.000000000
     0.000000000 19.494110992  0.000000000     0.000000000  0.051297543  0.000000000
     0.000000000  0.000000000 19.494110992     0.000000000  0.000000000  0.051297543

  length of vectors
    19.494110992 19.494110992 19.494110992     0.051297543  0.051297543  0.051297543


 FORCES acting on ions
    electron-ion (+dipol)            ewald-force                    non-local-force                 convergence-correction
 -----------------------------------------------------------------------------------------------
   0.149E+03 -.286E+03 0.776E+03   -.147E+03 0.283E+03 -.771E+03   -.117E+01 0.258E+01 -.528E+01   0.958E-02 -.486E-01 -.101E-01
   0.308E+03 0.629E+03 0.570E+03   -.305E+03 -.625E+03 -.566E+03   -.260E+01 -.359E+01 -.327E+01   0.167E-01 0.125E-01 0.125E-01
   -.721E+03 0.128E+02 0.544E+03   0.717E+03 -.138E+02 -.541E+03   0.425E+01 0.920E+00 -.334E+01   -.137E-01 0.382E-01 -.577E-02
   0.444E+03 -.671E+03 0.230E+03   -.443E+03 0.670E+03 -.228E+03   -.988E+00 0.146E+01 -.171E+01   -.501E-01 0.159E-01 -.831E-02
   0.841E+03 0.357E+03 -.748E+02   -.836E+03 -.356E+03 0.741E+02   -.503E+01 -.182E+01 0.701E+00   -.210E-01 0.145E-01 -.321E-01
   -.642E+03 -.649E+03 -.850E+02   0.638E+03 0.645E+03 0.846E+02   0.359E+01 0.394E+01 0.437E+00   0.190E-01 -.243E-01 -.573E-02
   -.436E+03 0.666E+03 -.226E+02   0.435E+03 -.665E+03 0.206E+02   0.646E+00 -.109E+01 0.207E+01   0.117E-01 0.362E-01 0.245E-01
   0.413E+03 -.584E+03 -.569E+03   -.412E+03 0.583E+03 0.565E+03   -.117E+01 0.140E+01 0.399E+01   0.200E-02 0.129E-01 0.262E-01
   0.230E+03 0.550E+03 -.678E+03   -.226E+03 -.546E+03 0.675E+03   -.334E+01 -.423E+01 0.281E+01   -.251E-01 -.479E-02 0.850E-02
   -.584E+03 -.268E+02 -.690E+03   0.579E+03 0.251E+02 0.687E+03   0.513E+01 0.167E+01 0.287E+01   0.292E-01 -.293E-01 -.357E-02
 -----------------------------------------------------------------------------------------------
   0.726E+00 -.125E+01 0.774E+00   0.000E+00 -.242E-12 0.000E+00   -.693E+00 0.123E+01 -.730E+00   -.216E-01 0.231E-01 0.619E-02
 
 
 POSITION                                       TOTAL-FORCE (eV/Angst)
 -----------------------------------------------------------------------------------
      9.23934     10.73211      6.06564         0.009212     -0.040571     -0.012601
      8.95923      8.48857      7.71871         0.017818      0.003380      0.012523
     11.29344      9.87905      7.77888        -0.008530      0.032840     -0.003867
      8.87348     11.09421      8.80358        -0.037597      0.010275      0.000307
      7.71796      8.77442     10.18267        -0.010492      0.011863     -0.027387
     11.36253     11.25767     10.19200         0.014870     -0.020844     -0.004954
     10.51533      8.54338     10.09199         0.007312      0.025947      0.019707
      8.97082     10.82904     11.52660         0.006795      0.006466      0.018742
      9.18160      8.15249     12.55046        -0.020503     -0.002203      0.001238
     11.35685      9.71961     12.56001         0.021114     -0.027150     -0.003709
 -----------------------------------------------------------------------------------
    total drift:                                0.011297      0.009182      0.050184


--------------------------------------------------------------------------------------------------------



  FREE ENERGIE OF THE ION-ELECTRON SYSTEM (eV)
  ---------------------------------------------------
  free  energy   TOTEN  =       -17.75266297 eV

  energy  without entropy=      -17.75266297  energy(sigma->0) =      -17.75266297
 
 d Force = 0.4434705E-03[ 0.391E-03, 0.495E-03]  d Energy = 0.5623324E-03-0.119E-03
 d Force = 0.9937977E+00[ 0.995E+00, 0.993E+00]  d Ewald  = 0.9937978E+00-0.147E-06


--------------------------------------------------------------------------------------------------------


    POTLOK:  cpu time    0.24: real time    0.24


--------------------------------------------------------------------------------------------------------




--------------------------------------------------------------------------------------------------------


  
 reached required accuracy - stopping structural energy minimisation
     LOOP+:  cpu time    3.03: real time    3.21
    4ORBIT:  cpu time    0.00: real time    0.00

 total amount of memory used by VASP on root node    53920. kBytes
========================================================================

   base      :      30000. kBytes
   nonl-proj :       1264. kBytes
   fftplans  :       5768. kBytes
   grid      :      14451. kBytes
   one-center:         31. kBytes
   wavefun   :       2406. kBytes
 
  
  
 General timing and accounting informations for this job:
 ========================================================
  
                  Total CPU time used (sec):       36.362
                            User time (sec):       35.686
                          System time (sec):        0.676
                         Elapsed time (sec):       44.128
  
                   Maximum memory used (kb):       61872.
                   Average memory used (kb):           0.
  
                          Minor page faults:       108449
                          Major page faults:            0
                 Voluntary context switches:         3172
