unknown system                          
           1
    19.494111    0.000000    0.000000
     0.000000   19.494111    0.000000
     0.000000    0.000000   19.494111
   Ag
  10
Direct configuration=     1
   0.47392833  0.55063726  0.31117745
   0.45954462  0.43542391  0.39592035
   0.57934963  0.50668732  0.39904956
   0.45528934  0.56908224  0.45161063
   0.39594778  0.45008256  0.52242779
   0.58282403  0.57754908  0.52284181
   0.53938228  0.43818477  0.51763976
   0.46017001  0.55547784  0.59122666
   0.47105016  0.41822010  0.64379662
   0.58251381  0.49865491  0.64430938
Direct configuration=     2
   0.47393509  0.55061066  0.31117124
   0.45955504  0.43542866  0.39592799
   0.57934363  0.50670824  0.39904659
   0.45526388  0.56908817  0.45160845
   0.39593889  0.45008840  0.52240738
   0.58283544  0.57753448  0.52283746
   0.53938932  0.43820219  0.51765344
   0.46017275  0.55548417  0.59124156
   0.47103598  0.41821577  0.64379947
   0.58252996  0.49863925  0.64430641
Direct configuration=     3
   0.47395537  0.55053086  0.31115264
   0.45958630  0.43544291  0.39595091
   0.57932564  0.50677100  0.39903768
   0.45518748  0.56910594  0.45160193
   0.39591224  0.45010595  0.52234615
   0.58286969  0.57749066  0.52282443
   0.53941046  0.43825445  0.51769448
   0.46018100  0.55550314  0.59128627
   0.47099344  0.41820279  0.64380801
   0.58257839  0.49859230  0.64429750
