12
Energy = -24.21906977 eV
In 11.528112557215247 12.993529949905778 16.34257719338563
In 11.192917877722381 14.135841834022917 13.24009493463489
In 16.56227207312763 13.735219864997806 13.643470377641368
In 12.691391730412489 15.762303378059716 15.679681806892017
In 15.888371757694037 14.763347108286007 10.089539182822108
In 14.16616353412088 15.560997863703728 12.954380237582601
In 13.017258056673894 13.728429636599477 10.87946316601458
In 12.4636177064593 10.92647511820864 12.261849665629008
In 10.030786961418505 11.594944779282228 13.905500470780296
In 13.835787252333313 12.662306160258098 14.371572252657968
In 15.361355068159536 11.87753360323345 11.565190010638851
In 12.280227559518558 10.080360800365602 15.470383374834174
