15
Energy = -31.5832404 Dir = /p/work1/plile1/GA_structures/In/15/all_candidates/614/
In 9.276322385710158 8.18339521399975 6.27066740926672
In 8.368993346691333 11.087431232265187 6.865939639386788
In 6.21378590116804 10.48029902951678 8.888981919311574
In 11.212449972943752 11.21258354683088 8.062954415460432
In 6.564418836381132 7.63063607312164 7.706150049452961
In 11.927279907166094 8.245353536495971 7.939537293614053
In 10.152628562781556 5.405805615867774 7.435937620994444
In 9.25177130816603 13.538586015418385 8.915903528403401
In 11.105302732445018 7.2584847718588 10.63290989416152
In 9.109508835351438 9.120101259448951 9.240914954120216
In 8.337528184868532 11.577064644002439 10.975458711825306
In 11.519056867442252 10.486591873282105 11.038725620941294
In 8.405651674924632 5.987466779640971 9.816984131238263
In 6.697993151520472 8.324096669650599 11.070332821073467
In 9.239851870206817 8.844647276366738 12.521145528516788
