8
Energy = -13.67208292 eV
In 14.333089469198459 11.392746263723549 13.566568690369621
In 12.01782097465383 9.450027441990079 13.010170686429188
In 12.234313926837212 12.008975960008799 11.324242312948753
In 12.604666721355322 14.48626275086295 9.446741344479594
In 10.041238415374458 7.286654849657978 12.118990778448817
In 9.905460963331349 10.157346392978255 10.887743914390628
In 10.096659503836593 12.726902281731405 9.22289973338132
In 7.473449207273843 11.140788654191612 9.168284955561308
