8
Energy = -15.06848427 eV
In 8.628091784816878 12.745665304221305 11.26168269558998
In 10.051899231018194 11.521161807740821 8.625869591385255
In 9.78870975259101 8.506135082190378 11.46411805584311
In 11.14998644128072 7.329401151065634 8.940670591398291
In 11.10986721320182 11.114381341229022 11.820800606865015
In 7.534696486531121 10.068856356034587 10.385816324599721
In 8.86078121537364 8.884559391779979 7.89584531569457
In 12.47058330834499 9.953345114979802 9.349598859177014
