9
Energy = -17.26992019 eV
In 12.775425630140669 7.955804057140814 10.200995549007416
In 10.828327778045246 10.071489343549874 8.77454741552001
In 12.269550211608488 10.763069304231301 11.435011136158813
In 10.04359285571484 7.021419836838862 8.957787028903736
In 10.12335996888936 12.675122093884111 10.74658108874831
In 7.726420871389602 8.859419394258222 8.576836765403527
In 9.440417973024454 9.064734284938067 11.522561506712359
In 8.52121974139841 11.749798279900734 8.137495695011266
In 7.530269952315589 11.097391412062066 10.90642369555054
