9
Energy = -17.32019632 eV
In 11.274177435337126 8.246678119621738 8.45335565376782
In 13.689056046054953 9.119361951591554 9.831056419506616
In 12.904813920766507 11.927755873387486 9.92804339826771
In 10.310136692161842 11.189047291885842 8.409355520108834
In 11.11859966133441 9.483853045282844 11.773648534200428
In 10.34983451224335 12.335318496842312 11.520464539980651
In 8.771794599913125 8.786872402497577 10.097626069681748
In 7.752198258721878 11.672165507761708 10.042526298597398
In 8.004516169367138 10.42451281489726 12.86952300459561
