   43   43 1000    2
  0.2374120E+03  0.2169320E-08  0.2169320E-08  0.2169320E-08  0.1000000E-15
  1.000000000000000E-004
  CAR 
 unknown system                          
    473      1    308
 
  0.0000000E+00  0.0000000E+00  0.0000000E+00  0.1000000E+01
    1       -9.638287     -9.625189
    2       -9.082528     -9.073134
    3       -9.045883     -9.037413
    4       -8.990603     -8.981366
    5       -8.936778     -8.928444
    6       -8.922729     -8.911478
    7       -8.915992     -8.905509
    8       -8.863458     -8.856658
    9       -8.855250     -8.846540
   10       -8.825569     -8.816292
   11       -8.796024     -8.787644
   12       -8.786258     -8.774737
   13       -8.767806     -8.760205
   14       -8.766186     -8.757968
   15       -8.734981     -8.725547
   16       -8.701452     -8.693480
   17       -8.694948     -8.687490
   18       -8.669769     -8.662421
   19       -8.642332     -8.634068
   20       -8.635497     -8.629334
   21       -8.616254     -8.605694
   22       -8.607187     -8.600660
   23       -8.581733     -8.573323
   24       -8.562319     -8.553653
   25       -8.561072     -8.551409
   26       -8.550826     -8.543080
   27       -8.524122     -8.514435
   28       -8.513827     -8.504008
   29       -8.494343     -8.484308
   30       -8.488539     -8.480554
   31       -8.481659     -8.472395
   32       -8.447750     -8.438466
   33       -8.430356     -8.421991
   34       -8.425583     -8.418059
   35       -8.400779     -8.394258
   36       -8.381708     -8.370644
   37       -8.369737     -8.362468
   38       -8.346205     -8.339310
   39       -8.343294     -8.334561
   40       -8.339333     -8.331908
   41       -8.323970     -8.317250
   42       -8.314080     -8.306324
   43       -8.298208     -8.290295
   44       -8.292622     -8.286490
   45       -8.277637     -8.270419
   46       -8.273860     -8.265480
   47       -8.240205     -8.233456
   48       -8.238656     -8.231039
   49       -8.217287     -8.210373
   50       -8.204073     -8.196920
   51       -8.195386     -8.188006
   52       -8.186807     -8.180076
   53       -8.167294     -8.159757
   54       -8.159975     -8.152177
   55       -8.143912     -8.136615
   56       -8.124292     -8.116128
   57       -8.121428     -8.113428
   58       -8.097939     -8.088498
   59       -8.071432     -8.064756
   60       -8.050528     -8.044306
   61       -8.027251     -8.020346
   62       -8.021590     -8.014244
   63       -7.998089     -7.991978
   64       -7.975997     -7.967815
   65       -7.957861     -7.950036
   66       -7.946789     -7.939016
   67       -7.932598     -7.926143
   68       -7.927301     -7.920149
   69       -7.922722     -7.915783
   70       -7.909220     -7.900194
   71       -7.890457     -7.883315
   72       -7.875605     -7.867822
   73       -7.848293     -7.840947
   74       -7.847670     -7.839583
   75       -7.831171     -7.826038
   76       -7.803141     -7.796576
   77       -7.793775     -7.787620
   78       -7.765246     -7.757209
   79       -7.738827     -7.730685
   80       -7.728052     -7.720201
   81       -7.710528     -7.703466
   82       -7.707154     -7.698946
   83       -7.678878     -7.671714
   84       -7.664172     -7.657314
   85       -7.650052     -7.642451
   86       -7.633994     -7.625266
   87       -7.622119     -7.615980
   88       -7.605096     -7.597120
   89       -7.601570     -7.594477
   90       -7.570584     -7.562587
   91       -7.552987     -7.546100
   92       -7.543225     -7.534737
   93       -7.539530     -7.532698
   94       -7.522406     -7.514622
   95       -7.494673     -7.486513
   96       -7.477776     -7.469560
   97       -7.461511     -7.454645
   98       -7.450515     -7.443774
   99       -7.435563     -7.426643
  100       -7.421103     -7.413159
  101       -7.413419     -7.406069
  102       -7.397838     -7.391844
  103       -7.371842     -7.363195
  104       -7.362925     -7.354930
  105       -7.325025     -7.319144
  106       -7.313989     -7.306800
  107       -7.295588     -7.288841
  108       -7.286947     -7.279676
  109       -7.271553     -7.264967
  110       -7.268561     -7.261596
  111       -7.265062     -7.258807
  112       -7.251210     -7.243544
  113       -7.236724     -7.230489
  114       -7.223802     -7.216044
  115       -7.208960     -7.201798
  116       -7.186855     -7.177965
  117       -7.170546     -7.163378
  118       -7.166307     -7.159567
  119       -7.144153     -7.138499
  120       -7.123723     -7.117066
  121       -7.118354     -7.111295
  122       -7.105280     -7.098857
  123       -7.089936     -7.083191
  124       -7.085096     -7.078753
  125       -7.049066     -7.042144
  126       -7.046842     -7.039725
  127       -7.042415     -7.037101
  128       -7.023101     -7.015332
  129       -7.008790     -7.002048
  130       -6.992198     -6.986016
  131       -6.980878     -6.974390
  132       -6.970782     -6.964786
  133       -6.964171     -6.958545
  134       -6.941631     -6.934461
  135       -6.919491     -6.913411
  136       -6.909217     -6.902890
  137       -6.897813     -6.891689
  138       -6.882728     -6.876558
  139       -6.876706     -6.870076
  140       -6.869342     -6.861244
  141       -6.855785     -6.848505
  142       -6.838109     -6.831274
  143       -6.819669     -6.813703
  144       -6.814881     -6.808766
  145       -6.807726     -6.801016
  146       -6.800226     -6.793500
  147       -6.790776     -6.784755
  148       -6.779078     -6.774150
  149       -6.772783     -6.765633
  150       -6.765319     -6.759425
  151       -6.761838     -6.754941
  152       -6.746235     -6.739910
  153       -6.740321     -6.733913
  154       -6.729460     -6.723596
  155       -6.720574     -6.713800
  156       -6.712945     -6.706886
  157       -6.703004     -6.696060
  158       -6.689721     -6.683550
  159       -6.680898     -6.675365
  160       -6.665756     -6.660447
  161       -6.660951     -6.655056
  162       -6.645359     -6.640009
  163       -6.643489     -6.636559
  164       -6.637815     -6.632337
  165       -6.636905     -6.630198
  166       -6.619590     -6.613086
  167       -6.609743     -6.604225
  168       -6.600856     -6.595732
  169       -6.598089     -6.591723
  170       -6.587278     -6.581301
  171       -6.581339     -6.575999
  172       -6.562601     -6.555300
  173       -6.552148     -6.545851
  174       -6.543943     -6.537724
  175       -6.540365     -6.535167
  176       -6.538953     -6.533561
  177       -6.520343     -6.514710
  178       -6.519161     -6.513611
  179       -6.511225     -6.505033
  180       -6.501040     -6.494746
  181       -6.493224     -6.486597
  182       -6.484137     -6.478701
  183       -6.465473     -6.458446
  184       -6.461582     -6.454096
  185       -6.453531     -6.448030
  186       -6.451125     -6.445468
  187       -6.440340     -6.434359
  188       -6.433866     -6.428561
  189       -6.416240     -6.410648
  190       -6.402997     -6.397497
  191       -6.393482     -6.387161
  192       -6.383143     -6.376568
  193       -6.375538     -6.370546
  194       -6.362135     -6.356657
  195       -6.352463     -6.346771
  196       -6.350935     -6.344852
  197       -6.325856     -6.319490
  198       -6.319178     -6.314183
  199       -6.309249     -6.302412
  200       -6.300087     -6.294072
  201       -6.274362     -6.268487
  202       -6.266467     -6.260665
  203       -6.253785     -6.247266
  204       -6.233662     -6.227877
  205       -6.219504     -6.212636
  206       -6.215920     -6.209473
  207       -6.208931     -6.202370
  208       -6.193045     -6.187124
  209       -6.170942     -6.164993
  210       -6.153193     -6.146430
  211       -6.139294     -6.133976
  212       -6.129792     -6.123423
  213       -6.119760     -6.114120
  214       -6.110575     -6.104368
  215       -6.096030     -6.090780
  216       -6.074442     -6.069828
  217       -6.051941     -6.047599
  218       -6.024307     -6.017898
  219       -5.995496     -5.990028
  220       -5.973378     -5.960041
  221       -5.964883     -5.949801
  222       -5.899655     -5.883929
  223       -5.656030     -5.643785
  224       -5.640734     -5.628894
  225       -5.259247     -5.246490
  226       -4.984600     -4.950647
  227       -4.789020     -4.763350
  228       -4.601012     -4.585870
  229       -4.536956     -4.513556
  230       -4.477709     -4.461598
  231       -4.363176     -4.340318
  232       -4.302520     -4.279153
  233       -3.623570     -3.605529
  234       -3.516064     -3.499186
  235       -3.367701     -3.352934
  236       -3.319412     -3.301909
  237       -3.158595     -3.083031
  238       -2.982364     -2.958977
  239       -2.882417     -2.863342
  240       -2.848016     -2.825143
  241       -2.772426     -2.749702
  242       -2.731557     -2.702227
  243       -2.650533     -2.627029
  244       -2.563555     -2.540533
  245       -2.115301     -2.094019
  246       -2.004554     -1.985087
  247       -1.968931     -1.946611
  248       -1.928113     -1.909844
  249       -1.822890     -1.806757
  250       -1.761546     -1.744965
  251       -1.599211     -1.553214
  252       -1.458540     -1.415389
  253       -1.314185     -1.275052
  254       -1.256685     -1.223322
  255       -1.155441     -1.134396
  256       -1.125318     -1.100169
  257       -1.056622     -1.035236
  258       -1.002458     -0.976198
  259       -0.958945     -0.940075
  260       -0.820842     -0.798048
  261       -0.774207     -0.748954
  262       -0.627230     -0.601202
  263       -0.603566     -0.579721
  264       -0.461766     -0.442089
  265       -0.388990     -0.371368
  266       -0.286449     -0.270399
  267       -0.169428     -0.144369
  268       -0.076552     -0.059233
  269        0.089961      0.119989
  270        0.173858      0.196556
  271        0.256607      0.277862
  272        0.289060      0.316059
  273        0.328576      0.350328
  274        0.374361      0.401118
  275        0.659162      0.685077
  276        0.677068      0.703497
  277        0.716961      0.739936
  278        0.805940      0.824450
  279        0.844306      0.859544
  280        0.846783      0.869090
  281        0.881123      0.902454
  282        0.909129      0.934613
  283        0.967098      0.988068
  284        0.971437      0.990882
  285        1.006355      1.026347
  286        1.036303      1.067140
  287        1.068731      1.086524
  288        1.076148      1.097257
  289        1.133999      1.150765
  290        1.161593      1.164730
  291        1.170803      1.184912
  292        1.203893      1.224326
  293        1.214167      1.226667
  294        1.250764      1.253485
  295        1.269664      1.289859
  296        1.294991      1.312825
  297        1.297741      1.319559
  298        1.322236      1.334030
  299        1.337525      1.341036
  300        1.347358      1.356229
  301        1.456035      1.474321
  302        1.472313      1.483435
  303        1.489164      1.514353
  304        1.529300      1.548300
  305        1.545746      1.552900
  306        1.582752      1.591044
  307        1.604689      1.603832
  308        1.625950      1.627532
