unknown system                          
           1
    24.002873    0.000000    0.000000
     0.000000   24.002873    0.000000
     0.000000    0.000000   24.002873
   Ag
  50
Direct configuration=     1
   0.46826303  0.57414004  0.76893756
   0.49510228  0.65379573  0.68873834
   0.52126272  0.42823084  0.75329528
   0.40605677  0.57149627  0.67044516
   0.41154697  0.47559891  0.72979772
   0.62300727  0.47523848  0.73723685
   0.58026651  0.58994067  0.73350746
   0.40348050  0.67226949  0.61902079
   0.51065377  0.70757281  0.58861747
   0.51509310  0.51475310  0.68278174
   0.46239495  0.40648264  0.65635172
   0.49949935  0.58642080  0.59310164
   0.63423862  0.53606801  0.64546121
   0.37404394  0.47075565  0.61788980
   0.58313174  0.40212679  0.65414110
   0.37637626  0.57465300  0.56045608
   0.59789207  0.64255656  0.63058786
   0.61218368  0.38374311  0.54128215
   0.43816744  0.65731119  0.51093198
   0.42842265  0.39507137  0.54803845
   0.53118139  0.47192868  0.58058778
   0.51876521  0.33595479  0.58530885
   0.67763715  0.59992387  0.56042984
   0.46501267  0.52032100  0.50295293
   0.60723715  0.68381478  0.52449250
   0.55666472  0.58690938  0.49464164
   0.51604877  0.73324137  0.47647467
   0.51425824  0.57214271  0.32614689
   0.35781426  0.47508365  0.50739208
   0.72799080  0.52787562  0.48389268
   0.63352811  0.49752766  0.53938325
   0.53536753  0.43465934  0.47096340
   0.39304367  0.58090964  0.43810462
   0.59682514  0.34702573  0.43121612
   0.48831668  0.33020450  0.47407209
   0.58211958  0.51774465  0.41063996
   0.47308737  0.48806228  0.39438237
   0.66204494  0.61119512  0.44650742
   0.49166838  0.64124677  0.41115627
   0.59213946  0.68886311  0.40459960
   0.66920224  0.43262452  0.45114221
   0.40733476  0.39967329  0.43248144
   0.33887866  0.48315642  0.39589832
   0.68996395  0.51477493  0.37251691
   0.40486796  0.54916159  0.32759432
   0.62088669  0.60230474  0.33822606
   0.61041154  0.42970562  0.34774369
   0.50456611  0.37217009  0.36612613
   0.51717756  0.45960699  0.28996211
   0.40875299  0.42783902  0.31822081
Direct configuration=     2
   0.46824975  0.57406789  0.76902813
   0.49507338  0.65379426  0.68883339
   0.52117891  0.42817250  0.75342610
   0.40601207  0.57151173  0.67054427
   0.41155598  0.47559775  0.72992784
   0.62296597  0.47528279  0.73737356
   0.58045429  0.58999630  0.73366998
   0.40344570  0.67240694  0.61903049
   0.51069222  0.70765215  0.58859291
   0.51507716  0.51469725  0.68283802
   0.46239392  0.40636216  0.65637955
   0.49939164  0.58645572  0.59314506
   0.63420188  0.53599923  0.64546324
   0.37408737  0.47082880  0.61806530
   0.58323833  0.40214180  0.65426623
   0.37632780  0.57464800  0.56044493
   0.59783524  0.64268536  0.63072133
   0.61226211  0.38368353  0.54138240
   0.43818702  0.65734070  0.51095935
   0.42838931  0.39508964  0.54799204
   0.53114817  0.47183531  0.58057880
   0.51877665  0.33589420  0.58533389
   0.67772082  0.59995082  0.56041697
   0.46493042  0.52037859  0.50300337
   0.60727123  0.68397355  0.52443669
   0.55668784  0.58696677  0.49472133
   0.51599960  0.73340411  0.47649950
   0.51432148  0.57213408  0.32594587
   0.35767285  0.47508970  0.50722684
   0.72816223  0.52782689  0.48383625
   0.63349242  0.49749433  0.53929347
   0.53543672  0.43453673  0.47102388
   0.39295347  0.58084101  0.43808722
   0.59686982  0.34688386  0.43115301
   0.48833535  0.33002420  0.47409184
   0.58220042  0.51792107  0.41055203
   0.47290539  0.48811359  0.39423889
   0.66214424  0.61114964  0.44642613
   0.49151005  0.64110068  0.41109762
   0.59221485  0.68893844  0.40459604
   0.66921077  0.43262943  0.45107725
   0.40731090  0.39954435  0.43250913
   0.33885294  0.48318902  0.39580623
   0.69005398  0.51482487  0.37248290
   0.40477015  0.54917502  0.32743694
   0.62103544  0.60228065  0.33811824
   0.61050812  0.42957831  0.34768413
   0.50450101  0.37225656  0.36608809
   0.51713992  0.45970950  0.28985739
   0.40872000  0.42781748  0.31817325
Direct configuration=     3
   0.46820989  0.57385144  0.76929984
   0.49498667  0.65378986  0.68911856
   0.52092748  0.42799749  0.75381857
   0.40587796  0.57155813  0.67084157
   0.41158303  0.47559430  0.73031821
   0.62284206  0.47541572  0.73778371
   0.58101763  0.59016320  0.73415753
   0.40334127  0.67281931  0.61905961
   0.51080757  0.70789018  0.58851925
   0.51502935  0.51452972  0.68300684
   0.46239082  0.40600069  0.65646306
   0.49906850  0.58656049  0.59327531
   0.63409166  0.53579289  0.64546936
   0.37421768  0.47104827  0.61859177
   0.58355810  0.40218684  0.65464164
   0.37618243  0.57463300  0.56041151
   0.59766473  0.64307176  0.63112174
   0.61249741  0.38350479  0.54168317
   0.43824578  0.65742924  0.51104146
   0.42828930  0.39514446  0.54785283
   0.53104851  0.47155520  0.58055185
   0.51881098  0.33571243  0.58540900
   0.67797185  0.60003167  0.56037839
   0.46468366  0.52055137  0.50315468
   0.60737350  0.68444985  0.52426928
   0.55675719  0.58713895  0.49496040
   0.51585209  0.73389235  0.47657398
   0.51451120  0.57210818  0.32534281
   0.35724864  0.47510785  0.50673111
   0.72867653  0.52768073  0.48366694
   0.63338538  0.49739433  0.53902412
   0.53564429  0.43416890  0.47120532
   0.39268286  0.58063510  0.43803500
   0.59700385  0.34645824  0.43096369
   0.48839134  0.32948329  0.47415110
   0.58244294  0.51845035  0.41028825
   0.47235944  0.48826753  0.39380844
   0.66244214  0.61101319  0.44618229
   0.49103506  0.64066241  0.41092165
   0.59244101  0.68916442  0.40458535
   0.66923634  0.43264414  0.45088236
   0.40723932  0.39915755  0.43259222
   0.33877581  0.48328684  0.39552994
   0.69032407  0.51497469  0.37238084
   0.40447671  0.54921531  0.32696478
   0.62148168  0.60220839  0.33779476
   0.61079787  0.42919637  0.34750543
   0.50430569  0.37251598  0.36597394
   0.51702700  0.46001704  0.28954325
   0.40862103  0.42775287  0.31803059
Direct configuration=     4
   0.46813017  0.57341854  0.76984326
   0.49481325  0.65378107  0.68968891
   0.52042462  0.42764748  0.75460351
   0.40560975  0.57165093  0.67143618
   0.41163711  0.47558738  0.73109894
   0.62259423  0.47568157  0.73860400
   0.58214432  0.59049701  0.73513263
   0.40313243  0.67364403  0.61911784
   0.51103828  0.70836624  0.58837192
   0.51493373  0.51419466  0.68334447
   0.46238461  0.40527777  0.65663007
   0.49842224  0.58677003  0.59353583
   0.63387121  0.53538020  0.64548158
   0.37447829  0.47148722  0.61964473
   0.58419765  0.40227691  0.65539247
   0.37589168  0.57460300  0.56034465
   0.59732371  0.64384454  0.63192256
   0.61296800  0.38314731  0.54228469
   0.43836329  0.65760632  0.51120567
   0.42808928  0.39525409  0.54757439
   0.53084920  0.47099496  0.58049795
   0.51887963  0.33534889  0.58555924
   0.67847389  0.60019338  0.56030121
   0.46419015  0.52089693  0.50345732
   0.60757802  0.68540246  0.52393445
   0.55689591  0.58748330  0.49543854
   0.51555706  0.73486881  0.47672296
   0.51489065  0.57205638  0.32413669
   0.35640022  0.47514415  0.50573966
   0.72970512  0.52738840  0.48332832
   0.63317128  0.49719434  0.53848542
   0.53605942  0.43343324  0.47156819
   0.39214166  0.58022330  0.43793056
   0.59727192  0.34560700  0.43058504
   0.48850333  0.32840148  0.47426962
   0.58292798  0.51950889  0.40976070
   0.47126754  0.48857541  0.39294756
   0.66303796  0.61074029  0.44569459
   0.49008508  0.63978587  0.41056972
   0.59289333  0.68961638  0.40456397
   0.66928749  0.43267356  0.45049259
   0.40709616  0.39838394  0.43275839
   0.33862153  0.48348248  0.39497736
   0.69086424  0.51527433  0.37217674
   0.40388982  0.54929588  0.32602046
   0.62237418  0.60206387  0.33714781
   0.61137735  0.42843250  0.34714805
   0.50391506  0.37303481  0.36574566
   0.51680117  0.46063211  0.28891497
   0.40842308  0.42762363  0.31774527
Direct configuration=     5
   0.46797073  0.57255274  0.77093010
   0.49446641  0.65376347  0.69082959
   0.51941889  0.42694745  0.75617339
   0.40507333  0.57183653  0.67262540
   0.41174529  0.47557356  0.73266039
   0.62209858  0.47621327  0.74024459
   0.58439770  0.59116462  0.73708283
   0.40271475  0.67529349  0.61923430
   0.51149968  0.70931836  0.58807726
   0.51474249  0.51352454  0.68401975
   0.46237220  0.40383192  0.65696410
   0.49712971  0.58718911  0.59405685
   0.63343031  0.53455484  0.64550604
   0.37499952  0.47236510  0.62175064
   0.58547674  0.40245706  0.65689411
   0.37531020  0.57454300  0.56021093
   0.59664167  0.64539012  0.63352420
   0.61390919  0.38243235  0.54348774
   0.43859832  0.65796048  0.51153411
   0.42768923  0.39547336  0.54701752
   0.53045057  0.46987450  0.58039015
   0.51901694  0.33462179  0.58585970
   0.67947799  0.60051679  0.56014685
   0.46320312  0.52158806  0.50406258
   0.60798707  0.68730768  0.52326480
   0.55717334  0.58817200  0.49639481
   0.51496701  0.73682174  0.47702090
   0.51564955  0.57195280  0.32172445
   0.35470338  0.47521674  0.50375677
   0.73176230  0.52680375  0.48265109
   0.63274308  0.49679436  0.53740803
   0.53688969  0.43196193  0.47229394
   0.39105924  0.57939968  0.43772168
   0.59780804  0.34390453  0.42982775
   0.48872731  0.32623785  0.47450665
   0.58389805  0.52162599  0.40870559
   0.46908375  0.48919117  0.39122578
   0.66422958  0.61019449  0.44471920
   0.48818512  0.63803279  0.40986586
   0.59379797  0.69052030  0.40452122
   0.66938979  0.43273242  0.44971305
   0.40680984  0.39683672  0.43309074
   0.33831297  0.48387375  0.39387220
   0.69194460  0.51587362  0.37176853
   0.40271605  0.54945703  0.32413182
   0.62415918  0.60177483  0.33585391
   0.61253632  0.42690475  0.34643327
   0.50313380  0.37407249  0.36528909
   0.51634951  0.46186226  0.28765842
   0.40802719  0.42736517  0.31717463
Direct configuration=     6
   0.46794079  0.57239015  0.77113421
   0.49440128  0.65376017  0.69104381
   0.51923002  0.42681599  0.75646820
   0.40497259  0.57187139  0.67284873
   0.41176560  0.47557096  0.73295363
   0.62200550  0.47631312  0.74055269
   0.58482087  0.59129000  0.73744907
   0.40263631  0.67560325  0.61925617
   0.51158633  0.70949716  0.58802192
   0.51470658  0.51339869  0.68414656
   0.46236987  0.40356039  0.65702683
   0.49688698  0.58726782  0.59415469
   0.63334752  0.53439984  0.64551063
   0.37509740  0.47252996  0.62214612
   0.58571694  0.40249089  0.65717611
   0.37520100  0.57453173  0.56018582
   0.59651358  0.64568037  0.63382499
   0.61408594  0.38229808  0.54371367
   0.43864246  0.65802699  0.51159579
   0.42761411  0.39551454  0.54691295
   0.53037571  0.46966408  0.58036990
   0.51904273  0.33448525  0.58591613
   0.67966656  0.60057752  0.56011786
   0.46301776  0.52171784  0.50417625
   0.60806389  0.68766547  0.52313904
   0.55722544  0.58830133  0.49657439
   0.51485620  0.73718849  0.47707685
   0.51579207  0.57193334  0.32127145
   0.35438472  0.47523037  0.50338439
   0.73214863  0.52669395  0.48252391
   0.63266267  0.49671924  0.53720570
   0.53704561  0.43168562  0.47243024
   0.39085597  0.57924501  0.43768245
   0.59790873  0.34358481  0.42968554
   0.48876938  0.32583153  0.47455116
   0.58408023  0.52202357  0.40850745
   0.46867364  0.48930680  0.39090244
   0.66445336  0.61009199  0.44453603
   0.48782831  0.63770357  0.40973368
   0.59396786  0.69069005  0.40451319
   0.66940900  0.43274347  0.44956665
   0.40675607  0.39654616  0.43315315
   0.33825502  0.48394723  0.39366465
   0.69214748  0.51598616  0.37169187
   0.40249562  0.54948730  0.32377714
   0.62449439  0.60172055  0.33561092
   0.61275397  0.42661784  0.34629904
   0.50298708  0.37426736  0.36520335
   0.51626469  0.46209328  0.28742244
   0.40795284  0.42731663  0.31706747
Direct configuration=     7
   0.46826188  0.57203767  0.77158659
   0.49424118  0.65355621  0.69150335
   0.51885367  0.42660295  0.75710842
   0.40475808  0.57256123  0.67328221
   0.41197798  0.47529409  0.73363436
   0.62148828  0.47670664  0.74142921
   0.58518040  0.59127861  0.73792340
   0.40271034  0.67593426  0.61942290
   0.51164863  0.70973894  0.58824765
   0.51506571  0.51342405  0.68458450
   0.46233582  0.40315558  0.65744668
   0.49639049  0.58740635  0.59472167
   0.63280220  0.53433473  0.64523079
   0.37540726  0.47270283  0.62204598
   0.58586960  0.40268344  0.65768128
   0.37492258  0.57460208  0.56050660
   0.59661918  0.64586221  0.63402286
   0.61461589  0.38190957  0.54403851
   0.43878516  0.65798191  0.51151095
   0.42759717  0.39588449  0.54691010
   0.53011818  0.46923107  0.58073230
   0.51922295  0.33446448  0.58605783
   0.67935349  0.60055673  0.56005245
   0.46318330  0.52143653  0.50395959
   0.60841753  0.68803124  0.52308659
   0.55745318  0.58874882  0.49703132
   0.51458157  0.73757508  0.47665529
   0.51605646  0.57214456  0.32033586
   0.35404205  0.47521081  0.50371619
   0.73270863  0.52637933  0.48240456
   0.63268464  0.49709059  0.53663525
   0.53701672  0.43193120  0.47152633
   0.39017866  0.57902788  0.43758074
   0.59797097  0.34314705  0.42946361
   0.48896684  0.32511241  0.47451060
   0.58345400  0.52186430  0.40810570
   0.46884301  0.48956345  0.39151799
   0.66480515  0.60995606  0.44438816
   0.48795052  0.63712210  0.40956393
   0.59357541  0.69031245  0.40466156
   0.66919408  0.43260166  0.44918909
   0.40660154  0.39618132  0.43295112
   0.33820024  0.48379095  0.39266051
   0.69286043  0.51595953  0.37148450
   0.40215930  0.54990630  0.32270217
   0.62508638  0.60216544  0.33487443
   0.61274871  0.42650589  0.34617913
   0.50300066  0.37487678  0.36541346
   0.51632871  0.46228364  0.28702327
   0.40758250  0.42704177  0.31657578
Direct configuration=     8
   0.46900004  0.57122737  0.77262656
   0.49387312  0.65308735  0.69255979
   0.51798850  0.42611320  0.75858019
   0.40426494  0.57414708  0.67427872
   0.41246621  0.47465761  0.73519928
   0.62029924  0.47761129  0.74344422
   0.58600692  0.59125242  0.73901385
   0.40288054  0.67669521  0.61980618
   0.51179183  0.71029476  0.58876656
   0.51589130  0.51348233  0.68559128
   0.46225754  0.40222498  0.65841187
   0.49524911  0.58772483  0.59602509
   0.63154859  0.53418505  0.64458746
   0.37611959  0.47310022  0.62181578
   0.58622052  0.40312608  0.65884262
   0.37428254  0.57476381  0.56124403
   0.59686192  0.64628024  0.63447774
   0.61583418  0.38101643  0.54478527
   0.43911323  0.65787829  0.51131592
   0.42755822  0.39673496  0.54690355
   0.52952615  0.46823565  0.58156542
   0.51963728  0.33441673  0.58638360
   0.67863380  0.60050893  0.55990208
   0.46356385  0.52078983  0.50346152
   0.60923049  0.68887211  0.52296602
   0.55797673  0.58977755  0.49808172
   0.51395024  0.73846380  0.47568618
   0.51666424  0.57263014  0.31818506
   0.35325431  0.47516586  0.50447896
   0.73399601  0.52565607  0.48213018
   0.63273514  0.49794428  0.53532386
   0.53695029  0.43249575  0.46944836
   0.38862161  0.57852875  0.43734690
   0.59811405  0.34214068  0.42895343
   0.48942078  0.32345926  0.47441734
   0.58201439  0.52149816  0.40718212
   0.46923237  0.49015346  0.39293308
   0.66561385  0.60964357  0.44404823
   0.48823148  0.63578539  0.40917370
   0.59267320  0.68944440  0.40500267
   0.66870001  0.43227568  0.44832113
   0.40624630  0.39534260  0.43248666
   0.33807430  0.48343168  0.39035212
   0.69449939  0.51589830  0.37100777
   0.40138616  0.55086953  0.32023094
   0.62644730  0.60318818  0.33318132
   0.61273662  0.42624853  0.34590345
   0.50303188  0.37627778  0.36589649
   0.51647586  0.46272126  0.28610562
   0.40673113  0.42640991  0.31544544
Direct configuration=     9
   0.46956330  0.57086019  0.77314324
   0.49398721  0.65290878  0.69310400
   0.51776911  0.42603610  0.75912992
   0.40402806  0.57427304  0.67513064
   0.41267399  0.47466877  0.73534487
   0.61955497  0.47825042  0.74417729
   0.58595603  0.59131986  0.73911073
   0.40321682  0.67683077  0.61984445
   0.51186189  0.71029211  0.58887310
   0.51638396  0.51345293  0.68611389
   0.46212749  0.40205037  0.65898541
   0.49483428  0.58751886  0.59624878
   0.63055832  0.53397431  0.64447590
   0.37687147  0.47339657  0.62173915
   0.58601763  0.40345223  0.65927625
   0.37435516  0.57499235  0.56154458
   0.59698000  0.64613556  0.63441377
   0.61596282  0.38122223  0.54455885
   0.43934261  0.65746813  0.51114003
   0.42814675  0.39695144  0.54687523
   0.52955657  0.46777341  0.58153790
   0.51985253  0.33487240  0.58639021
   0.67791291  0.60044825  0.55973189
   0.46388731  0.52089531  0.50369977
   0.60941923  0.68923294  0.52310286
   0.55817547  0.59009882  0.49848692
   0.51371966  0.73818465  0.47536612
   0.51681269  0.57293661  0.31745470
   0.35318219  0.47521121  0.50438516
   0.73416229  0.52526976  0.48204447
   0.63230620  0.49807954  0.53465400
   0.53733159  0.43233666  0.46912591
   0.38805904  0.57821876  0.43729575
   0.59794848  0.34204526  0.42898077
   0.48957937  0.32358561  0.47446489
   0.58175167  0.52181171  0.40646138
   0.46864606  0.49085009  0.39219961
   0.66567204  0.60934779  0.44380574
   0.48864999  0.63488468  0.40919712
   0.59198059  0.68826140  0.40522576
   0.66834706  0.43220217  0.44806078
   0.40604072  0.39542198  0.43220157
   0.33842781  0.48305225  0.38972986
   0.69457506  0.51587244  0.37098054
   0.40186543  0.55081853  0.31981986
   0.62687795  0.60346623  0.33298731
   0.61239433  0.42657827  0.34577560
   0.50321154  0.37689991  0.36613461
   0.51637019  0.46263938  0.28615155
   0.40696942  0.42652627  0.31519458
Direct configuration=    10
   0.47125308  0.56975863  0.77469328
   0.49432951  0.65237308  0.69473664
   0.51711095  0.42580483  0.76077913
   0.40331741  0.57465093  0.67768639
   0.41329734  0.47470224  0.73578163
   0.61732216  0.48016783  0.74637653
   0.58580338  0.59152217  0.73940138
   0.40422565  0.67723747  0.61995925
   0.51207207  0.71028414  0.58919270
   0.51786195  0.51336472  0.68768174
   0.46173733  0.40152655  0.66070603
   0.49358980  0.58690095  0.59691985
   0.62758749  0.53334209  0.64414123
   0.37912711  0.47428562  0.62150929
   0.58540896  0.40443068  0.66057716
   0.37457302  0.57567796  0.56244622
   0.59733424  0.64570150  0.63422187
   0.61634873  0.38183963  0.54387960
   0.44003073  0.65623766  0.51061237
   0.42991235  0.39760087  0.54679026
   0.52964785  0.46638669  0.58145534
   0.52049827  0.33623940  0.58641006
   0.67575024  0.60026618  0.55922131
   0.46485768  0.52121177  0.50441453
   0.60998545  0.69031544  0.52351337
   0.55877171  0.59106264  0.49970253
   0.51302792  0.73734720  0.47440595
   0.51725804  0.57385603  0.31526363
   0.35296585  0.47534727  0.50410376
   0.73466112  0.52411082  0.48178734
   0.63101938  0.49848531  0.53264442
   0.53847547  0.43185942  0.46815858
   0.38637136  0.57728880  0.43714230
   0.59745176  0.34175899  0.42906278
   0.49005516  0.32396468  0.47460753
   0.58096349  0.52275234  0.40429918
   0.46688714  0.49293996  0.38999920
   0.66584660  0.60846043  0.44307826
   0.48990554  0.63218258  0.40926739
   0.58990277  0.68471241  0.40589502
   0.66728822  0.43198164  0.44727973
   0.40542400  0.39566012  0.43134631
   0.33948834  0.48191394  0.38786309
   0.69480206  0.51579484  0.37089885
   0.40330327  0.55066553  0.31858665
   0.62816988  0.60430036  0.33240528
   0.61136746  0.42756749  0.34539206
   0.50375053  0.37876632  0.36684897
   0.51605320  0.46239377  0.28628935
   0.40768427  0.42687536  0.31444200
Direct configuration=    11
   0.47185508  0.56934395  0.77556996
   0.49454767  0.65223229  0.69498384
   0.51685920  0.42563164  0.76156648
   0.40319071  0.57483945  0.67859294
   0.41330039  0.47492596  0.73584636
   0.61665724  0.48074699  0.74731884
   0.58587010  0.59231768  0.73953799
   0.40479172  0.67705543  0.62004802
   0.51224231  0.71001111  0.58915775
   0.51785842  0.51290438  0.68755813
   0.46168932  0.40120714  0.66114128
   0.49321500  0.58651203  0.59751057
   0.62630743  0.53269046  0.64364709
   0.38035461  0.47480447  0.62139478
   0.58514790  0.40491543  0.66112620
   0.37481162  0.57578446  0.56276644
   0.59704611  0.64560207  0.63417115
   0.61641532  0.38234052  0.54370964
   0.44034979  0.65550403  0.51049687
   0.43049310  0.39810605  0.54648780
   0.52972991  0.46601540  0.58164667
   0.52085622  0.33690828  0.58660707
   0.67496417  0.59994010  0.55889205
   0.46502720  0.52143090  0.50401776
   0.61003109  0.69100483  0.52366632
   0.55906663  0.59126397  0.50008054
   0.51276840  0.73664787  0.47431312
   0.51780158  0.57434873  0.31416072
   0.35338648  0.47554731  0.50374932
   0.73444228  0.52362645  0.48176358
   0.63022645  0.49862526  0.53197438
   0.53860008  0.43264049  0.46793402
   0.38617851  0.57680539  0.43734009
   0.59745235  0.34148190  0.42889192
   0.48993254  0.32454802  0.47462940
   0.58044349  0.52365965  0.40374707
   0.46679882  0.49358898  0.39027096
   0.66608134  0.60773360  0.44301361
   0.48946841  0.63025252  0.40951081
   0.58946878  0.68342924  0.40622174
   0.66711956  0.43205985  0.44690249
   0.40554160  0.39584057  0.43131685
   0.33971160  0.48169288  0.38761542
   0.69452032  0.51571725  0.37088715
   0.40356523  0.55100333  0.31778981
   0.62861924  0.60429969  0.33207330
   0.61113531  0.42794671  0.34521424
   0.50383426  0.37916267  0.36709461
   0.51598252  0.46249433  0.28613720
   0.40811988  0.42668557  0.31378295
Direct configuration=    12
   0.47366107  0.56809993  0.77819997
   0.49520214  0.65180992  0.69572543
   0.51610394  0.42511208  0.76392854
   0.40281060  0.57540504  0.68131259
   0.41330955  0.47559712  0.73604055
   0.61466249  0.48248447  0.75014579
   0.58607024  0.59470419  0.73994784
   0.40648993  0.67650928  0.62031435
   0.51275302  0.70919201  0.58905288
   0.51784783  0.51152333  0.68718732
   0.46154529  0.40024892  0.66244705
   0.49209061  0.58534528  0.59928273
   0.62246724  0.53073559  0.64216467
   0.38403711  0.47636103  0.62105128
   0.58436474  0.40636969  0.66277333
   0.37552741  0.57610398  0.56372709
   0.59618170  0.64530377  0.63401896
   0.61661512  0.38384319  0.54319979
   0.44130695  0.65330314  0.51015037
   0.43223535  0.39962161  0.54558041
   0.52997612  0.46490155  0.58222068
   0.52193007  0.33891491  0.58719807
   0.67260594  0.59896187  0.55790426
   0.46553574  0.52208826  0.50282745
   0.61016801  0.69307300  0.52412518
   0.55995139  0.59186797  0.50121458
   0.51198982  0.73454990  0.47403464
   0.51943220  0.57582681  0.31085200
   0.35464839  0.47614742  0.50268599
   0.73378575  0.52217334  0.48169231
   0.62784765  0.49904512  0.52996425
   0.53897392  0.43498367  0.46726033
   0.38559997  0.57535515  0.43793346
   0.59745411  0.34065064  0.42837932
   0.48956468  0.32629805  0.47469502
   0.57888346  0.52638156  0.40209075
   0.46653388  0.49553602  0.39108623
   0.66678557  0.60555312  0.44281965
   0.48815703  0.62446233  0.41024108
   0.58816681  0.67957975  0.40720190
   0.66661359  0.43229449  0.44577077
   0.40589442  0.39638192  0.43122847
   0.34038137  0.48102968  0.38687240
   0.69367511  0.51548448  0.37085206
   0.40435113  0.55201672  0.31539929
   0.62996731  0.60429768  0.33107736
   0.61043885  0.42908437  0.34468078
   0.50408548  0.38035170  0.36783154
   0.51577051  0.46279602  0.28568075
   0.40942670  0.42611622  0.31180580
Direct configuration=    13
   0.47424757  0.56769593  0.77905406
   0.49541468  0.65167275  0.69596626
   0.51585867  0.42494336  0.76469562
   0.40268716  0.57558871  0.68219580
   0.41331252  0.47581508  0.73610361
   0.61401469  0.48304872  0.75106384
   0.58613523  0.59547921  0.74008094
   0.40704142  0.67633192  0.62040083
   0.51291887  0.70892600  0.58901883
   0.51784439  0.51107484  0.68706689
   0.46149852  0.39993774  0.66287109
   0.49172546  0.58496639  0.59985823
   0.62122014  0.53010075  0.64168326
   0.38523299  0.47686652  0.62093973
   0.58411041  0.40684196  0.66330823
   0.37575986  0.57620774  0.56403905
   0.59590098  0.64520690  0.63396954
   0.61668000  0.38433117  0.54303421
   0.44161779  0.65258841  0.51003785
   0.43280114  0.40011379  0.54528574
   0.53005607  0.46453983  0.58240709
   0.52227880  0.33956656  0.58739000
   0.67184011  0.59864419  0.55758348
   0.46570089  0.52230174  0.50244090
   0.61021248  0.69374464  0.52427419
   0.56023871  0.59206411  0.50158286
   0.51173697  0.73386859  0.47394420
   0.51996174  0.57630681  0.30977749
   0.35505819  0.47634231  0.50234068
   0.73357255  0.52170144  0.48166917
   0.62707514  0.49918147  0.52931147
   0.53909532  0.43574462  0.46704156
   0.38541209  0.57488418  0.43812615
   0.59745468  0.34038069  0.42821285
   0.48944522  0.32686637  0.47471633
   0.57837685  0.52726549  0.40155286
   0.46644784  0.49616832  0.39135099
   0.66701427  0.60484500  0.44275666
   0.48773116  0.62258197  0.41047823
   0.58774400  0.67832964  0.40752021
   0.66644928  0.43237069  0.44540325
   0.40600900  0.39655772  0.43119976
   0.34059888  0.48081431  0.38663111
   0.69340063  0.51540889  0.37084066
   0.40460634  0.55234581  0.31462297
   0.63040509  0.60429703  0.33075393
   0.61021267  0.42945382  0.34450754
   0.50416706  0.38073783  0.36807085
   0.51570166  0.46289400  0.28553251
   0.40985108  0.42593132  0.31116372
Direct configuration=    14
   0.47501734  0.56716161  0.77957111
   0.49542503  0.65160375  0.69624001
   0.51547119  0.42493082  0.76542116
   0.40271250  0.57604942  0.68300613
   0.41327015  0.47591339  0.73631797
   0.61342154  0.48375035  0.75185341
   0.58631690  0.59599211  0.74006278
   0.40747350  0.67603292  0.62055268
   0.51296042  0.70867996  0.58883800
   0.51714135  0.51065782  0.68767150
   0.46138407  0.39956429  0.66332091
   0.49152207  0.58438809  0.60016257
   0.62025033  0.52951482  0.64122513
   0.38670197  0.47737829  0.62077712
   0.58414421  0.40723672  0.66414404
   0.37584111  0.57617357  0.56433481
   0.59579753  0.64496694  0.63387983
   0.61682257  0.38481708  0.54289220
   0.44189834  0.65187621  0.51027181
   0.43320015  0.40079204  0.54510615
   0.52970270  0.46451290  0.58223416
   0.52262385  0.33997053  0.58754604
   0.67120667  0.59843070  0.55751808
   0.46611462  0.52271423  0.50267772
   0.61035981  0.69435917  0.52439728
   0.56036910  0.59254652  0.50210823
   0.51150522  0.73308306  0.47382413
   0.52037851  0.57678647  0.30862334
   0.35553136  0.47660209  0.50218421
   0.73337295  0.52105706  0.48187408
   0.62634137  0.49921027  0.52849153
   0.53937440  0.43645933  0.46675640
   0.38481402  0.57451207  0.43821584
   0.59738733  0.34049650  0.42804762
   0.48951420  0.32748075  0.47477452
   0.57787464  0.52842809  0.40114326
   0.46624403  0.49659862  0.39093574
   0.66719335  0.60430208  0.44263854
   0.48735028  0.62025201  0.41041063
   0.58719674  0.67687462  0.40792748
   0.66634798  0.43224091  0.44509675
   0.40620114  0.39676607  0.43102730
   0.34090789  0.48077301  0.38607845
   0.69314396  0.51517245  0.37058332
   0.40492871  0.55240964  0.31411249
   0.63105228  0.60427629  0.33020780
   0.61004949  0.42981689  0.34444832
   0.50421627  0.38102409  0.36810337
   0.51566391  0.46331145  0.28540239
   0.41013825  0.42592923  0.31083896
Direct configuration=    15
   0.47723192  0.56562441  0.78105862
   0.49545478  0.65140525  0.69702757
   0.51435643  0.42489476  0.76750849
   0.40278537  0.57737482  0.68533737
   0.41314823  0.47619621  0.73693468
   0.61171511  0.48576886  0.75412493
   0.58683953  0.59746770  0.74001053
   0.40871656  0.67517274  0.62098954
   0.51307994  0.70797213  0.58831778
   0.51511878  0.50945810  0.68941090
   0.46105482  0.39848989  0.66461500
   0.49093692  0.58272439  0.60103811
   0.61746025  0.52782915  0.63990713
   0.39092807  0.47885062  0.62030931
   0.58424146  0.40837239  0.66654857
   0.37607487  0.57607527  0.56518566
   0.59549993  0.64427662  0.63362174
   0.61723273  0.38621500  0.54248364
   0.44270545  0.64982731  0.51094487
   0.43434805  0.40274329  0.54458947
   0.52868607  0.46443543  0.58173666
   0.52361653  0.34113271  0.58799495
   0.66938432  0.59781650  0.55732994
   0.46730489  0.52390092  0.50335904
   0.61078366  0.69612710  0.52475139
   0.56074422  0.59393434  0.50361968
   0.51083849  0.73082316  0.47347868
   0.52157749  0.57816640  0.30530296
   0.35689263  0.47734944  0.50173409
   0.73279873  0.51920323  0.48246359
   0.62423036  0.49929315  0.52613264
   0.54017729  0.43851549  0.46593602
   0.38309344  0.57344153  0.43847384
   0.59719357  0.34082968  0.42757226
   0.48971265  0.32924827  0.47494193
   0.57642982  0.53177278  0.39996489
   0.46565771  0.49783652  0.38974111
   0.66770856  0.60274015  0.44229870
   0.48625450  0.61354895  0.41021614
   0.58562233  0.67268868  0.40909915
   0.66605655  0.43186752  0.44421500
   0.40675394  0.39736547  0.43053114
   0.34179689  0.48065417  0.38448851
   0.69240554  0.51449223  0.36984298
   0.40585613  0.55259326  0.31264389
   0.63291417  0.60421664  0.32863664
   0.60958003  0.43086143  0.34427796
   0.50435785  0.38184764  0.36819692
   0.51555531  0.46451243  0.28502803
   0.41096442  0.42592322  0.30990463
Direct configuration=    16
   0.47666743  0.56601624  0.78067946
   0.49544720  0.65145585  0.69682683
   0.51464058  0.42490395  0.76697644
   0.40276680  0.57703698  0.68474314
   0.41317930  0.47612412  0.73677749
   0.61215008  0.48525435  0.75354593
   0.58670631  0.59709157  0.74002385
   0.40839971  0.67539200  0.62087819
   0.51304947  0.70815255  0.58845038
   0.51563433  0.50976390  0.68896753
   0.46113874  0.39876375  0.66428514
   0.49108608  0.58314846  0.60081494
   0.61817143  0.52825882  0.64024308
   0.38985085  0.47847533  0.62042856
   0.58421668  0.40808291  0.66593566
   0.37601529  0.57610032  0.56496878
   0.59557579  0.64445258  0.63368752
   0.61712818  0.38585867  0.54258778
   0.44249972  0.65034957  0.51077331
   0.43405546  0.40224592  0.54472117
   0.52894521  0.46445518  0.58186347
   0.52336350  0.34083647  0.58788053