 running on   64 total cores
 distrk:  each k-point on   64 cores,    1 groups
 distr:  one band on   16 cores,    4 groups
 using from now: INCAR     
 vasp.5.3.5 31Mar14 (build Feb 01 2018 12:10:03) gamma-only                     
  
 POSCAR found type information on POSCAR  Ag
 POSCAR found :  1 types and      55 ions
 scaLAPACK will be used

 ----------------------------------------------------------------------------- 
|                                                                             |
|  ADVICE TO THIS USER RUNNING 'VASP/VAMP'   (HEAR YOUR MASTER'S VOICE ...):  |
|                                                                             |
|      You have a (more or less) 'large supercell' and for larger cells       |
|      it might be more efficient to use real space projection opertators     |
|      So try LREAL= Auto  in the INCAR   file.                               |
|      Mind: At the moment your POTCAR file does not contain real space       |
|       projectors, and has to be modified,  BUT if you                       |
|      want to do an extremely  accurate calculation you might also keep the  |
|      reciprocal projection scheme          (i.e. LREAL=.FALSE.)             |
|                                                                             |
 ----------------------------------------------------------------------------- 

 LDA part: xc-table for Pade appr. of Perdew
 POSCAR, INCAR and KPOINTS ok, starting setup
 WARNING: small aliasing (wrap around) errors must be expected
 FFT: planning ...
 WAVECAR not read
 entering main loop
       N       E                     dE             d eps       ncg     rms          rms(c)
DAV:   1     0.451807661612E+04    0.45181E+04   -0.13044E+05  1584   0.630E+02
DAV:   2     0.691641486712E+03   -0.38264E+04   -0.34286E+04  2368   0.168E+02
DAV:   3    -0.626323483598E+02   -0.75427E+03   -0.68275E+03  1952   0.751E+01
DAV:   4    -0.920346413911E+02   -0.29402E+02   -0.29165E+02  1696   0.152E+01
DAV:   5    -0.924863994618E+02   -0.45176E+00   -0.45114E+00  1704   0.234E+00    0.350E+01
DAV:   6    -0.189693540448E+02    0.73517E+02   -0.26299E+02  1600   0.161E+01    0.147E+01
DAV:   7    -0.155384885858E+02    0.34309E+01   -0.81177E+00  1688   0.438E+00    0.944E+00
DAV:   8    -0.118733441523E+02    0.36651E+01   -0.22783E+00  1704   0.336E+00    0.631E+00
DAV:   9    -0.282490420008E+02   -0.16376E+02   -0.73997E+00  1680   0.394E+00    0.492E+00
DAV:  10    -0.351871744334E+02   -0.69381E+01   -0.22020E+00  1688   0.246E+00    0.458E+00
DAV:  11    -0.428589157193E+02   -0.76717E+01   -0.28577E+00  1664   0.249E+00    0.384E+00
DAV:  12    -0.618720276814E+02   -0.19013E+02   -0.11151E+01  1608   0.358E+00    0.346E+00
DAV:  13    -0.682633729438E+02   -0.63913E+01   -0.26271E+00  1648   0.216E+00    0.296E+00
DAV:  14    -0.728429282141E+02   -0.45796E+01   -0.14628E+00  1648   0.167E+00    0.267E+00
DAV:  15    -0.764075997654E+02   -0.35647E+01   -0.98304E-01  1624   0.149E+00    0.204E+00
DAV:  16    -0.837954883285E+02   -0.73879E+01   -0.28537E+00  1584   0.148E+00    0.170E+00
DAV:  17    -0.862795438657E+02   -0.24841E+01   -0.40422E-01  1664   0.976E-01    0.122E+00
DAV:  18    -0.891442765652E+02   -0.28647E+01   -0.43392E-01  1592   0.703E-01    0.871E-01
DAV:  19    -0.916960746757E+02   -0.25518E+01   -0.34699E-01  1616   0.641E-01    0.571E-01
DAV:  20    -0.932978117540E+02   -0.16017E+01   -0.14271E-01  1648   0.399E-01    0.375E-01
DAV:  21    -0.945784450859E+02   -0.12806E+01   -0.93846E-02  1608   0.281E-01    0.234E-01
DAV:  22    -0.950151856585E+02   -0.43674E+00   -0.19703E-02  1656   0.145E-01    0.135E-01
DAV:  23    -0.952202213969E+02   -0.20504E+00   -0.93290E-03  1672   0.100E-01    0.751E-02
DAV:  24    -0.952971044461E+02   -0.76883E-01   -0.27748E-03  1640   0.452E-02    0.572E-02
DAV:  25    -0.953292203775E+02   -0.32116E-01   -0.10895E-03  1136   0.414E-02    0.352E-02
DAV:  26    -0.953456542926E+02   -0.16434E-01   -0.61809E-04  1144   0.277E-02    0.235E-02
DAV:  27    -0.953577427159E+02   -0.12088E-01   -0.28125E-04  1144   0.208E-02    0.169E-02
DAV:  28    -0.953653749609E+02   -0.76322E-02   -0.17585E-04  1112   0.137E-02    0.123E-02
DAV:  29    -0.953693685272E+02   -0.39936E-02   -0.68518E-05  1112   0.816E-03    0.879E-03
DAV:  30    -0.953721823669E+02   -0.28138E-02   -0.38161E-05  1056   0.710E-03    0.534E-03
DAV:  31    -0.953735230064E+02   -0.13406E-02   -0.12363E-05  1096   0.483E-03    0.340E-03
DAV:  32    -0.953740357126E+02   -0.51271E-03   -0.57833E-06  1048   0.252E-03    0.211E-03
DAV:  33    -0.953742330168E+02   -0.19730E-03   -0.24229E-06  1056   0.171E-03    0.149E-03
DAV:  34    -0.953743276694E+02   -0.94653E-04   -0.12681E-06  1072   0.122E-03
   1 F= -.95374328E+02 E0= -.95374328E+02  d E =-.953743E+02  mag=     1.0007
 curvature:   0.00 expect dE= 0.000E+00 dE for cont linesearch  0.000E+00
 trial: gam= 0.00000 g(F)=  0.225E+00 g(S)=  0.000E+00 ort = 0.000E+00 (trialstep = 0.100E+01)
 search vector abs. value=  0.225E+00
 bond charge predicted
       N       E                     dE             d eps       ncg     rms          rms(c)
DAV:   1    -0.955913652341E+02   -0.21713E+00   -0.15256E+01  1624   0.532E+00    0.161E-01
DAV:   2    -0.955988190743E+02   -0.74538E-02   -0.78231E-02  1632   0.535E-01    0.108E-01
DAV:   3    -0.955988219477E+02   -0.28734E-05   -0.12930E-03  1680   0.760E-02    0.783E-02
DAV:   4    -0.955987519148E+02    0.70033E-04   -0.13466E-04  1072   0.355E-02
   2 F= -.95598752E+02 E0= -.95598752E+02  d E =-.224424E+00  mag=     1.0004
 ZBRENT: can't locate minimum, use default step
 trial-energy change:   -0.224424  1 .order   -0.224099   -0.225277   -0.222921
 step:   4.0000(harm= 95.6499)  dis= 0.03553  next Energy=  -106.148172 (dE=-0.108E+02)
 bond charge predicted
       N       E                     dE             d eps       ncg     rms          rms(c)
DAV:   1    -0.961926931232E+02   -0.59387E+00   -0.13757E+02  1568   0.160E+01    0.532E-01
DAV:   2    -0.962598349472E+02   -0.67142E-01   -0.71180E-01  1640   0.161E+00    0.317E-01
DAV:   3    -0.962596416633E+02    0.19328E-03   -0.12031E-02  1696   0.239E-01    0.227E-01
DAV:   4    -0.962589714513E+02    0.67021E-03   -0.13266E-03  1704   0.109E-01    0.143E-01
DAV:   5    -0.962586799591E+02    0.29149E-03   -0.18699E-03  1672   0.103E-01    0.397E-02
DAV:   6    -0.962587265645E+02   -0.46605E-04   -0.12630E-04  1072   0.411E-02
   3 F= -.96258727E+02 E0= -.96258727E+02  d E =-.884399E+00  mag=     1.0002
 curvature:  -2.98 expect dE=-0.628E+00 dE for cont linesearch -0.628E+00
 ZBRENT: increasing intervall
 opt :  10.0000  next Energy=   -97.533282 (dE=-0.216E+01)
 bond charge predicted
       N       E                     dE             d eps       ncg     rms          rms(c)
DAV:   1    -0.972411297191E+02   -0.98245E+00   -0.55281E+02  1568   0.322E+01    0.121E+00
DAV:   2    -0.975167567207E+02   -0.27563E+00   -0.28996E+00  1632   0.325E+00    0.624E-01
DAV:   3    -0.975155303463E+02    0.12264E-02   -0.47925E-02  1664   0.445E-01    0.442E-01
DAV:   4    -0.975128738257E+02    0.26565E-02   -0.54242E-03  1696   0.164E-01    0.234E-01
DAV:   5    -0.975125772030E+02    0.29662E-03   -0.41559E-03  1656   0.142E-01    0.696E-02
DAV:   6    -0.975128403067E+02   -0.26310E-03   -0.29455E-04  1112   0.628E-02    0.378E-02
DAV:   7    -0.975133112431E+02   -0.47094E-03   -0.20963E-04  1120   0.198E-02    0.168E-02
DAV:   8    -0.975137146217E+02   -0.40338E-03   -0.27072E-05  1096   0.125E-02    0.103E-02
DAV:   9    -0.975143124134E+02   -0.59779E-03   -0.24280E-05  1080   0.747E-03    0.590E-03
DAV:  10    -0.975147528967E+02   -0.44048E-03   -0.89700E-06  1096   0.396E-03    0.482E-03
DAV:  11    -0.975153068241E+02   -0.55393E-03   -0.12322E-05  1104   0.284E-03    0.354E-03
DAV:  12    -0.975160362956E+02   -0.72947E-03   -0.27776E-05  1112   0.317E-03    0.212E-03
DAV:  13    -0.975163416435E+02   -0.30535E-03   -0.60417E-06  1104   0.175E-03    0.142E-03
DAV:  14    -0.975165756727E+02   -0.23403E-03   -0.35506E-06  1080   0.122E-03    0.846E-04
DAV:  15    -0.975167364996E+02   -0.16083E-03   -0.19887E-06  1064   0.996E-04    0.565E-04
DAV:  16    -0.975168101438E+02   -0.73644E-04   -0.69714E-07  1072   0.639E-04
   4 F= -.97516810E+02 E0= -.97516810E+02  d E =-.214248E+01  mag=     1.0000
 curvature:  -6.06 expect dE=-0.110E+01 dE for cont linesearch -0.109E+01
 ZBRENT: increasing intervall
 opt :  22.0000  next Energy=   -99.729892 (dE=-0.436E+01)
 bond charge predicted
       N       E                     dE             d eps       ncg     rms          rms(c)
DAV:   1    -0.984991696565E+02   -0.98243E+00   -0.22593E+03  1568   0.662E+01    0.334E+00
DAV:   2    -0.996743534874E+02   -0.11752E+01   -0.12288E+01  1640   0.676E+00    0.132E+00
DAV:   3    -0.996694407575E+02    0.49127E-02   -0.20721E-01  1672   0.916E-01    0.906E-01
DAV:   4    -0.996610581006E+02    0.83827E-02   -0.21094E-02  1688   0.250E-01    0.460E-01
DAV:   5    -0.996606584702E+02    0.39963E-03   -0.93991E-03  1664   0.161E-01    0.951E-02
DAV:   6    -0.996610506559E+02   -0.39219E-03   -0.95618E-04  1704   0.531E-02    0.537E-02
DAV:   7    -0.996614613790E+02   -0.41072E-03   -0.80081E-05  1104   0.178E-02    0.281E-02
DAV:   8    -0.996620271087E+02   -0.56573E-03   -0.51617E-05  1120   0.954E-03    0.956E-03
DAV:   9    -0.996623176114E+02   -0.29050E-03   -0.10722E-05  1096   0.592E-03    0.550E-03
DAV:  10    -0.996626254939E+02   -0.30788E-03   -0.11086E-05  1088   0.355E-03    0.433E-03
DAV:  11    -0.996630234217E+02   -0.39793E-03   -0.17305E-05  1096   0.288E-03    0.271E-03
DAV:  12    -0.996633935077E+02   -0.37009E-03   -0.20922E-05  1112   0.262E-03    0.167E-03
DAV:  13    -0.996635899703E+02   -0.19646E-03   -0.49108E-06  1088   0.157E-03    0.114E-03
DAV:  14    -0.996637328105E+02   -0.14284E-03   -0.31096E-06  1088   0.116E-03    0.723E-04
DAV:  15    -0.996638208195E+02   -0.88009E-04   -0.12281E-06  1072   0.736E-04
   5 F= -.99663821E+02 E0= -.99663821E+02  d E =-.428949E+01  mag=     1.0000
 curvature: -12.33 expect dE=-0.148E+01 dE for cont linesearch -0.127E+01
 ZBRENT: increasing intervall
 opt :  46.0000  next Energy=  -102.140429 (dE=-0.677E+01)
 bond charge predicted
       N       E                     dE             d eps       ncg     rms          rms(c)
DAV:   1    -0.954775135751E+02    0.41862E+01   -0.97942E+03  1568   0.146E+02    0.130E+01
DAV:   2    -0.101243812410E+03   -0.57663E+01   -0.59197E+01  1656   0.158E+01    0.434E+00
DAV:   3    -0.101198217322E+03    0.45595E-01   -0.12834E+00  1656   0.253E+00    0.244E+00
DAV:   4    -0.101169240446E+03    0.28977E-01   -0.85681E-02  1688   0.482E-01    0.147E+00
DAV:   5    -0.101165376934E+03    0.38635E-02   -0.43594E-02  1640   0.352E-01    0.194E-01
DAV:   6    -0.101165600483E+03   -0.22355E-03   -0.34507E-03  1704   0.114E-01    0.114E-01
DAV:   7    -0.101166239394E+03   -0.63891E-03   -0.22551E-04  1112   0.321E-02    0.629E-02
DAV:   8    -0.101167046132E+03   -0.80674E-03   -0.11567E-04  1104   0.173E-02    0.183E-02
DAV:   9    -0.101167420049E+03   -0.37392E-03   -0.27982E-05  1128   0.861E-03    0.857E-03
DAV:  10    -0.101167818496E+03   -0.39845E-03   -0.24665E-05  1080   0.554E-03    0.628E-03
DAV:  11    -0.101168334827E+03   -0.51633E-03   -0.34057E-05  1104   0.483E-03    0.407E-03
DAV:  12    -0.101168787469E+03   -0.45264E-03   -0.39347E-05  1104   0.393E-03    0.284E-03
DAV:  13    -0.101169011687E+03   -0.22422E-03   -0.10385E-05  1104   0.237E-03    0.171E-03
DAV:  14    -0.101169130003E+03   -0.11832E-03   -0.43630E-06  1048   0.153E-03    0.118E-03
DAV:  15    -0.101169205943E+03   -0.75940E-04   -0.15057E-06  1056   0.102E-03
   6 F= -.10116921E+03 E0= -.10116921E+03  d E =-.579488E+01  mag=     1.0000
 curvature: -24.11 expect dE=-0.696E+01 dE for cont linesearch -0.364E+00
 ZBRENT: bracketing found
 ZBRENT: interpolating
 opt :  39.3516  next Energy=  -101.362962 (dE=-0.599E+01)
 bond charge predicted
       N       E                     dE             d eps       ncg     rms          rms(c)
DAV:   1    -0.100971765790E+03    0.19736E+00   -0.67966E+02  1568   0.360E+01    0.188E+00
DAV:   2    -0.101292436712E+03   -0.32067E+00   -0.32941E+00  1624   0.354E+00    0.162E+00
DAV:   3    -0.101289835395E+03    0.26013E-02   -0.53930E-02  1632   0.457E-01    0.111E+00
DAV:   4    -0.101284727727E+03    0.51077E-02   -0.23588E-02  1688   0.250E-01    0.317E-01
DAV:   5    -0.101284817275E+03   -0.89548E-04   -0.12084E-03  1672   0.796E-02    0.878E-02
DAV:   6    -0.101284631998E+03    0.18528E-03   -0.52150E-04  1688   0.326E-02    0.360E-02
DAV:   7    -0.101284664043E+03   -0.32045E-04   -0.65119E-05  1072   0.132E-02
   7 F= -.10128466E+03 E0= -.10128466E+03  d E =-.591034E+01  mag=     1.0000
 curvature: -12.85 expect dE=-0.178E+01 dE for cont linesearch -0.240E-01
 trial: gam= 0.52398 g(F)=  0.139E+00 g(S)=  0.000E+00 ort = 0.205E-01 (trialstep = 0.867E+01)
 search vector abs. value=  0.222E+00
 bond charge predicted
       N       E                     dE             d eps       ncg     rms          rms(c)
DAV:   1    -0.101831127304E+03   -0.54650E+00   -0.11417E+03  1568   0.468E+01    0.189E+00
DAV:   2    -0.102403217687E+03   -0.57209E+00   -0.58093E+00  1632   0.463E+00    0.114E+00
DAV:   3    -0.102398046782E+03    0.51709E-02   -0.90491E-02  1672   0.591E-01    0.777E-01
DAV:   4    -0.102390830810E+03    0.72160E-02   -0.21123E-02  1672   0.236E-01    0.291E-01
DAV:   5    -0.102390854803E+03   -0.23993E-04   -0.35504E-03  1696   0.109E-01    0.826E-02
DAV:   6    -0.102390798730E+03    0.56073E-04   -0.47409E-04  1696   0.390E-02
   8 F= -.10239080E+03 E0= -.10239080E+03  d E =-.110613E+01  mag=     1.0000
 trial-energy change:   -1.106135  1 .order   -1.105197   -1.294303   -0.916090
 step:  29.6711(harm= 29.6711)  dis= 0.29956  next Energy=  -103.499316 (dE=-0.221E+01)
 bond charge predicted
       N       E                     dE             d eps       ncg     rms          rms(c)
DAV:   1    -0.995031002261E+02    0.28878E+01   -0.71653E+03  1568   0.123E+02    0.846E+00
DAV:   2    -0.103466997150E+03   -0.39639E+01   -0.40012E+01  1632   0.128E+01    0.327E+00
DAV:   3    -0.103442612933E+03    0.24384E-01   -0.70587E-01  1672   0.179E+00    0.197E+00
DAV:   4    -0.103412560907E+03    0.30052E-01   -0.62388E-02  1664   0.421E-01    0.117E+00
DAV:   5    -0.103406029366E+03    0.65315E-02   -0.39238E-02  1680   0.321E-01    0.194E-01
DAV:   6    -0.103406588665E+03   -0.55930E-03   -0.14480E-03  1712   0.813E-02    0.112E-01
DAV:   7    -0.103407281353E+03   -0.69269E-03   -0.17188E-04  1128   0.266E-02    0.557E-02
DAV:   8    -0.103408191031E+03   -0.90968E-03   -0.10578E-04  1128   0.154E-02    0.164E-02
DAV:   9    -0.103408730914E+03   -0.53988E-03   -0.17579E-05  1104   0.733E-03    0.982E-03
DAV:  10    -0.103409443111E+03   -0.71220E-03   -0.21504E-05  1096   0.528E-03    0.649E-03
DAV:  11    -0.103410136801E+03   -0.69369E-03   -0.16719E-05  1112   0.327E-03    0.458E-03
DAV:  12    -0.103411052731E+03   -0.91593E-03   -0.32857E-05  1120   0.328E-03    0.312E-03
DAV:  13    -0.103411616882E+03   -0.56415E-03   -0.14782E-05  1120   0.250E-03    0.194E-03
DAV:  14    -0.103411908347E+03   -0.29146E-03   -0.50753E-06  1104   0.157E-03    0.125E-03
DAV:  15    -0.103412117905E+03   -0.20956E-03   -0.32214E-06  1080   0.114E-03    0.740E-04
DAV:  16    -0.103412254092E+03   -0.13619E-03   -0.15623E-06  1080   0.869E-04    0.469E-04
DAV:  17    -0.103412322313E+03   -0.68220E-04   -0.67448E-07  1072   0.634E-04
   9 F= -.10341232E+03 E0= -.10341232E+03  d E =-.212766E+01  mag=     1.0000
 curvature: -22.05 expect dE=-0.296E+01 dE for cont linesearch -0.270E-01
 trial: gam= 0.97795 g(F)=  0.134E+00 g(S)=  0.000E+00 ort =-0.165E-01 (trialstep = 0.909E+01)
 search vector abs. value=  0.314E+00
 bond charge predicted
       N       E                     dE             d eps       ncg     rms          rms(c)
DAV:   1    -0.103409213788E+03    0.30403E-02   -0.17911E+03  1568   0.591E+01    0.245E+00
DAV:   2    -0.104310525004E+03   -0.90131E+00   -0.90531E+00  1648   0.587E+00    0.147E+00
DAV:   3    -0.104299315544E+03    0.11209E-01   -0.14185E-01  1664   0.781E-01    0.985E-01
DAV:   4    -0.104284517741E+03    0.14798E-01   -0.30967E-02  1656   0.278E-01    0.444E-01
DAV:   5    -0.104283350573E+03    0.11672E-02   -0.93955E-03  1672   0.164E-01    0.110E-01
DAV:   6    -0.104283379339E+03   -0.28765E-04   -0.51238E-04  1704   0.508E-02
  10 F= -.10428338E+03 E0= -.10428338E+03  d E =-.871057E+00  mag=     1.0000
 trial-energy change:   -0.871057  1 .order   -0.865510   -1.073079   -0.657942
 step:  21.2271(harm= 23.4988)  dis= 0.22596  next Energy=  -104.735750 (dE=-0.132E+01)
 bond charge predicted
       N       E                     dE             d eps       ncg     rms          rms(c)
DAV:   1    -0.103029196817E+03    0.12542E+01   -0.32556E+03  1568   0.808E+01    0.436E+00
DAV:   2    -0.104714015547E+03   -0.16848E+01   -0.16973E+01  1656   0.815E+00    0.215E+00
DAV:   3    -0.104692181985E+03    0.21834E-01   -0.27715E-01  1632   0.113E+00    0.139E+00
DAV:   4    -0.104669386748E+03    0.22795E-01   -0.55787E-02  1656   0.380E-01    0.596E-01
DAV:   5    -0.104668372341E+03    0.10144E-02   -0.11425E-02  1640   0.193E-01    0.142E-01
DAV:   6    -0.104668583754E+03   -0.21141E-03   -0.85051E-04  1696   0.666E-02    0.840E-02
DAV:   7    -0.104668986691E+03   -0.40294E-03   -0.11805E-04  1128   0.292E-02    0.329E-02
DAV:   8    -0.104669386354E+03   -0.39966E-03   -0.42083E-05  1088   0.108E-02    0.116E-02
DAV:   9    -0.104669618131E+03   -0.23178E-03   -0.72495E-06  1080   0.600E-03    0.664E-03
DAV:  10    -0.104670000214E+03   -0.38208E-03   -0.81488E-06  1080   0.399E-03    0.396E-03
DAV:  11    -0.104670269768E+03   -0.26955E-03   -0.43306E-06  1096   0.208E-03    0.283E-03
DAV:  12    -0.104670683313E+03   -0.41354E-03   -0.82107E-06  1088   0.182E-03    0.203E-03
DAV:  13    -0.104671044432E+03   -0.36112E-03   -0.92771E-06  1112   0.199E-03    0.127E-03
DAV:  14    -0.104671183303E+03   -0.13887E-03   -0.17599E-06  1096   0.101E-03    0.853E-04
DAV:  15    -0.104671305154E+03   -0.12185E-03   -0.14856E-06  1064   0.840E-04    0.463E-04
DAV:  16    -0.104671371794E+03   -0.66641E-04   -0.64858E-07  1080   0.638E-04
  11 F= -.10467137E+03 E0= -.10467137E+03  d E =-.125905E+01  mag=     1.0000
 curvature: -30.49 expect dE=-0.583E+01 dE for cont linesearch -0.206E-01
 trial: gam= 0.95633 g(F)=  0.191E+00 g(S)=  0.000E+00 ort =-0.146E-01 (trialstep = 0.803E+01)
 search vector abs. value=  0.451E+00
 bond charge predicted
       N       E                     dE             d eps       ncg     rms          rms(c)
DAV:   1    -0.104820701483E+03   -0.14940E+00   -0.20046E+03  1568   0.628E+01    0.251E+00
DAV:   2    -0.105792350602E+03   -0.97165E+00   -0.98015E+00  1632   0.609E+00    0.167E+00
DAV:   3    -0.105777603558E+03    0.14747E-01   -0.15100E-01  1680   0.779E-01    0.115E+00
DAV:   4    -0.105758622361E+03    0.18981E-01   -0.39235E-02  1680   0.307E-01    0.525E-01
DAV:   5    -0.105757452248E+03    0.11701E-02   -0.11513E-02  1688   0.174E-01    0.137E-01
DAV:   6    -0.105757482096E+03   -0.29848E-04   -0.55518E-04  1688   0.416E-02
  12 F= -.10575748E+03 E0= -.10575748E+03  d E =-.108611E+01  mag=     1.0000
 trial-energy change:   -1.086110  1 .order   -1.086789   -1.424060   -0.749518
 step:  16.9454(harm= 16.9454)  dis= 0.29747  next Energy=  -106.174575 (dE=-0.150E+01)
 bond charge predicted
       N       E                     dE             d eps       ncg     rms          rms(c)
DAV:   1    -0.104954903050E+03    0.80255E+00   -0.24919E+03  1568   0.703E+01    0.322E+00
DAV:   2    -0.106177684253E+03   -0.12228E+01   -0.12340E+01  1648   0.685E+00    0.180E+00
DAV:   3    -0.106157218092E+03    0.20466E-01   -0.19355E-01  1672   0.879E-01    0.122E+00
DAV:   4    -0.106136535801E+03    0.20682E-01   -0.48890E-02  1664   0.352E-01    0.511E-01
DAV:   5    -0.106135848338E+03    0.68746E-03   -0.96483E-03  1656   0.171E-01    0.135E-01
DAV:   6    -0.106135998211E+03   -0.14987E-03   -0.67664E-04  1688   0.496E-02    0.766E-02
DAV:   7    -0.106136278729E+03   -0.28052E-03   -0.86662E-05  1096   0.205E-02    0.292E-02
DAV:   8    -0.106136531975E+03   -0.25325E-03   -0.26900E-05  1072   0.863E-03    0.960E-03
DAV:   9    -0.106136709904E+03   -0.17793E-03   -0.55945E-06  1072   0.432E-03    0.564E-03
DAV:  10    -0.106136975516E+03   -0.26561E-03   -0.73442E-06  1048   0.297E-03    0.350E-03
DAV:  11    -0.106137157331E+03   -0.18182E-03   -0.34147E-06  1088   0.174E-03    0.246E-03
DAV:  12    -0.106137490832E+03   -0.33350E-03   -0.98941E-06  1064   0.198E-03    0.180E-03
DAV:  13    -0.106137692649E+03   -0.20182E-03   -0.52351E-06  1104   0.158E-03    0.101E-03
DAV:  14    -0.106137782952E+03   -0.90303E-04   -0.13291E-06  1080   0.886E-04
  13 F= -.10613778E+03 E0= -.10613778E+03  d E =-.146641E+01  mag=     1.0000
 curvature: -21.53 expect dE=-0.323E+01 dE for cont linesearch -0.726E-02
 trial: gam= 0.60051 g(F)=  0.150E+00 g(S)=  0.000E+00 ort =-0.123E-01 (trialstep = 0.981E+01)
 search vector abs. value=  0.298E+00
 bond charge predicted
       N       E                     dE             d eps       ncg     rms          rms(c)
DAV:   1    -0.106158337663E+03   -0.20645E-01   -0.19805E+03  1568   0.624E+01    0.258E+00
DAV:   2    -0.107118948944E+03   -0.96061E+00   -0.96757E+00  1640   0.601E+00    0.164E+00
DAV:   3    -0.107102637493E+03    0.16311E-01   -0.14604E-01  1696   0.735E-01    0.114E+00
DAV:   4    -0.107084097032E+03    0.18540E-01   -0.46019E-02  1672   0.330E-01    0.443E-01
DAV:   5    -0.107083811966E+03    0.28507E-03   -0.71971E-03  1688   0.148E-01    0.129E-01
DAV:   6    -0.107083912924E+03   -0.10096E-03   -0.54249E-04  1688   0.442E-02    0.684E-02
DAV:   7    -0.107084123602E+03   -0.21068E-03   -0.11941E-04  1096   0.221E-02    0.249E-02
DAV:   8    -0.107084291698E+03   -0.16810E-03   -0.25137E-05  1080   0.892E-03    0.942E-03
DAV:   9    -0.107084430288E+03   -0.13859E-03   -0.51675E-06  1048   0.378E-03    0.474E-03
DAV:  10    -0.107084580419E+03   -0.15013E-03   -0.43415E-06  1064   0.267E-03    0.281E-03
DAV:  11    -0.107084681707E+03   -0.10129E-03   -0.16471E-06  1064   0.126E-03    0.196E-03
DAV:  12    -0.107084894165E+03   -0.21246E-03   -0.57070E-06  1072   0.154E-03    0.141E-03
DAV:  13    -0.107085008416E+03   -0.11425E-03   -0.24462E-06  1080   0.112E-03    0.911E-04
DAV:  14    -0.107085080068E+03   -0.71652E-04   -0.77471E-07  1064   0.688E-04
  14 F= -.10708508E+03 E0= -.10708508E+03  d E =-.947297E+00  mag=     1.0000
 trial-energy change:   -0.947297  1 .order   -0.933101   -1.400939   -0.465263
 step:  14.1233(harm= 14.6886)  dis= 0.17045  next Energy=  -107.188559 (dE=-0.105E+01)
 bond charge predicted
       N       E                     dE             d eps       ncg     rms          rms(c)
DAV:   1    -0.107017618046E+03    0.67390E-01   -0.37373E+02  1568   0.267E+01    0.106E+00
DAV:   2    -0.107191533192E+03   -0.17392E+00   -0.17435E+00  1632   0.253E+00    0.722E-01
DAV:   3    -0.107187599936E+03    0.39333E-02   -0.26988E-02  1680   0.308E-01    0.496E-01
DAV:   4    -0.107184264418E+03    0.33355E-02   -0.14041E-02  1672   0.181E-01    0.110E-01
DAV:   5    -0.107184341293E+03   -0.76875E-04   -0.43049E-04  1472   0.506E-02
  15 F= -.10718434E+03 E0= -.10718434E+03  d E =-.104656E+01  mag=     1.0000
 curvature: -15.12 expect dE=-0.214E+01 dE for cont linesearch -0.234E-03
 trial: gam= 0.71278 g(F)=  0.142E+00 g(S)=  0.000E+00 ort =-0.215E-02 (trialstep = 0.107E+02)
 search vector abs. value=  0.290E+00
 bond charge predicted
       N       E                     dE             d eps       ncg     rms          rms(c)
DAV:   1    -0.107102933953E+03    0.81330E-01   -0.22881E+03  1568   0.673E+01    0.276E+00
DAV:   2    -0.108229241386E+03   -0.11263E+01   -0.11369E+01  1664   0.659E+00    0.182E+00
DAV:   3    -0.108215349574E+03    0.13892E-01   -0.17564E-01  1680   0.832E-01    0.122E+00
DAV:   4    -0.108195047261E+03    0.20302E-01   -0.42292E-02  1640   0.313E-01    0.596E-01
DAV:   5    -0.108194066724E+03    0.98054E-03   -0.14768E-02  1696   0.194E-01    0.158E-01
DAV:   6    -0.108194230233E+03   -0.16351E-03   -0.77187E-04  1680   0.492E-02    0.841E-02
DAV:   7    -0.108194513568E+03   -0.28333E-03   -0.14617E-04  1104   0.228E-02    0.301E-02
DAV:   8    -0.108194718814E+03   -0.20525E-03   -0.29958E-05  1072   0.942E-03    0.124E-02
DAV:   9    -0.108194891546E+03   -0.17273E-03   -0.73986E-06  1072   0.403E-03    0.538E-03
DAV:  10    -0.108195060614E+03   -0.16907E-03   -0.63678E-06  1072   0.279E-03    0.303E-03
DAV:  11    -0.108195176503E+03   -0.11589E-03   -0.26410E-06  1080   0.141E-03    0.208E-03
DAV:  12    -0.108195398572E+03   -0.22207E-03   -0.10253E-05  1072   0.190E-03    0.166E-03
DAV:  13    -0.108195479782E+03   -0.81210E-04   -0.20164E-06  1088   0.112E-03
  16 F= -.10819548E+03 E0= -.10819548E+03  d E =-.101114E+01  mag=     1.0000
 trial-energy change:   -1.011138  1 .order   -1.012310   -1.496051   -0.528570
 step:  16.5040(harm= 16.5040)  dis= 0.21586  next Energy=  -108.341040 (dE=-0.116E+01)
 bond charge predicted
       N       E                     dE             d eps       ncg     rms          rms(c)
DAV:   1    -0.108024373130E+03    0.17103E+00   -0.66724E+02  1568   0.358E+01    0.133E+00
DAV:   2    -0.108339947736E+03   -0.31557E+00   -0.31724E+00  1656   0.344E+00    0.940E-01
DAV:   3    -0.108334793000E+03    0.51547E-02   -0.49298E-02  1656   0.432E-01    0.637E-01
DAV:   4    -0.108328412326E+03    0.63807E-02   -0.18081E-02  1680   0.202E-01    0.237E-01
DAV:   5    -0.108328574992E+03   -0.16267E-03   -0.28270E-03  1672   0.926E-02    0.790E-02
DAV:   6    -0.108328499134E+03    0.75858E-04   -0.39197E-04  1384   0.320E-02
  17 F= -.10832850E+03 E0= -.10832850E+03  d E =-.114416E+01  mag=     1.0000
 curvature: -17.07 expect dE=-0.192E+01 dE for cont linesearch -0.172E-02
 trial: gam= 0.71098 g(F)=  0.112E+00 g(S)=  0.000E+00 ort =-0.541E-02 (trialstep = 0.118E+02)
 search vector abs. value=  0.251E+00
 bond charge predicted
       N       E                     dE             d eps       ncg     rms          rms(c)
DAV:   1    -0.108034890968E+03    0.29368E+00   -0.24338E+03  1568   0.694E+01    0.268E+00
DAV:   2    -0.109221682311E+03   -0.11868E+01   -0.11995E+01  1664   0.684E+00    0.205E+00
DAV:   3    -0.109210644397E+03    0.11038E-01   -0.19017E-01  1656   0.864E-01    0.135E+00
DAV:   4    -0.109186603875E+03    0.24041E-01   -0.43288E-02  1680   0.323E-01    0.753E-01
DAV:   5    -0.109184343003E+03    0.22609E-02   -0.23159E-02  1672   0.232E-01    0.212E-01
DAV:   6    -0.109184350117E+03   -0.71132E-05   -0.91709E-04  1672   0.480E-02
  18 F= -.10918435E+03 E0= -.10918435E+03  d E =-.855851E+00  mag=     1.0000
 trial-energy change:   -0.855851  1 .order   -0.848911   -1.284647   -0.413174
 step:  17.0901(harm= 17.4523)  dis= 0.18592  next Energy=  -109.276581 (dE=-0.948E+00)
 bond charge predicted
       N       E                     dE             d eps       ncg     rms          rms(c)
DAV:   1    -0.109061015083E+03    0.12333E+00   -0.46677E+02  1568   0.298E+01    0.999E-01
DAV:   2    -0.109278901068E+03   -0.21789E+00   -0.22073E+00  1632   0.289E+00    0.846E-01
DAV:   3    -0.109276286363E+03    0.26147E-02   -0.34746E-02  1696   0.362E-01    0.576E-01
DAV:   4    -0.109271210932E+03    0.50754E-02   -0.11377E-02  1656   0.163E-01    0.278E-01
DAV:   5    -0.109271322075E+03   -0.11114E-03   -0.42505E-03  1680   0.102E-01    0.886E-02
DAV:   6    -0.109271326120E+03   -0.40456E-05   -0.27554E-04  1136   0.246E-02
  19 F= -.10927133E+03 E0= -.10927133E+03  d E =-.942827E+00  mag=     1.0000
 curvature: -20.12 expect dE=-0.197E+01 dE for cont linesearch -0.457E-03
 trial: gam= 0.59609 g(F)=  0.978E-01 g(S)=  0.000E+00 ort =-0.239E-02 (trialstep = 0.129E+02)
 search vector abs. value=  0.184E+00
 bond charge predicted
       N       E                     dE             d eps       ncg     rms          rms(c)
DAV:   1    -0.108953066662E+03    0.31826E+00   -0.21174E+03  1568   0.646E+01    0.254E+00
DAV:   2    -0.109971070067E+03   -0.10180E+01   -0.10360E+01  1632   0.631E+00    0.187E+00
DAV:   3    -0.109960265294E+03    0.10805E-01   -0.16134E-01  1712   0.777E-01    0.127E+00
DAV:   4    -0.109940127105E+03    0.20138E-01   -0.40894E-02  1656   0.315E-01    0.629E-01
DAV:   5    -0.109939096833E+03    0.10303E-02   -0.15009E-02  1688   0.191E-01    0.172E-01
DAV:   6    -0.109939251280E+03   -0.15445E-03   -0.64911E-04  1688   0.413E-02    0.988E-02
DAV:   7    -0.109939643359E+03   -0.39208E-03   -0.24707E-04  1136   0.245E-02    0.361E-02
DAV:   8    -0.109940009375E+03   -0.36602E-03   -0.48049E-05  1088   0.117E-02    0.134E-02
DAV:   9    -0.109940317612E+03   -0.30824E-03   -0.10500E-05  1080   0.445E-03    0.603E-03
DAV:  10    -0.109940572679E+03   -0.25507E-03   -0.56901E-06  1072   0.248E-03    0.349E-03
DAV:  11    -0.109940897350E+03   -0.32467E-03   -0.72900E-06  1080   0.196E-03    0.240E-03
DAV:  12    -0.109941277575E+03   -0.38022E-03   -0.12233E-05  1080   0.197E-03    0.185E-03
DAV:  13    -0.109941465088E+03   -0.18751E-03   -0.43922E-06  1104   0.122E-03    0.126E-03
DAV:  14    -0.109941599115E+03   -0.13403E-03   -0.24888E-06  1064   0.100E-03    0.613E-04
DAV:  15    -0.109941667939E+03   -0.68825E-04   -0.83885E-07  1080   0.655E-04
  20 F= -.10994167E+03 E0= -.10994167E+03  d E =-.670342E+00  mag=     1.0000
 trial-energy change:   -0.670342  1 .order   -0.661498   -1.242846   -0.080150
 step:  13.7367(harm= 13.7779)  dis= 0.12027  next Energy=  -109.944305 (dE=-0.673E+00)
 bond charge predicted
       N       E                     dE             d eps       ncg     rms          rms(c)
DAV:   1    -0.109940364414E+03    0.12347E-02   -0.88741E+00  1616   0.410E+00    0.142E-01
DAV:   2    -0.109944396583E+03   -0.40322E-02   -0.41195E-02  1656   0.391E-01    0.112E-01
DAV:   3    -0.109944328653E+03    0.67930E-04   -0.65421E-04  1688   0.489E-02
  21 F= -.10994433E+03 E0= -.10994433E+03  d E =-.673003E+00  mag=     1.0000
 curvature: -13.14 expect dE=-0.935E+00 dE for cont linesearch -0.134E-04
 trial: gam= 0.67642 g(F)=  0.712E-01 g(S)=  0.000E+00 ort =-0.434E-03 (trialstep = 0.131E+02)
 search vector abs. value=  0.155E+00
 bond charge predicted
       N       E                     dE             d eps       ncg     rms          rms(c)
DAV:   1    -0.109718224802E+03    0.22617E+00   -0.18178E+03  1568   0.597E+01    0.215E+00
DAV:   2    -0.110598164105E+03   -0.87994E+00   -0.88581E+00  1656   0.580E+00    0.149E+00
DAV:   3    -0.110585721393E+03    0.12443E-01   -0.13449E-01  1720   0.703E-01    0.103E+00
DAV:   4    -0.110567330786E+03    0.18391E-01   -0.31283E-02  1672   0.263E-01    0.532E-01
DAV:   5    -0.110565204029E+03    0.21268E-02   -0.15863E-02  1680   0.187E-01    0.145E-01
DAV:   6    -0.110565838446E+03   -0.63442E-03   -0.36887E-04  1248   0.344E-02    0.855E-02
DAV:   7    -0.110566583981E+03   -0.74553E-03   -0.19052E-04  1136   0.201E-02    0.310E-02
DAV:   8    -0.110567156489E+03   -0.57251E-03   -0.47579E-05  1112   0.112E-02    0.116E-02
DAV:   9    -0.110567711667E+03   -0.55518E-03   -0.15830E-05  1080   0.539E-03    0.547E-03
DAV:  10    -0.110568094135E+03   -0.38247E-03   -0.71239E-06  1104   0.260E-03    0.366E-03
DAV:  11    -0.110568488872E+03   -0.39474E-03   -0.63751E-06  1080   0.185E-03    0.269E-03
DAV:  12    -0.110569101316E+03   -0.61244E-03   -0.18712E-05  1088   0.245E-03    0.175E-03
DAV:  13    -0.110569292354E+03   -0.19104E-03   -0.32509E-06  1104   0.116E-03    0.130E-03
DAV:  14    -0.110569482835E+03   -0.19048E-03   -0.28717E-06  1064   0.105E-03    0.680E-04
DAV:  15    -0.110569575599E+03   -0.92764E-04   -0.10078E-06  1080   0.670E-04
  22 F= -.11056958E+03 E0= -.11056958E+03  d E =-.625247E+00  mag=     1.0000
 trial-energy change:   -0.625247  1 .order   -0.622048   -0.925462   -0.318635
 step:  19.6050(harm= 19.9158)  dis= 0.15802  next Energy=  -110.649841 (dE=-0.706E+00)
 bond charge predicted
       N       E                     dE             d eps       ncg     rms          rms(c)
DAV:   1    -0.110448779430E+03    0.12070E+00   -0.44734E+02  1568   0.292E+01    0.895E-01
DAV:   2    -0.110657128311E+03   -0.20835E+00   -0.20920E+00  1640   0.279E+00    0.679E-01
DAV:   3    -0.110653739963E+03    0.33883E-02   -0.31248E-02  1712   0.332E-01    0.491E-01
DAV:   4    -0.110648602130E+03    0.51378E-02   -0.10646E-02  1680   0.151E-01    0.205E-01
DAV:   5    -0.110648390507E+03    0.21162E-03   -0.34706E-03  1688   0.888E-02    0.692E-02
DAV:   6    -0.110648454053E+03   -0.63547E-04   -0.15406E-04  1104   0.199E-02
  23 F= -.11064845E+03 E0= -.11064845E+03  d E =-.704125E+00  mag=     1.0000
 curvature: -21.72 expect dE=-0.121E+01 dE for cont linesearch -0.112E-04
 trial: gam= 0.78029 g(F)=  0.557E-01 g(S)=  0.000E+00 ort = 0.283E-03 (trialstep = 0.144E+02)
 search vector abs. value=  0.150E+00
 bond charge predicted
       N       E                     dE             d eps       ncg     rms          rms(c)
DAV:   1    -0.110184057010E+03    0.46433E+00   -0.21505E+03  1568   0.651E+01    0.251E+00
DAV:   2    -0.111246118220E+03   -0.10621E+01   -0.10680E+01  1656   0.641E+00    0.164E+00
DAV:   3    -0.111232489701E+03    0.13629E-01   -0.16538E-01  1688   0.787E-01    0.110E+00
DAV:   4    -0.111212296005E+03    0.20194E-01   -0.33491E-02  1640   0.278E-01    0.599E-01
DAV:   5    -0.111209763274E+03    0.25327E-02   -0.19703E-02  1648   0.207E-01    0.156E-01
DAV:   6    -0.111210226700E+03   -0.46343E-03   -0.49527E-04  1632   0.399E-02    0.847E-02
DAV:   7    -0.111210666703E+03   -0.44000E-03   -0.11131E-04  1104   0.179E-02    0.319E-02
DAV:   8    -0.111210981900E+03   -0.31520E-03   -0.28255E-05  1080   0.832E-03    0.119E-02
DAV:   9    -0.111211300230E+03   -0.31833E-03   -0.88724E-06  1088   0.384E-03    0.458E-03
DAV:  10    -0.111211540074E+03   -0.23984E-03   -0.54057E-06  1088   0.218E-03    0.275E-03
DAV:  11    -0.111211728503E+03   -0.18843E-03   -0.26571E-06  1064   0.123E-03    0.196E-03
DAV:  12    -0.111212123258E+03   -0.39476E-03   -0.13995E-05  1080   0.201E-03    0.147E-03
DAV:  13    -0.111212226255E+03   -0.10300E-03   -0.18789E-06  1104   0.955E-04    0.103E-03
DAV:  14    -0.111212332859E+03   -0.10660E-03   -0.20811E-06  1056   0.870E-04    0.543E-04
DAV:  15    -0.111212383983E+03   -0.51124E-04   -0.79344E-07  1072   0.561E-04
  24 F= -.11121238E+03 E0= -.11121238E+03  d E =-.563930E+00  mag=     1.0000
 trial-energy change:   -0.563930  1 .order   -0.552321   -0.803614   -0.301028
 step:  21.4960(harm= 22.9739)  dis= 0.16763  next Energy=  -111.288471 (dE=-0.640E+00)
 bond charge predicted
       N       E                     dE             d eps       ncg     rms          rms(c)
DAV:   1    -0.111052793989E+03    0.15954E+00   -0.51593E+02  1568   0.314E+01    0.102E+00
DAV:   2    -0.111295509479E+03   -0.24272E+00   -0.24360E+00  1656   0.302E+00    0.772E-01
DAV:   3    -0.111291702190E+03    0.38073E-02   -0.37075E-02  1704   0.366E-01    0.540E-01
DAV:   4    -0.111285969033E+03    0.57332E-02   -0.12831E-02  1624   0.169E-01    0.231E-01
DAV:   5    -0.111285902196E+03    0.66837E-04   -0.39041E-03  1664   0.957E-02    0.761E-02
DAV:   6    -0.111285869897E+03    0.32299E-04   -0.26416E-04  1112   0.249E-02
  25 F= -.11128587E+03 E0= -.11128587E+03  d E =-.637416E+00  mag=     1.0000
 curvature: -29.99 expect dE=-0.126E+01 dE for cont linesearch -0.280E-04
 trial: gam= 0.52373 g(F)=  0.420E-01 g(S)=  0.000E+00 ort =-0.375E-03 (trialstep = 0.158E+02)
 search vector abs. value=  0.829E-01
 bond charge predicted
       N       E                     dE             d eps       ncg     rms          rms(c)
DAV:   1    -0.111036427988E+03    0.24947E+00   -0.14074E+03  1568   0.523E+01    0.185E+00
DAV:   2    -0.111705028283E+03   -0.66860E+00   -0.67102E+00  1640   0.502E+00    0.135E+00
DAV:   3    -0.111695947676E+03    0.90806E-02   -0.10105E-01  1680   0.598E-01    0.934E-01
DAV:   4    -0.111681198382E+03    0.14749E-01   -0.32970E-02  1640   0.269E-01    0.415E-01
DAV:   5    -0.111681081080E+03    0.11730E-03   -0.93963E-03  1680   0.148E-01    0.129E-01
DAV:   6    -0.111681038155E+03    0.42925E-04   -0.68352E-04  1656   0.401E-02
  26 F= -.11168104E+03 E0= -.11168104E+03  d E =-.395168E+00  mag=     1.0000
 trial-energy change:   -0.395168  1 .order   -0.395882   -0.660810   -0.130954
 step:  19.6970(harm= 19.6970)  dis= 0.08697  next Energy=  -111.697934 (dE=-0.412E+00)
 bond charge predicted
       N       E                     dE             d eps       ncg     rms          rms(c)
DAV:   1    -0.111660605682E+03    0.20475E-01   -0.84579E+01  1568   0.127E+01    0.384E-01
DAV:   2    -0.111699865089E+03   -0.39259E-01   -0.39167E-01  1640   0.120E+00    0.316E-01
DAV:   3    -0.111699366540E+03    0.49855E-03   -0.58209E-03  1680   0.141E-01    0.228E-01
DAV:   4    -0.111698491581E+03    0.87496E-03   -0.24671E-03  1640   0.735E-02    0.915E-02
DAV:   5    -0.111698613507E+03   -0.12193E-03   -0.63329E-04  1688   0.395E-02    0.362E-02
DAV:   6    -0.111698644400E+03   -0.30893E-04   -0.42433E-05  1024   0.993E-03
  27 F= -.11169864E+03 E0= -.11169864E+03  d E =-.412775E+00  mag=     1.0000
 curvature: -19.52 expect dE=-0.723E+00 dE for cont linesearch -0.252E-04
 trial: gam= 0.77293 g(F)=  0.370E-01 g(S)=  0.000E+00 ort = 0.327E-03 (trialstep = 0.158E+02)
 search vector abs. value=  0.871E-01
 bond charge predicted
       N       E                     dE             d eps       ncg     rms          rms(c)
DAV:   1    -0.111432005156E+03    0.26661E+00   -0.14775E+03  1568   0.536E+01    0.182E+00
DAV:   2    -0.112137354300E+03   -0.70535E+00   -0.70380E+00  1672   0.515E+00    0.128E+00
DAV:   3    -0.112126449153E+03    0.10905E-01   -0.10460E-01  1680   0.610E-01    0.893E-01
DAV:   4    -0.112110195296E+03    0.16254E-01   -0.29907E-02  1648   0.256E-01    0.428E-01
DAV:   5    -0.112108990298E+03    0.12050E-02   -0.12454E-02  1672   0.165E-01    0.126E-01
DAV:   6    -0.112109177198E+03   -0.18690E-03   -0.38237E-04  1248   0.341E-02    0.671E-02
DAV:   7    -0.112109408707E+03   -0.23151E-03   -0.13056E-04  1112   0.186E-02    0.230E-02
DAV:   8    -0.112109550936E+03   -0.14223E-03   -0.23755E-05  1072   0.831E-03    0.909E-03
DAV:   9    -0.112109699222E+03   -0.14829E-03   -0.96142E-06  1080   0.448E-03    0.352E-03
DAV:  10    -0.112109802929E+03   -0.10371E-03   -0.48014E-06  1064   0.215E-03    0.212E-03
DAV:  11    -0.112109876086E+03   -0.73157E-04   -0.29072E-06  1064   0.125E-03
  28 F= -.11210988E+03 E0= -.11210988E+03  d E =-.411232E+00  mag=     1.0000
 trial-energy change:   -0.411232  1 .order   -0.409350   -0.588470   -0.230230
 step:  25.4356(harm= 25.9258)  dis= 0.13786  next Energy=  -112.180712 (dE=-0.482E+00)
 bond charge predicted
       N       E                     dE             d eps       ncg     rms          rms(c)
DAV:   1    -0.111935746856E+03    0.17406E+00   -0.54595E+02  1568   0.323E+01    0.993E-01
DAV:   2    -0.112190379963E+03   -0.25463E+00   -0.25364E+00  1648   0.307E+00    0.751E-01
DAV:   3    -0.112186002784E+03    0.43772E-02   -0.37373E-02  1688   0.361E-01    0.541E-01
DAV:   4    -0.112179382441E+03    0.66203E-02   -0.14414E-02  1624   0.177E-01    0.221E-01
DAV:   5    -0.112179273170E+03    0.10927E-03   -0.41464E-03  1696   0.982E-02    0.775E-02
DAV:   6    -0.112179268656E+03    0.45139E-05   -0.22876E-04  1112   0.239E-02
  29 F= -.11217927E+03 E0= -.11217927E+03  d E =-.480624E+00  mag=     1.0000
 curvature: -30.20 expect dE=-0.129E+01 dE for cont linesearch -0.510E-05
 trial: gam= 1.06354 g(F)=  0.428E-01 g(S)=  0.000E+00 ort =-0.121E-03 (trialstep = 0.109E+02)
 search vector abs. value=  0.141E+00
 bond charge predicted
       N       E                     dE             d eps       ncg     rms          rms(c)
DAV:   1    -0.112015503266E+03    0.16377E+00   -0.11476E+03  1568   0.471E+01    0.146E+00
DAV:   2    -0.112559588197E+03   -0.54408E+00   -0.54452E+00  1632   0.453E+00    0.115E+00
DAV:   3    -0.112551802591E+03    0.77856E-02   -0.81450E-02  1696   0.536E-01    0.814E-01
DAV:   4    -0.112538396511E+03    0.13406E-01   -0.21274E-02  1616   0.218E-01    0.431E-01
DAV:   5    -0.112536717880E+03    0.16786E-02   -0.13115E-02  1672   0.169E-01    0.128E-01
DAV:   6    -0.112536866208E+03   -0.14833E-03   -0.26846E-04  1128   0.291E-02    0.733E-02
DAV:   7    -0.112537030723E+03   -0.16452E-03   -0.14172E-04  1096   0.188E-02    0.247E-02
DAV:   8    -0.112537130211E+03   -0.99488E-04   -0.27649E-05  1080   0.895E-03
  30 F= -.11253713E+03 E0= -.11253713E+03  d E =-.357862E+00  mag=     1.0000
 trial-energy change:   -0.357862  1 .order   -0.357762   -0.466374   -0.249149
 step:  23.4858(harm= 23.4858)  dis= 0.19568  next Energy=  -112.679913 (dE=-0.501E+00)
 bond charge predicted
       N       E                     dE             d eps       ncg     rms          rms(c)
DAV:   1    -0.111959791411E+03    0.57724E+00   -0.15182E+03  1568   0.544E+01    0.187E+00
DAV:   2    -0.112687231864E+03   -0.72744E+00   -0.72868E+00  1632   0.527E+00    0.132E+00
DAV:   3    -0.112676038776E+03    0.11193E-01   -0.11099E-01  1696   0.635E-01    0.902E-01
DAV:   4    -0.112659699704E+03    0.16339E-01   -0.27429E-02  1632   0.250E-01    0.470E-01
DAV:   5    -0.112657830616E+03    0.18691E-02   -0.14517E-02  1672   0.181E-01    0.132E-01
DAV:   6    -0.112658034445E+03   -0.20383E-03   -0.37360E-04  1232   0.340E-02    0.747E-02
DAV:   7    -0.112658281342E+03   -0.24690E-03   -0.11848E-04  1104   0.181E-02    0.259E-02
DAV:   8    -0.112658418391E+03   -0.13705E-03   -0.22475E-05  1088   0.783E-03    0.105E-02
DAV:   9    -0.112658568358E+03   -0.14997E-03   -0.99702E-06  1072   0.420E-03    0.378E-03
DAV:  10    -0.112658683450E+03   -0.11509E-03   -0.55046E-06  1088   0.223E-03    0.217E-03
DAV:  11    -0.112658763544E+03   -0.80093E-04   -0.30525E-06  1064   0.128E-03
  31 F= -.11265876E+03 E0= -.11265876E+03  d E =-.479495E+00  mag=     1.0000
 curvature: -38.83 expect dE=-0.155E+01 dE for cont linesearch -0.473E-02
 trial: gam= 0.81845 g(F)=  0.400E-01 g(S)=  0.000E+00 ort =-0.414E-02 (trialstep = 0.134E+02)
 search vector abs. value=  0.128E+00
 bond charge predicted
       N       E                     dE             d eps       ncg     rms          rms(c)
DAV:   1    -0.112282329530E+03    0.37635E+00   -0.15887E+03  1568   0.556E+01    0.185E+00
DAV:   2    -0.113047806134E+03   -0.76548E+00   -0.76422E+00  1624   0.538E+00    0.139E+00
DAV:   3    -0.113036641420E+03    0.11165E-01   -0.11446E-01  1704   0.639E-01    0.967E-01
DAV:   4    -0.113019144141E+03    0.17497E-01   -0.25334E-02  1632   0.240E-01    0.548E-01
DAV:   5    -0.113015978460E+03    0.31657E-02   -0.18445E-02  1656   0.199E-01    0.155E-01
DAV:   6    -0.113016275578E+03   -0.29712E-03   -0.29166E-04  1160   0.333E-02    0.858E-02
DAV:   7    -0.113016492064E+03   -0.21649E-03   -0.10869E-04  1056   0.180E-02    0.317E-02
DAV:   8    -0.113016604916E+03   -0.11285E-03   -0.28983E-05  1080   0.886E-03    0.127E-02
DAV:   9    -0.113016732892E+03   -0.12798E-03   -0.11321E-05  1024   0.507E-03    0.459E-03
DAV:  10    -0.113016816850E+03   -0.83958E-04   -0.42567E-06  1080   0.226E-03
  32 F= -.11301682E+03 E0= -.11301682E+03  d E =-.358053E+00  mag=     1.0000
 trial-energy change:   -0.358053  1 .order   -0.351946   -0.492077   -0.211815
 step:  21.8326(harm= 23.6124)  dis= 0.20177  next Energy=  -113.084323 (dE=-0.426E+00)
 bond charge predicted
       N       E                     dE             d eps       ncg     rms          rms(c)
DAV:   1    -0.112814616631E+03    0.20212E+00   -0.60640E+02  1568   0.340E+01    0.972E-01
DAV:   2    -0.113097450324E+03   -0.28283E+00   -0.28189E+00  1600   0.324E+00    0.801E-01
DAV:   3    -0.113093008868E+03    0.44415E-02   -0.41160E-02  1712   0.378E-01    0.585E-01
DAV:   4    -0.113085410798E+03    0.75981E-02   -0.12398E-02  1608   0.166E-01    0.293E-01
DAV:   5    -0.113084629771E+03    0.78103E-03   -0.73624E-03  1664   0.126E-01    0.909E-02
DAV:   6    -0.113084707827E+03   -0.78056E-04   -0.16769E-04  1104   0.219E-02
  33 F= -.11308471E+03 E0= -.11308471E+03  d E =-.425944E+00  mag=     1.0000
 curvature: -39.92 expect dE=-0.167E+01 dE for cont linesearch -0.271E-03
 trial: gam= 0.65004 g(F)=  0.417E-01 g(S)=  0.000E+00 ort = 0.931E-03 (trialstep = 0.151E+02)
 search vector abs. value=  0.969E-01
 bond charge predicted
       N       E                     dE             d eps       ncg     rms          rms(c)
DAV:   1    -0.112854111938E+03    0.23052E+00   -0.15151E+03  1568   0.542E+01    0.184E+00
DAV:   2    -0.113582847508E+03   -0.72874E+00   -0.72538E+00  1616   0.521E+00    0.131E+00
DAV:   3    -0.113571174384E+03    0.11673E-01   -0.10578E-01  1688   0.596E-01    0.922E-01
DAV:   4    -0.113553852175E+03    0.17322E-01   -0.31808E-02  1640   0.260E-01    0.436E-01
DAV:   5    -0.113552544289E+03    0.13079E-02   -0.12114E-02  1696   0.162E-01    0.131E-01
DAV:   6    -0.113552694280E+03   -0.14999E-03   -0.34841E-04  1136   0.329E-02    0.703E-02
DAV:   7    -0.113552866054E+03   -0.17177E-03   -0.12119E-04  1096   0.175E-02    0.254E-02
DAV:   8    -0.113552984277E+03   -0.11822E-03   -0.26053E-05  1032   0.872E-03    0.956E-03
DAV:   9    -0.113553112372E+03   -0.12809E-03   -0.10069E-05  1048   0.460E-03    0.361E-03
DAV:  10    -0.113553198009E+03   -0.85637E-04   -0.36237E-06  1056   0.210E-03
  34 F= -.11355320E+03 E0= -.11355320E+03  d E =-.468490E+00  mag=     1.0000
 trial-energy change:   -0.468490  1 .order   -0.469593   -0.640035   -0.299151
 step:  28.9101(harm= 28.3988)  dis= 0.18512  next Energy=  -113.688684 (dE=-0.604E+00)
 bond charge predicted
       N       E                     dE             d eps       ncg     rms          rms(c)
DAV:   1    -0.113094117132E+03    0.45900E+00   -0.12539E+03  1568   0.493E+01    0.169E+00
DAV:   2    -0.113693503358E+03   -0.59939E+00   -0.59693E+00  1616   0.472E+00    0.116E+00
DAV:   3    -0.113683046989E+03    0.10456E-01   -0.87679E-02  1664   0.542E-01    0.814E-01
DAV:   4    -0.113668799142E+03    0.14248E-01   -0.30035E-02  1640   0.253E-01    0.345E-01
DAV:   5    -0.113668268052E+03    0.53109E-03   -0.77631E-03  1680   0.133E-01    0.109E-01
DAV:   6    -0.113668324576E+03   -0.56524E-04   -0.37955E-04  1344   0.319E-02
  35 F= -.11366832E+03 E0= -.11366832E+03  d E =-.583617E+00  mag=     1.0000
 curvature: -32.45 expect dE=-0.182E+01 dE for cont linesearch -0.350E-02
 trial: gam= 1.30762 g(F)=  0.562E-01 g(S)=  0.000E+00 ort =-0.323E-02 (trialstep = 0.812E+01)
 search vector abs. value=  0.213E+00
 bond charge predicted
       N       E                     dE             d eps       ncg     rms          rms(c)
DAV:   1    -0.113558722115E+03    0.10955E+00   -0.95390E+02  1568   0.427E+01    0.133E+00
DAV:   2    -0.114014451419E+03   -0.45573E+00   -0.45267E+00  1632   0.409E+00    0.100E+00
DAV:   3    -0.114007212388E+03    0.72390E-02   -0.64180E-02  1704   0.463E-01    0.719E-01
DAV:   4    -0.113995806671E+03    0.11406E-01   -0.21716E-02  1616   0.215E-01    0.327E-01
DAV:   5    -0.113995158737E+03    0.64793E-03   -0.80778E-03  1680   0.133E-01    0.105E-01
DAV:   6    -0.113995280849E+03   -0.12211E-03   -0.26608E-04  1120   0.267E-02    0.601E-02
DAV:   7    -0.113995492702E+03   -0.21185E-03   -0.11889E-04  1104   0.168E-02    0.203E-02
DAV:   8    -0.113995670736E+03   -0.17803E-03   -0.25223E-05  1056   0.847E-03    0.706E-03
DAV:   9    -0.113995864071E+03   -0.19334E-03   -0.93535E-06  1056   0.439E-03    0.341E-03
DAV:  10    -0.113996005875E+03   -0.14180E-03   -0.35232E-06  1056   0.204E-03    0.218E-03
DAV:  11    -0.113996164885E+03   -0.15901E-03   -0.39044E-06  1048   0.151E-03    0.162E-03
DAV:  12    -0.113996359417E+03   -0.19453E-03   -0.66041E-06  1048   0.164E-03    0.108E-03
DAV:  13    -0.113996428434E+03   -0.69018E-04   -0.16095E-06  1088   0.883E-04
  36 F= -.11399643E+03 E0= -.11399643E+03  d E =-.328104E+00  mag=     1.0000
 trial-energy change:   -0.328104  1 .order   -0.323323   -0.422098   -0.224547
 step:  15.3542(harm= 17.3424)  dis= 0.16026  next Energy=  -114.099932 (dE=-0.432E+00)
 bond charge predicted
       N       E                     dE             d eps       ncg     rms          rms(c)
DAV:   1    -0.113746246303E+03    0.25011E+00   -0.75639E+02  1568   0.380E+01    0.127E+00
DAV:   2    -0.114105061035E+03   -0.35881E+00   -0.35739E+00  1632   0.363E+00    0.936E-01
DAV:   3    -0.114098552862E+03    0.65082E-02   -0.51258E-02  1696   0.414E-01    0.657E-01
DAV:   4    -0.114089474818E+03    0.90780E-02   -0.21631E-02  1632   0.214E-01    0.255E-01
DAV:   5    -0.114089410579E+03    0.64239E-04   -0.42620E-03  1704   0.101E-01    0.914E-02
DAV:   6    -0.114089360027E+03    0.50552E-04   -0.31203E-04  1200   0.270E-02
  37 F= -.11408936E+03 E0= -.11408936E+03  d E =-.421035E+00  mag=     1.0000
 curvature: -33.93 expect dE=-0.177E+01 dE for cont linesearch -0.188E-02
 trial: gam= 0.50735 g(F)=  0.521E-01 g(S)=  0.000E+00 ort =-0.344E-02 (trialstep = 0.956E+01)
 search vector abs. value=  0.104E+00
 bond charge predicted
       N       E                     dE             d eps       ncg     rms          rms(c)
DAV:   1    -0.114192833527E+03   -0.10342E+00   -0.63923E+02  1568   0.349E+01    0.101E+00
DAV:   2    -0.114493047991E+03   -0.30021E+00   -0.29923E+00  1648   0.331E+00    0.812E-01
DAV:   3    -0.114488779709E+03    0.42683E-02   -0.42040E-02  1720   0.373E-01    0.603E-01
DAV:   4    -0.114481089798E+03    0.76899E-02   -0.14955E-02  1632   0.179E-01    0.263E-01
DAV:   5    -0.114480794236E+03    0.29556E-03   -0.57469E-03  1680   0.113E-01    0.904E-02
DAV:   6    -0.114480867449E+03   -0.73213E-04   -0.21282E-04  1112   0.236E-02
  38 F= -.11448087E+03 E0= -.11448087E+03  d E =-.391507E+00  mag=     1.0000
 trial-energy change:   -0.391507  1 .order   -0.395638   -0.481383   -0.309892
 step:  26.8471(harm= 26.8471)  dis= 0.23423  next Energy=  -114.764992 (dE=-0.676E+00)
 bond charge predicted
       N       E                     dE             d eps       ncg     rms          rms(c)
DAV:   1    -0.113754607375E+03    0.72619E+00   -0.21283E+03  1568   0.646E+01    0.238E+00
DAV:   2    -0.114786479674E+03   -0.10319E+01   -0.10329E+01  1664   0.624E+00    0.152E+00
DAV:   3    -0.114771908730E+03    0.14571E-01   -0.14982E-01  1696   0.721E-01    0.104E+00
DAV:   4    -0.114751521691E+03    0.20387E-01   -0.34798E-02  1672   0.279E-01    0.532E-01
DAV:   5    -0.114749235598E+03    0.22861E-02   -0.16689E-02  1672   0.193E-01    0.146E-01
DAV:   6    -0.114749649761E+03   -0.41416E-03   -0.45880E-04  1528   0.382E-02    0.800E-02
DAV:   7    -0.114750094304E+03   -0.44454E-03   -0.93683E-05  1112   0.174E-02    0.312E-02
DAV:   8    -0.114750446929E+03   -0.35263E-03   -0.29904E-05  1064   0.844E-03    0.118E-02
DAV:   9    -0.114750794183E+03   -0.34725E-03   -0.10419E-05  1056   0.415E-03    0.498E-03
DAV:  10    -0.114751080927E+03   -0.28674E-03   -0.66605E-06  1056   0.248E-03    0.299E-03
DAV:  11    -0.114751327512E+03   -0.24658E-03   -0.43171E-06  1048   0.155E-03    0.219E-03
DAV:  12    -0.114751723462E+03   -0.39595E-03   -0.12741E-05  1080   0.205E-03    0.154E-03
DAV:  13    -0.114751868005E+03   -0.14454E-03   -0.25187E-06  1088   0.112E-03    0.107E-03
DAV:  14    -0.114751996128E+03   -0.12812E-03   -0.21841E-06  1040   0.932E-04    0.550E-04
DAV:  15    -0.114752059478E+03   -0.63350E-04   -0.75001E-07  1072   0.586E-04
  39 F= -.11475206E+03 E0= -.11475206E+03  d E =-.662699E+00  mag=     1.0000
 curvature: -27.61 expect dE=-0.146E+01 dE for cont linesearch -0.193E-03
 trial: gam= 1.00683 g(F)=  0.529E-01 g(S)=  0.000E+00 ort =-0.850E-03 (trialstep = 0.863E+01)
 search vector abs. value=  0.156E+00
 bond charge predicted
       N       E                     dE             d eps       ncg     rms          rms(c)
DAV:   1    -0.114781113252E+03   -0.29117E-01   -0.78663E+02  1568   0.388E+01    0.110E+00
DAV:   2    -0.115150197674E+03   -0.36908E+00   -0.36667E+00  1656   0.368E+00    0.886E-01
DAV:   3    -0.115144612680E+03    0.55850E-02   -0.52106E-02  1696   0.418E-01    0.648E-01
DAV:   4    -0.115135003379E+03    0.96093E-02   -0.15216E-02  1656   0.182E-01    0.323E-01
DAV:   5    -0.115133746161E+03    0.12572E-02   -0.89487E-03  1696   0.137E-01    0.994E-02
DAV:   6    -0.115133859627E+03   -0.11347E-03   -0.20309E-04  1104   0.245E-02    0.573E-02
DAV:   7    -0.115134036995E+03   -0.17737E-03   -0.10059E-04  1088   0.156E-02    0.198E-02
DAV:   8    -0.115134183026E+03   -0.14603E-03   -0.24862E-05  1048   0.831E-03    0.648E-03
DAV:   9    -0.115134337422E+03   -0.15440E-03   -0.74634E-06  1048   0.427E-03    0.316E-03
DAV:  10    -0.115134453564E+03   -0.11614E-03   -0.26380E-06  1056   0.190E-03    0.188E-03
DAV:  11    -0.115134550654E+03   -0.97090E-04   -0.15204E-06  1040   0.108E-03
  40 F= -.11513455E+03 E0= -.11513455E+03  d E =-.382491E+00  mag=     1.0000
 trial-energy change:   -0.382491  1 .order   -0.381703   -0.449214   -0.314192
 step:  26.7586(harm= 28.7257)  dis= 0.26694  next Energy=  -115.471609 (dE=-0.720E+00)
 bond charge predicted
       N       E                     dE             d eps       ncg     rms          rms(c)
DAV:   1    -0.113741156178E+03    0.13933E+01   -0.35970E+03  1568   0.851E+01    0.367E+00
DAV:   2    -0.115525521199E+03   -0.17844E+01   -0.17870E+01  1664   0.834E+00    0.213E+00
DAV:   3    -0.115501546651E+03    0.23975E-01   -0.26765E-01  1704   0.979E-01    0.136E+00
DAV:   4    -0.115470599477E+03    0.30947E-01   -0.44624E-02  1664   0.324E-01    0.820E-01
DAV:   5    -0.115463773383E+03    0.68261E-02   -0.33178E-02  1664   0.271E-01    0.212E-01
DAV:   6    -0.115464467671E+03   -0.69429E-03   -0.68119E-04  1680   0.552E-02    0.116E-01
DAV:   7    -0.115465105228E+03   -0.63756E-03   -0.10286E-04  1096   0.247E-02    0.444E-02
DAV:   8    -0.115465563802E+03   -0.45857E-03   -0.36257E-05  1080   0.909E-03    0.170E-02
DAV:   9    -0.115465973652E+03   -0.40985E-03   -0.13336E-05  1056   0.525E-03    0.705E-03
DAV:  10    -0.115466345544E+03   -0.37189E-03   -0.94185E-06  1064   0.303E-03    0.348E-03
DAV:  11    -0.115466645813E+03   -0.30027E-03   -0.58013E-06  1072   0.196E-03    0.264E-03
DAV:  12    -0.115467039707E+03   -0.39389E-03   -0.99743E-06  1040   0.197E-03    0.181E-03
DAV:  13    -0.115467286010E+03   -0.24630E-03   -0.62330E-06  1096   0.156E-03    0.143E-03
DAV:  14    -0.115467425576E+03   -0.13957E-03   -0.20634E-06  1048   0.101E-03    0.772E-04
DAV:  15    -0.115467524278E+03   -0.98702E-04   -0.11103E-06  1064   0.799E-04
  41 F= -.11546752E+03 E0= -.11546752E+03  d E =-.715465E+00  mag=     1.0000
 curvature: -42.68 expect dE=-0.220E+01 dE for cont linesearch -0.487E-03
 trial: gam= 0.84288 g(F)=  0.514E-01 g(S)=  0.000E+00 ort =-0.133E-02 (trialstep = 0.120E+02)
 search vector abs. value=  0.160E+00
 bond charge predicted
       N       E                     dE             d eps       ncg     rms          rms(c)
DAV:   1    -0.115183356292E+03    0.28407E+00   -0.15630E+03  1568   0.551E+01    0.192E+00
DAV:   2    -0.115926932191E+03   -0.74358E+00   -0.74445E+00  1640   0.528E+00    0.131E+00
DAV:   3    -0.115915424760E+03    0.11507E-01   -0.10923E-01  1704   0.609E-01    0.905E-01
DAV:   4    -0.115899011676E+03    0.16413E-01   -0.31348E-02  1648   0.264E-01    0.425E-01
DAV:   5    -0.115897852473E+03    0.11592E-02   -0.11211E-02  1688   0.160E-01    0.125E-01
DAV:   6    -0.115897977986E+03   -0.12551E-03   -0.46691E-04  1624   0.387E-02    0.690E-02
DAV:   7    -0.115898159015E+03   -0.18103E-03   -0.70196E-05  1088   0.175E-02    0.250E-02
DAV:   8    -0.115898300296E+03   -0.14128E-03   -0.20965E-05  1048   0.745E-03    0.888E-03
DAV:   9    -0.115898424382E+03   -0.12409E-03   -0.46558E-06  1072   0.344E-03    0.397E-03
DAV:  10    -0.115898540920E+03   -0.11654E-03   -0.34534E-06  1040   0.217E-03    0.214E-03
DAV:  11    -0.115898622870E+03   -0.81950E-04   -0.15352E-06  1064   0.105E-03
  42 F= -.11589862E+03 E0= -.11589862E+03  d E =-.431099E+00  mag=     1.0000
 trial-energy change:   -0.431099  1 .order   -0.427211   -0.601442   -0.252981
 step:  19.7673(harm= 20.6321)  dis= 0.17482  next Energy=  -115.982388 (dE=-0.515E+00)
 bond charge predicted
       N       E                     dE             d eps       ncg     rms          rms(c)
DAV:   1    -0.115685382499E+03    0.21316E+00   -0.65995E+02  1568   0.355E+01    0.115E+00
DAV:   2    -0.115993408568E+03   -0.30803E+00   -0.30722E+00  1656   0.337E+00    0.824E-01
DAV:   3    -0.115988266422E+03    0.51421E-02   -0.44952E-02  1704   0.388E-01    0.584E-01
DAV:   4    -0.115980950576E+03    0.73158E-02   -0.17568E-02  1656   0.197E-01    0.223E-01
DAV:   5    -0.115980936179E+03    0.14397E-04   -0.35475E-03  1696   0.942E-02    0.789E-02
DAV:   6    -0.115980912728E+03    0.23450E-04   -0.29031E-04  1104   0.278E-02
  43 F= -.11598091E+03 E0= -.11598091E+03  d E =-.513388E+00  mag=     1.0000
 curvature: -32.50 expect dE=-0.140E+01 dE for cont linesearch -0.144E-04
 trial: gam= 0.57537 g(F)=  0.430E-01 g(S)=  0.000E+00 ort =-0.266E-03 (trialstep = 0.135E+02)
 search vector abs. value=  0.957E-01
 bond charge predicted
       N       E                     dE             d eps       ncg     rms          rms(c)
DAV:   1    -0.115854544841E+03    0.12639E+00   -0.11922E+03  1568   0.478E+01    0.172E+00
DAV:   2    -0.116426551326E+03   -0.57201E+00   -0.57626E+00  1656   0.463E+00    0.117E+00
DAV:   3    -0.116418629486E+03    0.79218E-02   -0.87434E-02  1680   0.553E-01    0.793E-01
DAV:   4    -0.116406736501E+03    0.11893E-01   -0.25361E-02  1672   0.237E-01    0.362E-01
DAV:   5    -0.116406384027E+03    0.35247E-03   -0.82191E-03  1680   0.137E-01    0.110E-01
DAV:   6    -0.116406386125E+03   -0.20984E-05   -0.59640E-04  1656   0.370E-02
  44 F= -.11640639E+03 E0= -.11640639E+03  d E =-.425473E+00  mag=     1.0000
 trial-energy change:   -0.425473  1 .order   -0.419891   -0.579391   -0.260391
 step:  22.8843(harm= 24.5496)  dis= 0.14891  next Energy=  -116.498480 (dE=-0.518E+00)
 bond charge predicted
       N       E                     dE             d eps       ncg     rms          rms(c)
DAV:   1    -0.116241785654E+03    0.16460E+00   -0.56750E+02  1568   0.328E+01    0.116E+00
DAV:   2    -0.116509118282E+03   -0.26733E+00   -0.26943E+00  1656   0.316E+00    0.826E-01
DAV:   3    -0.116504710809E+03    0.44075E-02   -0.40977E-02  1696   0.378E-01    0.565E-01
DAV:   4    -0.116498808229E+03    0.59026E-02   -0.15892E-02  1664   0.188E-01    0.217E-01
DAV:   5    -0.116499031574E+03   -0.22335E-03   -0.28024E-03  1696   0.850E-02    0.785E-02
DAV:   6    -0.116499038156E+03   -0.65818E-05   -0.35708E-04  1240   0.278E-02
  45 F= -.11649904E+03 E0= -.11649904E+03  d E =-.518125E+00  mag=     1.0000
 curvature: -26.78 expect dE=-0.112E+01 dE for cont linesearch -0.270E-04
 trial: gam= 0.81690 g(F)=  0.419E-01 g(S)=  0.000E+00 ort =-0.311E-03 (trialstep = 0.140E+02)
 search vector abs. value=  0.105E+00
 bond charge predicted
       N       E                     dE             d eps       ncg     rms          rms(c)
DAV:   1    -0.116283017161E+03    0.21601E+00   -0.14123E+03  1568   0.521E+01    0.187E+00
DAV:   2    -0.116963320001E+03   -0.68030E+00   -0.68370E+00  1680   0.509E+00    0.130E+00
DAV:   3    -0.116953710170E+03    0.96098E-02   -0.10605E-01  1688   0.641E-01    0.871E-01
DAV:   4    -0.116939414887E+03    0.14295E-01   -0.24568E-02  1664   0.251E-01    0.464E-01
DAV:   5    -0.116937766039E+03    0.16488E-02   -0.14537E-02  1640   0.182E-01    0.128E-01
DAV:   6    -0.116937936008E+03   -0.16997E-03   -0.40210E-04  1384   0.392E-02    0.773E-02
DAV:   7    -0.116938227429E+03   -0.29142E-03   -0.16823E-04  1056   0.258E-02    0.273E-02
DAV:   8    -0.116938429406E+03   -0.20198E-03   -0.31686E-05  1056   0.969E-03    0.118E-02
DAV:   9    -0.116938637601E+03   -0.20820E-03   -0.80002E-06  1016   0.483E-03    0.509E-03
DAV:  10    -0.116938806076E+03   -0.16848E-03   -0.45200E-06  1056   0.322E-03    0.243E-03
DAV:  11    -0.116938924258E+03   -0.11818E-03   -0.20141E-06  1048   0.129E-03    0.168E-03
DAV:  12    -0.116939167164E+03   -0.24291E-03   -0.78164E-06  1024   0.193E-03    0.129E-03
DAV:  13    -0.116939260442E+03   -0.93277E-04   -0.27529E-06  1088   0.128E-03
  46 F= -.11693926E+03 E0= -.11693926E+03  d E =-.440222E+00  mag=     1.0000
 trial-energy change:   -0.440222  1 .order   -0.433642   -0.582971   -0.284313
 step:  24.7817(harm= 27.3087)  dis= 0.15480  next Energy=  -117.051931 (dE=-0.553E+00)
 bond charge predicted
       N       E                     dE             d eps       ncg     rms          rms(c)
DAV:   1    -0.116676269457E+03    0.26290E+00   -0.83233E+02  1568   0.398E+01    0.136E+00
DAV:   2    -0.117068099254E+03   -0.39183E+00   -0.39550E+00  1672   0.386E+00    0.969E-01
DAV:   3    -0.117061638949E+03    0.64603E-02   -0.61519E-02  1688   0.492E-01    0.660E-01
DAV:   4    -0.117052862753E+03    0.87762E-02   -0.17089E-02  1672   0.211E-01    0.318E-01
DAV:   5    -0.117052275704E+03    0.58705E-03   -0.78578E-03  1640   0.139E-01    0.942E-02
DAV:   6    -0.117052247638E+03    0.28067E-04   -0.30495E-04  1176   0.334E-02
  47 F= -.11705225E+03 E0= -.11705225E+03  d E =-.553209E+00  mag=     1.0000
 curvature: -33.26 expect dE=-0.131E+01 dE for cont linesearch -0.220E-03
 trial: gam= 0.72539 g(F)=  0.393E-01 g(S)=  0.000E+00 ort = 0.834E-03 (trialstep = 0.161E+02)
 search vector abs. value=  0.959E-01
 bond charge predicted
       N       E                     dE             d eps       ncg     rms          rms(c)
DAV:   1    -0.116665118730E+03    0.38716E+00   -0.17218E+03  1568   0.578E+01    0.197E+00
DAV:   2    -0.117491729720E+03   -0.82661E+00   -0.82685E+00  1656   0.563E+00    0.154E+00
DAV:   3    -0.117481862943E+03    0.98668E-02   -0.12550E-01  1688   0.693E-01    0.106E+00
DAV:   4    -0.117463423106E+03    0.18440E-01   -0.27297E-02  1648   0.263E-01    0.623E-01
DAV:   5    -0.117460109878E+03    0.33132E-02   -0.21684E-02  1672   0.223E-01    0.178E-01
DAV:   6    -0.117460323357E+03   -0.21348E-03   -0.41764E-04  1448   0.433E-02    0.110E-01
DAV:   7    -0.117460603693E+03   -0.28034E-03   -0.19210E-04  1096   0.301E-02    0.394E-02
DAV:   8    -0.117460802872E+03   -0.19918E-03   -0.53097E-05  1080   0.123E-02    0.158E-02
DAV:   9    -0.117461005960E+03   -0.20309E-03   -0.97601E-06  1064   0.588E-03    0.664E-03
DAV:  10    -0.117461178145E+03   -0.17218E-03   -0.47390E-06  1048   0.369E-03    0.274E-03
DAV:  11    -0.117461277687E+03   -0.99542E-04   -0.16731E-06  1064   0.133E-03
  48 F= -.11746128E+03 E0= -.11746128E+03  d E =-.409030E+00  mag=     1.0000
 trial-energy change:   -0.409030  1 .order   -0.410377   -0.643844   -0.176910
 step:  22.4176(harm= 22.2670)  dis= 0.13453  next Energy=  -117.495537 (dE=-0.443E+00)
 bond charge predicted
       N       E                     dE             d eps       ncg     rms          rms(c)
DAV:   1    -0.117383533227E+03    0.77645E-01   -0.25303E+02  1568   0.218E+01    0.601E-01
DAV:   2    -0.117498686956E+03   -0.11515E+00   -0.11504E+00  1656   0.207E+00    0.530E-01
DAV:   3    -0.117497059759E+03    0.16272E-02   -0.16992E-02  1712   0.250E-01    0.389E-01
DAV:   4    -0.117493865989E+03    0.31938E-02   -0.52769E-03  1656   0.113E-01    0.201E-01
DAV:   5    -0.117493575877E+03    0.29011E-03   -0.38023E-03  1672   0.938E-02    0.675E-02
DAV:   6    -0.117493569287E+03    0.65904E-05   -0.10537E-04  1008   0.193E-02
  49 F= -.11749357E+03 E0= -.11749357E+03  d E =-.441322E+00  mag=     1.0000
 curvature: -26.76 expect dE=-0.740E+00 dE for cont linesearch -0.606E-04
 trial: gam= 0.54632 g(F)=  0.277E-01 g(S)=  0.000E+00 ort =-0.466E-03 (trialstep = 0.174E+02)
 search vector abs. value=  0.558E-01
 bond charge predicted
       N       E                     dE             d eps       ncg     rms          rms(c)
DAV:   1    -0.117244692564E+03    0.24888E+00   -0.11530E+03  1568   0.472E+01    0.171E+00
DAV:   2    -0.117782752088E+03   -0.53806E+00   -0.55013E+00  1648   0.458E+00    0.126E+00
DAV:   3    -0.117774297906E+03    0.84542E-02   -0.89666E-02  1664   0.649E-01    0.857E-01
DAV:   4    -0.117762389500E+03    0.11908E-01   -0.19302E-02  1664   0.223E-01    0.482E-01
DAV:   5    -0.117760565007E+03    0.18245E-02   -0.14713E-02  1664   0.188E-01    0.131E-01
DAV:   6    -0.117760766483E+03   -0.20148E-03   -0.26498E-04  1144   0.312E-02    0.847E-02
DAV:   7    -0.117761130997E+03   -0.36451E-03   -0.25753E-04  1120   0.229E-02    0.304E-02
DAV:   8    -0.117761401303E+03   -0.27031E-03   -0.64168E-05  1096   0.155E-02    0.114E-02
DAV:   9    -0.117761645760E+03   -0.24446E-03   -0.16435E-05  1064   0.711E-03    0.606E-03
DAV:  10    -0.117761885697E+03   -0.23994E-03   -0.60845E-06  1056   0.317E-03    0.362E-03
DAV:  11    -0.117762107349E+03   -0.22165E-03   -0.43788E-06  1056   0.230E-03    0.255E-03
DAV:  12    -0.117762319485E+03   -0.21214E-03   -0.34808E-06  1048   0.156E-03    0.194E-03
DAV:  13    -0.117762543612E+03   -0.22413E-03   -0.44069E-06  1056   0.130E-03    0.153E-03
DAV:  14    -0.117762711223E+03   -0.16761E-03   -0.33936E-06  1056   0.153E-03    0.945E-04
DAV:  15    -0.117762810654E+03   -0.99431E-04   -0.11171E-06  1080   0.742E-04
  50 F= -.11776281E+03 E0= -.11776281E+03  d E =-.269241E+00  mag=     1.0000
 trial-energy change:   -0.269241  1 .order   -0.268074   -0.477088   -0.059060
 step:  19.8150(harm= 19.8611)  dis= 0.11498  next Energy=  -117.766908 (dE=-0.273E+00)
 bond charge predicted
       N       E                     dE             d eps       ncg     rms          rms(c)
DAV:   1    -0.117757795607E+03    0.49156E-02   -0.21708E+01  1568   0.640E+00    0.216E-01
DAV:   2    -0.117767117883E+03   -0.93223E-02   -0.99471E-02  1616   0.618E-01    0.185E-01
DAV:   3    -0.117766997944E+03    0.11994E-03   -0.18848E-03  1680   0.110E-01    0.121E-01
DAV:   4    -0.117766789559E+03    0.20838E-03   -0.35746E-04  1344   0.285E-02    0.722E-02
DAV:   5    -0.117766766048E+03    0.23512E-04   -0.58535E-04  1648   0.351E-02
  51 F= -.11776677E+03 E0= -.11776677E+03  d E =-.273197E+00  mag=     1.0000
 curvature: -20.20 expect dE=-0.345E+00 dE for cont linesearch -0.208E-04
 trial: gam= 0.48206 g(F)=  0.171E-01 g(S)=  0.000E+00 ort = 0.240E-03 (trialstep = 0.179E+02)
 search vector abs. value=  0.303E-01
 bond charge predicted
       N       E                     dE             d eps       ncg     rms          rms(c)
DAV:   1    -0.117682392864E+03    0.84397E-01   -0.65365E+02  1568   0.353E+01    0.114E+00
DAV:   2    -0.117981347825E+03   -0.29895E+00   -0.30610E+00  1600   0.342E+00    0.917E-01
DAV:   3    -0.117976431766E+03    0.49161E-02   -0.51453E-02  1728   0.462E-01    0.627E-01
DAV:   4    -0.117968943939E+03    0.74878E-02   -0.12024E-02  1632   0.163E-01    0.342E-01
DAV:   5    -0.117968432304E+03    0.51164E-03   -0.87585E-03  1680   0.143E-01    0.954E-02
DAV:   6    -0.117969019198E+03   -0.58689E-03   -0.15579E-04  1112   0.234E-02    0.645E-02
DAV:   7    -0.117969837521E+03   -0.81832E-03   -0.18148E-04  1088   0.194E-02    0.227E-02
DAV:   8    -0.117970306604E+03   -0.46908E-03   -0.44379E-05  1096   0.119E-02    0.770E-03
DAV:   9    -0.117970646194E+03   -0.33959E-03   -0.14747E-05  1064   0.560E-03    0.470E-03
DAV:  10    -0.117970945475E+03   -0.29928E-03   -0.72844E-06  1088   0.270E-03    0.279E-03
DAV:  11    -0.117971189457E+03   -0.24398E-03   -0.61394E-06  1088   0.222E-03    0.206E-03
DAV:  12    -0.117971381267E+03   -0.19181E-03   -0.58222E-06  1064   0.154E-03    0.133E-03
DAV:  13    -0.117971470966E+03   -0.89699E-04   -0.24164E-06  1088   0.134E-03
  52 F= -.11797147E+03 E0= -.11797147E+03  d E =-.204705E+00  mag=     1.0000
 trial-energy change:   -0.204705  1 .order   -0.202811   -0.307170   -0.098453
 step:  25.7091(harm= 26.3213)  dis= 0.09755  next Energy=  -117.993165 (dE=-0.226E+00)
 bond charge predicted
       N       E                     dE             d eps       ncg     rms          rms(c)
DAV:   1    -0.117939214469E+03    0.32167E-01   -0.12404E+02  1568   0.153E+01    0.437E-01
DAV:   2    -0.117995684198E+03   -0.56470E-01   -0.56591E-01  1616   0.145E+00    0.382E-01
DAV:   3    -0.117994835619E+03    0.84858E-03   -0.88747E-03  1712   0.183E-01    0.279E-01
DAV:   4    -0.117993232203E+03    0.16034E-02   -0.29080E-03  1624   0.800E-02    0.137E-01
DAV:   5    -0.117993157665E+03    0.74539E-04   -0.17830E-03  1672   0.635E-02    0.476E-02
DAV:   6    -0.117993152271E+03    0.53939E-05   -0.47016E-05   992   0.111E-02
  53 F= -.11799315E+03 E0= -.11799315E+03  d E =-.226386E+00  mag=     1.0000
 curvature: -23.06 expect dE=-0.322E+00 dE for cont linesearch -0.375E-05
 trial: gam= 0.75764 g(F)=  0.139E-01 g(S)=  0.000E+00 ort = 0.701E-04 (trialstep = 0.187E+02)
 search vector abs. value=  0.314E-01
 bond charge predicted
       N       E                     dE             d eps       ncg     rms          rms(c)
DAV:   1    -0.117803594230E+03    0.18956E+00   -0.74610E+02  1568   0.377E+01    0.116E+00
DAV:   2    -0.118150517157E+03   -0.34692E+00   -0.34811E+00  1624   0.361E+00    0.941E-01
DAV:   3    -0.118145491197E+03    0.50260E-02   -0.54559E-02  1720   0.448E-01    0.669E-01
DAV:   4    -0.118136462124E+03    0.90291E-02   -0.14780E-02  1616   0.184E-01    0.349E-01
DAV:   5    -0.118135495067E+03    0.96706E-03   -0.93355E-03  1672   0.143E-01    0.104E-01
DAV:   6    -0.118135578830E+03   -0.83762E-04   -0.23501E-04  1120   0.243E-02
  54 F= -.11813558E+03 E0= -.11813558E+03  d E =-.142427E+00  mag=     1.0000
 trial-energy change:   -0.142427  1 .order   -0.147006   -0.262215   -0.031797
 step:  21.7251(harm= 21.3102)  dis= 0.10202  next Energy=  -118.138106 (dE=-0.145E+00)
 bond charge predicted
       N       E                     dE             d eps       ncg     rms          rms(c)
DAV:   1    -0.118128404447E+03    0.70906E-02   -0.18862E+01  1600   0.595E+00    0.160E-01
DAV:   2    -0.118137069252E+03   -0.86648E-02   -0.86040E-02  1664   0.563E-01    0.147E-01
DAV:   3    -0.118137000603E+03    0.68648E-04   -0.13048E-03  1728   0.680E-02    0.109E-01
DAV:   4    -0.118136855509E+03    0.14509E-03   -0.41298E-04  1544   0.307E-02    0.574E-02
DAV:   5    -0.118136964317E+03   -0.10881E-03   -0.31291E-04  1272   0.271E-02    0.194E-02
DAV:   6    -0.118137016030E+03   -0.51713E-04   -0.20859E-05  1048   0.791E-03
  55 F= -.11813702E+03 E0= -.11813702E+03  d E =-.143864E+00  mag=     1.0000
 curvature: -23.29 expect dE=-0.229E+00 dE for cont linesearch -0.271E-03
 trial: gam= 0.65296 g(F)=  0.982E-02 g(S)=  0.000E+00 ort =-0.604E-03 (trialstep = 0.193E+02)
 search vector abs. value=  0.224E-01
 bond charge predicted
       N       E                     dE             d eps       ncg     rms          rms(c)
DAV:   1    -0.117986467767E+03    0.15050E+00   -0.56626E+02  1568   0.327E+01    0.978E-01
DAV:   2    -0.118250782858E+03   -0.26432E+00   -0.26530E+00  1656   0.314E+00    0.823E-01
DAV:   3    -0.118247302863E+03    0.34800E-02   -0.39550E-02  1720   0.376E-01    0.588E-01
DAV:   4    -0.118240452166E+03    0.68507E-02   -0.11786E-02  1648   0.165E-01    0.301E-01
DAV:   5    -0.118239880467E+03    0.57170E-03   -0.67864E-03  1680   0.123E-01    0.955E-02
DAV:   6    -0.118239868249E+03    0.12218E-04   -0.22054E-04  1128   0.237E-02
  56 F= -.11823987E+03 E0= -.11823987E+03  d E =-.102852E+00  mag=     1.0000
 trial-energy change:   -0.102852  1 .order   -0.104933   -0.182173   -0.027693
 step:  23.1618(harm= 22.7903)  dis= 0.09261  next Energy=  -118.242600 (dE=-0.106E+00)
 bond charge predicted
       N       E                     dE             d eps       ncg     rms          rms(c)
DAV:   1    -0.118231520594E+03    0.83599E-02   -0.22059E+01  1592   0.642E+00    0.177E-01
DAV:   2    -0.118241627090E+03   -0.10106E-01   -0.10150E-01  1680   0.610E-01    0.161E-01
DAV:   3    -0.118241516587E+03    0.11050E-03   -0.14802E-03  1704   0.722E-02    0.118E-01
DAV:   4    -0.118241281421E+03    0.23517E-03   -0.52156E-04  1632   0.346E-02    0.592E-02
DAV:   5    -0.118241325448E+03   -0.44027E-04   -0.28304E-04  1152   0.265E-02
  57 F= -.11824133E+03 E0= -.11824133E+03  d E =-.104309E+00  mag=     1.0000
 curvature: -26.80 expect dE=-0.177E+00 dE for cont linesearch -0.120E-03
 trial: gam= 0.60354 g(F)=  0.661E-02 g(S)=  0.000E+00 ort =-0.317E-03 (trialstep = 0.201E+02)
 search vector abs. value=  0.144E-01
 bond charge predicted
       N       E                     dE             d eps       ncg     rms          rms(c)
DAV:   1    -0.118145376281E+03    0.95905E-01   -0.39173E+02  1568   0.272E+01    0.770E-01
DAV:   2    -0.118326884430E+03   -0.18151E+00   -0.18099E+00  1664   0.258E+00    0.636E-01
DAV:   3    -0.118324119568E+03    0.27649E-02   -0.26964E-02  1704   0.307E-01    0.470E-01
DAV:   4    -0.118319262069E+03    0.48575E-02   -0.83943E-03  1640   0.134E-01    0.225E-01
DAV:   5    -0.118318901257E+03    0.36081E-03   -0.46145E-03  1704   0.102E-01    0.719E-02
DAV:   6    -0.118318914970E+03   -0.13714E-04   -0.12890E-04  1064   0.197E-02
  58 F= -.11831891E+03 E0= -.11831891E+03  d E =-.775895E-01  mag=     1.0000
 trial-energy change:   -0.077590  1 .order   -0.080208   -0.128897   -0.031519
 step:  28.5296(harm= 26.5967)  dis= 0.08546  next Energy=  -118.325338 (dE=-0.840E-01)
 bond charge predicted
       N       E                     dE             d eps       ncg     rms          rms(c)
DAV:   1    -0.118291719856E+03    0.27181E-01   -0.68482E+01  1568   0.113E+01    0.298E-01
DAV:   2    -0.118322890832E+03   -0.31171E-01   -0.31021E-01  1648   0.106E+00    0.263E-01
DAV:   3    -0.118322444952E+03    0.44588E-03   -0.45422E-03  1688   0.125E-01    0.199E-01
DAV:   4    -0.118321557631E+03    0.88732E-03   -0.16830E-03  1648   0.596E-02    0.907E-02
DAV:   5    -0.118321558215E+03   -0.58390E-06   -0.89572E-04  1680   0.450E-02
  59 F= -.11832156E+03 E0= -.11832156E+03  d E =-.802328E-01  mag=     1.0000
 curvature: -27.20 expect dE=-0.144E+00 dE for cont linesearch -0.771E-03
 trial: gam= 0.77936 g(F)=  0.528E-02 g(S)=  0.000E+00 ort =-0.639E-03 (trialstep = 0.218E+02)
 search vector abs. value=  0.130E-01
 bond charge predicted
       N       E                     dE             d eps       ncg     rms          rms(c)
DAV:   1    -0.118194569766E+03    0.12699E+00   -0.41646E+02  1568   0.281E+01    0.801E-01
DAV:   2    -0.118388249779E+03   -0.19368E+00   -0.19253E+00  1656   0.265E+00    0.635E-01
DAV:   3    -0.118385081694E+03    0.31681E-02   -0.28334E-02  1688   0.310E-01    0.470E-01
DAV:   4    -0.118379864465E+03    0.52172E-02   -0.97897E-03  1672   0.145E-01    0.209E-01
DAV:   5    -0.118379596318E+03    0.26815E-03   -0.41317E-03  1680   0.967E-02    0.694E-02
DAV:   6    -0.118379627136E+03   -0.30817E-04   -0.13675E-04  1056   0.204E-02
  60 F= -.11837963E+03 E0= -.11837963E+03  d E =-.580689E-01  mag=     1.0000
 trial-energy change:   -0.058069  1 .order   -0.060954   -0.104163   -0.017744
 step:  27.7876(harm= 26.2525)  dis= 0.06911  next Energy=  -118.382014 (dE=-0.605E-01)
 bond charge predicted
       N       E                     dE             d eps       ncg     rms          rms(c)
DAV:   1    -0.118366516223E+03    0.13080E-01   -0.31391E+01  1568   0.767E+00    0.196E-01
DAV:   2    -0.118380841967E+03   -0.14326E-01   -0.14209E-01  1664   0.718E-01    0.175E-01
DAV:   3    -0.118380629946E+03    0.21202E-03   -0.19643E-03  1696   0.810E-02    0.134E-01
DAV:   4    -0.118380231317E+03    0.39863E-03   -0.84111E-04  1664   0.423E-02    0.591E-02
DAV:   5    -0.118380262444E+03   -0.31127E-04   -0.39118E-04  1552   0.301E-02
  61 F= -.11838026E+03 E0= -.11838026E+03  d E =-.587042E-01  mag=     1.0000
 curvature: -31.54 expect dE=-0.152E+00 dE for cont linesearch -0.345E-03
 trial: gam= 0.74778 g(F)=  0.481E-02 g(S)=  0.000E+00 ort =-0.377E-03 (trialstep = 0.230E+02)
 search vector abs. value=  0.115E-01
 bond charge predicted
       N       E                     dE             d eps       ncg     rms          rms(c)
DAV:   1    -0.118263991312E+03    0.11624E+00   -0.40945E+02  1568   0.278E+01    0.764E-01
DAV:   2    -0.118453652913E+03   -0.18966E+00   -0.18854E+00  1680   0.264E+00    0.658E-01
DAV:   3    -0.118450799836E+03    0.28531E-02   -0.27142E-02  1672   0.309E-01    0.487E-01
DAV:   4    -0.118445499707E+03    0.53001E-02   -0.87350E-03  1672   0.138E-01    0.246E-01
DAV:   5    -0.118445019343E+03    0.48036E-03   -0.55643E-03  1648   0.110E-01    0.806E-02
DAV:   6    -0.118445037577E+03   -0.18235E-04   -0.13599E-04  1080   0.197E-02
  62 F= -.11844504E+03 E0= -.11844504E+03  d E =-.647751E-01  mag=     1.0000
 trial-energy change:   -0.064775  1 .order   -0.067613   -0.103945   -0.031281
 step:  39.5657(harm= 32.8752)  dis= 0.11842  next Energy=  -118.455258 (dE=-0.750E-01)
 bond charge predicted
       N       E                     dE             d eps       ncg     rms          rms(c)
DAV:   1    -0.118351539460E+03    0.93480E-01   -0.21237E+02  1568   0.200E+01    0.531E-01
DAV:   2    -0.118448782700E+03   -0.97243E-01   -0.96933E-01  1664   0.189E+00    0.472E-01
DAV:   3    -0.118447260548E+03    0.15222E-02   -0.13852E-02  1664   0.220E-01    0.353E-01
DAV:   4    -0.118444408690E+03    0.28519E-02   -0.48737E-03  1640   0.103E-01    0.174E-01
DAV:   5    -0.118444230255E+03    0.17843E-03   -0.30354E-03  1664   0.818E-02    0.609E-02
DAV:   6    -0.118444246665E+03   -0.16410E-04   -0.77047E-05  1016   0.146E-02
  63 F= -.11844425E+03 E0= -.11844425E+03  d E =-.639842E-01  mag=     1.0000
 curvature: -22.73 expect dE=-0.182E+00 dE for cont linesearch -0.268E-02
 ZBRENT: interpolating
 opt :  31.9131  next Energy=  -118.448709 (dE=-0.684E-01)
 bond charge predicted
       N       E                     dE             d eps       ncg     rms          rms(c)
DAV:   1    -0.118430388132E+03    0.13842E-01   -0.45133E+01  1568   0.921E+00    0.223E-01
DAV:   2    -0.118450807951E+03   -0.20420E-01   -0.20285E-01  1672   0.862E-01    0.218E-01
DAV:   3    -0.118450533705E+03    0.27425E-03   -0.28693E-03  1688   0.989E-02    0.171E-01
DAV:   4    -0.118449910167E+03    0.62354E-03   -0.10083E-03  1640   0.471E-02    0.887E-02
DAV:   5    -0.118449888550E+03    0.21618E-04   -0.88204E-04  1672   0.438E-02
  64 F= -.11844989E+03 E0= -.11844989E+03  d E =-.696261E-01  mag=     1.0000
 curvature: -37.81 expect dE=-0.195E+00 dE for cont linesearch -0.291E-03
 trial: gam= 1.01479 g(F)=  0.515E-02 g(S)=  0.000E+00 ort =-0.298E-03 (trialstep = 0.174E+02)
 search vector abs. value=  0.164E-01
 bond charge predicted
       N       E                     dE             d eps       ncg     rms          rms(c)
DAV:   1    -0.118368244181E+03    0.81666E-01   -0.33305E+02  1568   0.251E+01    0.617E-01
DAV:   2    -0.118519339632E+03   -0.15110E+00   -0.15032E+00  1664   0.236E+00    0.583E-01
DAV:   3    -0.118516944539E+03    0.23951E-02   -0.21527E-02  1696   0.276E-01    0.448E-01
DAV:   4    -0.118512247314E+03    0.46972E-02   -0.59286E-03  1664   0.113E-01    0.252E-01
DAV:   5    -0.118511238749E+03    0.10086E-02   -0.66749E-03  1680   0.118E-01    0.788E-02
DAV:   6    -0.118511274922E+03   -0.36173E-04   -0.83058E-05  1056   0.162E-02
[...]
 step:  33.2198(harm= 33.2198)  dis= 0.28302  next Energy=  -120.836448 (dE=-0.840E-01)
 bond charge predicted
       N       E                     dE             d eps       ncg     rms          rms(c)
DAV:   1    -0.120030408337E+03    0.76680E+00   -0.11300E+03  1568   0.454E+01    0.306E+00
DAV:   2    -0.120816866696E+03   -0.78646E+00   -0.79641E+00  1616   0.519E+00    0.134E+00
DAV:   3    -0.120814435165E+03    0.24315E-02   -0.14120E-01  1640   0.698E-01    0.976E-01
DAV:   4    -0.120807688992E+03    0.67462E-02   -0.96110E-03  1712   0.157E-01    0.703E-01
DAV:   5    -0.120804014189E+03    0.36748E-02   -0.11162E-02  1632   0.160E-01    0.176E-01
DAV:   6    -0.120804163556E+03   -0.14937E-03   -0.57568E-04  1712   0.387E-02    0.786E-02
DAV:   7    -0.120804336721E+03   -0.17316E-03   -0.35223E-05  1032   0.123E-02    0.309E-02
DAV:   8    -0.120804457267E+03   -0.12055E-03   -0.14840E-05  1088   0.564E-03    0.817E-03
DAV:   9    -0.120804538364E+03   -0.81097E-04   -0.26496E-06  1008   0.251E-03
 185 F= -.12080454E+03 E0= -.12080454E+03  d E =-.520462E-01  mag=     1.0000
 curvature: -92.07 expect dE=-0.804E+00 dE for cont linesearch -0.373E-01
 ZBRENT: interpolating
 opt :  22.0165  next Energy=  -120.823414 (dE=-0.709E-01)
 bond charge predicted
       N       E                     dE             d eps       ncg     rms          rms(c)
DAV:   1    -0.120707143387E+03    0.97314E-01   -0.24563E+02  1568   0.210E+01    0.626E-01
DAV:   2    -0.120823365705E+03   -0.11622E+00   -0.11558E+00  1640   0.199E+00    0.477E-01
DAV:   3    -0.120821835449E+03    0.15303E-02   -0.17635E-02  1712   0.229E-01    0.371E-01
DAV:   4    -0.120819415012E+03    0.24204E-02   -0.35488E-03  1640   0.931E-02    0.205E-01
DAV:   5    -0.120818977944E+03    0.43707E-03   -0.28784E-03  1640   0.798E-02    0.503E-02
DAV:   6    -0.120819065945E+03   -0.88000E-04   -0.53710E-05  1072   0.148E-02
 186 F= -.12081907E+03 E0= -.12081907E+03  d E =-.665738E-01  mag=     1.0000
 curvature: -46.58 expect dE=-0.201E+00 dE for cont linesearch -0.752E-04
 trial: gam= 0.40510 g(F)=  0.432E-02 g(S)=  0.000E+00 ort = 0.213E-03 (trialstep = 0.128E+02)
 search vector abs. value=  0.909E-02
 bond charge predicted
       N       E                     dE             d eps       ncg     rms          rms(c)
DAV:   1    -0.120819426933E+03   -0.44899E-03   -0.10158E+02  1568   0.136E+01    0.367E-01
DAV:   2    -0.120866872855E+03   -0.47446E-01   -0.47531E-01  1624   0.131E+00    0.337E-01
DAV:   3    -0.120866340457E+03    0.53240E-03   -0.74574E-03  1696   0.159E-01    0.251E-01
DAV:   4    -0.120865091901E+03    0.12486E-02   -0.18077E-03  1616   0.625E-02    0.143E-01
DAV:   5    -0.120864882459E+03    0.20944E-03   -0.17744E-03  1632   0.616E-02    0.448E-02
DAV:   6    -0.120864882619E+03   -0.16012E-06   -0.33890E-05  1000   0.956E-03
 187 F= -.12086488E+03 E0= -.12086488E+03  d E =-.458167E-01  mag=     1.0000
 trial-energy change:   -0.045817  1 .order   -0.045423   -0.056620   -0.034226
 step:  32.4635(harm= 32.4635)  dis= 0.16756  next Energy=  -120.890643 (dE=-0.716E-01)
 bond charge predicted
       N       E                     dE             d eps       ncg     rms          rms(c)
DAV:   1    -0.120769723321E+03    0.95159E-01   -0.24076E+02  1568   0.210E+01    0.649E-01
DAV:   2    -0.120885450717E+03   -0.11573E+00   -0.11688E+00  1616   0.205E+00    0.534E-01
DAV:   3    -0.120883994115E+03    0.14566E-02   -0.18898E-02  1640   0.258E-01    0.378E-01
DAV:   4    -0.120881230348E+03    0.27638E-02   -0.39841E-03  1632   0.940E-02    0.218E-01
DAV:   5    -0.120880709379E+03    0.52097E-03   -0.32997E-03  1648   0.856E-02    0.614E-02
DAV:   6    -0.120880744295E+03   -0.34917E-04   -0.58776E-05  1024   0.133E-02
 188 F= -.12088074E+03 E0= -.12088074E+03  d E =-.616784E-01  mag=     1.0000
 curvature: -33.47 expect dE=-0.256E+00 dE for cont linesearch -0.255E-02
 ZBRENT: interpolating
 opt :  27.7965  next Energy=  -120.882685 (dE=-0.636E-01)
 bond charge predicted
       N       E                     dE             d eps       ncg     rms          rms(c)
DAV:   1    -0.120877732651E+03    0.29767E-02   -0.13297E+01  1568   0.491E+00    0.126E-01
DAV:   2    -0.120883706370E+03   -0.59737E-02   -0.59665E-02  1656   0.462E-01    0.122E-01
DAV:   3    -0.120883647237E+03    0.59133E-04   -0.92307E-04  1712   0.555E-02
 189 F= -.12088365E+03 E0= -.12088365E+03  d E =-.645813E-01  mag=     1.0000
 curvature: -25.51 expect dE=-0.140E+00 dE for cont linesearch -0.760E-04
 trial: gam= 1.24265 g(F)=  0.548E-02 g(S)=  0.000E+00 ort =-0.165E-03 (trialstep = 0.753E+01)
 search vector abs. value=  0.191E-01
 bond charge predicted
       N       E                     dE             d eps       ncg     rms          rms(c)
DAV:   1    -0.120883743445E+03   -0.37075E-04   -0.72820E+01  1568   0.116E+01    0.288E-01
DAV:   2    -0.120917225762E+03   -0.33482E-01   -0.33327E-01  1616   0.110E+00    0.259E-01
DAV:   3    -0.120916823612E+03    0.40215E-03   -0.51320E-03  1664   0.135E-01    0.195E-01
DAV:   4    -0.120915974986E+03    0.84863E-03   -0.10057E-03  1632   0.468E-02    0.115E-01
DAV:   5    -0.120915761205E+03    0.21378E-03   -0.14794E-03  1640   0.549E-02    0.342E-02
DAV:   6    -0.120915773952E+03   -0.12747E-04   -0.21091E-05   952   0.765E-03
 190 F= -.12091577E+03 E0= -.12091577E+03  d E =-.321267E-01  mag=     1.0000
 trial-energy change:   -0.032127  1 .order   -0.032264   -0.039719   -0.024809
 step:  20.0685(harm= 20.0685)  dis= 0.11681  next Energy=  -120.936552 (dE=-0.529E-01)
 bond charge predicted
       N       E                     dE             d eps       ncg     rms          rms(c)
DAV:   1    -0.120838020231E+03    0.77741E-01   -0.20370E+02  1568   0.194E+01    0.538E-01
DAV:   2    -0.120933128296E+03   -0.95108E-01   -0.94751E-01  1624   0.186E+00    0.463E-01
DAV:   3    -0.120931797305E+03    0.13310E-02   -0.14770E-02  1664   0.229E-01    0.341E-01
DAV:   4    -0.120929207307E+03    0.25900E-02   -0.36236E-03  1632   0.884E-02    0.189E-01
DAV:   5    -0.120928740021E+03    0.46729E-03   -0.33192E-03  1632   0.840E-02    0.548E-02
DAV:   6    -0.120928772855E+03   -0.32834E-04   -0.54704E-05  1008   0.126E-02
 191 F= -.12092877E+03 E0= -.12092877E+03  d E =-.451256E-01  mag=     1.0000
 curvature: -36.37 expect dE=-0.153E+00 dE for cont linesearch -0.165E-02
 ZBRENT: interpolating
 opt :  17.3057  next Energy=  -120.930059 (dE=-0.464E-01)
 bond charge predicted
       N       E                     dE             d eps       ncg     rms          rms(c)
DAV:   1    -0.120926448078E+03    0.22919E-02   -0.97713E+00  1568   0.424E+00    0.993E-02
DAV:   2    -0.120930879253E+03   -0.44312E-02   -0.43540E-02  1632   0.398E-01    0.103E-01
DAV:   3    -0.120930847345E+03    0.31909E-04   -0.66848E-04  1728   0.479E-02
 192 F= -.12093085E+03 E0= -.12093085E+03  d E =-.472001E-01  mag=     1.0000
 curvature: -28.35 expect dE=-0.948E-01 dE for cont linesearch -0.851E-04
 trial: gam= 0.34725 g(F)=  0.334E-02 g(S)=  0.000E+00 ort =-0.239E-03 (trialstep = 0.949E+01)
 search vector abs. value=  0.548E-02
 bond charge predicted
       N       E                     dE             d eps       ncg     rms          rms(c)
DAV:   1    -0.120941674759E+03   -0.10796E-01   -0.33012E+01  1568   0.788E+00    0.227E-01
DAV:   2    -0.120956669721E+03   -0.14995E-01   -0.14951E-01  1616   0.744E-01    0.198E-01
DAV:   3    -0.120956493025E+03    0.17670E-03   -0.23588E-03  1656   0.925E-02    0.143E-01
DAV:   4    -0.120956092906E+03    0.40012E-03   -0.77740E-04  1648   0.414E-02    0.687E-02
DAV:   5    -0.120956104099E+03   -0.11194E-04   -0.40462E-04  1600   0.301E-02
 193 F= -.12095610E+03 E0= -.12095610E+03  d E =-.252568E-01  mag=     1.0000
 trial-energy change:   -0.025257  1 .order   -0.025388   -0.030944   -0.019832
 step:  26.4215(harm= 26.4215)  dis= 0.05788  next Energy=  -120.973934 (dE=-0.431E-01)
 bond charge predicted
       N       E                     dE             d eps       ncg     rms          rms(c)
DAV:   1    -0.120925782389E+03    0.30311E-01   -0.10540E+02  1568   0.141E+01    0.407E-01
DAV:   2    -0.120973166033E+03   -0.47384E-01   -0.47598E-01  1616   0.133E+00    0.368E-01
DAV:   3    -0.120972429105E+03    0.73693E-03   -0.74773E-03  1664   0.163E-01    0.268E-01
DAV:   4    -0.120970911260E+03    0.15178E-02   -0.28548E-03  1616   0.788E-02    0.129E-01
DAV:   5    -0.120970868310E+03    0.42950E-04   -0.14303E-03  1632   0.564E-02    0.475E-02
DAV:   6    -0.120970846166E+03    0.22144E-04   -0.75844E-05   992   0.128E-02
 194 F= -.12097085E+03 E0= -.12097085E+03  d E =-.399988E-01  mag=     1.0000
 curvature: -22.21 expect dE=-0.483E-01 dE for cont linesearch -0.312E-03
 trial: gam= 0.70418 g(F)=  0.218E-02 g(S)=  0.000E+00 ort =-0.278E-03 (trialstep = 0.129E+02)
 search vector abs. value=  0.450E-02
 bond charge predicted
       N       E                     dE             d eps       ncg     rms          rms(c)
DAV:   1    -0.120968323705E+03    0.25446E-02   -0.49869E+01  1568   0.969E+00    0.231E-01
DAV:   2    -0.120990746409E+03   -0.22423E-01   -0.22289E-01  1616   0.907E-01    0.235E-01
DAV:   3    -0.120990466465E+03    0.27994E-03   -0.33464E-03  1680   0.107E-01    0.185E-01
DAV:   4    -0.120989700091E+03    0.76637E-03   -0.10150E-03  1624   0.470E-02    0.105E-01
DAV:   5    -0.120989589506E+03    0.11058E-03   -0.12485E-03  1656   0.510E-02    0.387E-02
DAV:   6    -0.120989595709E+03   -0.62028E-05   -0.21473E-05   984   0.746E-03
 195 F= -.12098960E+03 E0= -.12098960E+03  d E =-.187495E-01  mag=     1.0000
 trial-energy change:   -0.018750  1 .order   -0.019053   -0.025499   -0.012608
 step:  25.4660(harm= 25.4660)  dis= 0.05168  next Energy=  -120.996065 (dE=-0.252E-01)
 bond charge predicted
       N       E                     dE             d eps       ncg     rms          rms(c)
DAV:   1    -0.120974785286E+03    0.14804E-01   -0.47692E+01  1568   0.947E+00    0.226E-01
DAV:   2    -0.120996222395E+03   -0.21437E-01   -0.21337E-01  1624   0.887E-01    0.228E-01
DAV:   3    -0.120995949724E+03    0.27267E-03   -0.32032E-03  1680   0.105E-01    0.179E-01
DAV:   4    -0.120995224096E+03    0.72563E-03   -0.94937E-04  1656   0.455E-02    0.102E-01
DAV:   5    -0.120995112027E+03    0.11207E-03   -0.11785E-03  1648   0.495E-02    0.373E-02
DAV:   6    -0.120995115593E+03   -0.35660E-05   -0.20230E-05   968   0.724E-03
 196 F= -.12099512E+03 E0= -.12099512E+03  d E =-.242694E-01  mag=     1.0000
 curvature: -28.95 expect dE=-0.468E-01 dE for cont linesearch -0.988E-06
 trial: gam= 0.57900 g(F)=  0.162E-02 g(S)=  0.000E+00 ort =-0.124E-04 (trialstep = 0.154E+02)
 search vector abs. value=  0.311E-02
 bond charge predicted
       N       E                     dE             d eps       ncg     rms          rms(c)
DAV:   1    -0.120989645980E+03    0.54660E-02   -0.49333E+01  1568   0.964E+00    0.274E-01
DAV:   2    -0.121011642076E+03   -0.21996E-01   -0.22165E-01  1640   0.906E-01    0.257E-01
DAV:   3    -0.121011279633E+03    0.36244E-03   -0.33043E-03  1664   0.108E-01    0.190E-01
DAV:   4    -0.121010517694E+03    0.76194E-03   -0.14352E-03  1624   0.562E-02    0.917E-02
DAV:   5    -0.121010499630E+03    0.18064E-04   -0.68439E-04  1664   0.397E-02
 197 F= -.12101050E+03 E0= -.12101050E+03  d E =-.153840E-01  mag=     1.0000
 trial-energy change:   -0.015384  1 .order   -0.015944   -0.024784   -0.007104
 step:  24.2177(harm= 21.5780)  dis= 0.03179  next Energy=  -121.012430 (dE=-0.173E-01)
 bond charge predicted
       N       E                     dE             d eps       ncg     rms          rms(c)
DAV:   1    -0.121004076996E+03    0.64407E-02   -0.16192E+01  1568   0.552E+00    0.161E-01
DAV:   2    -0.121011343806E+03   -0.72668E-02   -0.73413E-02  1632   0.520E-01    0.146E-01
DAV:   3    -0.121011241992E+03    0.10181E-03   -0.10994E-03  1648   0.623E-02    0.105E-01
DAV:   4    -0.121011035135E+03    0.20686E-03   -0.43319E-04  1624   0.313E-02    0.505E-02
DAV:   5    -0.121011042210E+03   -0.70752E-05   -0.17972E-04   984   0.217E-02
 198 F= -.12101104E+03 E0= -.12101104E+03  d E =-.159266E-01  mag=     1.0000
 curvature: -17.06 expect dE=-0.194E-01 dE for cont linesearch -0.246E-03
 trial: gam= 0.85003 g(F)=  0.114E-02 g(S)=  0.000E+00 ort =-0.212E-03 (trialstep = 0.172E+02)
 search vector abs. value=  0.303E-02
 bond charge predicted
       N       E                     dE             d eps       ncg     rms          rms(c)
DAV:   1    -0.120994952975E+03    0.16082E-01   -0.59488E+01  1568   0.106E+01    0.254E-01
DAV:   2    -0.121021598427E+03   -0.26645E-01   -0.26607E-01  1632   0.998E-01    0.264E-01
DAV:   3    -0.121021235409E+03    0.36302E-03   -0.39161E-03  1664   0.119E-01    0.204E-01
DAV:   4    -0.121020317444E+03    0.91797E-03   -0.10973E-03  1640   0.492E-02    0.123E-01
DAV:   5    -0.121020116736E+03    0.20071E-03   -0.16457E-03  1648   0.585E-02    0.441E-02
DAV:   6    -0.121020120699E+03   -0.39629E-05   -0.26654E-05   976   0.830E-03
 199 F= -.12102012E+03 E0= -.12102012E+03  d E =-.907849E-02  mag=     1.0000
 trial-energy change:   -0.009078  1 .order   -0.009926   -0.016442   -0.003410
 step:  21.6467(harm= 21.6467)  dis= 0.02925  next Energy=  -121.021414 (dE=-0.104E-01)
 bond charge predicted
       N       E                     dE             d eps       ncg     rms          rms(c)
DAV:   1    -0.121018667579E+03    0.14492E-02   -0.40622E+00  1568   0.277E+00    0.670E-02
DAV:   2    -0.121020504740E+03   -0.18372E-02   -0.18238E-02  1656   0.261E-01    0.685E-02
DAV:   3    -0.121020483772E+03    0.20967E-04   -0.23980E-04  1024   0.310E-02
 200 F= -.12102048E+03 E0= -.12102048E+03  d E =-.944156E-02  mag=     1.0000
 curvature: -34.19 expect dE=-0.287E-01 dE for cont linesearch -0.628E-03
 trial: gam= 0.46489 g(F)=  0.840E-03 g(S)=  0.000E+00 ort =-0.236E-03 (trialstep = 0.181E+02)
 search vector abs. value=  0.127E-02
 bond charge predicted
       N       E                     dE             d eps       ncg     rms          rms(c)
DAV:   1    -0.121018370330E+03    0.21344E-02   -0.27824E+01  1568   0.725E+00    0.214E-01
DAV:   2    -0.121030515688E+03   -0.12145E-01   -0.12252E-01  1632   0.672E-01    0.190E-01
DAV:   3    -0.121030231228E+03    0.28446E-03   -0.17726E-03  1656   0.782E-02    0.142E-01
DAV:   4    -0.121029780455E+03    0.45077E-03   -0.11632E-03  1632   0.494E-02    0.499E-02
DAV:   5    -0.121029800334E+03   -0.19879E-04   -0.19752E-04   992   0.236E-02
 201 F= -.12102980E+03 E0= -.12102980E+03  d E =-.931656E-02  mag=     1.0000
 trial-energy change:   -0.009317  1 .order   -0.009102   -0.013183   -0.005020
 step:  29.1610(harm= 29.1610)  dis= 0.02465  next Energy=  -121.031130 (dE=-0.106E-01)
 bond charge predicted
       N       E                     dE             d eps       ncg     rms          rms(c)
DAV:   1    -0.121025988994E+03    0.37915E-02   -0.10498E+01  1568   0.445E+00    0.134E-01
DAV:   2    -0.121030643994E+03   -0.46550E-02   -0.46801E-02  1632   0.414E-01    0.111E-01
DAV:   3    -0.121030559095E+03    0.84899E-04   -0.67714E-04  1632   0.485E-02
 202 F= -.12103056E+03 E0= -.12103056E+03  d E =-.100753E-01  mag=     1.0000
 curvature: -25.46 expect dE=-0.190E-01 dE for cont linesearch -0.246E-03
 trial: gam= 1.04589 g(F)=  0.746E-03 g(S)=  0.000E+00 ort =-0.111E-03 (trialstep = 0.135E+02)
 search vector abs. value=  0.191E-02
 bond charge predicted
       N       E                     dE             d eps       ncg     rms          rms(c)
DAV:   1    -0.121027339161E+03    0.33048E-02   -0.23369E+01  1568   0.664E+00    0.158E-01
DAV:   2    -0.121037647424E+03   -0.10308E-01   -0.10275E-01  1616   0.617E-01    0.162E-01
DAV:   3    -0.121037465304E+03    0.18212E-03   -0.14610E-03  1680   0.715E-02    0.130E-01
DAV:   4    -0.121037051009E+03    0.41430E-03   -0.59171E-04  1648   0.350E-02    0.676E-02
DAV:   5    -0.121037006821E+03    0.44187E-04   -0.60761E-04  1632   0.358E-02
 203 F= -.12103701E+03 E0= -.12103701E+03  d E =-.644773E-02  mag=     1.0000
 trial-energy change:   -0.006448  1 .order   -0.006993   -0.008537   -0.005449
 step:  37.4386(harm= 37.4386)  dis= 0.05015  next Energy=  -121.042360 (dE=-0.118E-01)
 bond charge predicted
       N       E                     dE             d eps       ncg     rms          rms(c)
DAV:   1    -0.121009055220E+03    0.27996E-01   -0.72765E+01  1568   0.117E+01    0.282E-01
DAV:   2    -0.121041694645E+03   -0.32639E-01   -0.32480E-01  1608   0.110E+00    0.272E-01
DAV:   3    -0.121041180063E+03    0.51458E-03   -0.48729E-03  1656   0.132E-01    0.212E-01
DAV:   4    -0.121040071043E+03    0.11090E-02   -0.14202E-03  1648   0.549E-02    0.116E-01
DAV:   5    -0.121039869251E+03    0.20179E-03   -0.17272E-03  1632   0.601E-02    0.391E-02
DAV:   6    -0.121039879542E+03   -0.10290E-04   -0.28623E-05   976   0.898E-03
 204 F= -.12103988E+03 E0= -.12103988E+03  d E =-.932045E-02  mag=     1.0000
 curvature: -56.68 expect dE=-0.654E-01 dE for cont linesearch -0.164E-03
 trial: gam= 1.28883 g(F)=  0.115E-02 g(S)=  0.000E+00 ort =-0.743E-04 (trialstep = 0.846E+01)
 search vector abs. value=  0.413E-02
 bond charge predicted
       N       E                     dE             d eps       ncg     rms          rms(c)
DAV:   1    -0.121038212372E+03    0.16569E-02   -0.19740E+01  1568   0.609E+00    0.146E-01
DAV:   2    -0.121047062526E+03   -0.88502E-02   -0.88344E-02  1616   0.574E-01    0.153E-01
DAV:   3    -0.121046945411E+03    0.11712E-03   -0.13426E-03  1704   0.693E-02    0.119E-01
DAV:   4    -0.121046630698E+03    0.31471E-03   -0.38994E-04  1544   0.292E-02    0.701E-02
DAV:   5    -0.121046578228E+03    0.52471E-04   -0.57554E-04  1648   0.351E-02
 205 F= -.12104658E+03 E0= -.12104658E+03  d E =-.669869E-02  mag=     1.0000
 trial-energy change:   -0.006699  1 .order   -0.007177   -0.008951   -0.005403
 step:  21.3445(harm= 21.3445)  dis= 0.03535  next Energy=  -121.051169 (dE=-0.113E-01)
 bond charge predicted
       N       E                     dE             d eps       ncg     rms          rms(c)
DAV:   1    -0.121029995244E+03    0.16635E-01   -0.45797E+01  1568   0.928E+00    0.228E-01
DAV:   2    -0.121050593388E+03   -0.20598E-01   -0.20595E-01  1616   0.876E-01    0.232E-01
DAV:   3    -0.121050331354E+03    0.26203E-03   -0.31525E-03  1664   0.107E-01    0.178E-01
DAV:   4    -0.121049627616E+03    0.70374E-03   -0.90622E-04  1632   0.446E-02    0.104E-01
DAV:   5    -0.121049502728E+03    0.12489E-03   -0.11756E-03  1640   0.500E-02    0.376E-02
DAV:   6    -0.121049504726E+03   -0.19981E-05   -0.22673E-05   960   0.762E-03
 206 F= -.12104950E+03 E0= -.12104950E+03  d E =-.962518E-02  mag=     1.0000
 curvature: -41.70 expect dE=-0.256E-01 dE for cont linesearch -0.504E-04
 trial: gam= 0.48465 g(F)=  0.615E-03 g(S)=  0.000E+00 ort =-0.707E-04 (trialstep = 0.110E+02)
 search vector abs. value=  0.152E-02
 bond charge predicted
       N       E                     dE             d eps       ncg     rms          rms(c)
DAV:   1    -0.121049342383E+03    0.16035E-03   -0.12321E+01  1568   0.481E+00    0.122E-01
DAV:   2    -0.121054828727E+03   -0.54863E-02   -0.54646E-02  1640   0.450E-01    0.121E-01
DAV:   3    -0.121054739936E+03    0.88792E-04   -0.78309E-04  1640   0.529E-02
 207 F= -.12105474E+03 E0= -.12105474E+03  d E =-.523521E-02  mag=     1.0000
 trial-energy change:   -0.005235  1 .order   -0.005272   -0.006409   -0.004135
 step:  31.1084(harm= 31.1084)  dis= 0.03353  next Energy=  -121.058536 (dE=-0.903E-02)
 bond charge predicted
       N       E                     dE             d eps       ncg     rms          rms(c)
DAV:   1    -0.121040710429E+03    0.14118E-01   -0.40828E+01  1568   0.877E+00    0.245E-01
Application 91174587 exit codes: 1
Application 91174587 resources: utime ~28306s, stime ~131s, Rss ~78832, inblocks ~379277, outblocks ~540306
