 vasp.5.3.5 31Mar14 (build Feb 01 2018 12:10:03) gamma-only                     
  
 executed on             LinuxIFC date 2019.04.02  05:11:54
 running on   32 total cores
 distrk:  each k-point on   32 cores,    1 groups
 distr:  one band on NCORES_PER_BAND=   8 cores,    4 groups


--------------------------------------------------------------------------------------------------------


 INCAR:
 POTCAR:    PAW_PBE Cu 22Jun2005                  
 POTCAR:    PAW_PBE Cu 22Jun2005                  
   VRHFIN =Cu: d10 p1                                                           
   LEXCH  = PE                                                                  
   EATOM  =  1390.9808 eV,  102.2342 Ry                                         
                                                                                
   TITEL  = PAW_PBE Cu 22Jun2005                                                
   LULTRA =        F    use ultrasoft PP ?                                      
   IUNSCR =        1    unscreen: 0-lin 1-nonlin 2-no                           
   RPACOR =    2.000    partial core radius                                     
   POMASS =   63.546; ZVAL   =   11.000    mass and valenz                      
   RCORE  =    2.300    outmost cutoff radius                                   
   RWIGS  =    2.200; RWIGS  =    1.164    wigner-seitz radius (au A)           
   ENMAX  =  295.446; ENMIN  =  221.585 eV                                      
   ICORE  =        3    local potential                                         
   LCOR   =        T    correct aug charges                                     
   LPAW   =        T    paw PP                                                  
   EAUG   =  586.980                                                            
   DEXC   =    0.000                                                            
   RMAX   =    2.344    core radius for proj-oper                               
   RAUG   =    1.300    factor for augmentation sphere                          
   RDEP   =    2.302    radius for radial grids                                 
   RDEPT  =    1.771    core radius for aug-charge                              
                                                                                
   Atomic configuration                                                         
    9 entries                                                                   
     n  l   j            E        occ.                                          
     1  0  0.50     -8850.2468   2.0000                                         
     2  0  0.50     -1062.3498   2.0000                                         
     2  1  1.50      -916.8226   6.0000                                         
     3  0  0.50      -114.6929   2.0000                                         
     3  1  1.50       -72.1325   6.0000                                         
     3  2  2.50        -5.0394  10.0000                                         
     4  0  0.50        -4.6097   1.0000                                         
     4  1  0.50        -4.0817   0.0000                                         
     4  3  2.50        -1.3606   0.0000                                         
   Description                                                                  
     l       E           TYP  RCUT    TYP  RCUT                                 
     2     -5.0393973     23  2.200                                             
     2     10.8846608     23  2.200                                             
     0     -4.6097109     23  2.200                                             
     0      8.2520465     23  2.200                                             
     1     -2.7211652     23  2.200                                             
     1     21.7055443     23  2.200                                             
     3      2.7211652     23  2.300                                             
  local pseudopotential read in
  partial core-charges read in
  partial kinetic energy density read in
  atomic valenz-charges read in
  non local Contribution for L=           2  read in
    real space projection operators read in
  non local Contribution for L=           2  read in
    real space projection operators read in
  non local Contribution for L=           0  read in
    real space projection operators read in
  non local Contribution for L=           0  read in
    real space projection operators read in
  non local Contribution for L=           1  read in
    real space projection operators read in
  non local Contribution for L=           1  read in
    real space projection operators read in
    PAW grid and wavefunctions read in
 
   number of l-projection  operators is LMAX  =           6
   number of lm-projection operators is LMMAX =          18
 
  PAW_PBE Cu 22Jun2005                  :
 energy of atom  1       EATOM=-1390.9808
 kinetic energy error for atom=    0.0452 (will be added to EATOM!!)
 
 
 POSCAR: Be11, -23.0757344 <s> Cu </s>           
  positions in direct lattice
  No initial velocities read in
 exchange correlation table for  LEXCH =        8
   RHO(1)=    0.500       N(1)  =     2000
   RHO(2)=  100.500       N(2)  =     4000
 


--------------------------------------------------------------------------------------------------------


 ion  position               nearest neighbor table
   1  0.539  0.672  0.593-   3 2.28   5 2.28   8 2.41   2 2.46   9 2.47
   2  0.625  0.559  0.589-   6 2.32   4 2.38   7 2.42   8 2.42   1 2.46   3 2.55   9 2.57
   3  0.659  0.696  0.543-   5 2.20   1 2.28   4 2.35   2 2.55
   4  0.636  0.594  0.456-   3 2.35   5 2.36   2 2.38   9 2.38   6 2.38
   5  0.558  0.705  0.466-   3 2.20   1 2.28   4 2.36   9 2.54
   6  0.594  0.468  0.495-  10 2.31   7 2.32   9 2.32   2 2.32   4 2.38
   7  0.577  0.432  0.623-  11 2.29   6 2.32  10 2.35   2 2.42   8 2.48
   8  0.493  0.548  0.637-  11 2.30   1 2.41   2 2.42   9 2.43   7 2.48  10 2.49
   9  0.507  0.571  0.498-   6 2.32   4 2.38  10 2.40   8 2.43   1 2.47   5 2.54   2 2.57
  10  0.470  0.443  0.540-  11 2.29   6 2.31   7 2.35   9 2.40   8 2.49
  11  0.453  0.425  0.670-   7 2.29  10 2.29   8 2.30
 
  LATTYP: Found a simple cubic cell.
 ALAT       =    17.2576732312
  
  Lattice vectors:
  
 A1 = (  17.2576732312,   0.0000000000,   0.0000000000)
 A2 = (   0.0000000000,  17.2576732312,   0.0000000000)
 A3 = (   0.0000000000,   0.0000000000,  17.2576732312)


Analysis of symmetry for initial positions (statically):
=====================================================================
 Subroutine PRICEL returns:
 Original cell was already a primitive cell.
 

 Routine SETGRP: Setting up the symmetry group for a 
 simple cubic supercell.


 Subroutine GETGRP returns: Found  1 space group operations
 (whereof  1 operations were pure point group operations)
 out of a pool of 48 trial point group operations.


The static configuration has the point symmetry C_1 .


Analysis of symmetry for dynamics (positions and initial velocities):
=====================================================================
 Subroutine PRICEL returns:
 Original cell was already a primitive cell.
 

 Routine SETGRP: Setting up the symmetry group for a 
 simple cubic supercell.


 Subroutine GETGRP returns: Found  1 space group operations
 (whereof  1 operations were pure point group operations)
 out of a pool of 48 trial point group operations.


The dynamic configuration has the point symmetry C_1 .


Analysis of magnetic symmetry:
=====================================================================
 Subroutine PRICEL returns:
 Original cell was already a primitive cell.
 

 Subroutine MAGSYM returns: Found  1 space group operations
 (whereof  1 operations were pure point group operations)
 out of a pool of  1 trial space group operations
 (whereof  1 operations were pure point group operations)
 and found also     1 'primitive' translations


The magnetic configuration has the point symmetry C_1 .
 
 
 KPOINTS: Gamma-point only                        
  k-points in reciprocal lattice
Space group operators:
 irot       det(A)        alpha          n_x          n_y          n_z        tau_x        tau_y        tau_z
    1     1.000000     0.000000     1.000000     0.000000     0.000000     0.000000     0.000000     0.000000


--------------------------------------------------------------------------------------------------------




 Dimension of arrays:
   k-points           NKPTS =      1   k-points in BZ     NKDIM =      1   number of bands    NBANDS=     80
   number of dos      NEDOS =    301   number of ions     NIONS =     11
   non local maximal  LDIM  =      6   non local SUM 2l+1 LMDIM =     18
   total plane-waves  NPLWV = 512000
   max r-space proj   IRMAX =      1   max aug-charges    IRDMAX=   3085
   dimension x,y,z NGX =    80 NGY =   80 NGZ =   80
   dimension x,y,z NGXF=   160 NGYF=  160 NGZF=  160
   support grid    NGXF=   160 NGYF=  160 NGZF=  160
   ions per type =              11
 NGX,Y,Z   is equivalent  to a cutoff of   7.71,  7.71,  7.71 a.u.
 NGXF,Y,Z  is equivalent  to a cutoff of  15.41, 15.41, 15.41 a.u.


 I would recommend the setting:
   dimension x,y,z NGX =    73 NGY =   73 NGZ =   73
 SYSTEM =  unknown system                          
 POSCAR =  Be11, -23.0757344 <s> Cu </s>           

 Startparameter for this run:
   NWRITE =      2    write-flag & timer
   PREC   = normal    normal or accurate (medium, high low for compatibility)
   ISTART =      0    job   : 0-new  1-cont  2-samecut
   ICHARG =      2    charge: 1-file 2-atom 10-const
   ISPIN  =      2    spin polarized calculation?
   LNONCOLLINEAR =      F non collinear calculations
   LSORBIT =      F    spin-orbit coupling
   INIWAV =      1    electr: 0-lowe 1-rand  2-diag
   LASPH  =      F    aspherical Exc in radial PAW
   METAGGA=      F    non-selfconsistent MetaGGA calc.

 Electronic Relaxation 1
   ENCUT  =  295.4 eV  21.71 Ry    4.66 a.u.  24.19 24.19 24.19*2*pi/ulx,y,z
   ENINI  =  295.4     initial cutoff
   ENAUG  =  587.0 eV  augmentation charge cutoff
   NELM   =     60;   NELMIN=  2; NELMDL= -5     # of ELM steps 
   EDIFF  = 0.1E-03   stopping-criterion for ELM
   LREAL  =      F    real-space projection
   NLSPLINE    = F    spline interpolate recip. space projectors
   LCOMPAT=      F    compatible to vasp.4.4
   GGA_COMPAT  = T    GGA compatible to vasp.4.4-vasp.4.6
   LMAXPAW     = -100 max onsite density
   LMAXMIX     =    2 max onsite mixed and CHGCAR
   VOSKOWN=      0    Vosko Wilk Nusair interpolation
   ROPT   =    0.00000
 Ionic relaxation
   EDIFFG = 0.1E-02   stopping-criterion for IOM
   NSW    =   1000    number of steps for IOM
   NBLOCK =      1;   KBLOCK =   1000    inner block; outer block 
   IBRION =      2    ionic relax: 0-MD 1-quasi-New 2-CG
   NFREE  =      1    steps in history (QN), initial steepest desc. (CG)
   ISIF   =      2    stress and relaxation
   IWAVPR =     11    prediction:  0-non 1-charg 2-wave 3-comb
   ISYM   =      2    0-nonsym 1-usesym 2-fastsym
   LCORR  =      T    Harris-Foulkes like correction to forces

   POTIM  = 0.1000    time-step for ionic-motion
   TEIN   =    0.0    initial temperature
   TEBEG  =    0.0;   TEEND  =   0.0 temperature during run
   SMASS  =  -3.00    Nose mass-parameter (am)
   estimated Nose-frequenzy (Omega)   =  0.10E-29 period in steps =****** mass=  -0.681E-26a.u.
   SCALEE = 1.0000    scale energy and forces
   NPACO  =    256;   APACO  = 16.0  distance and # of slots for P.C.
   PSTRESS=    0.0 pullay stress

  Mass of Ions in am
   POMASS =  63.55
  Ionic Valenz
   ZVAL   =  11.00
  Atomic Wigner-Seitz radii
   RWIGS  =  -1.00
  virtual crystal weights 
   VCA    =   1.00
   NELECT =     121.0000    total number of electrons
   NUPDOWN=      -1.0000    fix difference up-down

 DOS related values:
   EMIN   =  10.00;   EMAX   =-10.00  energy-range for DOS
   EFERMI =   0.00
   ISMEAR =     0;   SIGMA  =   0.00  broadening in eV -4-tet -1-fermi 0-gaus

 Electronic relaxation 2 (details)
   IALGO  =     38    algorithm
   LDIAG  =      T    sub-space diagonalisation (order eigenvalues)
   LSUBROT=      F    optimize rotation matrix (better conditioning)
   TURBO    =      0    0=normal 1=particle mesh
   IRESTART =      0    0=no restart 2=restart with 2 vectors
   NREBOOT  =      0    no. of reboots
   NMIN     =      0    reboot dimension
   EREF     =   0.00    reference energy to select bands
   IMIX   =      4    mixing-type and parameters
     AMIX     =   0.40;   BMIX     =  1.00
     AMIX_MAG =   1.60;   BMIX_MAG =  1.00
     AMIN     =   0.10
     WC   =   100.;   INIMIX=   1;  MIXPRE=   1;  MAXMIX= -45

 Intra band minimization:
   WEIMIN = 0.0010     energy-eigenvalue tresh-hold
   EBREAK =  0.31E-06  absolut break condition
   DEPER  =   0.30     relativ break condition  

   TIME   =   0.40     timestep for ELM

  volume/ion in A,a.u.               =     467.26      3153.19
  Fermi-wavevector in a.u.,A,eV,Ry     =   0.469196  0.886652  2.995254  0.220145
  Thomas-Fermi vector in A             =   1.460599
 
 Write flags
   LWAVE  =      F    write WAVECAR
   LCHARG =      F    write CHGCAR
   LVTOT  =      F    write LOCPOT, total local potential
   LVHAR  =      F    write LOCPOT, Hartree potential only
   LELF   =      F    write electronic localiz. function (ELF)
   LORBIT =      0    0 simple, 1 ext, 2 COOP (PROOUT)


 Dipole corrections
   LMONO  =      F    monopole corrections only (constant potential shift)
   LDIPOL =      F    correct potential (dipole corrections)
   IDIPOL =      0    1-x, 2-y, 3-z, 4-all directions 
   EPSILON=  1.0000000 bulk dielectric constant

 Exchange correlation treatment:
   GGA     =    PE    GGA type
   LEXCH   =     8    internal setting for exchange type
   VOSKOWN=      0    Vosko Wilk Nusair interpolation
   LHFCALC =     F    Hartree Fock is set to
   LHFONE  =     F    Hartree Fock one center treatment
   AEXX    =    0.0000 exact exchange contribution

 Linear response parameters
   LEPSILON=     F    determine dielectric tensor
   LRPA    =     F    only Hartree local field effects (RPA)
   LNABLA  =     F    use nabla operator in PAW spheres
   LVEL    =     F    velocity operator in full k-point grid
   LINTERFAST=   F  fast interpolation
   KINTER  =     0    interpolate to denser k-point grid
   CSHIFT  =0.1000    complex shift for real part using Kramers Kronig
   OMEGAMAX=  -1.0    maximum frequency
   DEG_THRESHOLD= 0.2000000E-02 threshold for treating states as degnerate
   RTIME   =    0.100 relaxation time in fs

 Orbital magnetization related:
   ORBITALMAG=     F  switch on orbital magnetization
   LCHIMAG   =     F  perturbation theory with respect to B field
   DQ        =  0.001000  dq finite difference perturbation B field



--------------------------------------------------------------------------------------------------------


 conjugate gradient relaxation of ions
 charge density and potential will be updated during run
 spin polarized calculation
 Variant of blocked Davidson
 Davidson routine will perform the subspace rotation
 perform sub-space diagonalisation
    after iterative eigenvector-optimisation
 modified Broyden-mixing scheme, WC =      100.0
 initial mixing is a Kerker type mixing with AMIX =  0.4000 and BMIX =      1.0000
 Hartree-type preconditioning will be used
 using additional bands           19
 reciprocal scheme for non local part
 use partial core corrections
 calculate Harris-corrections to forces 
   (improved forces if not selfconsistent)
 use gradient corrections 
 use of overlap-Matrix (Vanderbilt PP)
 Gauss-broadening in eV      SIGMA  =   0.00


--------------------------------------------------------------------------------------------------------


  energy-cutoff  :      295.45
  volume of cell :     5139.81
      direct lattice vectors                 reciprocal lattice vectors
    17.257673231  0.000000000  0.000000000     0.057945239  0.000000000  0.000000000
     0.000000000 17.257673231  0.000000000     0.000000000  0.057945239  0.000000000
     0.000000000  0.000000000 17.257673231     0.000000000  0.000000000  0.057945239

  length of vectors
    17.257673231 17.257673231 17.257673231     0.057945239  0.057945239  0.057945239


 
 k-points in units of 2pi/SCALE and weight: Gamma-point only                        
   0.00000000  0.00000000  0.00000000       1.000
 
 k-points in reciprocal lattice and weights: Gamma-point only                        
   0.00000000  0.00000000  0.00000000       1.000
 
 position of ions in fractional coordinates (direct lattice) 
   0.53878174  0.67245112  0.59338184
   0.62483041  0.55921585  0.58896493
   0.65904371  0.69569505  0.54324994
   0.63625525  0.59364110  0.45613965
   0.55755346  0.70477483  0.46636454
   0.59410072  0.46797488  0.49503515
   0.57735835  0.43198203  0.62342020
   0.49315762  0.54768882  0.63663109
   0.50718659  0.57052863  0.49831502
   0.47016470  0.44295948  0.53982397
   0.45334198  0.42486273  0.67044819
 
 position of ions in cartesian coordinates  (Angst):
   9.29811920 11.60494173 10.24038992
  10.78311908  9.65076448 10.16416428
  11.37356108 12.00607789  9.37522987
  10.98028521 10.24486408  7.87190904
   9.62207538 12.16277369  8.04836680
  10.25279603  8.07615752  8.54315484
   9.96386179  7.45500469 10.75878212
   8.51075298  9.45183475 10.98677136
   8.75286036  9.84599670  8.59975784
   8.11394868  7.64444988  9.31610561
   7.82362774  7.33214212 11.57037586
 


--------------------------------------------------------------------------------------------------------


 use parallel FFT for wavefunctions z direction half grid
 k-point  1 :   0.0000 0.0000 0.0000  plane waves:   29543

 maximum and minimum number of plane-waves per node :      3701     3687

 maximum number of plane-waves:     29543
 maximum index in each direction: 
   IXMAX=   24   IYMAX=   24   IZMAX=   24
   IXMIN=  -24   IYMIN=  -24   IZMIN=    0

 WARNING: aliasing errors must be expected set NGX to  98 to avoid them
 WARNING: aliasing errors must be expected set NGY to  98 to avoid them
 WARNING: aliasing errors must be expected set NGZ to  98 to avoid them
 aliasing errors are usually negligible using standard VASP settings
 and one can safely disregard these warnings

 parallel 3D FFT for wavefunctions:
    minimum data exchange during FFTs selected (reduces bandwidth)
 parallel 3D FFT for charge:
    minimum data exchange during FFTs selected (reduces bandwidth)


 total amount of memory used by VASP on root node    53794. kBytes
========================================================================

   base      :      30000. kBytes
   nonl-proj :       1180. kBytes
   fftplans  :       5761. kBytes
   grid      :      14451. kBytes
   one-center:         31. kBytes
   wavefun   :       2371. kBytes
 
     INWAV:  cpu time    0.00: real time    0.00
 Broyden mixing: mesh for mixing (old mesh)
   NGX = 49   NGY = 49   NGZ = 49
  (NGX  =160   NGY  =160   NGZ  =160)
  gives a total of 117649 points

 initial charge density was supplied:
 charge density of overlapping atoms calculated
 number of electron     121.0000000 magnetization      11.0000000
 keeping initial charge density in first step


--------------------------------------------------------------------------------------------------------


 Maximum index for augmentation-charges          234 (set IRDMAX)


--------------------------------------------------------------------------------------------------------


 First call to EWALD:  gamma=   0.103
 Maximum number of real-space cells 3x 3x 3
 Maximum number of reciprocal cells 3x 3x 3

 FEWALD executed in parallel
    FEWALD:  cpu time    0.00: real time    0.00


----------------------------------------- Iteration    1(   1)  ---------------------------------------


    POTLOK:  cpu time    0.23: real time    0.23
    SETDIJ:  cpu time    0.01: real time    0.01
     EDDAV:  cpu time    0.68: real time    0.69
       DOS:  cpu time    0.00: real time    0.00
    --------------------------------------------
      LOOP:  cpu time    0.93: real time    9.25

 eigenvalue-minimisations  :   320
 total energy-change (2. order) : 0.7843191E+03  (-0.2367965E+04)
 number of electron     121.0000000 magnetization      11.0000000
 augmentation part      121.0000000 magnetization      11.0000000

 Free energy of the ion-electron system (eV)
  ---------------------------------------------------
  alpha Z        PSCENC =        17.21673795
  Ewald energy   TEWEN  =     14813.03585568
  -Hartree energ DENC   =    -28754.18014931
  -exchange      EXHF   =         0.00000000
  -V(xc)+E(xc)   XCENC  =       495.60206191
  PAW double counting   =     13509.07245654   -14673.13024677
  entropy T*S    EENTRO =         0.00000000
  eigenvalues    EBANDS =        76.41098027
  atomic energy  EATOM  =     15300.29143124
  ---------------------------------------------------
  free energy    TOTEN  =       784.31912750 eV

  energy without entropy =      784.31912750  energy(sigma->0) =      784.31912750


--------------------------------------------------------------------------------------------------------




----------------------------------------- Iteration    1(   2)  ---------------------------------------


     EDDAV:  cpu time    0.69: real time    0.69
       DOS:  cpu time    0.00: real time    0.00
    --------------------------------------------
      LOOP:  cpu time    0.69: real time    0.69

 eigenvalue-minimisations  :   320
 total energy-change (2. order) :-0.7027975E+03  (-0.6518352E+03)
 number of electron     121.0000000 magnetization      11.0000000
 augmentation part      121.0000000 magnetization      11.0000000

 Free energy of the ion-electron system (eV)
  ---------------------------------------------------
  alpha Z        PSCENC =        17.21673795
  Ewald energy   TEWEN  =     14813.03585568
  -Hartree energ DENC   =    -28754.18014931
  -exchange      EXHF   =         0.00000000
  -V(xc)+E(xc)   XCENC  =       495.60206191
  PAW double counting   =     13509.07245654   -14673.13024677
  entropy T*S    EENTRO =         0.00000000
  eigenvalues    EBANDS =      -626.38655601
  atomic energy  EATOM  =     15300.29143124
  ---------------------------------------------------
  free energy    TOTEN  =        81.52159123 eV

  energy without entropy =       81.52159123  energy(sigma->0) =       81.52159123


--------------------------------------------------------------------------------------------------------




----------------------------------------- Iteration    1(   3)  ---------------------------------------


     EDDAV:  cpu time    0.76: real time    0.76
       DOS:  cpu time    0.00: real time    0.00
    --------------------------------------------
      LOOP:  cpu time    0.76: real time    0.77

 eigenvalue-minimisations  :   368
 total energy-change (2. order) :-0.9924576E+02  (-0.9304247E+02)
 number of electron     121.0000000 magnetization      11.0000000
 augmentation part      121.0000000 magnetization      11.0000000

 Free energy of the ion-electron system (eV)
  ---------------------------------------------------
  alpha Z        PSCENC =        17.21673795
  Ewald energy   TEWEN  =     14813.03585568
  -Hartree energ DENC   =    -28754.18014931
  -exchange      EXHF   =         0.00000000
  -V(xc)+E(xc)   XCENC  =       495.60206191
  PAW double counting   =     13509.07245654   -14673.13024677
  entropy T*S    EENTRO =         0.00000000
  eigenvalues    EBANDS =      -725.63231382
  atomic energy  EATOM  =     15300.29143124
  ---------------------------------------------------
  free energy    TOTEN  =       -17.72416659 eV

  energy without entropy =      -17.72416659  energy(sigma->0) =      -17.72416659


--------------------------------------------------------------------------------------------------------




----------------------------------------- Iteration    1(   4)  ---------------------------------------


     EDDAV:  cpu time    0.74: real time    0.74
       DOS:  cpu time    0.00: real time    0.00
    --------------------------------------------
      LOOP:  cpu time    0.75: real time    0.75

 eigenvalue-minimisations  :   360
 total energy-change (2. order) :-0.1192154E+02  (-0.1134423E+02)
 number of electron     121.0000000 magnetization      11.0000000
 augmentation part      121.0000000 magnetization      11.0000000

 Free energy of the ion-electron system (eV)
  ---------------------------------------------------
  alpha Z        PSCENC =        17.21673795
  Ewald energy   TEWEN  =     14813.03585568
  -Hartree energ DENC   =    -28754.18014931
  -exchange      EXHF   =         0.00000000
  -V(xc)+E(xc)   XCENC  =       495.60206191
  PAW double counting   =     13509.07245654   -14673.13024677
  entropy T*S    EENTRO =         0.00000000
  eigenvalues    EBANDS =      -737.55385123
  atomic energy  EATOM  =     15300.29143124
  ---------------------------------------------------
  free energy    TOTEN  =       -29.64570400 eV

  energy without entropy =      -29.64570400  energy(sigma->0) =      -29.64570400


--------------------------------------------------------------------------------------------------------




----------------------------------------- Iteration    1(   5)  ---------------------------------------


     EDDAV:  cpu time    0.76: real time    0.76
       DOS:  cpu time    0.00: real time    0.00
    CHARGE:  cpu time    0.05: real time    0.05
    MIXING:  cpu time    0.00: real time    0.01
    --------------------------------------------
      LOOP:  cpu time    0.81: real time    0.82

 eigenvalue-minimisations  :   368
 total energy-change (2. order) :-0.3394993E+00  (-0.3392125E+00)
 number of electron     120.9999410 magnetization       9.1273525
 augmentation part       74.0352239 magnetization       9.1985650

 Broyden mixing:
  rms(total) = 0.26393E+01    rms(broyden)= 0.26388E+01
  rms(prec ) = 0.27598E+01
  weight for this iteration     100.00

 Free energy of the ion-electron system (eV)
  ---------------------------------------------------
  alpha Z        PSCENC =        17.21673795
  Ewald energy   TEWEN  =     14813.03585568
  -Hartree energ DENC   =    -28754.18014931
  -exchange      EXHF   =         0.00000000
  -V(xc)+E(xc)   XCENC  =       495.60206191
  PAW double counting   =     13509.07245654   -14673.13024677
  entropy T*S    EENTRO =         0.00000000
  eigenvalues    EBANDS =      -737.89335053
  atomic energy  EATOM  =     15300.29143124
  ---------------------------------------------------
  free energy    TOTEN  =       -29.98520330 eV

  energy without entropy =      -29.98520330  energy(sigma->0) =      -29.98520330


--------------------------------------------------------------------------------------------------------




----------------------------------------- Iteration    1(   6)  ---------------------------------------


    POTLOK:  cpu time    0.22: real time    0.22
    SETDIJ:  cpu time    0.01: real time    0.01
     EDDAV:  cpu time    0.70: real time    0.71
       DOS:  cpu time    0.00: real time    0.00
    CHARGE:  cpu time    0.05: real time    0.05
    MIXING:  cpu time    0.00: real time    0.01
    --------------------------------------------
      LOOP:  cpu time    1.00: real time    1.00

 eigenvalue-minimisations  :   336
 total energy-change (2. order) : 0.1818715E+02  (-0.1068162E+02)
 number of electron     120.9999361 magnetization       8.2629165
 augmentation part       79.9950062 magnetization       4.4025429

 Broyden mixing:
  rms(total) = 0.10492E+01    rms(broyden)= 0.10487E+01
  rms(prec ) = 0.11655E+01
  weight for this iteration     100.00

 eigenvalues of (default mixing * dielectric matrix)
  average eigenvalue GAMMA=   0.8190
  0.8190

 Free energy of the ion-electron system (eV)
  ---------------------------------------------------
  alpha Z        PSCENC =        17.21673795
  Ewald energy   TEWEN  =     14813.03585568
  -Hartree energ DENC   =    -28582.08352835
  -exchange      EXHF   =         0.00000000
  -V(xc)+E(xc)   XCENC  =       497.25688421
  PAW double counting   =     13769.19238697   -14898.82841773
  entropy T*S    EENTRO =         0.00000000
  eigenvalues    EBANDS =      -927.87940267
  atomic energy  EATOM  =     15300.29143124
  ---------------------------------------------------
  free energy    TOTEN  =       -11.79805270 eV

  energy without entropy =      -11.79805270  energy(sigma->0) =      -11.79805270


--------------------------------------------------------------------------------------------------------




----------------------------------------- Iteration    1(   7)  ---------------------------------------


    POTLOK:  cpu time    0.22: real time    0.23
    SETDIJ:  cpu time    0.00: real time    0.01
     EDDAV:  cpu time    0.77: real time    0.77
       DOS:  cpu time    0.00: real time    0.00
    CHARGE:  cpu time    0.05: real time    0.05
    MIXING:  cpu time    0.00: real time    0.01
    --------------------------------------------
      LOOP:  cpu time    1.06: real time    1.85

 eigenvalue-minimisations  :   376
 total energy-change (2. order) : 0.1599428E+01  (-0.2515816E+01)
 number of electron     120.9999386 magnetization       7.3186839
 augmentation part       77.5482944 magnetization       3.5878770

 Broyden mixing:
  rms(total) = 0.43249E+00    rms(broyden)= 0.43220E+00
  rms(prec ) = 0.47133E+00
  weight for this iteration     100.00

 eigenvalues of (default mixing * dielectric matrix)
  average eigenvalue GAMMA=   0.8141
  0.6495  0.9787

 Free energy of the ion-electron system (eV)
  ---------------------------------------------------
  alpha Z        PSCENC =        17.21673795
  Ewald energy   TEWEN  =     14813.03585568
  -Hartree energ DENC   =    -28710.19271934
  -exchange      EXHF   =         0.00000000
  -V(xc)+E(xc)   XCENC  =       501.39999821
  PAW double counting   =     14065.00396446   -15238.57034646
  entropy T*S    EENTRO =         0.00000000
  eigenvalues    EBANDS =      -758.38354648
  atomic energy  EATOM  =     15300.29143124
  ---------------------------------------------------
  free energy    TOTEN  =       -10.19862474 eV

  energy without entropy =      -10.19862474  energy(sigma->0) =      -10.19862474


--------------------------------------------------------------------------------------------------------




----------------------------------------- Iteration    1(   8)  ---------------------------------------


    POTLOK:  cpu time    0.22: real time    0.22
    SETDIJ:  cpu time    0.00: real time    0.01
     EDDAV:  cpu time    0.76: real time    0.77
       DOS:  cpu time    0.00: real time    0.00
    CHARGE:  cpu time    0.05: real time    0.05
    MIXING:  cpu time    0.01: real time    0.01
    --------------------------------------------
      LOOP:  cpu time    1.06: real time    1.06

 eigenvalue-minimisations  :   376
 total energy-change (2. order) :-0.5966366E+00  (-0.4184029E+00)
 number of electron     120.9999381 magnetization       6.6772607
 augmentation part       77.2835465 magnetization       2.9851304

 Broyden mixing:
  rms(total) = 0.36526E+00    rms(broyden)= 0.36504E+00
  rms(prec ) = 0.39861E+00
  weight for this iteration     100.00

 eigenvalues of (default mixing * dielectric matrix)
  average eigenvalue GAMMA=   0.7692
  1.0912  0.6082  0.6082

 Free energy of the ion-electron system (eV)
  ---------------------------------------------------
  alpha Z        PSCENC =        17.21673795
  Ewald energy   TEWEN  =     14813.03585568
  -Hartree energ DENC   =    -28728.10598889
  -exchange      EXHF   =         0.00000000
  -V(xc)+E(xc)   XCENC  =       500.62936966
  PAW double counting   =     14251.93927426   -15432.76194094
  entropy T*S    EENTRO =         0.00000000
  eigenvalues    EBANDS =      -733.04000031
  atomic energy  EATOM  =     15300.29143124
  ---------------------------------------------------
  free energy    TOTEN  =       -10.79526136 eV

  energy without entropy =      -10.79526136  energy(sigma->0) =      -10.79526136


--------------------------------------------------------------------------------------------------------




----------------------------------------- Iteration    1(   9)  ---------------------------------------


    POTLOK:  cpu time    0.23: real time    0.22
    SETDIJ:  cpu time    0.00: real time    0.01
     EDDAV:  cpu time    0.85: real time    0.85
       DOS:  cpu time    0.00: real time    0.00
    CHARGE:  cpu time    0.05: real time    0.05
    MIXING:  cpu time    0.01: real time    0.01
    --------------------------------------------
      LOOP:  cpu time    1.14: real time    1.30

 eigenvalue-minimisations  :   432
 total energy-change (2. order) :-0.1338688E+01  (-0.1121550E+00)
 number of electron     120.9999386 magnetization       5.5379178
 augmentation part       77.3160659 magnetization       1.9531665

 Broyden mixing:
  rms(total) = 0.22453E+00    rms(broyden)= 0.22440E+00
  rms(prec ) = 0.23866E+00
  weight for this iteration     100.00

 eigenvalues of (default mixing * dielectric matrix)
  average eigenvalue GAMMA=   0.9465
  0.4390  0.7337  1.3067  1.3067

 Free energy of the ion-electron system (eV)
  ---------------------------------------------------
  alpha Z        PSCENC =        17.21673795
  Ewald energy   TEWEN  =     14813.03585568
  -Hartree energ DENC   =    -28728.56139236
  -exchange      EXHF   =         0.00000000
  -V(xc)+E(xc)   XCENC  =       499.07845498
  PAW double counting   =     14334.80020653   -15516.93618632
  entropy T*S    EENTRO =         0.00000000
  eigenvalues    EBANDS =      -731.05905656
  atomic energy  EATOM  =     15300.29143124
  ---------------------------------------------------
  free energy    TOTEN  =       -12.13394887 eV

  energy without entropy =      -12.13394887  energy(sigma->0) =      -12.13394887


--------------------------------------------------------------------------------------------------------




----------------------------------------- Iteration    1(  10)  ---------------------------------------


    POTLOK:  cpu time    0.22: real time    0.22
    SETDIJ:  cpu time    0.01: real time    0.01
     EDDAV:  cpu time    0.84: real time    0.84
       DOS:  cpu time    0.00: real time    0.00
    CHARGE:  cpu time    0.05: real time    0.05
    MIXING:  cpu time    0.01: real time    0.01
    --------------------------------------------
      LOOP:  cpu time    1.13: real time    1.13

 eigenvalue-minimisations  :   424
 total energy-change (2. order) :-0.4597963E+01  (-0.2571420E+00)
 number of electron     120.9999383 magnetization       5.2997274
 augmentation part       77.6401479 magnetization       3.6036823

 Broyden mixing:
  rms(total) = 0.31052E+00    rms(broyden)= 0.30918E+00
  rms(prec ) = 0.33062E+00
  weight for this iteration     100.00

 eigenvalues of (default mixing * dielectric matrix)
  average eigenvalue GAMMA=   0.8129
  1.3271  1.3271  0.7580  0.4216  0.2307

 Free energy of the ion-electron system (eV)
  ---------------------------------------------------
  alpha Z        PSCENC =        17.21673795
  Ewald energy   TEWEN  =     14813.03585568
  -Hartree energ DENC   =    -28722.25210287
  -exchange      EXHF   =         0.00000000
  -V(xc)+E(xc)   XCENC  =       494.69016703
  PAW double counting   =     14404.34943371   -15584.94617098
  entropy T*S    EENTRO =         0.00000000
  eigenvalues    EBANDS =      -739.11726315
  atomic energy  EATOM  =     15300.29143124
  ---------------------------------------------------
  free energy    TOTEN  =       -16.73191140 eV

  energy without entropy =      -16.73191140  energy(sigma->0) =      -16.73191140


--------------------------------------------------------------------------------------------------------




----------------------------------------- Iteration    1(  11)  ---------------------------------------


    POTLOK:  cpu time    0.22: real time    0.22
    SETDIJ:  cpu time    0.00: real time    0.01
     EDDAV:  cpu time    0.80: real time    0.80
       DOS:  cpu time    0.00: real time    0.00
    CHARGE:  cpu time    0.05: real time    0.05
    MIXING:  cpu time    0.01: real time    0.01
    --------------------------------------------
      LOOP:  cpu time    1.09: real time    1.10

 eigenvalue-minimisations  :   400
 total energy-change (2. order) : 0.1997970E+00  (-0.1932570E-01)
 number of electron     120.9999383 magnetization       5.2145580
 augmentation part       77.6632303 magnetization       3.5404108

 Broyden mixing:
  rms(total) = 0.25676E+00    rms(broyden)= 0.25670E+00
  rms(prec ) = 0.27412E+00
  weight for this iteration     100.00

 eigenvalues of (default mixing * dielectric matrix)
  average eigenvalue GAMMA=   0.8153
  1.3311  1.3311  0.7123  0.4691  0.5240  0.5240

 Free energy of the ion-electron system (eV)
  ---------------------------------------------------
  alpha Z        PSCENC =        17.21673795
  Ewald energy   TEWEN  =     14813.03585568
  -Hartree energ DENC   =    -28725.54371551
  -exchange      EXHF   =         0.00000000
  -V(xc)+E(xc)   XCENC  =       494.93733052
  PAW double counting   =     14419.01577631   -15600.47298688
  entropy T*S    EENTRO =         0.00000000
  eigenvalues    EBANDS =      -735.01254373
  atomic energy  EATOM  =     15300.29143124
  ---------------------------------------------------
  free energy    TOTEN  =       -16.53211442 eV

  energy without entropy =      -16.53211442  energy(sigma->0) =      -16.53211442


--------------------------------------------------------------------------------------------------------




----------------------------------------- Iteration    1(  12)  ---------------------------------------


    POTLOK:  cpu time    0.22: real time    0.22
    SETDIJ:  cpu time    0.01: real time    0.01
     EDDAV:  cpu time    0.82: real time    0.83
       DOS:  cpu time    0.00: real time    0.00
    CHARGE:  cpu time    0.05: real time    0.05
    MIXING:  cpu time    0.01: real time    0.01
    --------------------------------------------
      LOOP:  cpu time    1.12: real time    1.14

 eigenvalue-minimisations  :   416
 total energy-change (2. order) :-0.5958945E-01  (-0.2408249E-02)
 number of electron     120.9999383 magnetization       3.9105862
 augmentation part       77.6537269 magnetization       2.2532646

 Broyden mixing:
  rms(total) = 0.24573E+00    rms(broyden)= 0.24572E+00
  rms(prec ) = 0.26216E+00
  weight for this iteration     100.00

 eigenvalues of (default mixing * dielectric matrix)
  average eigenvalue GAMMA=   0.9542
  1.7570  1.7570  0.8312  0.8312  0.6429  0.4391  0.4209

 Free energy of the ion-electron system (eV)
  ---------------------------------------------------
  alpha Z        PSCENC =        17.21673795
  Ewald energy   TEWEN  =     14813.03585568
  -Hartree energ DENC   =    -28726.94716502
  -exchange      EXHF   =         0.00000000
  -V(xc)+E(xc)   XCENC  =       494.95148611
  PAW double counting   =     14420.98867901   -15602.79331968
  entropy T*S    EENTRO =         0.00000000
  eigenvalues    EBANDS =      -733.33540915
  atomic energy  EATOM  =     15300.29143124
  ---------------------------------------------------
  free energy    TOTEN  =       -16.59170387 eV

  energy without entropy =      -16.59170387  energy(sigma->0) =      -16.59170387


--------------------------------------------------------------------------------------------------------




----------------------------------------- Iteration    1(  13)  ---------------------------------------


    POTLOK:  cpu time    0.22: real time    0.23
    SETDIJ:  cpu time    0.01: real time    0.01
     EDDAV:  cpu time    0.92: real time    0.91
       DOS:  cpu time    0.00: real time    0.00
    CHARGE:  cpu time    0.05: real time    0.05
    MIXING:  cpu time    0.01: real time    0.01
    --------------------------------------------
      LOOP:  cpu time    1.20: real time    1.21

 eigenvalue-minimisations  :   472
 total energy-change (2. order) :-0.2952024E+01  (-0.1464193E+00)
 number of electron     120.9999384 magnetization       3.0174444
 augmentation part       77.4927973 magnetization       1.5826201

 Broyden mixing:
  rms(total) = 0.13742E+00    rms(broyden)= 0.13739E+00
  rms(prec ) = 0.14487E+00
  weight for this iteration     100.00

 eigenvalues of (default mixing * dielectric matrix)
  average eigenvalue GAMMA=   1.0321
  2.2241  2.0692  0.9101  0.9101  0.7655  0.4879  0.4879  0.4019

 Free energy of the ion-electron system (eV)
  ---------------------------------------------------
  alpha Z        PSCENC =        17.21673795
  Ewald energy   TEWEN  =     14813.03585568
  -Hartree energ DENC   =    -28735.34313153
  -exchange      EXHF   =         0.00000000
  -V(xc)+E(xc)   XCENC  =       492.99238105
  PAW double counting   =     14419.52969468   -15603.71074885
  entropy T*S    EENTRO =         0.00000000
  eigenvalues    EBANDS =      -723.55594819
  atomic energy  EATOM  =     15300.29143124
  ---------------------------------------------------
  free energy    TOTEN  =       -19.54372797 eV

  energy without entropy =      -19.54372797  energy(sigma->0) =      -19.54372797


--------------------------------------------------------------------------------------------------------




----------------------------------------- Iteration    1(  14)  ---------------------------------------


    POTLOK:  cpu time    0.22: real time    0.23
    SETDIJ:  cpu time    0.01: real time    0.01
     EDDAV:  cpu time    0.87: real time    0.88
       DOS:  cpu time    0.00: real time    0.00
    CHARGE:  cpu time    0.05: real time    0.05
    MIXING:  cpu time    0.01: real time    0.01
    --------------------------------------------
      LOOP:  cpu time    1.17: real time    3.39

 eigenvalue-minimisations  :   448
 total energy-change (2. order) :-0.2866106E+01  (-0.1246219E+00)
 number of electron     120.9999382 magnetization       2.5104690
 augmentation part       77.5931491 magnetization       1.2896534

 Broyden mixing:
  rms(total) = 0.92119E-01    rms(broyden)= 0.92082E-01
  rms(prec ) = 0.98627E-01
  weight for this iteration     100.00

 eigenvalues of (default mixing * dielectric matrix)
  average eigenvalue GAMMA=   1.0668
  2.3741  2.3741  1.0438  1.0438  0.6837  0.6837  0.5062  0.5062  0.3856

 Free energy of the ion-electron system (eV)
  ---------------------------------------------------
  alpha Z        PSCENC =        17.21673795
  Ewald energy   TEWEN  =     14813.03585568
  -Hartree energ DENC   =    -28728.74327089
  -exchange      EXHF   =         0.00000000
  -V(xc)+E(xc)   XCENC  =       490.44783448
  PAW double counting   =     14404.45842433   -15586.80513267
  entropy T*S    EENTRO =         0.00000000
  eigenvalues    EBANDS =      -732.31171451
  atomic energy  EATOM  =     15300.29143124
  ---------------------------------------------------
  free energy    TOTEN  =       -22.40983440 eV

  energy without entropy =      -22.40983440  energy(sigma->0) =      -22.40983440


--------------------------------------------------------------------------------------------------------




----------------------------------------- Iteration    1(  15)  ---------------------------------------


    POTLOK:  cpu time    0.22: real time    0.23
    SETDIJ:  cpu time    0.00: real time    0.01
     EDDAV:  cpu time    0.77: real time    0.76
       DOS:  cpu time    0.00: real time    0.00
    CHARGE:  cpu time    0.05: real time    0.05
    MIXING:  cpu time    0.01: real time    0.01
    --------------------------------------------
      LOOP:  cpu time    1.06: real time    1.06

 eigenvalue-minimisations  :   376
 total energy-change (2. order) :-0.1435079E+01  (-0.3812590E-01)
 number of electron     120.9999382 magnetization       2.1019078
 augmentation part       77.6161264 magnetization       0.9829160

 Broyden mixing:
  rms(total) = 0.73074E-01    rms(broyden)= 0.73062E-01
  rms(prec ) = 0.77411E-01
  weight for this iteration     100.00

 eigenvalues of (default mixing * dielectric matrix)
  average eigenvalue GAMMA=   1.1062
  2.7398  2.7398  0.9378  0.9378  0.8966  0.8966  0.5966  0.4658  0.4658  0.3859

 Free energy of the ion-electron system (eV)
  ---------------------------------------------------
  alpha Z        PSCENC =        17.21673795
  Ewald energy   TEWEN  =     14813.03585568
  -Hartree energ DENC   =    -28726.69965214
  -exchange      EXHF   =         0.00000000
  -V(xc)+E(xc)   XCENC  =       489.20637868
  PAW double counting   =     14393.00363171   -15574.85155824
  entropy T*S    EENTRO =         0.00000000
  eigenvalues    EBANDS =      -735.04773837
  atomic energy  EATOM  =     15300.29143124
  ---------------------------------------------------
  free energy    TOTEN  =       -23.84491349 eV

  energy without entropy =      -23.84491349  energy(sigma->0) =      -23.84491349


--------------------------------------------------------------------------------------------------------




----------------------------------------- Iteration    1(  16)  ---------------------------------------


    POTLOK:  cpu time    0.22: real time    0.23
    SETDIJ:  cpu time    0.01: real time    0.01
     EDDAV:  cpu time    0.84: real time    0.84
       DOS:  cpu time    0.00: real time    0.00
    CHARGE:  cpu time    0.05: real time    0.05
    MIXING:  cpu time    0.01: real time    0.01
    --------------------------------------------
      LOOP:  cpu time    1.13: real time    1.14

 eigenvalue-minimisations  :   424
 total energy-change (2. order) :-0.1031820E+01  (-0.2194239E-01)
 number of electron     120.9999382 magnetization       1.5260147
 augmentation part       77.5847290 magnetization       0.4817969

 Broyden mixing:
  rms(total) = 0.46984E-01    rms(broyden)= 0.46975E-01
  rms(prec ) = 0.50203E-01
  weight for this iteration     100.00

 eigenvalues of (default mixing * dielectric matrix)
  average eigenvalue GAMMA=   1.2139
  3.9697  2.5790  1.3798  0.9883  0.9883  0.8615  0.6887  0.5835  0.4628  0.4628
  0.3884

 Free energy of the ion-electron system (eV)
  ---------------------------------------------------
  alpha Z        PSCENC =        17.21673795
  Ewald energy   TEWEN  =     14813.03585568
  -Hartree energ DENC   =    -28725.12551932
  -exchange      EXHF   =         0.00000000
  -V(xc)+E(xc)   XCENC  =       488.37710874
  PAW double counting   =     14375.88835828   -15557.96942670
  entropy T*S    EENTRO =         0.00000000
  eigenvalues    EBANDS =      -736.59127901
  atomic energy  EATOM  =     15300.29143124
  ---------------------------------------------------
  free energy    TOTEN  =       -24.87673314 eV

  energy without entropy =      -24.87673314  energy(sigma->0) =      -24.87673314


--------------------------------------------------------------------------------------------------------




----------------------------------------- Iteration    1(  17)  ---------------------------------------


    POTLOK:  cpu time    0.22: real time    0.23
    SETDIJ:  cpu time    0.01: real time    0.01
     EDDAV:  cpu time    0.84: real time    0.84
       DOS:  cpu time    0.00: real time    0.00
    CHARGE:  cpu time    0.05: real time    0.05
    MIXING:  cpu time    0.01: real time    0.01
    --------------------------------------------
      LOOP:  cpu time    1.13: real time    1.14

 eigenvalue-minimisations  :   424
 total energy-change (2. order) :-0.9048966E+00  (-0.1610609E-01)
 number of electron     120.9999383 magnetization       1.2527479
 augmentation part       77.5286867 magnetization       0.2778025

 Broyden mixing:
  rms(total) = 0.25019E-01    rms(broyden)= 0.25004E-01
  rms(prec ) = 0.27995E-01
  weight for this iteration     100.00

 eigenvalues of (default mixing * dielectric matrix)
  average eigenvalue GAMMA=   1.2459
  4.5750  2.1521  2.1521  0.9628  0.9628  0.8273  0.8273  0.6579  0.4848  0.4848
  0.4753  0.3885

 Free energy of the ion-electron system (eV)
  ---------------------------------------------------
  alpha Z        PSCENC =        17.21673795
  Ewald energy   TEWEN  =     14813.03585568
  -Hartree energ DENC   =    -28722.34134449
  -exchange      EXHF   =         0.00000000
  -V(xc)+E(xc)   XCENC  =       487.60099018
  PAW double counting   =     14360.48017085   -15543.28004750
  entropy T*S    EENTRO =         0.00000000
  eigenvalues    EBANDS =      -738.78542368
  atomic energy  EATOM  =     15300.29143124
  ---------------------------------------------------
  free energy    TOTEN  =       -25.78162976 eV

  energy without entropy =      -25.78162976  energy(sigma->0) =      -25.78162976


--------------------------------------------------------------------------------------------------------




----------------------------------------- Iteration    1(  18)  ---------------------------------------


    POTLOK:  cpu time    0.22: real time    0.23
    SETDIJ:  cpu time    0.01: real time    0.01
     EDDAV:  cpu time    0.88: real time    0.88
       DOS:  cpu time    0.00: real time    0.00
    CHARGE:  cpu time    0.05: real time    0.05
    MIXING:  cpu time    0.01: real time    0.01
    --------------------------------------------
      LOOP:  cpu time    1.17: real time    1.17

 eigenvalue-minimisations  :   448
 total energy-change (2. order) :-0.3074831E+00  (-0.3039478E-02)
 number of electron     120.9999382 magnetization       1.1464068
 augmentation part       77.5409884 magnetization       0.1973841

 Broyden mixing:
  rms(total) = 0.13197E-01    rms(broyden)= 0.13187E-01
  rms(prec ) = 0.15945E-01
  weight for this iteration     100.00

 eigenvalues of (default mixing * dielectric matrix)
  average eigenvalue GAMMA=   1.2692
  4.8772  2.3826  2.3826  0.9457  0.9457  0.9256  0.9256  0.7397  0.3886  0.5495
  0.4693  0.4693  0.4986

 Free energy of the ion-electron system (eV)
  ---------------------------------------------------
  alpha Z        PSCENC =        17.21673795
  Ewald energy   TEWEN  =     14813.03585568
  -Hartree energ DENC   =    -28719.26071485
  -exchange      EXHF   =         0.00000000
  -V(xc)+E(xc)   XCENC  =       487.24971081
  PAW double counting   =     14358.72517717   -15541.58632236
  entropy T*S    EENTRO =         0.00000000
  eigenvalues    EBANDS =      -741.76098853
  atomic energy  EATOM  =     15300.29143124
  ---------------------------------------------------
  free energy    TOTEN  =       -26.08911289 eV

  energy without entropy =      -26.08911289  energy(sigma->0) =      -26.08911289


--------------------------------------------------------------------------------------------------------




----------------------------------------- Iteration    1(  19)  ---------------------------------------


    POTLOK:  cpu time    0.23: real time    0.23
    SETDIJ:  cpu time    0.00: real time    0.01
     EDDAV:  cpu time    0.86: real time    0.86
       DOS:  cpu time    0.00: real time    0.00
    CHARGE:  cpu time    0.05: real time    0.05
    MIXING:  cpu time    0.01: real time    0.01
    --------------------------------------------
      LOOP:  cpu time    1.16: real time    1.16

 eigenvalue-minimisations  :   440
 total energy-change (2. order) :-0.1163869E+00  (-0.7995163E-03)
 number of electron     120.9999382 magnetization       1.0880880
 augmentation part       77.5614420 magnetization       0.1469034

 Broyden mixing:
  rms(total) = 0.92911E-02    rms(broyden)= 0.92883E-02
  rms(prec ) = 0.11441E-01
  weight for this iteration     100.00

 eigenvalues of (default mixing * dielectric matrix)
  average eigenvalue GAMMA=   1.2909
  4.7915  2.5732  2.5732  1.4444  0.9517  0.9517  0.8967  0.8967  0.6423  0.5828
  0.3877  0.4666  0.4666  0.4476

 Free energy of the ion-electron system (eV)
  ---------------------------------------------------
  alpha Z        PSCENC =        17.21673795
  Ewald energy   TEWEN  =     14813.03585568
  -Hartree energ DENC   =    -28717.09363978
  -exchange      EXHF   =         0.00000000
  -V(xc)+E(xc)   XCENC  =       487.08067107
  PAW double counting   =     14361.96731281   -15544.75240095
  entropy T*S    EENTRO =         0.00000000
  eigenvalues    EBANDS =      -743.95146778
  atomic energy  EATOM  =     15300.29143124
  ---------------------------------------------------
  free energy    TOTEN  =       -26.20549976 eV

  energy without entropy =      -26.20549976  energy(sigma->0) =      -26.20549976


--------------------------------------------------------------------------------------------------------




----------------------------------------- Iteration    1(  20)  ---------------------------------------


    POTLOK:  cpu time    0.22: real time    0.23
    SETDIJ:  cpu time    0.01: real time    0.01
     EDDAV:  cpu time    0.82: real time    0.82
       DOS:  cpu time    0.00: real time    0.00
    CHARGE:  cpu time    0.05: real time    0.05
    MIXING:  cpu time    0.01: real time    0.01
    --------------------------------------------
      LOOP:  cpu time    1.11: real time    1.11

 eigenvalue-minimisations  :   408
 total energy-change (2. order) :-0.8364298E-01  (-0.4915470E-03)
 number of electron     120.9999382 magnetization       1.0517214
 augmentation part       77.5549445 magnetization       0.1160033

 Broyden mixing:
  rms(total) = 0.46410E-02    rms(broyden)= 0.46390E-02
  rms(prec ) = 0.62302E-02
  weight for this iteration     100.00

 eigenvalues of (default mixing * dielectric matrix)
  average eigenvalue GAMMA=   1.3152
  4.9331  3.1922  2.0561  2.0561  0.9540  0.9540  0.9006  0.9006  0.7821  0.6696
  0.5503  0.3877  0.4687  0.4687  0.4545

 Free energy of the ion-electron system (eV)
  ---------------------------------------------------
  alpha Z        PSCENC =        17.21673795
  Ewald energy   TEWEN  =     14813.03585568
  -Hartree energ DENC   =    -28715.32554995
  -exchange      EXHF   =         0.00000000
  -V(xc)+E(xc)   XCENC  =       486.99844699
  PAW double counting   =     14363.62065230   -15546.53313932
  entropy T*S    EENTRO =         0.00000000
  eigenvalues    EBANDS =      -745.59357762
  atomic energy  EATOM  =     15300.29143124
  ---------------------------------------------------
  free energy    TOTEN  =       -26.28914273 eV

  energy without entropy =      -26.28914273  energy(sigma->0) =      -26.28914273


--------------------------------------------------------------------------------------------------------




----------------------------------------- Iteration    1(  21)  ---------------------------------------


    POTLOK:  cpu time    0.23: real time    0.23
    SETDIJ:  cpu time    0.00: real time    0.01
     EDDAV:  cpu time    0.79: real time    0.79
       DOS:  cpu time    0.00: real time    0.00
    CHARGE:  cpu time    0.05: real time    0.05
    MIXING:  cpu time    0.01: real time    0.01
    --------------------------------------------
      LOOP:  cpu time    1.09: real time    2.42

 eigenvalue-minimisations  :   392
 total energy-change (2. order) :-0.2385405E-01  (-0.1386981E-03)
 number of electron     120.9999382 magnetization       1.0308032
 augmentation part       77.5541789 magnetization       0.0984608

 Broyden mixing:
  rms(total) = 0.31915E-02    rms(broyden)= 0.31895E-02
  rms(prec ) = 0.44156E-02
  weight for this iteration     100.00

 eigenvalues of (default mixing * dielectric matrix)
  average eigenvalue GAMMA=   1.3237
  5.0833  3.3110  2.2616  2.2616  0.9552  0.9552  1.0709  0.8725  0.8725  0.6611
  0.5495  0.5495  0.3877  0.4654  0.4654  0.4575

 Free energy of the ion-electron system (eV)
  ---------------------------------------------------
  alpha Z        PSCENC =        17.21673795
  Ewald energy   TEWEN  =     14813.03585568
  -Hartree energ DENC   =    -28714.16766585
  -exchange      EXHF   =         0.00000000
  -V(xc)+E(xc)   XCENC  =       486.96855837
  PAW double counting   =     14363.63713930   -15546.55737599
  entropy T*S    EENTRO =         0.00000000
  eigenvalues    EBANDS =      -746.73767748
  atomic energy  EATOM  =     15300.29143124
  ---------------------------------------------------
  free energy    TOTEN  =       -26.31299678 eV

  energy without entropy =      -26.31299678  energy(sigma->0) =      -26.31299678


--------------------------------------------------------------------------------------------------------




----------------------------------------- Iteration    1(  22)  ---------------------------------------


    POTLOK:  cpu time    0.22: real time    0.22
    SETDIJ:  cpu time    0.01: real time    0.01
     EDDAV:  cpu time    0.65: real time    0.65
       DOS:  cpu time    0.00: real time    0.00
    CHARGE:  cpu time    0.05: real time    0.05
    MIXING:  cpu time    0.01: real time    0.01
    --------------------------------------------
      LOOP:  cpu time    0.94: real time    0.95

 eigenvalue-minimisations  :   296
 total energy-change (2. order) :-0.4537731E-02  (-0.6491328E-04)
 number of electron     120.9999382 magnetization       1.0160040
 augmentation part       77.5560342 magnetization       0.0850520

 Broyden mixing:
  rms(total) = 0.25836E-02    rms(broyden)= 0.25826E-02
  rms(prec ) = 0.33761E-02
  weight for this iteration     100.00

 eigenvalues of (default mixing * dielectric matrix)
  average eigenvalue GAMMA=   1.3154
  5.1598  3.0093  2.9304  2.1354  1.2536  0.9547  0.9547  0.8908  0.8908  0.7374
  0.6449  0.5889  0.4696  0.4696  0.3876  0.4548  0.4299

 Free energy of the ion-electron system (eV)
  ---------------------------------------------------
  alpha Z        PSCENC =        17.21673795
  Ewald energy   TEWEN  =     14813.03585568
  -Hartree energ DENC   =    -28713.23856301
  -exchange      EXHF   =         0.00000000
  -V(xc)+E(xc)   XCENC  =       486.95480805
  PAW double counting   =     14364.12038100   -15547.02610292
  entropy T*S    EENTRO =         0.00000000
  eigenvalues    EBANDS =      -747.67208250
  atomic energy  EATOM  =     15300.29143124
  ---------------------------------------------------
  free energy    TOTEN  =       -26.31753451 eV

  energy without entropy =      -26.31753451  energy(sigma->0) =      -26.31753451


--------------------------------------------------------------------------------------------------------




----------------------------------------- Iteration    1(  23)  ---------------------------------------


    POTLOK:  cpu time    0.22: real time    0.22
    SETDIJ:  cpu time    0.01: real time    0.01
     EDDAV:  cpu time    0.63: real time    0.63
       DOS:  cpu time    0.00: real time    0.00
    CHARGE:  cpu time    0.05: real time    0.05
    MIXING:  cpu time    0.01: real time    0.01
    --------------------------------------------
      LOOP:  cpu time    0.93: real time    0.93

 eigenvalue-minimisations  :   288
 total energy-change (2. order) :-0.2567635E-02  (-0.5284621E-04)
 number of electron     120.9999382 magnetization       1.0099932
 augmentation part       77.5554804 magnetization       0.0803475

 Broyden mixing:
  rms(total) = 0.17842E-02    rms(broyden)= 0.17838E-02
  rms(prec ) = 0.23867E-02
  weight for this iteration     100.00

 eigenvalues of (default mixing * dielectric matrix)
  average eigenvalue GAMMA=   1.3197
  5.2050  3.1499  3.1499  2.0558  1.4869  0.9543  0.9543  0.8993  0.8993  0.9072
  0.6798  0.6798  0.5398  0.4655  0.4655  0.4640  0.3877  0.4110

 Free energy of the ion-electron system (eV)
  ---------------------------------------------------
  alpha Z        PSCENC =        17.21673795
  Ewald energy   TEWEN  =     14813.03585568
  -Hartree energ DENC   =    -28712.65707031
  -exchange      EXHF   =         0.00000000
  -V(xc)+E(xc)   XCENC  =       486.94943380
  PAW double counting   =     14365.12725519   -15548.07661016
  entropy T*S    EENTRO =        -0.00000000
  eigenvalues    EBANDS =      -748.20713554
  atomic energy  EATOM  =     15300.29143124
  ---------------------------------------------------
  free energy    TOTEN  =       -26.32010215 eV

  energy without entropy =      -26.32010215  energy(sigma->0) =      -26.32010215


--------------------------------------------------------------------------------------------------------




----------------------------------------- Iteration    1(  24)  ---------------------------------------


    POTLOK:  cpu time    0.23: real time    0.22
    SETDIJ:  cpu time    0.00: real time    0.01
     EDDAV:  cpu time    0.58: real time    0.58
       DOS:  cpu time    0.00: real time    0.00
    CHARGE:  cpu time    0.05: real time    0.05
    MIXING:  cpu time    0.02: real time    0.01
    --------------------------------------------
      LOOP:  cpu time    0.87: real time    0.87

 eigenvalue-minimisations  :   248
 total energy-change (2. order) :-0.1438973E-02  (-0.2293293E-04)
 number of electron     120.9999382 magnetization       1.0052330
 augmentation part       77.5534152 magnetization       0.0762978

 Broyden mixing:
  rms(total) = 0.12166E-02    rms(broyden)= 0.12162E-02
  rms(prec ) = 0.16851E-02
  weight for this iteration     100.00

 eigenvalues of (default mixing * dielectric matrix)
  average eigenvalue GAMMA=   1.3296
  5.2881  3.3628  3.3628  1.9124  1.9124  0.9539  0.9539  1.0511  0.8998  0.8998
  0.6935  0.6935  0.5658  0.5287  0.4661  0.4661  0.4562  0.3877  0.4082

 Free energy of the ion-electron system (eV)
  ---------------------------------------------------
  alpha Z        PSCENC =        17.21673795
  Ewald energy   TEWEN  =     14813.03585568
  -Hartree energ DENC   =    -28712.26908959
  -exchange      EXHF   =         0.00000000
  -V(xc)+E(xc)   XCENC  =       486.94789977
  PAW double counting   =     14365.64889694   -15548.63302220
  entropy T*S    EENTRO =         0.00000000
  eigenvalues    EBANDS =      -748.56025092
  atomic energy  EATOM  =     15300.29143124
  ---------------------------------------------------
  free energy    TOTEN  =       -26.32154112 eV

  energy without entropy =      -26.32154112  energy(sigma->0) =      -26.32154112


--------------------------------------------------------------------------------------------------------




----------------------------------------- Iteration    1(  25)  ---------------------------------------


    POTLOK:  cpu time    0.22: real time    0.22
    SETDIJ:  cpu time    0.01: real time    0.01
     EDDAV:  cpu time    0.55: real time    0.55
       DOS:  cpu time    0.00: real time    0.00
    CHARGE:  cpu time    0.05: real time    0.05
    MIXING:  cpu time    0.02: real time    0.01
    --------------------------------------------
      LOOP:  cpu time    0.85: real time    0.85

 eigenvalue-minimisations  :   232
 total energy-change (2. order) :-0.9046142E-03  (-0.1120305E-04)
 number of electron     120.9999382 magnetization       1.0043046
 augmentation part       77.5536262 magnetization       0.0759568

 Broyden mixing:
  rms(total) = 0.94356E-03    rms(broyden)= 0.94326E-03
  rms(prec ) = 0.13070E-02
  weight for this iteration     100.00

 eigenvalues of (default mixing * dielectric matrix)
  average eigenvalue GAMMA=   1.3215
  5.2190  3.9556  3.1326  2.0435  2.0435  0.9549  0.9549  1.0663  0.8959  0.8959
  0.7908  0.6869  0.6869  0.5556  0.4675  0.4675  0.3877  0.4518  0.4293  0.3432

 Free energy of the ion-electron system (eV)
  ---------------------------------------------------
  alpha Z        PSCENC =        17.21673795
  Ewald energy   TEWEN  =     14813.03585568
  -Hartree energ DENC   =    -28711.96697192
  -exchange      EXHF   =         0.00000000
  -V(xc)+E(xc)   XCENC  =       486.94467851
  PAW double counting   =     14365.73335273   -15548.71828390
  entropy T*S    EENTRO =         0.00000000
  eigenvalues    EBANDS =      -748.85924603
  atomic energy  EATOM  =     15300.29143124
  ---------------------------------------------------
  free energy    TOTEN  =       -26.32244574 eV

  energy without entropy =      -26.32244574  energy(sigma->0) =      -26.32244574


--------------------------------------------------------------------------------------------------------




----------------------------------------- Iteration    1(  26)  ---------------------------------------


    POTLOK:  cpu time    0.22: real time    0.22
    SETDIJ:  cpu time    0.01: real time    0.01
     EDDAV:  cpu time    0.56: real time    0.56
       DOS:  cpu time    0.00: real time    0.00
    CHARGE:  cpu time    0.05: real time    0.05
    MIXING:  cpu time    0.02: real time    0.01
    --------------------------------------------
      LOOP:  cpu time    0.86: real time    0.86

 eigenvalue-minimisations  :   240
 total energy-change (2. order) :-0.5985291E-03  (-0.8211880E-05)
 number of electron     120.9999382 magnetization       1.0038289
 augmentation part       77.5548002 magnetization       0.0757081

 Broyden mixing:
  rms(total) = 0.83417E-03    rms(broyden)= 0.83394E-03
  rms(prec ) = 0.10854E-02
  weight for this iteration     100.00

 eigenvalues of (default mixing * dielectric matrix)
  average eigenvalue GAMMA=   1.3677
  5.0919  5.0919  2.7334  2.3596  2.3596  0.9545  0.9545  1.0907  1.0907  0.9009
  0.9009  0.8277  0.6575  0.6575  0.5518  0.4666  0.4666  0.4592  0.3877  0.4159
  0.3018

 Free energy of the ion-electron system (eV)
  ---------------------------------------------------
  alpha Z        PSCENC =        17.21673795
  Ewald energy   TEWEN  =     14813.03585568
  -Hartree energ DENC   =    -28711.67690508
  -exchange      EXHF   =         0.00000000
  -V(xc)+E(xc)   XCENC  =       486.94085368
  PAW double counting   =     14365.60915390   -15548.57561675
  entropy T*S    EENTRO =         0.00000000
  eigenvalues    EBANDS =      -749.16455489
  atomic energy  EATOM  =     15300.29143124
  ---------------------------------------------------
  free energy    TOTEN  =       -26.32304427 eV

  energy without entropy =      -26.32304427  energy(sigma->0) =      -26.32304427


--------------------------------------------------------------------------------------------------------




----------------------------------------- Iteration    1(  27)  ---------------------------------------


    POTLOK:  cpu time    0.22: real time    0.22
    SETDIJ:  cpu time    0.01: real time    0.01
     EDDAV:  cpu time    0.53: real time    0.53
       DOS:  cpu time    0.00: real time    0.00
    CHARGE:  cpu time    0.05: real time    0.05
    MIXING:  cpu time    0.02: real time    0.01
    --------------------------------------------
      LOOP:  cpu time    0.82: real time    7.68

 eigenvalue-minimisations  :   216
 total energy-change (2. order) :-0.1754153E-03  (-0.5889415E-05)
 number of electron     120.9999382 magnetization       0.9998603
 augmentation part       77.5544135 magnetization       0.0718682

 Broyden mixing:
  rms(total) = 0.62646E-03    rms(broyden)= 0.62630E-03
  rms(prec ) = 0.79877E-03
  weight for this iteration     100.00

 eigenvalues of (default mixing * dielectric matrix)
  average eigenvalue GAMMA=   1.3720
  5.1286  5.1286  3.3385  2.2665  2.2665  1.5211  0.9550  0.9550  1.0234  0.8965
  0.8965  0.8328  0.6668  0.6668  0.6155  0.5436  0.4660  0.4660  0.4619  0.3877
  0.4118  0.2895

 Free energy of the ion-electron system (eV)
  ---------------------------------------------------
  alpha Z        PSCENC =        17.21673795
  Ewald energy   TEWEN  =     14813.03585568
  -Hartree energ DENC   =    -28711.49963592
  -exchange      EXHF   =         0.00000000
  -V(xc)+E(xc)   XCENC  =       486.94064201
  PAW double counting   =     14365.60788812   -15548.58047212
  entropy T*S    EENTRO =         0.00000000
  eigenvalues    EBANDS =      -749.33566665
  atomic energy  EATOM  =     15300.29143124
  ---------------------------------------------------
  free energy    TOTEN  =       -26.32321968 eV

  energy without entropy =      -26.32321968  energy(sigma->0) =      -26.32321968


--------------------------------------------------------------------------------------------------------




----------------------------------------- Iteration    1(  28)  ---------------------------------------


    POTLOK:  cpu time    0.22: real time    0.22
    SETDIJ:  cpu time    0.00: real time    0.01
     EDDAV:  cpu time    0.56: real time    0.57
       DOS:  cpu time    0.00: real time    0.00
    --------------------------------------------
      LOOP:  cpu time    0.80: real time    0.80

 eigenvalue-minimisations  :   240
 total energy-change (2. order) :-0.9936414E-04  (-0.3029292E-05)
 number of electron     120.9999382 magnetization       0.9998603
 augmentation part       77.5544135 magnetization       0.0718682

 Free energy of the ion-electron system (eV)
  ---------------------------------------------------
  alpha Z        PSCENC =        17.21673795
  Ewald energy   TEWEN  =     14813.03585568
  -Hartree energ DENC   =    -28711.39561824
  -exchange      EXHF   =         0.00000000
  -V(xc)+E(xc)   XCENC  =       486.94043566
  PAW double counting   =     14365.53976465   -15548.51630707
  entropy T*S    EENTRO =         0.00000000
  eigenvalues    EBANDS =      -749.43561890
  atomic energy  EATOM  =     15300.29143124
  ---------------------------------------------------
  free energy    TOTEN  =       -26.32331905 eV

  energy without entropy =      -26.32331905  energy(sigma->0) =      -26.32331905


--------------------------------------------------------------------------------------------------------




 average (electrostatic) potential at core
  the test charge radii are     0.9430
  (the norm of the test charge is              1.0000)
       1 -74.6022       2 -74.5781       3 -74.5455       4 -74.5905       5 -74.5486
       6 -74.6953       7 -74.5562       8 -74.5786       9 -74.5839      10 -74.5573
      11 -74.4019
 
 
 
 E-fermi :  -3.8195     XC(G=0):  -0.7487     alpha+bet : -0.3393


 spin component 1

 k-point     1 :       0.0000    0.0000    0.0000
  band No.  band energies     occupation 
      1     -10.4517      1.00000
      2      -9.1456      1.00000
      3      -8.2617      1.00000
      4      -7.8840      1.00000
      5      -7.8543      1.00000
      6      -7.7341      1.00000
      7      -7.5034      1.00000
      8      -7.4077      1.00000
      9      -7.3683      1.00000
     10      -7.2390      1.00000
     11      -7.2366      1.00000
     12      -7.1410      1.00000
     13      -7.0949      1.00000
     14      -7.0109      1.00000
     15      -6.9415      1.00000
     16      -6.8589      1.00000
     17      -6.8510      1.00000
     18      -6.7271      1.00000
     19      -6.6355      1.00000
     20      -6.6307      1.00000
     21      -6.6114      1.00000
     22      -6.4856      1.00000
     23      -6.3400      1.00000
     24      -6.3346      1.00000
     25      -6.3043      1.00000
     26      -6.2683      1.00000
     27      -6.2315      1.00000
     28      -6.1758      1.00000
     29      -6.0796      1.00000
     30      -5.9659      1.00000
     31      -5.9472      1.00000
     32      -5.8666      1.00000
     33      -5.8080      1.00000
     34      -5.7704      1.00000
     35      -5.7269      1.00000
     36      -5.7030      1.00000
     37      -5.6593      1.00000
     38      -5.6202      1.00000
     39      -5.5507      1.00000
     40      -5.5268      1.00000
     41      -5.5220      1.00000
     42      -5.4951      1.00000
     43      -5.4731      1.00000
     44      -5.4442      1.00000
     45      -5.4358      1.00000
     46      -5.3245      1.00000
     47      -5.3222      1.00000
     48      -5.3028      1.00000
     49      -5.2469      1.00000
     50      -5.2298      1.00000
     51      -5.2152      1.00000
     52      -5.1900      1.00000
     53      -5.1340      1.00000
     54      -5.1247      1.00000
     55      -5.0922      1.00000
     56      -5.0860      1.00000
     57      -5.0679      1.00000
     58      -4.9916      1.00000
     59      -4.6229      1.00000
     60      -4.5639      1.00000
     61      -3.8358      1.00000
     62      -3.6137      0.00000
     63      -2.7687      0.00000
     64      -2.4958      0.00000
     65      -2.1521      0.00000
     66      -1.9369      0.00000
     67      -1.9148      0.00000
     68      -1.5040      0.00000
     69      -1.0660      0.00000
     70      -0.6896      0.00000
     71      -0.6343      0.00000
     72      -0.3697      0.00000
     73      -0.1819      0.00000
     74       0.1348      0.00000
     75       0.1583      0.00000
     76       0.2679      0.00000
     77       0.4740      0.00000
     78       0.6356      0.00000
     79       0.6505      0.00000
     80       0.7094      0.00000

 spin component 2

 k-point     1 :       0.0000    0.0000    0.0000
  band No.  band energies     occupation 
      1     -10.4163      1.00000
      2      -9.0994      1.00000
      3      -8.2193      1.00000
      4      -7.8472      1.00000
      5      -7.8298      1.00000
      6      -7.6968      1.00000
      7      -7.4559      1.00000
      8      -7.3718      1.00000
      9      -7.3283      1.00000
     10      -7.1998      1.00000
     11      -7.1938      1.00000
     12      -7.1140      1.00000
     13      -7.0551      1.00000
     14      -6.9819      1.00000
     15      -6.9053      1.00000
     16      -6.8284      1.00000
     17      -6.8188      1.00000
     18      -6.7045      1.00000
     19      -6.6071      1.00000
     20      -6.6009      1.00000
     21      -6.5810      1.00000
     22      -6.4495      1.00000
     23      -6.3069      1.00000
     24      -6.3060      1.00000
     25      -6.2728      1.00000
     26      -6.2298      1.00000
     27      -6.2002      1.00000
     28      -6.1405      1.00000
     29      -6.0252      1.00000
     30      -5.9378      1.00000
     31      -5.9236      1.00000
     32      -5.8387      1.00000
     33      -5.7814      1.00000
     34      -5.7440      1.00000
     35      -5.6927      1.00000
     36      -5.6754      1.00000
     37      -5.6330      1.00000
     38      -5.5859      1.00000
     39      -5.5237      1.00000
     40      -5.5007      1.00000
     41      -5.4904      1.00000
     42      -5.4622      1.00000
     43      -5.4342      1.00000
     44      -5.4081      1.00000
     45      -5.3960      1.00000
     46      -5.2990      1.00000
     47      -5.2917      1.00000
     48      -5.2672      1.00000
     49      -5.2189      1.00000
     50      -5.1943      1.00000
     51      -5.1834      1.00000
     52      -5.1536      1.00000
     53      -5.0973      1.00000
     54      -5.0783      1.00000
     55      -5.0621      1.00000
     56      -5.0514      1.00000
     57      -5.0421      1.00000
     58      -4.9093      1.00000
     59      -4.5864      1.00000
     60      -4.5118      1.00000
     61      -3.5992      0.00000
     62      -3.5542      0.00000
     63      -2.6735      0.00000
     64      -2.3956      0.00000
     65      -2.0684      0.00000
     66      -1.8919      0.00000
     67      -1.7694      0.00000
     68      -1.4479      0.00000
     69      -0.8617      0.00000
     70      -0.6086      0.00000
     71      -0.5619      0.00000
     72      -0.2238      0.00000
     73      -0.0933      0.00000
     74       0.2285      0.00000
     75       0.2339      0.00000
     76       0.2963      0.00000
     77       0.5024      0.00000
     78       0.6706      0.00000
     79       0.6972      0.00000
     80       0.7404      0.00000


--------------------------------------------------------------------------------------------------------


 soft charge-density along one line, spin component           1
         0         1         2         3         4         5         6         7         8         9
 total charge-density along one line
 
 soft charge-density along one line, spin component           2
         0         1         2         3         4         5         6         7         8         9
 total charge-density along one line
 
 pseudopotential strength for first ion, spin component:           1
-10.786   0.015   0.013   0.020  -0.000   1.225  -0.011  -0.011
  0.015 -10.790   0.012  -0.013  -0.020  -0.011   1.227  -0.010
  0.013   0.012 -10.819   0.001   0.029  -0.011  -0.010   1.248
  0.020  -0.013   0.001 -10.818   0.012  -0.017   0.011  -0.001
 -0.000  -0.020   0.029   0.012 -10.783   0.000   0.017  -0.022
  1.225  -0.011  -0.011  -0.017   0.000   6.146   0.007   0.009
 -0.011   1.227  -0.010   0.011   0.017   0.007   6.145   0.007
 -0.011  -0.010   1.248  -0.001  -0.022   0.009   0.007   6.129
 -0.017   0.011  -0.001   1.248  -0.009   0.013  -0.008  -0.001
  0.000   0.017  -0.022  -0.009   1.222   0.000  -0.013   0.017
  0.005  -0.008   0.002  -0.003   0.004  -0.002   0.004  -0.001
  0.010  -0.015   0.004  -0.004   0.008  -0.004   0.008  -0.002
 -0.003   0.006  -0.010   0.000  -0.017   0.004  -0.007   0.007
  0.000   0.018   0.007  -0.005   0.000  -0.001  -0.010  -0.010
  0.018   0.000   0.001   0.007  -0.003  -0.011  -0.001  -0.002
 -0.003   0.006  -0.011   0.000  -0.020   0.005  -0.008   0.008
  0.000   0.020   0.008  -0.005   0.001  -0.001  -0.010  -0.012
  0.020   0.000   0.000   0.008  -0.003  -0.011  -0.001  -0.002
 pseudopotential strength for first ion, spin component:           2
-10.784   0.010   0.012   0.022  -0.001   1.222  -0.008  -0.010
  0.010 -10.785   0.014  -0.015  -0.020  -0.008   1.223  -0.011
  0.012   0.014 -10.820  -0.000   0.031  -0.010  -0.011   1.249
  0.022  -0.015  -0.000 -10.817   0.012  -0.018   0.012   0.000
 -0.001  -0.020   0.031   0.012 -10.783   0.001   0.016  -0.023
  1.222  -0.008  -0.010  -0.018   0.001   6.146   0.005   0.008
 -0.008   1.223  -0.011   0.012   0.016   0.005   6.146   0.008
 -0.010  -0.011   1.249   0.000  -0.023   0.008   0.008   6.127
 -0.018   0.012   0.000   1.248  -0.009   0.013  -0.008  -0.001
  0.001   0.016  -0.023  -0.009   1.222  -0.000  -0.012   0.018
  0.005  -0.007   0.003  -0.002   0.005  -0.001   0.003  -0.001
  0.009  -0.013   0.005  -0.004   0.008  -0.003   0.005  -0.002
 -0.005   0.008  -0.009   0.000  -0.017   0.005  -0.009   0.008
  0.000   0.017   0.008  -0.005  -0.000  -0.001  -0.011  -0.010
  0.017   0.000   0.001   0.008  -0.003  -0.011  -0.001  -0.002
 -0.005   0.009  -0.011   0.000  -0.019   0.006  -0.011   0.009
  0.000   0.019   0.008  -0.006  -0.000  -0.001  -0.012  -0.012
  0.019   0.000   0.001   0.008  -0.003  -0.012  -0.001  -0.002
 total augmentation occupancy for first ion, spin component:           1
  1.944   0.006   0.008   0.008   0.001  -0.011  -0.005  -0.002  -0.007   0.001  -0.000  -0.009   0.014   0.002  -0.036  -0.007
  0.006   1.943   0.005  -0.004  -0.012  -0.005  -0.010  -0.004   0.008   0.004  -0.001   0.010  -0.025  -0.031   0.004   0.012
  0.008   0.005   1.932  -0.011   0.018  -0.002  -0.004  -0.008   0.002  -0.005   0.010   0.003   0.028  -0.054  -0.039  -0.013
  0.008  -0.004  -0.011   1.951  -0.001  -0.007   0.008   0.002  -0.020  -0.006  -0.015   0.004   0.004  -0.001  -0.028   0.001
  0.001  -0.012   0.018  -0.001   1.947   0.001   0.004  -0.005  -0.006  -0.015   0.011   0.006   0.042   0.007   0.040  -0.022
 -0.011  -0.005  -0.002  -0.007   0.001   0.011  -0.002   0.001  -0.000  -0.000   0.026   0.000   0.010  -0.005  -0.012  -0.000
 -0.005  -0.010  -0.004   0.008   0.004  -0.002   0.012  -0.000   0.001  -0.001  -0.029  -0.001  -0.016  -0.007  -0.005   0.001
 -0.002  -0.004  -0.008   0.002  -0.005   0.001  -0.000   0.015  -0.002   0.001   0.001  -0.001   0.017  -0.031  -0.007  -0.001
 -0.007   0.008   0.002  -0.020  -0.006  -0.000   0.001  -0.002   0.011  -0.004  -0.031   0.005  -0.006   0.015  -0.024   0.000
[...]
     26      -6.0571      1.00000
     27      -5.9981      1.00000
     28      -5.9711      1.00000
     29      -5.9028      1.00000
     30      -5.8890      1.00000
     31      -5.8201      1.00000
     32      -5.7687      1.00000
     33      -5.6863      1.00000
     34      -5.6713      1.00000
     35      -5.6135      1.00000
     36      -5.6032      1.00000
     37      -5.5885      1.00000
     38      -5.5087      1.00000
     39      -5.4606      1.00000
     40      -5.4555      1.00000
     41      -5.4465      1.00000
     42      -5.4263      1.00000
     43      -5.3969      1.00000
     44      -5.3618      1.00000
     45      -5.3613      1.00000
     46      -5.2945      1.00000
     47      -5.2857      1.00000
     48      -5.2435      1.00000
     49      -5.1962      1.00000
     50      -5.1892      1.00000
     51      -5.1812      1.00000
     52      -5.1612      1.00000
     53      -5.0925      1.00000
     54      -5.0814      1.00000
     55      -5.0655      1.00000
     56      -5.0604      1.00000
     57      -5.0439      1.00000
     58      -4.9642      1.00000
     59      -4.5872      1.00000
     60      -4.5510      1.00000
     61      -3.7799      1.00000
     62      -3.6126      0.00000
     63      -2.8444      0.00000
     64      -2.5211      0.00000
     65      -2.1164      0.00000
     66      -1.9339      0.00000
     67      -1.8722      0.00000
     68      -1.5620      0.00000
     69      -1.1686      0.00000
     70      -0.8203      0.00000
     71      -0.6495      0.00000
     72      -0.4211      0.00000
     73      -0.3587      0.00000
     74       0.0598      0.00000
     75       0.1116      0.00000
     76       0.2224      0.00000
     77       0.4895      0.00000
     78       0.5967      0.00000
     79       0.6172      0.00000
     80       0.6285      0.00000

 spin component 2

 k-point     1 :       0.0000    0.0000    0.0000
  band No.  band energies     occupation 
      1     -10.0849      1.00000
      2      -8.7330      1.00000
      3      -7.9051      1.00000
      4      -7.6014      1.00000
      5      -7.5890      1.00000
      6      -7.3702      1.00000
      7      -7.1008      1.00000
      8      -7.0606      1.00000
      9      -6.9970      1.00000
     10      -6.9495      1.00000
     11      -6.9215      1.00000
     12      -6.8900      1.00000
     13      -6.7269      1.00000
     14      -6.7098      1.00000
     15      -6.5884      1.00000
     16      -6.5651      1.00000
     17      -6.5476      1.00000
     18      -6.5199      1.00000
     19      -6.4271      1.00000
     20      -6.3620      1.00000
     21      -6.2794      1.00000
     22      -6.2336      1.00000
     23      -6.1665      1.00000
     24      -6.1408      1.00000
     25      -6.0353      1.00000
     26      -6.0272      1.00000
     27      -5.9636      1.00000
     28      -5.9357      1.00000
     29      -5.8810      1.00000
     30      -5.8483      1.00000
     31      -5.7864      1.00000
     32      -5.7435      1.00000
     33      -5.6596      1.00000
     34      -5.6474      1.00000
     35      -5.5873      1.00000
     36      -5.5755      1.00000
     37      -5.5530      1.00000
     38      -5.4735      1.00000
     39      -5.4380      1.00000
     40      -5.4293      1.00000
     41      -5.4232      1.00000
     42      -5.3954      1.00000
     43      -5.3582      1.00000
     44      -5.3308      1.00000
     45      -5.3204      1.00000
     46      -5.2691      1.00000
     47      -5.2565      1.00000
     48      -5.2127      1.00000
     49      -5.1723      1.00000
     50      -5.1563      1.00000
     51      -5.1512      1.00000
     52      -5.1244      1.00000
     53      -5.0591      1.00000
     54      -5.0508      1.00000
     55      -5.0376      1.00000
     56      -5.0232      1.00000
     57      -5.0057      1.00000
     58      -4.8801      1.00000
     59      -4.5520      1.00000
     60      -4.4994      1.00000
     61      -3.5547      0.00000
     62      -3.5414      0.00000
     63      -2.7533      0.00000
     64      -2.4261      0.00000
     65      -2.0344      0.00000
     66      -1.9004      0.00000
     67      -1.7129      0.00000
     68      -1.5009      0.00000
     69      -0.9871      0.00000
     70      -0.7199      0.00000
     71      -0.5759      0.00000
     72      -0.2817      0.00000
     73      -0.2793      0.00000
     74       0.1883      0.00000
     75       0.1934      0.00000
     76       0.2639      0.00000
     77       0.5173      0.00000
     78       0.6502      0.00000
     79       0.6578      0.00000
     80       0.7192      0.00000


--------------------------------------------------------------------------------------------------------


 soft charge-density along one line, spin component           1
         0         1         2         3         4         5         6         7         8         9
 total charge-density along one line
 
 soft charge-density along one line, spin component           2
         0         1         2         3         4         5         6         7         8         9
 total charge-density along one line
 
 pseudopotential strength for first ion, spin component:           1
-10.711   0.012   0.012   0.018   0.000   1.165  -0.009  -0.010
  0.012 -10.714   0.010  -0.012  -0.018  -0.009   1.167  -0.008
  0.012   0.010 -10.733  -0.001   0.022  -0.010  -0.008   1.181
  0.018  -0.012  -0.001 -10.728   0.008  -0.015   0.010   0.001
  0.000  -0.018   0.022   0.008 -10.707  -0.000   0.015  -0.016
  1.165  -0.009  -0.010  -0.015  -0.000   6.189   0.006   0.009
 -0.009   1.167  -0.008   0.010   0.015   0.006   6.189   0.007
 -0.010  -0.008   1.181   0.001  -0.016   0.009   0.007   6.177
 -0.015   0.010   0.001   1.178  -0.006   0.012  -0.008  -0.001
 -0.000   0.015  -0.016  -0.006   1.162  -0.000  -0.012   0.014
  0.005  -0.007   0.002  -0.002   0.003  -0.003   0.005  -0.002
  0.009  -0.013   0.003  -0.003   0.006  -0.005   0.009  -0.003
 -0.006   0.010  -0.011   0.000  -0.019   0.005  -0.007   0.008
  0.000   0.019   0.011  -0.007   0.000  -0.000  -0.011  -0.010
  0.019   0.000   0.002   0.010  -0.005  -0.012  -0.000  -0.002
 -0.006   0.010  -0.012   0.001  -0.021   0.005  -0.008   0.008
  0.001   0.020   0.012  -0.008   0.001  -0.001  -0.011  -0.011
  0.021   0.001   0.002   0.012  -0.006  -0.012  -0.001  -0.002
 pseudopotential strength for first ion, spin component:           2
-10.713   0.010   0.012   0.019   0.000   1.166  -0.007  -0.010
  0.010 -10.715   0.011  -0.014  -0.019  -0.007   1.167  -0.009
  0.012   0.011 -10.737  -0.002   0.022  -0.010  -0.009   1.184
  0.019  -0.014  -0.002 -10.730   0.009  -0.015   0.011   0.001
  0.000  -0.019   0.022   0.009 -10.711  -0.000   0.015  -0.017
  1.166  -0.007  -0.010  -0.015  -0.000   6.187   0.005   0.008
 -0.007   1.167  -0.009   0.011   0.015   0.005   6.187   0.007
 -0.010  -0.009   1.184   0.001  -0.017   0.008   0.007   6.174
 -0.015   0.011   0.001   1.179  -0.007   0.012  -0.008  -0.002
 -0.000   0.015  -0.017  -0.007   1.164  -0.000  -0.012   0.014
  0.005  -0.007   0.002  -0.002   0.003  -0.003   0.004  -0.002
  0.009  -0.013   0.003  -0.003   0.006  -0.005   0.008  -0.003
 -0.007   0.011  -0.010   0.001  -0.018   0.005  -0.008   0.008
  0.001   0.018   0.011  -0.007  -0.000  -0.001  -0.012  -0.009
  0.018   0.001   0.003   0.011  -0.005  -0.012  -0.001  -0.002
 -0.007   0.012  -0.012   0.001  -0.020   0.006  -0.009   0.009
  0.001   0.020   0.012  -0.008  -0.000  -0.001  -0.013  -0.010
  0.020   0.001   0.003   0.012  -0.006  -0.013  -0.001  -0.002
 total augmentation occupancy for first ion, spin component:           1
  1.944   0.006   0.010   0.009  -0.001  -0.011  -0.005  -0.001  -0.004  -0.001  -0.003  -0.007   0.013   0.006  -0.046  -0.008
  0.006   1.942   0.008  -0.004  -0.012  -0.005  -0.011  -0.001   0.007   0.003   0.003   0.007  -0.024  -0.044   0.007   0.014
  0.010   0.008   1.929  -0.011   0.019  -0.001  -0.001  -0.013   0.003  -0.003   0.009   0.003   0.030  -0.049  -0.034  -0.015
  0.009  -0.004  -0.011   1.951   0.000  -0.004   0.006   0.003  -0.025  -0.004  -0.014   0.004   0.004  -0.003  -0.023   0.001
 -0.001  -0.012   0.019   0.000   1.945  -0.000   0.003  -0.003  -0.004  -0.017   0.007   0.005   0.045   0.007   0.035  -0.025
 -0.011  -0.005  -0.001  -0.004  -0.000   0.009  -0.001   0.001   0.001  -0.001   0.017   0.001   0.007  -0.003  -0.015  -0.000
 -0.005  -0.011  -0.001   0.006   0.003  -0.001   0.010   0.001   0.001  -0.001  -0.015  -0.002  -0.012  -0.011  -0.004   0.001
 -0.001  -0.001  -0.013   0.003  -0.003   0.001   0.001   0.012  -0.001   0.002  -0.007  -0.000   0.016  -0.024  -0.007  -0.001
 -0.004   0.007   0.003  -0.025  -0.004   0.001   0.001  -0.001   0.008  -0.003  -0.021   0.004  -0.004   0.010  -0.017   0.000
 -0.001   0.003  -0.003  -0.004  -0.017  -0.001  -0.001   0.002  -0.003   0.011  -0.019   0.002   0.024  -0.005   0.018  -0.001
 -0.003   0.003   0.009  -0.014   0.007   0.017  -0.015  -0.007  -0.021  -0.019   1.670  -0.111  -0.201  -0.140   0.089   0.024
 -0.007   0.007   0.003   0.004   0.005   0.001  -0.002  -0.000   0.004   0.002  -0.111   0.012   0.020   0.021  -0.014  -0.002
  0.013  -0.024   0.030   0.004   0.045   0.007  -0.012   0.016  -0.004   0.024  -0.201   0.020   0.146  -0.027   0.025  -0.010
  0.006  -0.044  -0.049  -0.003   0.007  -0.003  -0.011  -0.024   0.010  -0.005  -0.140   0.021  -0.027   0.122  -0.018  -0.001
 -0.046   0.007  -0.034  -0.023   0.035  -0.015  -0.004  -0.007  -0.017   0.018   0.089  -0.014   0.025  -0.018   0.119  -0.000
 -0.008   0.014  -0.015   0.001  -0.025  -0.000   0.001  -0.001   0.000  -0.001   0.024  -0.002  -0.010  -0.001  -0.000   0.001
  0.001   0.024   0.018  -0.008   0.000   0.000   0.000   0.001  -0.001   0.000   0.019  -0.002  -0.000  -0.008   0.002   0.000
  0.024   0.001   0.006   0.014  -0.010   0.001   0.000   0.000   0.001  -0.001  -0.012   0.001  -0.000   0.002  -0.007  -0.000
 total augmentation occupancy for first ion, spin component:           2
  0.000  -0.001   0.000   0.001   0.000   0.001   0.000  -0.000  -0.000  -0.000  -0.004  -0.001  -0.004   0.002   0.000  -0.000
 -0.001   0.001   0.001  -0.001  -0.001   0.000   0.001  -0.000   0.000   0.000   0.006   0.002   0.005   0.000   0.002   0.000
  0.000   0.001  -0.001  -0.001   0.001  -0.000  -0.000   0.001   0.000   0.000   0.001   0.000   0.001  -0.002   0.000  -0.000
  0.001  -0.001  -0.001   0.000   0.000  -0.000   0.000   0.000   0.000  -0.000  -0.003  -0.001  -0.003   0.001  -0.001  -0.000
  0.000  -0.001   0.001   0.000  -0.000  -0.000   0.000   0.000  -0.000   0.001  -0.003  -0.000  -0.003  -0.000   0.001  -0.000
  0.001   0.000  -0.000  -0.000  -0.000   0.000  -0.000  -0.000   0.000   0.000   0.002   0.000   0.001  -0.000   0.001  -0.000
  0.000   0.001  -0.000   0.000   0.000  -0.000   0.000   0.000  -0.000   0.000  -0.002  -0.000  -0.002   0.001  -0.001   0.000
 -0.000  -0.000   0.001   0.000   0.000  -0.000   0.000  -0.000  -0.000  -0.000  -0.001  -0.000  -0.001   0.000  -0.000  -0.000
 -0.000   0.000   0.000   0.000  -0.000   0.000  -0.000  -0.000   0.000   0.000   0.001   0.000   0.001  -0.000   0.000   0.000
 -0.000   0.000   0.000  -0.000   0.001   0.000   0.000  -0.000   0.000  -0.000  -0.000   0.000   0.000   0.000  -0.000  -0.000
 -0.004   0.006   0.001  -0.003  -0.003   0.002  -0.002  -0.001   0.001  -0.000   0.024   0.001   0.023  -0.006   0.008  -0.000
 -0.001   0.002   0.000  -0.001  -0.000   0.000  -0.000  -0.000   0.000   0.000   0.001   0.000   0.001  -0.000   0.000   0.000
 -0.004   0.005   0.001  -0.003  -0.003   0.001  -0.002  -0.001   0.001   0.000   0.023   0.001   0.014  -0.004   0.005   0.000
  0.002   0.000  -0.002   0.001  -0.000  -0.000   0.001   0.000  -0.000   0.000  -0.006  -0.000  -0.004   0.001  -0.001   0.000
  0.000   0.002   0.000  -0.001   0.001   0.001  -0.001  -0.000   0.000  -0.000   0.008   0.000   0.005  -0.001   0.001  -0.000
 -0.000   0.000  -0.000  -0.000  -0.000  -0.000   0.000  -0.000   0.000  -0.000  -0.000   0.000   0.000   0.000  -0.000   0.000
 -0.000   0.000  -0.000   0.000  -0.000   0.000  -0.000  -0.000   0.000  -0.000   0.000   0.000   0.000  -0.000   0.000   0.000
  0.000  -0.000   0.000   0.000   0.000  -0.000   0.000   0.000   0.000  -0.000  -0.000  -0.000  -0.000   0.000  -0.000   0.000


------------------------ aborting loop because EDIFF is reached ----------------------------------------


    CHARGE:  cpu time    0.05: real time    0.05
    FORLOC:  cpu time    0.01: real time    0.01
    FORNL :  cpu time    0.26: real time    0.26
    STRESS:  cpu time    0.30: real time    0.30
    FORCOR:  cpu time    0.22: real time    0.23
    FORHAR:  cpu time    0.03: real time    0.03
    MIXING:  cpu time    0.01: real time    0.01
    OFIELD:  cpu time    0.00: real time    0.00

  FORCE on cell =-STRESS in cart. coord.  units (eV):
  Direction    XX          YY          ZZ          XY          YZ          ZX
  --------------------------------------------------------------------------------------
  Alpha Z    17.21674    17.21674    17.21674
  Ewald    2955.08630  7552.48910  3536.15551  2042.13357 -1916.64865 -1866.15011
  Hartree  7771.83470 11909.44403  8283.07595  1806.27444 -1694.99089 -1629.67650
  E(xc)    -706.01280  -705.17209  -705.86847     0.46452    -0.43497    -0.47496
  Local  -11800.07502-20532.25077-12892.40763 -3846.36974  3609.16021  3494.10389
  n-local  -267.88374  -264.32430  -267.37345     1.67421    -1.48739    -1.44179
  augment  1031.90307  1029.21214  1031.76086    -1.78402     1.93345     1.35730
  Kinetic   994.44142   989.89089   993.97933    -2.49718     2.55056     2.25954
  Fock        0.00000     0.00000     0.00000     0.00000     0.00000     0.00000
  -------------------------------------------------------------------------------------
  Total      -3.48933    -3.49426    -3.46116    -0.10419     0.08231    -0.02263
  in kB      -1.08769    -1.08923    -1.07891    -0.03248     0.02566    -0.00705
  external pressure =       -1.09 kB  Pullay stress =        0.00 kB


 VOLUME and BASIS-vectors are now :
 -----------------------------------------------------------------------------
  energy-cutoff  :      295.45
  volume of cell :     5139.81
      direct lattice vectors                 reciprocal lattice vectors
    17.257673231  0.000000000  0.000000000     0.057945239  0.000000000  0.000000000
     0.000000000 17.257673231  0.000000000     0.000000000  0.057945239  0.000000000
     0.000000000  0.000000000 17.257673231     0.000000000  0.000000000  0.057945239

  length of vectors
    17.257673231 17.257673231 17.257673231     0.057945239  0.057945239  0.057945239


 FORCES acting on ions
    electron-ion (+dipol)            ewald-force                    non-local-force                 convergence-correction
 -----------------------------------------------------------------------------------------------
   0.421E+03 -.956E+03 -.665E+03   -.418E+03 0.949E+03 0.662E+03   -.200E+01 0.672E+01 0.345E+01   -.538E-01 -.101E-01 -.720E-02
   -.914E+03 0.357E+02 -.620E+03   0.912E+03 -.362E+02 0.619E+03   0.244E+01 0.462E+00 0.910E+00   -.168E+00 0.161E-01 -.130E+00
   -.904E+03 -.844E+03 -.184E+03   0.897E+03 0.840E+03 0.181E+03   0.803E+01 0.471E+01 0.302E+01   -.647E-01 -.611E-01 0.354E-01
   -.769E+03 -.215E+02 0.985E+03   0.765E+03 0.215E+02 -.980E+03   0.407E+01 -.106E-01 -.509E+01   0.107E+00 -.196E-01 -.123E+00
   0.302E+03 -.956E+03 0.749E+03   -.298E+03 0.950E+03 -.743E+03   -.444E+01 0.600E+01 -.639E+01   0.999E-02 -.702E-01 0.224E-01
   -.499E+03 0.876E+03 0.754E+03   0.495E+03 -.870E+03 -.748E+03   0.382E+01 -.516E+01 -.554E+01   -.312E-01 -.129E+00 0.537E-01
   -.577E+03 0.883E+03 -.617E+03   0.572E+03 -.880E+03 0.612E+03   0.502E+01 -.383E+01 0.452E+01   0.130E-01 0.129E+00 0.311E-01
   0.646E+03 -.264E+03 -.867E+03   -.643E+03 0.264E+03 0.863E+03   -.285E+01 -.150E+00 0.356E+01   -.636E-01 0.145E+00 0.907E-01
   0.821E+03 -.130E+03 0.721E+03   -.820E+03 0.129E+03 -.719E+03   -.139E+01 0.753E+00 -.192E+01   0.197E+00 -.586E-01 0.583E-01
   0.839E+03 0.748E+03 0.481E+03   -.833E+03 -.746E+03 -.477E+03   -.612E+01 -.261E+01 -.389E+01   -.186E-01 0.102E+00 -.159E-02
   0.634E+03 0.628E+03 -.737E+03   -.627E+03 -.622E+03 0.730E+03   -.646E+01 -.585E+01 0.748E+01   0.852E-01 -.409E-01 -.515E-01
 -----------------------------------------------------------------------------------------------
   -.147E+00 -.992E+00 -.627E-01   0.909E-12 -.114E-12 0.114E-12   0.121E+00 0.102E+01 0.112E+00   0.120E-01 0.284E-02 -.212E-01
 
 
 POSITION                                       TOTAL-FORCE (eV/Angst)
 -----------------------------------------------------------------------------------
      9.22722     11.58717     10.31099        -0.004509      0.012994      0.003114
     10.80284      9.73368     10.15516        -0.003323     -0.004639     -0.006961
     11.45702     11.98466      9.42004         0.010325      0.000059      0.004042
     11.07131     10.24561      7.75947        -0.016791     -0.029347      0.017783
      9.57613     12.14733      7.96993        -0.005676      0.001497     -0.012914
     10.31666      8.04005      8.45027         0.011758      0.002312     -0.007445
      9.96476      7.49474     10.79305        -0.004101      0.010056     -0.002606
      8.46732      9.42842     11.01897         0.007622     -0.002345     -0.003168
      8.77243      9.92090      8.58512        -0.003928     -0.007286      0.000518
      8.08094      7.66739      9.33456         0.006506      0.013984      0.005254
      7.73838      7.22506     11.67744         0.002117      0.002714      0.002383
 -----------------------------------------------------------------------------------
    total drift:                               -0.014125      0.028490      0.028109


--------------------------------------------------------------------------------------------------------



  FREE ENERGIE OF THE ION-ELECTRON SYSTEM (eV)
  ---------------------------------------------------
  free  energy   TOTEN  =       -26.80049120 eV

  energy  without entropy=      -26.80049120  energy(sigma->0) =      -26.80049120
 
 d Force = 0.1188465E-04[-0.190E-04, 0.428E-04]  d Energy = 0.7727581E-04-0.654E-04
 d Force =-0.2465349E+01[-0.246E+01,-0.247E+01]  d Ewald  =-0.2465349E+01 0.716E-07


--------------------------------------------------------------------------------------------------------


    POTLOK:  cpu time    0.24: real time    0.24


--------------------------------------------------------------------------------------------------------




--------------------------------------------------------------------------------------------------------


  
 reached required accuracy - stopping structural energy minimisation
     LOOP+:  cpu time    3.13: real time    3.15
    4ORBIT:  cpu time    0.00: real time    0.00

 total amount of memory used by VASP on root node    53794. kBytes
========================================================================

   base      :      30000. kBytes
   nonl-proj :       1180. kBytes
   fftplans  :       5761. kBytes
   grid      :      14451. kBytes
   one-center:         31. kBytes
   wavefun   :       2371. kBytes
 
  
  
 General timing and accounting informations for this job:
 ========================================================
  
                  Total CPU time used (sec):      137.881
                            User time (sec):      135.460
                          System time (sec):        2.420
                         Elapsed time (sec):      166.971
  
                   Maximum memory used (kb):       61004.
                   Average memory used (kb):           0.
  
                          Minor page faults:       415126
                          Major page faults:            0
                 Voluntary context switches:         4886
