  51  51   0   0
  0.2492520E+03  0.2333832E-08  0.2333832E-08  0.2333832E-08  0.1000000E-15
  1.000000000000000E-004
  CAR 
 unknown system                          
      2.19668780    -10.27687059  301     -3.27088863      1.00000000
    -10.277  0.0000E+00  0.0000E+00  0.0000E+00  0.0000E+00
    -10.235  0.0000E+00  0.0000E+00  0.0000E+00  0.0000E+00
    -10.194  0.0000E+00  0.0000E+00  0.0000E+00  0.0000E+00
    -10.152  0.0000E+00  0.0000E+00  0.0000E+00  0.0000E+00
    -10.111  0.0000E+00  0.0000E+00  0.0000E+00  0.0000E+00
    -10.069  0.0000E+00  0.0000E+00  0.0000E+00  0.0000E+00
    -10.027  0.0000E+00  0.0000E+00  0.0000E+00  0.0000E+00
     -9.986  0.0000E+00  0.0000E+00  0.0000E+00  0.0000E+00
     -9.944  0.0000E+00  0.0000E+00  0.0000E+00  0.0000E+00
     -9.903  0.0000E+00  0.0000E+00  0.0000E+00  0.0000E+00
     -9.861  0.0000E+00  0.0000E+00  0.0000E+00  0.0000E+00
     -9.820  0.0000E+00  0.0000E+00  0.0000E+00  0.0000E+00
     -9.778  0.0000E+00  0.0000E+00  0.0000E+00  0.0000E+00
     -9.736  0.0000E+00  0.0000E+00  0.0000E+00  0.0000E+00
     -9.695  0.0000E+00  0.0000E+00  0.1000E-02  0.0000E+00
     -9.653  0.0000E+00  0.0000E+00  0.1000E-02  0.1000E-02
     -9.612  0.0000E+00  0.0000E+00  0.1000E-02  0.1000E-02
     -9.570  0.0000E+00  0.0000E+00  0.1000E-02  0.1000E-02
     -9.528  0.0000E+00  0.0000E+00  0.1000E-02  0.1000E-02
     -9.487  0.0000E+00  0.0000E+00  0.1000E-02  0.1000E-02
     -9.445  0.0000E+00  0.0000E+00  0.1000E-02  0.1000E-02
     -9.404  0.0000E+00  0.0000E+00  0.1000E-02  0.1000E-02
     -9.362  0.0000E+00  0.0000E+00  0.1000E-02  0.1000E-02
     -9.321  0.0000E+00  0.0000E+00  0.1000E-02  0.1000E-02
     -9.279  0.0000E+00  0.0000E+00  0.1000E-02  0.1000E-02
     -9.237  0.0000E+00  0.0000E+00  0.1000E-02  0.1000E-02
     -9.196  0.0000E+00  0.0000E+00  0.1000E-02  0.1000E-02
     -9.154  0.0000E+00  0.0000E+00  0.1000E-02  0.1000E-02
     -9.113  0.0000E+00  0.0000E+00  0.2000E-02  0.1000E-02
     -9.071  0.0000E+00  0.0000E+00  0.3000E-02  0.3000E-02
     -9.030  0.0000E+00  0.0000E+00  0.5000E-02  0.4000E-02
     -8.988  0.0000E+00  0.0000E+00  0.6000E-02  0.6000E-02
     -8.946  0.0000E+00  0.0000E+00  0.8000E-02  0.7000E-02
     -8.905  0.0000E+00  0.0000E+00  0.9000E-02  0.9000E-02
     -8.863  0.0000E+00  0.0000E+00  0.1000E-01  0.1000E-01
     -8.822  0.0000E+00  0.0000E+00  0.1200E-01  0.1100E-01
     -8.780  0.0000E+00  0.0000E+00  0.1400E-01  0.1400E-01
     -8.738  0.0000E+00  0.0000E+00  0.1500E-01  0.1500E-01
     -8.697  0.0000E+00  0.0000E+00  0.1800E-01  0.1700E-01
     -8.655  0.0000E+00  0.2364E-01  0.2200E-01  0.2198E-01
     -8.614  0.0000E+00  0.0000E+00  0.2300E-01  0.2300E-01
     -8.572  0.0000E+00  0.0000E+00  0.2800E-01  0.2700E-01
     -8.531  0.0000E+00  0.0000E+00  0.3100E-01  0.3000E-01
     -8.489  0.0000E+00  0.0000E+00  0.3500E-01  0.3300E-01
     -8.447  0.0000E+00  0.0000E+00  0.3800E-01  0.3800E-01
     -8.406  0.0000E+00  0.0000E+00  0.4100E-01  0.4000E-01
     -8.364  0.0000E+00  0.0000E+00  0.4300E-01  0.4300E-01
     -8.323  0.0000E+00  0.0000E+00  0.4700E-01  0.4600E-01
     -8.281  0.0000E+00  0.6401E-11  0.5000E-01  0.4900E-01
     -8.240  0.4269E-08  0.0000E+00  0.5300E-01  0.5300E-01
     -8.198  0.0000E+00  0.0000E+00  0.5700E-01  0.5600E-01
     -8.156  0.0000E+00  0.2405E-01  0.6000E-01  0.6000E-01
     -8.115  0.0000E+00  0.0000E+00  0.6100E-01  0.6100E-01
     -8.073  0.0000E+00  0.0000E+00  0.6500E-01  0.6500E-01
     -8.032  0.0000E+00  0.0000E+00  0.6900E-01  0.6900E-01
     -7.990  0.0000E+00  0.0000E+00  0.7300E-01  0.7300E-01
     -7.948  0.0000E+00  0.0000E+00  0.7500E-01  0.7500E-01
     -7.907  0.0000E+00  0.0000E+00  0.7900E-01  0.7800E-01
     -7.865  0.2112E-01  0.2403E-01  0.8288E-01  0.8200E-01
     -7.824  0.0000E+00  0.0000E+00  0.8500E-01  0.8500E-01
     -7.782  0.0000E+00  0.0000E+00  0.8900E-01  0.8900E-01
     -7.741  0.0000E+00  0.0000E+00  0.9200E-01  0.9200E-01
     -7.699  0.0000E+00  0.0000E+00  0.9700E-01  0.9600E-01
     -7.657  0.0000E+00  0.0000E+00  0.1000E+00  0.1000E+00
     -7.616  0.0000E+00  0.0000E+00  0.1030E+00  0.1030E+00
     -7.574  0.2443E-04  0.4770E-02  0.1050E+00  0.1042E+00
     -7.533  0.0000E+00  0.0000E+00  0.1090E+00  0.1090E+00
     -7.491  0.0000E+00  0.0000E+00  0.1130E+00  0.1130E+00
     -7.450  0.0000E+00  0.0000E+00  0.1170E+00  0.1160E+00
     -7.408  0.0000E+00  0.0000E+00  0.1200E+00  0.1190E+00
     -7.366  0.0000E+00  0.2405E-01  0.1240E+00  0.1240E+00
     -7.325  0.0000E+00  0.0000E+00  0.1280E+00  0.1270E+00
     -7.283  0.0000E+00  0.0000E+00  0.1300E+00  0.1300E+00
     -7.242  0.0000E+00  0.0000E+00  0.1350E+00  0.1340E+00
     -7.200  0.0000E+00  0.0000E+00  0.1390E+00  0.1390E+00
     -7.158  0.0000E+00  0.0000E+00  0.1410E+00  0.1410E+00
     -7.117  0.0000E+00  0.0000E+00  0.1450E+00  0.1440E+00
     -7.075  0.0000E+00  0.0000E+00  0.1470E+00  0.1470E+00
     -7.034  0.0000E+00  0.0000E+00  0.1510E+00  0.1500E+00
     -6.992  0.5261E-08  0.0000E+00  0.1530E+00  0.1530E+00
     -6.951  0.0000E+00  0.0000E+00  0.1580E+00  0.1580E+00
     -6.909  0.0000E+00  0.0000E+00  0.1620E+00  0.1620E+00
     -6.867  0.0000E+00  0.0000E+00  0.1660E+00  0.1660E+00
     -6.826  0.0000E+00  0.3337E-06  0.1700E+00  0.1690E+00
     -6.784  0.0000E+00  0.0000E+00  0.1750E+00  0.1740E+00
     -6.743  0.0000E+00  0.0000E+00  0.1800E+00  0.1790E+00
     -6.701  0.0000E+00  0.0000E+00  0.1850E+00  0.1850E+00
     -6.660  0.0000E+00  0.2405E-01  0.1900E+00  0.1900E+00
     -6.618  0.0000E+00  0.0000E+00  0.1950E+00  0.1940E+00
     -6.576  0.0000E+00  0.0000E+00  0.2000E+00  0.2000E+00
     -6.535  0.3080E-05  0.0000E+00  0.2040E+00  0.2040E+00
     -6.493  0.0000E+00  0.0000E+00  0.2100E+00  0.2090E+00
     -6.452  0.0000E+00  0.0000E+00  0.2160E+00  0.2150E+00
     -6.410  0.2405E-01  0.0000E+00  0.2220E+00  0.2200E+00
     -6.368  0.0000E+00  0.0000E+00  0.2280E+00  0.2270E+00
     -6.327  0.0000E+00  0.0000E+00  0.2330E+00  0.2320E+00
     -6.285  0.0000E+00  0.0000E+00  0.2370E+00  0.2360E+00
     -6.244  0.0000E+00  0.0000E+00  0.2410E+00  0.2410E+00
     -6.202  0.0000E+00  0.0000E+00  0.2450E+00  0.2440E+00
     -6.161  0.0000E+00  0.0000E+00  0.2490E+00  0.2480E+00
     -6.119  0.0000E+00  0.0000E+00  0.2520E+00  0.2510E+00
     -6.077  0.2405E-01  0.0000E+00  0.2550E+00  0.2540E+00
     -6.036  0.0000E+00  0.0000E+00  0.2580E+00  0.2580E+00
     -5.994  0.0000E+00  0.0000E+00  0.2600E+00  0.2590E+00
     -5.953  0.0000E+00  0.0000E+00  0.2620E+00  0.2620E+00
     -5.911  0.0000E+00  0.0000E+00  0.2620E+00  0.2620E+00
     -5.870  0.0000E+00  0.0000E+00  0.2630E+00  0.2630E+00
     -5.828  0.0000E+00  0.0000E+00  0.2630E+00  0.2630E+00
     -5.786  0.0000E+00  0.0000E+00  0.2640E+00  0.2640E+00
     -5.745  0.0000E+00  0.0000E+00  0.2640E+00  0.2640E+00
     -5.703  0.0000E+00  0.0000E+00  0.2640E+00  0.2640E+00
     -5.662  0.0000E+00  0.0000E+00  0.2640E+00  0.2640E+00
     -5.620  0.0000E+00  0.0000E+00  0.2640E+00  0.2640E+00
     -5.578  0.0000E+00  0.0000E+00  0.2640E+00  0.2640E+00
     -5.537  0.0000E+00  0.0000E+00  0.2640E+00  0.2640E+00
     -5.495  0.0000E+00  0.0000E+00  0.2640E+00  0.2640E+00
     -5.454  0.0000E+00  0.0000E+00  0.2650E+00  0.2640E+00
     -5.412  0.0000E+00  0.0000E+00  0.2650E+00  0.2650E+00
     -5.371  0.0000E+00  0.0000E+00  0.2650E+00  0.2650E+00
     -5.329  0.0000E+00  0.0000E+00  0.2650E+00  0.2650E+00
     -5.287  0.0000E+00  0.0000E+00  0.2650E+00  0.2650E+00
     -5.246  0.0000E+00  0.0000E+00  0.2660E+00  0.2650E+00
     -5.204  0.0000E+00  0.0000E+00  0.2670E+00  0.2670E+00
     -5.163  0.0000E+00  0.0000E+00  0.2670E+00  0.2670E+00
     -5.121  0.0000E+00  0.0000E+00  0.2670E+00  0.2670E+00
     -5.080  0.0000E+00  0.0000E+00  0.2670E+00  0.2670E+00
     -5.038  0.0000E+00  0.0000E+00  0.2680E+00  0.2670E+00
     -4.996  0.0000E+00  0.0000E+00  0.2680E+00  0.2680E+00
     -4.955  0.0000E+00  0.0000E+00  0.2690E+00  0.2690E+00
     -4.913  0.0000E+00  0.0000E+00  0.2690E+00  0.2690E+00
     -4.872  0.0000E+00  0.0000E+00  0.2690E+00  0.2690E+00
     -4.830  0.0000E+00  0.0000E+00  0.2700E+00  0.2690E+00
     -4.789  0.0000E+00  0.0000E+00  0.2700E+00  0.2700E+00
     -4.747  0.0000E+00  0.0000E+00  0.2700E+00  0.2700E+00
     -4.705  0.0000E+00  0.0000E+00  0.2700E+00  0.2700E+00
     -4.664  0.0000E+00  0.0000E+00  0.2710E+00  0.2700E+00
     -4.622  0.0000E+00  0.0000E+00  0.2710E+00  0.2710E+00
     -4.581  0.0000E+00  0.0000E+00  0.2710E+00  0.2710E+00
     -4.539  0.0000E+00  0.0000E+00  0.2710E+00  0.2710E+00
     -4.497  0.0000E+00  0.0000E+00  0.2720E+00  0.2710E+00
     -4.456  0.0000E+00  0.0000E+00  0.2720E+00  0.2720E+00
     -4.414  0.0000E+00  0.0000E+00  0.2720E+00  0.2720E+00
     -4.373  0.0000E+00  0.0000E+00  0.2730E+00  0.2730E+00
     -4.331  0.0000E+00  0.0000E+00  0.2730E+00  0.2730E+00
     -4.290  0.0000E+00  0.0000E+00  0.2730E+00  0.2730E+00
     -4.248  0.0000E+00  0.0000E+00  0.2730E+00  0.2730E+00
     -4.206  0.0000E+00  0.0000E+00  0.2730E+00  0.2730E+00
     -4.165  0.0000E+00  0.0000E+00  0.2730E+00  0.2730E+00
     -4.123  0.0000E+00  0.0000E+00  0.2730E+00  0.2730E+00
     -4.082  0.0000E+00  0.0000E+00  0.2730E+00  0.2730E+00
     -4.040  0.0000E+00  0.0000E+00  0.2730E+00  0.2730E+00
     -3.999  0.0000E+00  0.0000E+00  0.2740E+00  0.2740E+00
     -3.957  0.0000E+00  0.0000E+00  0.2740E+00  0.2740E+00
     -3.915  0.0000E+00  0.0000E+00  0.2740E+00  0.2740E+00
     -3.874  0.0000E+00  0.0000E+00  0.2740E+00  0.2740E+00
     -3.832  0.0000E+00  0.0000E+00  0.2750E+00  0.2740E+00
     -3.791  0.0000E+00  0.0000E+00  0.2750E+00  0.2750E+00
     -3.749  0.0000E+00  0.0000E+00  0.2760E+00  0.2760E+00
     -3.707  0.0000E+00  0.0000E+00  0.2760E+00  0.2760E+00
     -3.666  0.0000E+00  0.0000E+00  0.2770E+00  0.2760E+00
     -3.624  0.0000E+00  0.0000E+00  0.2770E+00  0.2770E+00
     -3.583  0.0000E+00  0.0000E+00  0.2780E+00  0.2770E+00
     -3.541  0.0000E+00  0.0000E+00  0.2790E+00  0.2790E+00
     -3.500  0.0000E+00  0.0000E+00  0.2790E+00  0.2790E+00
     -3.458  0.0000E+00  0.0000E+00  0.2790E+00  0.2790E+00
     -3.416  0.0000E+00  0.0000E+00  0.2800E+00  0.2800E+00
     -3.375  0.0000E+00  0.0000E+00  0.2800E+00  0.2800E+00
     -3.333  0.0000E+00  0.0000E+00  0.2800E+00  0.2800E+00
     -3.292  0.0000E+00  0.0000E+00  0.2800E+00  0.2800E+00
     -3.250  0.0000E+00  0.0000E+00  0.2810E+00  0.2800E+00
     -3.209  0.0000E+00  0.0000E+00  0.2810E+00  0.2810E+00
     -3.167  0.0000E+00  0.0000E+00  0.2820E+00  0.2810E+00
     -3.125  0.0000E+00  0.0000E+00  0.2820E+00  0.2820E+00
     -3.084  0.0000E+00  0.0000E+00  0.2820E+00  0.2820E+00
     -3.042  0.0000E+00  0.0000E+00  0.2830E+00  0.2820E+00
     -3.001  0.0000E+00  0.0000E+00  0.2830E+00  0.2830E+00
     -2.959  0.0000E+00  0.0000E+00  0.2830E+00  0.2830E+00
     -2.917  0.0000E+00  0.0000E+00  0.2830E+00  0.2830E+00
     -2.876  0.0000E+00  0.0000E+00  0.2830E+00  0.2830E+00
     -2.834  0.0000E+00  0.0000E+00  0.2840E+00  0.2830E+00
     -2.793  0.0000E+00  0.0000E+00  0.2840E+00  0.2840E+00
     -2.751  0.0000E+00  0.0000E+00  0.2840E+00  0.2840E+00
     -2.710  0.0000E+00  0.0000E+00  0.2850E+00  0.2850E+00
     -2.668  0.0000E+00  0.0000E+00  0.2860E+00  0.2860E+00
     -2.626  0.0000E+00  0.0000E+00  0.2860E+00  0.2860E+00
     -2.585  0.0000E+00  0.0000E+00  0.2860E+00  0.2860E+00
     -2.543  0.0000E+00  0.0000E+00  0.2860E+00  0.2860E+00
     -2.502  0.0000E+00  0.0000E+00  0.2870E+00  0.2860E+00
     -2.460  0.0000E+00  0.0000E+00  0.2870E+00  0.2870E+00
     -2.419  0.0000E+00  0.0000E+00  0.2870E+00  0.2870E+00
     -2.377  0.0000E+00  0.0000E+00  0.2880E+00  0.2880E+00
     -2.335  0.0000E+00  0.0000E+00  0.2890E+00  0.2890E+00
     -2.294  0.0000E+00  0.0000E+00  0.2890E+00  0.2890E+00
     -2.252  0.0000E+00  0.0000E+00  0.2890E+00  0.2890E+00
     -2.211  0.0000E+00  0.0000E+00  0.2900E+00  0.2900E+00
     -2.169  0.0000E+00  0.0000E+00  0.2910E+00  0.2910E+00
     -2.127  0.0000E+00  0.0000E+00  0.2910E+00  0.2910E+00
     -2.086  0.0000E+00  0.0000E+00  0.2910E+00  0.2910E+00
     -2.044  0.0000E+00  0.0000E+00  0.2920E+00  0.2920E+00
     -2.003  0.0000E+00  0.0000E+00  0.2930E+00  0.2930E+00
     -1.961  0.0000E+00  0.0000E+00  0.2930E+00  0.2930E+00
     -1.920  0.0000E+00  0.0000E+00  0.2930E+00  0.2930E+00
     -1.878  0.0000E+00  0.0000E+00  0.2930E+00  0.2930E+00
     -1.836  0.0000E+00  0.0000E+00  0.2950E+00  0.2940E+00
     -1.795  0.0000E+00  0.0000E+00  0.2950E+00  0.2950E+00
     -1.753  0.0000E+00  0.0000E+00  0.2950E+00  0.2950E+00
     -1.712  0.0000E+00  0.0000E+00  0.2970E+00  0.2970E+00
     -1.670  0.0000E+00  0.0000E+00  0.2980E+00  0.2970E+00
     -1.629  0.0000E+00  0.0000E+00  0.2980E+00  0.2980E+00
     -1.587  0.0000E+00  0.0000E+00  0.2990E+00  0.2980E+00
     -1.545  0.0000E+00  0.0000E+00  0.2990E+00  0.2990E+00
     -1.504  0.0000E+00  0.0000E+00  0.2990E+00  0.2990E+00
     -1.462  0.0000E+00  0.0000E+00  0.2990E+00  0.2990E+00
     -1.421  0.0000E+00  0.0000E+00  0.3000E+00  0.2990E+00
     -1.379  0.0000E+00  0.0000E+00  0.3000E+00  0.3000E+00
     -1.337  0.0000E+00  0.0000E+00  0.3000E+00  0.3000E+00
     -1.296  0.0000E+00  0.0000E+00  0.3010E+00  0.3000E+00
     -1.254  0.0000E+00  0.0000E+00  0.3030E+00  0.3010E+00
     -1.213  0.0000E+00  0.0000E+00  0.3030E+00  0.3030E+00
     -1.171  0.0000E+00  0.0000E+00  0.3040E+00  0.3030E+00
     -1.130  0.0000E+00  0.0000E+00  0.3040E+00  0.3040E+00
     -1.088  0.0000E+00  0.0000E+00  0.3040E+00  0.3040E+00
     -1.046  0.0000E+00  0.0000E+00  0.3040E+00  0.3040E+00
     -1.005  0.0000E+00  0.0000E+00  0.3040E+00  0.3040E+00
     -0.963  0.0000E+00  0.0000E+00  0.3040E+00  0.3040E+00
     -0.922  0.0000E+00  0.0000E+00  0.3060E+00  0.3060E+00
     -0.880  0.0000E+00  0.0000E+00  0.3060E+00  0.3060E+00
     -0.839  0.0000E+00  0.0000E+00  0.3060E+00  0.3060E+00
     -0.797  0.0000E+00  0.0000E+00  0.3070E+00  0.3060E+00
     -0.755  0.0000E+00  0.0000E+00  0.3070E+00  0.3070E+00
     -0.714  0.0000E+00  0.0000E+00  0.3080E+00  0.3070E+00
     -0.672  0.0000E+00  0.0000E+00  0.3080E+00  0.3080E+00
     -0.631  0.2338E-01  0.0000E+00  0.3100E+00  0.3090E+00
     -0.589  0.0000E+00  0.0000E+00  0.3100E+00  0.3100E+00
     -0.547  0.0000E+00  0.0000E+00  0.3110E+00  0.3100E+00
     -0.506  0.0000E+00  0.0000E+00  0.3110E+00  0.3110E+00
     -0.464  0.0000E+00  0.0000E+00  0.3120E+00  0.3120E+00
     -0.423  0.0000E+00  0.0000E+00  0.3120E+00  0.3120E+00
     -0.381  0.0000E+00  0.0000E+00  0.3120E+00  0.3120E+00
     -0.340  0.0000E+00  0.0000E+00  0.3130E+00  0.3130E+00
     -0.298  0.0000E+00  0.0000E+00  0.3130E+00  0.3130E+00
     -0.256  0.0000E+00  0.0000E+00  0.3140E+00  0.3130E+00
     -0.215  0.0000E+00  0.0000E+00  0.3140E+00  0.3140E+00
     -0.173  0.0000E+00  0.0000E+00  0.3150E+00  0.3150E+00
     -0.132  0.0000E+00  0.2405E-01  0.3160E+00  0.3160E+00
     -0.090  0.0000E+00  0.0000E+00  0.3170E+00  0.3160E+00
     -0.049  0.0000E+00  0.0000E+00  0.3170E+00  0.3170E+00
     -0.007  0.0000E+00  0.0000E+00  0.3170E+00  0.3170E+00
      0.035  0.0000E+00  0.0000E+00  0.3180E+00  0.3170E+00
      0.076  0.0000E+00  0.0000E+00  0.3190E+00  0.3190E+00
      0.118  0.0000E+00  0.0000E+00  0.3200E+00  0.3190E+00
      0.159  0.0000E+00  0.0000E+00  0.3210E+00  0.3210E+00
      0.201  0.0000E+00  0.0000E+00  0.3210E+00  0.3210E+00
      0.242  0.0000E+00  0.0000E+00  0.3220E+00  0.3210E+00
      0.284  0.0000E+00  0.0000E+00  0.3230E+00  0.3220E+00
      0.326  0.0000E+00  0.0000E+00  0.3230E+00  0.3230E+00
      0.367  0.0000E+00  0.0000E+00  0.3240E+00  0.3230E+00
      0.409  0.0000E+00  0.0000E+00  0.3250E+00  0.3240E+00
      0.450  0.0000E+00  0.0000E+00  0.3250E+00  0.3250E+00
      0.492  0.0000E+00  0.0000E+00  0.3250E+00  0.3250E+00
      0.534  0.0000E+00  0.0000E+00  0.3260E+00  0.3260E+00
      0.575  0.0000E+00  0.0000E+00  0.3270E+00  0.3270E+00
      0.617  0.0000E+00  0.0000E+00  0.3280E+00  0.3280E+00
      0.658  0.0000E+00  0.0000E+00  0.3290E+00  0.3280E+00
      0.700  0.0000E+00  0.0000E+00  0.3300E+00  0.3290E+00
      0.741  0.0000E+00  0.0000E+00  0.3300E+00  0.3300E+00
      0.783  0.0000E+00  0.0000E+00  0.3310E+00  0.3310E+00
      0.825  0.0000E+00  0.0000E+00  0.3310E+00  0.3310E+00
      0.866  0.0000E+00  0.2395E-01  0.3320E+00  0.3320E+00
      0.908  0.0000E+00  0.0000E+00  0.3340E+00  0.3330E+00
      0.949  0.0000E+00  0.0000E+00  0.3350E+00  0.3350E+00
      0.991  0.0000E+00  0.0000E+00  0.3360E+00  0.3360E+00
      1.032  0.0000E+00  0.0000E+00  0.3380E+00  0.3370E+00
      1.074  0.0000E+00  0.0000E+00  0.3390E+00  0.3390E+00
      1.116  0.0000E+00  0.0000E+00  0.3420E+00  0.3410E+00
      1.157  0.0000E+00  0.0000E+00  0.3430E+00  0.3430E+00
      1.199  0.0000E+00  0.0000E+00  0.3450E+00  0.3450E+00
      1.240  0.0000E+00  0.1943E-11  0.3470E+00  0.3460E+00
      1.282  0.0000E+00  0.0000E+00  0.3490E+00  0.3480E+00
      1.324  0.0000E+00  0.0000E+00  0.3500E+00  0.3500E+00
      1.365  0.1756E-08  0.0000E+00  0.3510E+00  0.3500E+00
      1.407  0.0000E+00  0.0000E+00  0.3530E+00  0.3540E+00
      1.448  0.0000E+00  0.0000E+00  0.3570E+00  0.3570E+00
      1.490  0.0000E+00  0.0000E+00  0.3590E+00  0.3580E+00
      1.531  0.0000E+00  0.0000E+00  0.3600E+00  0.3590E+00
      1.573  0.0000E+00  0.0000E+00  0.3620E+00  0.3620E+00
      1.615  0.0000E+00  0.0000E+00  0.3630E+00  0.3630E+00
      1.656  0.0000E+00  0.0000E+00  0.3640E+00  0.3640E+00
      1.698  0.0000E+00  0.0000E+00  0.3640E+00  0.3640E+00
      1.739  0.0000E+00  0.0000E+00  0.3640E+00  0.3640E+00
      1.781  0.0000E+00  0.0000E+00  0.3640E+00  0.3640E+00
      1.822  0.0000E+00  0.0000E+00  0.3640E+00  0.3640E+00
      1.864  0.0000E+00  0.0000E+00  0.3640E+00  0.3640E+00
      1.906  0.0000E+00  0.0000E+00  0.3640E+00  0.3640E+00
      1.947  0.0000E+00  0.0000E+00  0.3640E+00  0.3640E+00
      1.989  0.0000E+00  0.0000E+00  0.3640E+00  0.3640E+00
      2.030  0.0000E+00  0.0000E+00  0.3640E+00  0.3640E+00
      2.072  0.0000E+00  0.0000E+00  0.3640E+00  0.3640E+00
      2.114  0.0000E+00  0.0000E+00  0.3640E+00  0.3640E+00
      2.155  0.0000E+00  0.0000E+00  0.3640E+00  0.3640E+00
      2.197  0.0000E+00  0.0000E+00  0.3640E+00  0.3640E+00
