 running on   32 total cores
 distrk:  each k-point on   32 cores,    1 groups
 distr:  one band on    8 cores,    4 groups
 using from now: INCAR     
 vasp.5.3.5 31Mar14 (build Feb 01 2018 12:10:03) gamma-only                     
  
 POSCAR found type information on POSCAR  Ag
 POSCAR found :  1 types and      14 ions
 scaLAPACK will be used
 LDA part: xc-table for Pade appr. of Perdew
 POSCAR, INCAR and KPOINTS ok, starting setup
 WARNING: small aliasing (wrap around) errors must be expected
 FFT: planning ...
 WAVECAR not read
 entering main loop
       N       E                     dE             d eps       ncg     rms          rms(c)
DAV:   1     0.137495629827E+04    0.13750E+04   -0.24693E+04   400   0.559E+02
DAV:   2     0.448914962198E+03   -0.92604E+03   -0.82257E+03   736   0.114E+02
DAV:   3     0.167613000471E+02   -0.43215E+03   -0.39602E+03   552   0.917E+01
DAV:   4    -0.230739524974E+02   -0.39835E+02   -0.38985E+02   456   0.308E+01
DAV:   5    -0.238550866800E+02   -0.78113E+00   -0.77958E+00   448   0.493E+00    0.211E+01
DAV:   6    -0.583897653539E+01    0.18016E+02   -0.53617E+01   408   0.151E+01    0.106E+01
DAV:   7    -0.194582965776E+01    0.38931E+01   -0.29902E+00   432   0.462E+00    0.601E+00
DAV:   8    -0.523512725510E+01   -0.32893E+01   -0.15512E+00   444   0.281E+00    0.294E+00
DAV:   9    -0.895315692619E+01   -0.37180E+01   -0.10404E+00   456   0.203E+00    0.264E+00
DAV:  10    -0.886819970584E+01    0.84957E-01   -0.18868E-02   448   0.337E-01    0.260E+00
DAV:  11    -0.896075576219E+01   -0.92556E-01   -0.48263E-03   440   0.195E-01    0.256E+00
DAV:  12    -0.129626800673E+02   -0.40019E+01   -0.16626E+00   400   0.302E+00    0.200E+00
DAV:  13    -0.177898199980E+02   -0.48271E+01   -0.24457E+00   432   0.297E+00    0.146E+00
DAV:  14    -0.201767425381E+02   -0.23869E+01   -0.63867E-01   416   0.124E+00    0.725E-01
DAV:  15    -0.221123085178E+02   -0.19356E+01   -0.46222E-01   400   0.979E-01    0.358E-01
DAV:  16    -0.228107863726E+02   -0.69848E+00   -0.10114E-01   424   0.476E-01    0.253E-01
DAV:  17    -0.232510266846E+02   -0.44024E+00   -0.29534E-02   416   0.274E-01    0.203E-01
DAV:  18    -0.235049158052E+02   -0.25389E+00   -0.11212E-02   416   0.179E-01    0.806E-02
DAV:  19    -0.235644828341E+02   -0.59567E-01   -0.29266E-03   416   0.100E-01    0.413E-02
DAV:  20    -0.235879233150E+02   -0.23440E-01   -0.12679E-03   340   0.507E-02    0.302E-02
DAV:  21    -0.235966418089E+02   -0.87185E-02   -0.59477E-04   296   0.354E-02    0.273E-02
DAV:  22    -0.235968731418E+02   -0.23133E-03   -0.23915E-04   296   0.240E-02    0.109E-02
DAV:  23    -0.235982979358E+02   -0.14248E-02   -0.14432E-04   268   0.267E-02    0.117E-02
DAV:  24    -0.235993216446E+02   -0.10237E-02   -0.58692E-05   296   0.123E-02    0.884E-03
DAV:  25    -0.236000487259E+02   -0.72708E-03   -0.30514E-05   280   0.133E-02    0.407E-03
DAV:  26    -0.236001896395E+02   -0.14091E-03   -0.60890E-06   272   0.551E-03    0.265E-03
DAV:  27    -0.236002167582E+02   -0.27119E-04   -0.31929E-06   264   0.335E-03
   1 F= -.23600217E+02 E0= -.23600217E+02  d E =-.236002E+02  mag=     1.9991
 curvature:   0.00 expect dE= 0.000E+00 dE for cont linesearch  0.000E+00
 trial: gam= 0.00000 g(F)=  0.625E-01 g(S)=  0.000E+00 ort = 0.000E+00 (trialstep = 0.100E+01)
 search vector abs. value=  0.625E-01
 bond charge predicted
       N       E                     dE             d eps       ncg     rms          rms(c)
DAV:   1    -0.236579518060E+02   -0.57762E-01   -0.42243E+00   424   0.557E+00    0.228E-01
DAV:   2    -0.236599729079E+02   -0.20211E-02   -0.20468E-02   420   0.535E-01    0.159E-01
DAV:   3    -0.236599365622E+02    0.36346E-04   -0.48047E-04   424   0.762E-02
   2 F= -.23659937E+02 E0= -.23659937E+02  d E =-.597198E-01  mag=     1.9996
 ZBRENT: can't locate minimum, use default step
 trial-energy change:   -0.059720  1 .order   -0.059574   -0.062477   -0.056670
 step:   4.0000(harm= 10.7605)  dis= 0.02301  next Energy=   -23.936356 (dE=-0.336E+00)
 bond charge predicted
       N       E                     dE             d eps       ncg     rms          rms(c)
DAV:   1    -0.237899718124E+02   -0.13000E+00   -0.38101E+01   400   0.168E+01    0.625E-01
DAV:   2    -0.238077157592E+02   -0.17744E-01   -0.18375E-01   432   0.161E+00    0.459E-01
DAV:   3    -0.238073318858E+02    0.38387E-03   -0.37589E-03   416   0.218E-01    0.243E-01
DAV:   4    -0.238071923661E+02    0.13952E-03   -0.10376E-03   432   0.108E-01    0.349E-02
DAV:   5    -0.238072175183E+02   -0.25152E-04   -0.81601E-05   276   0.319E-02
   3 F= -.23807218E+02 E0= -.23807218E+02  d E =-.207001E+00  mag=     1.9999
 curvature:  -2.80 expect dE=-0.802E-01 dE for cont linesearch -0.783E-01
 ZBRENT: increasing intervall
 opt :  10.0000  next Energy=   -23.968717 (dE=-0.369E+00)
 bond charge predicted
       N       E                     dE             d eps       ncg     rms          rms(c)
DAV:   1    -0.239082000868E+02   -0.10101E+00   -0.15303E+02   400   0.337E+01    0.105E+00
DAV:   2    -0.239788234887E+02   -0.70623E-01   -0.72739E-01   416   0.324E+00    0.855E-01
DAV:   3    -0.239779614979E+02    0.86199E-03   -0.12486E-02   412   0.408E-01    0.548E-01
DAV:   4    -0.239770877852E+02    0.87371E-03   -0.62062E-03   412   0.233E-01    0.928E-02
DAV:   5    -0.239771881697E+02   -0.10038E-03   -0.24275E-04   288   0.625E-02    0.407E-02
DAV:   6    -0.239772532728E+02   -0.65103E-04   -0.13746E-04   264   0.315E-02
   4 F= -.23977253E+02 E0= -.23977253E+02  d E =-.377037E+00  mag=     2.0000
 curvature:  -5.78 expect dE=-0.409E-01 dE for cont linesearch -0.237E-01
 ZBRENT: increasing intervall
 opt :  22.0000  next Energy=   -23.859623 (dE=-0.259E+00)
 bond charge predicted
       N       E                     dE             d eps       ncg     rms          rms(c)
DAV:   1    -0.236492106057E+02    0.32798E+00   -0.62371E+02   400   0.693E+01    0.157E+00
DAV:   2    -0.239404872547E+02   -0.29128E+00   -0.29899E+00   416   0.680E+00    0.157E+00
DAV:   3    -0.239414504433E+02   -0.96319E-03   -0.46430E-02   424   0.795E-01    0.118E+00
DAV:   4    -0.239359423466E+02    0.55081E-02   -0.20001E-02   412   0.414E-01    0.539E-01
DAV:   5    -0.239366155384E+02   -0.67319E-03   -0.29767E-03   432   0.180E-01    0.154E-01
DAV:   6    -0.239366643920E+02   -0.48854E-04   -0.37415E-04   336   0.536E-02
   5 F= -.23936664E+02 E0= -.23936664E+02  d E =-.336448E+00  mag=     2.0000
 curvature:  28.72 expect dE= 0.395E+00 dE for cont linesearch  0.183E+00
 ZBRENT: bracketing found
 ZBRENT: interpolating
 opt :  15.3424  next Energy=   -24.019980 (dE=-0.420E+00)
 bond charge predicted
       N       E                     dE             d eps       ncg     rms          rms(c)
DAV:   1    -0.239211169418E+02    0.15499E-01   -0.18874E+02   400   0.374E+01    0.113E+00
DAV:   2    -0.240140046780E+02   -0.92888E-01   -0.96404E-01   428   0.365E+00    0.555E-01
DAV:   3    -0.240129503473E+02    0.10543E-02   -0.17616E-02   428   0.450E-01    0.366E-01
DAV:   4    -0.240128908186E+02    0.59529E-04   -0.51117E-03   432   0.217E-01    0.802E-02
DAV:   5    -0.240130198616E+02   -0.12904E-03   -0.31795E-04   320   0.615E-02    0.393E-02
DAV:   6    -0.240131518120E+02   -0.13195E-03   -0.16731E-04   288   0.350E-02    0.155E-02
DAV:   7    -0.240132503653E+02   -0.98553E-04   -0.26119E-05   272   0.161E-02
   6 F= -.24013250E+02 E0= -.24013250E+02  d E =-.413034E+00  mag=     2.0000
 curvature:  -6.72 expect dE=-0.348E-01 dE for cont linesearch -0.417E-03
 trial: gam= 0.11438 g(F)=  0.518E-02 g(S)=  0.000E+00 ort =-0.197E-02 (trialstep = 0.387E+01)
 search vector abs. value=  0.554E-02
 bond charge predicted
       N       E                     dE             d eps       ncg     rms          rms(c)
DAV:   1    -0.240281426579E+02   -0.14991E-01   -0.55807E+00   412   0.640E+00    0.129E-01
DAV:   2    -0.240307836403E+02   -0.26410E-02   -0.26959E-02   432   0.622E-01    0.106E-01
DAV:   3    -0.240307747489E+02    0.88914E-05   -0.45221E-04   440   0.793E-02
   7 F= -.24030775E+02 E0= -.24030775E+02  d E =-.175244E-01  mag=     2.0000
 ZBRENT: can't locate minimum, use default step
 trial-energy change:   -0.017524  1 .order   -0.017353   -0.019156   -0.015549
 step:  15.4739(harm= 20.5462)  dis= 0.03240  next Energy=   -24.064121 (dE=-0.509E-01)
 bond charge predicted
       N       E                     dE             d eps       ncg     rms          rms(c)
DAV:   1    -0.240396000543E+02   -0.88164E-02   -0.50379E+01   416   0.193E+01    0.379E-01
DAV:   2    -0.240630315100E+02   -0.23431E-01   -0.24204E-01   432   0.187E+00    0.324E-01
DAV:   3    -0.240628628150E+02    0.16869E-03   -0.39791E-03   424   0.234E-01    0.224E-01
DAV:   4    -0.240624564708E+02    0.40634E-03   -0.16502E-03   424   0.124E-01    0.862E-02
DAV:   5    -0.240625409506E+02   -0.84480E-04   -0.18787E-04   272   0.500E-02
   8 F= -.24062541E+02 E0= -.24062541E+02  d E =-.492906E-01  mag=     2.0000
 curvature: -10.44 expect dE=-0.261E-01 dE for cont linesearch -0.465E-02
 ZBRENT: increasing intervall
 opt :  38.6847  next Energy=   -24.042236 (dE=-0.290E-01)
 bond charge predicted
       N       E                     dE             d eps       ncg     rms          rms(c)
DAV:   1    -0.239464537554E+02    0.11600E+00   -0.20281E+02   400   0.389E+01    0.712E-01
DAV:   2    -0.240426108546E+02   -0.96157E-01   -0.98360E-01   424   0.380E+00    0.607E-01
DAV:   3    -0.240423980494E+02    0.21281E-03   -0.15955E-02   428   0.473E-01    0.421E-01
DAV:   4    -0.240408842754E+02    0.15138E-02   -0.48068E-03   412   0.212E-01    0.205E-01
DAV:   5    -0.240411655624E+02   -0.28129E-03   -0.13580E-03   424   0.112E-01    0.628E-02
DAV:   6    -0.240412433525E+02   -0.77790E-04   -0.78470E-05   280   0.250E-02
   9 F= -.24041243E+02 E0= -.24041243E+02  d E =-.279930E-01  mag=     2.0000
 curvature:  45.53 expect dE= 0.523E+00 dE for cont linesearch  0.839E-01
 ZBRENT: bracketing found
 ZBRENT: interpolating
 opt :  23.1263  next Energy=   -24.068557 (dE=-0.553E-01)
 bond charge predicted
       N       E                     dE             d eps       ncg     rms          rms(c)
DAV:   1    -0.240249120444E+02    0.16254E-01   -0.90693E+01   400   0.259E+01    0.497E-01
DAV:   2    -0.240684817665E+02   -0.43570E-01   -0.44608E-01   428   0.253E+00    0.373E-01
DAV:   3    -0.240682525598E+02    0.22921E-03   -0.74242E-03   432   0.320E-01    0.249E-01
DAV:   4    -0.240677139926E+02    0.53857E-03   -0.24335E-03   428   0.150E-01    0.101E-01
DAV:   5    -0.240678347683E+02   -0.12078E-03   -0.36220E-04   376   0.653E-02    0.327E-02
DAV:   6    -0.240678745114E+02   -0.39743E-04   -0.40869E-05   264   0.195E-02
  10 F= -.24067875E+02 E0= -.24067875E+02  d E =-.546241E-01  mag=     2.0000
 curvature:  -3.26 expect dE=-0.127E-01 dE for cont linesearch -0.119E-04
 trial: gam= 0.72705 g(F)=  0.388E-02 g(S)=  0.000E+00 ort =-0.142E-03 (trialstep = 0.648E+01)
 search vector abs. value=  0.660E-02
 bond charge predicted
       N       E                     dE             d eps       ncg     rms          rms(c)
DAV:   1    -0.240814385455E+02   -0.13604E-01   -0.18641E+01   412   0.117E+01    0.176E-01
DAV:   2    -0.240903466191E+02   -0.89081E-02   -0.90295E-02   428   0.115E+00    0.152E-01
DAV:   3    -0.240902818299E+02    0.64789E-04   -0.14852E-03   440   0.148E-01    0.107E-01
DAV:   4    -0.240900738692E+02    0.20796E-03   -0.37789E-04   392   0.598E-02    0.576E-02
DAV:   5    -0.240900428665E+02    0.31003E-04   -0.25047E-04   280   0.484E-02
  11 F= -.24090043E+02 E0= -.24090043E+02  d E =-.221684E-01  mag=     2.0000
 ZBRENT: can't locate minimum, use default step
 trial-energy change:   -0.022168  1 .order   -0.022508   -0.024477   -0.020539
 step:  25.9246(harm= 40.2876)  dis= 0.05735  next Energy=   -24.143951 (dE=-0.761E-01)
 bond charge predicted
       N       E                     dE             d eps       ncg     rms          rms(c)
DAV:   1    -0.240456737674E+02    0.44400E-01   -0.16899E+02   400   0.354E+01    0.639E-01
DAV:   2    -0.241281602631E+02   -0.82486E-01   -0.83954E-01   420   0.351E+00    0.467E-01
DAV:   3    -0.241274758058E+02    0.68446E-03   -0.14085E-02   432   0.466E-01    0.305E-01
DAV:   4    -0.241260173144E+02    0.14585E-02   -0.34790E-03   420   0.181E-01    0.152E-01
DAV:   5    -0.241261469048E+02   -0.12959E-03   -0.14140E-03   428   0.111E-01    0.470E-02
DAV:   6    -0.241263052560E+02   -0.15835E-03   -0.58295E-05   280   0.232E-02    0.307E-02
DAV:   7    -0.241265613914E+02   -0.25614E-03   -0.66882E-05   280   0.227E-02    0.961E-03
DAV:   8    -0.241267716055E+02   -0.21021E-03   -0.12208E-05   296   0.989E-03    0.329E-03
DAV:   9    -0.241269015283E+02   -0.12992E-03   -0.41329E-06   280   0.514E-03    0.194E-03
DAV:  10    -0.241270094577E+02   -0.10793E-03   -0.27828E-06   276   0.294E-03    0.124E-03
DAV:  11    -0.241271430943E+02   -0.13364E-03   -0.62610E-06   280   0.306E-03    0.876E-04
DAV:  12    -0.241271921341E+02   -0.49040E-04   -0.17892E-06   296   0.161E-03
  12 F= -.24127192E+02 E0= -.24127192E+02  d E =-.593176E-01  mag=     2.0000
 curvature: -28.87 expect dE=-0.977E-01 dE for cont linesearch -0.214E-02
 ZBRENT: extrapolating
 opt :  31.4393  next Energy=   -24.129123 (dE=-0.612E-01)
 bond charge predicted
       N       E                     dE             d eps       ncg     rms          rms(c)
DAV:   1    -0.241227686705E+02    0.43744E-02   -0.13482E+01   416   0.995E+00    0.161E-01
DAV:   2    -0.241292058164E+02   -0.64371E-02   -0.65535E-02   408   0.979E-01    0.138E-01
DAV:   3    -0.241291609779E+02    0.44839E-04   -0.10953E-03   440   0.129E-01    0.946E-02
DAV:   4    -0.241290002832E+02    0.16069E-03   -0.30131E-04   312   0.542E-02    0.490E-02
DAV:   5    -0.241289937458E+02    0.65374E-05   -0.18682E-04   264   0.446E-02
  13 F= -.24128994E+02 E0= -.24128994E+02  d E =-.611192E-01  mag=     2.0000
 curvature: -26.00 expect dE=-0.128E+00 dE for cont linesearch -0.207E-04
 trial: gam= 1.20221 g(F)=  0.491E-02 g(S)=  0.000E+00 ort = 0.726E-04 (trialstep = 0.518E+01)
 search vector abs. value=  0.146E-01
 bond charge predicted
       N       E                     dE             d eps       ncg     rms          rms(c)
DAV:   1    -0.241403656728E+02   -0.11365E-01   -0.26317E+01   404   0.139E+01    0.185E-01
DAV:   2    -0.241527923998E+02   -0.12427E-01   -0.12630E-01   420   0.135E+00    0.166E-01
DAV:   3    -0.241526894624E+02    0.10294E-03   -0.20349E-03   432   0.174E-01    0.120E-01
DAV:   4    -0.241524029943E+02    0.28647E-03   -0.37956E-04   396   0.579E-02    0.727E-02
DAV:   5    -0.241523529649E+02    0.50029E-04   -0.55348E-04   432   0.676E-02
  14 F= -.24152353E+02 E0= -.24152353E+02  d E =-.233592E-01  mag=     2.0000
 ZBRENT: can't locate minimum, use default step
 trial-energy change:   -0.023359  1 .order   -0.024265   -0.025865   -0.022665
 step:  20.7227(harm= 41.8805)  dis= 0.07686  next Energy=   -24.233539 (dE=-0.105E+00)
 bond charge predicted
       N       E                     dE             d eps       ncg     rms          rms(c)
DAV:   1    -0.240894929201E+02    0.62910E-01   -0.23937E+02   400   0.423E+01    0.677E-01
DAV:   2    -0.242042671829E+02   -0.11477E+00   -0.11633E+00   432   0.414E+00    0.520E-01
DAV:   3    -0.242032364492E+02    0.10307E-02   -0.19016E-02   428   0.541E-01    0.354E-01
DAV:   4    -0.242008959328E+02    0.23405E-02   -0.36337E-03   420   0.178E-01    0.206E-01
DAV:   5    -0.242005822037E+02    0.31373E-03   -0.32210E-03   420   0.161E-01    0.596E-02
DAV:   6    -0.242008018012E+02   -0.21960E-03   -0.62187E-05   296   0.244E-02    0.395E-02
DAV:   7    -0.242011551616E+02   -0.35336E-03   -0.54696E-05   288   0.194E-02    0.140E-02
DAV:   8    -0.242014843025E+02   -0.32914E-03   -0.18332E-05   288   0.114E-02    0.416E-03
DAV:   9    -0.242017170927E+02   -0.23279E-03   -0.58889E-06   296   0.569E-03    0.228E-03
DAV:  10    -0.242018926674E+02   -0.17557E-03   -0.30725E-06   272   0.299E-03    0.153E-03
DAV:  11    -0.242021120259E+02   -0.21936E-03   -0.74529E-06   284   0.319E-03    0.110E-03
DAV:  12    -0.242022306290E+02   -0.11860E-03   -0.39462E-06   280   0.218E-03    0.640E-04
DAV:  13    -0.242022706679E+02   -0.40039E-04   -0.18101E-06   288   0.150E-03
  15 F= -.24202271E+02 E0= -.24202271E+02  d E =-.732769E-01  mag=     2.0000
 curvature: -40.95 expect dE=-0.190E+00 dE for cont linesearch -0.114E-01
 ZBRENT: increasing intervall
 opt :  51.8067  next Energy=   -24.191547 (dE=-0.626E-01)
 bond charge predicted
       N       E                     dE             d eps       ncg     rms          rms(c)
DAV:   1    -0.237195864365E+02    0.48264E+00   -0.99090E+02   400   0.885E+01    0.264E+00
DAV:   2    -0.236452031682E+02    0.74383E-01   -0.58482E+00   420   0.946E+00    0.208E+00
DAV:   3    -0.239780132381E+02   -0.33281E+00   -0.24002E-01   408   0.223E+00    0.145E+00
DAV:   4    -0.238719448601E+02    0.10607E+00   -0.21271E-02   424   0.642E-01    0.101E+00
DAV:   5    -0.240819118079E+02   -0.20997E+00   -0.51605E-02   404   0.878E-01    0.124E+00
DAV:   6    -0.241216993482E+02   -0.39788E-01   -0.17758E-02   428   0.404E-01    0.114E+00
DAV:   7    -0.241162603040E+02    0.54390E-02   -0.22952E-03   424   0.195E-01    0.103E+00
DAV:   8    -0.240979617919E+02    0.18299E-01   -0.24847E-03   416   0.226E-01    0.931E-01
DAV:   9    -0.240932360613E+02    0.47257E-02   -0.38340E-04   336   0.770E-02    0.898E-01
DAV:  10    -0.240958362226E+02   -0.26002E-02   -0.22633E-04   272   0.740E-02    0.857E-01
DAV:  11    -0.241045429672E+02   -0.87067E-02   -0.25865E-02   408   0.869E-01    0.440E-01
DAV:  12    -0.241092272278E+02   -0.46843E-02   -0.92079E-03   440   0.382E-01    0.249E-01
DAV:  13    -0.241410128495E+02   -0.31786E-01   -0.31126E-03   416   0.221E-01    0.139E-01
DAV:  14    -0.241939196473E+02   -0.52907E-01   -0.93742E-03   416   0.321E-01    0.863E-02
DAV:  15    -0.241964948014E+02   -0.25752E-02   -0.51029E-04   360   0.910E-02    0.727E-02
DAV:  16    -0.241963333968E+02    0.16140E-03   -0.36120E-04   284   0.583E-02    0.842E-02
DAV:  17    -0.241985173049E+02   -0.21839E-02   -0.48350E-03   432   0.102E-01    0.972E-02
DAV:  18    -0.242111889335E+02   -0.12672E-01   -0.97267E-04   284   0.972E-02    0.788E-02
DAV:  19    -0.242185440733E+02   -0.73551E-02   -0.64215E-04   312   0.856E-02    0.400E-02
DAV:  20    -0.242232931809E+02   -0.47491E-02   -0.57288E-04   312   0.935E-02    0.321E-02
DAV:  21    -0.242249799903E+02   -0.16868E-02   -0.17018E-04   296   0.281E-02    0.350E-02
DAV:  22    -0.242251468933E+02   -0.16690E-03   -0.55941E-05   284   0.321E-02    0.189E-02
DAV:  23    -0.242250760469E+02    0.70846E-04   -0.58522E-05   296   0.224E-02
  16 F= -.24225076E+02 E0= -.24225076E+02  d E =-.960823E-01  mag=    -0.0011
 curvature:  38.62 expect dE= 0.121E+01 dE for cont linesearch  0.229E-01
 ZBRENT: bracketing found
 ZBRENT: interpolating
 opt :  33.3553  next Energy=   -24.214998 (dE=-0.860E-01)
 bond charge predicted
       N       E                     dE             d eps       ncg     rms          rms(c)
DAV:   1    -0.240829408426E+02    0.14221E+00   -0.33929E+02   400   0.506E+01    0.803E-01
DAV:   2    -0.242481836945E+02   -0.16524E+00   -0.17400E+00   432   0.506E+00    0.800E-01
DAV:   3    -0.242436954198E+02    0.44883E-02   -0.72403E-02   416   0.996E-01    0.519E-01
DAV:   4    -0.242419671060E+02    0.17283E-02   -0.77322E-03   416   0.316E-01    0.436E-01
DAV:   5    -0.242392323722E+02    0.27347E-02   -0.16335E-02   424   0.358E-01    0.161E-01
DAV:   6    -0.242393369879E+02   -0.10462E-03   -0.48114E-03   432   0.137E-01    0.136E-01
DAV:   7    -0.242393322534E+02    0.47346E-05   -0.79760E-04   312   0.338E-02
  17 F= -.24239332E+02 E0= -.24239332E+02  d E =-.110339E+00  mag=    -0.0004
 curvature: -21.49 expect dE=-0.358E+00 dE for cont linesearch -0.195E-02
 ZBRENT: interpolating
 opt :  45.5001  next Energy=   -24.248306 (dE=-0.119E+00)
 bond charge predicted
       N       E                     dE             d eps       ncg     rms          rms(c)
DAV:   1    -0.241741645601E+02    0.65172E-01   -0.14562E+02   400   0.329E+01    0.531E-01
DAV:   2    -0.242431446996E+02   -0.68980E-01   -0.72787E-01   420   0.325E+00    0.471E-01
DAV:   3    -0.242411188064E+02    0.20259E-02   -0.25873E-02   408   0.620E-01    0.313E-01
DAV:   4    -0.242399255187E+02    0.11933E-02   -0.41227E-03   420   0.217E-01    0.246E-01
DAV:   5    -0.242378416661E+02    0.20839E-02   -0.24195E-02   432   0.233E-01    0.157E-01
DAV:   6    -0.242373182278E+02    0.52344E-03   -0.17945E-03   360   0.793E-02    0.159E-01
DAV:   7    -0.242378005614E+02   -0.48233E-03   -0.18470E-03   332   0.100E-01    0.159E-01
DAV:   8    -0.242378554001E+02   -0.54839E-04   -0.15012E-04   288   0.253E-02
  18 F= -.24237855E+02 E0= -.24237855E+02  d E =-.108862E+00  mag=    -0.0002
 curvature: -98.69 expect dE=-0.240E+01 dE for cont linesearch -0.138E-01
 ZBRENT: interpolating
 opt :  38.7754  next Energy=   -24.242457 (dE=-0.113E+00)
 bond charge predicted
       N       E                     dE             d eps       ncg     rms          rms(c)
DAV:   1    -0.242228995473E+02    0.14901E-01   -0.44518E+01   416   0.181E+01    0.371E-01
DAV:   2    -0.242475617071E+02   -0.24662E-01   -0.26412E-01   428   0.191E+00    0.401E-01
DAV:   3    -0.242465199825E+02    0.10417E-02   -0.16096E-02   432   0.463E-01    0.308E-01
DAV:   4    -0.242460873974E+02    0.43259E-03   -0.77330E-04   440   0.854E-02    0.298E-01
DAV:   5    -0.242439751110E+02    0.21123E-02   -0.36855E-03   424   0.183E-01    0.244E-01
DAV:   6    -0.242325697807E+02    0.11405E-01   -0.20214E-02   416   0.554E-01    0.109E-01
DAV:   7    -0.242413308523E+02   -0.87611E-02   -0.35152E-03   416   0.258E-01    0.793E-02
DAV:   8    -0.242429246267E+02   -0.15938E-02   -0.52831E-04   320   0.756E-02    0.439E-02
DAV:   9    -0.242470688424E+02   -0.41442E-02   -0.47352E-04   288   0.391E-02    0.271E-02
DAV:  10    -0.242485981807E+02   -0.15293E-02   -0.15559E-04   312   0.393E-02    0.117E-02
DAV:  11    -0.242501044053E+02   -0.15062E-02   -0.50844E-05   268   0.207E-02    0.841E-03
DAV:  12    -0.242513745897E+02   -0.12702E-02   -0.65255E-05   276   0.104E-02    0.764E-03
DAV:  13    -0.242520497622E+02   -0.67517E-03   -0.28267E-05   304   0.152E-02    0.447E-03
DAV:  14    -0.242524704433E+02   -0.42068E-03   -0.20443E-05   284   0.834E-03    0.283E-03
DAV:  15    -0.242526349898E+02   -0.16455E-03   -0.74288E-06   296   0.389E-03    0.206E-03
DAV:  16    -0.242526979634E+02   -0.62974E-04   -0.28797E-06   272   0.409E-03
  19 F= -.24252698E+02 E0= -.24252698E+02  d E =-.123704E+00  mag=     0.0000
 curvature: -22.33 expect dE=-0.381E+00 dE for cont linesearch -0.661E-04
 trial: gam= 3.42275 g(F)=  0.171E-01 g(S)=  0.000E+00 ort =-0.208E-03 (trialstep = 0.931E+00)
 search vector abs. value=  0.187E+00
 bond charge predicted
       N       E                     dE             d eps       ncg     rms          rms(c)
DAV:   1    -0.242626338823E+02   -0.99989E-02   -0.10851E+01   420   0.894E+00    0.114E-01
DAV:   2    -0.242675658865E+02   -0.49320E-02   -0.51361E-02   420   0.871E-01    0.114E-01
DAV:   3    -0.242674670191E+02    0.98867E-04   -0.86569E-04   448   0.115E-01
  20 F= -.24267467E+02 E0= -.24267467E+02  d E =-.147691E-01  mag=     0.0000
 ZBRENT: can't locate minimum, use default step
 trial-energy change:   -0.014769  1 .order   -0.014812   -0.015211   -0.014413
 step:   3.7233(harm= 17.7370)  dis= 0.05272  next Energy=   -24.397626 (dE=-0.145E+00)
 bond charge predicted
       N       E                     dE             d eps       ncg     rms          rms(c)
DAV:   1    -0.242612726183E+02    0.62933E-02   -0.98202E+01   400   0.270E+01    0.386E-01
DAV:   2    -0.243056741120E+02   -0.44401E-01   -0.46327E-01   428   0.262E+00    0.374E-01
DAV:   3    -0.243047344149E+02    0.93970E-03   -0.77529E-03   456   0.340E-01    0.268E-01
DAV:   4    -0.243030344203E+02    0.17000E-02   -0.22974E-03   424   0.146E-01    0.159E-01
DAV:   5    -0.243028530089E+02    0.18141E-03   -0.23147E-03   424   0.136E-01    0.535E-02
DAV:   6    -0.243032805659E+02   -0.42756E-03   -0.66358E-05   280   0.240E-02    0.340E-02
DAV:   7    -0.243038620364E+02   -0.58147E-03   -0.66448E-05   288   0.200E-02    0.119E-02
DAV:   8    -0.243044217125E+02   -0.55968E-03   -0.33316E-05   288   0.129E-02    0.446E-03
DAV:   9    -0.243048213980E+02   -0.39969E-03   -0.13326E-05   296   0.648E-03    0.376E-03
DAV:  10    -0.243051378693E+02   -0.31647E-03   -0.95715E-06   284   0.424E-03    0.229E-03
DAV:  11    -0.243053878795E+02   -0.25001E-03   -0.92014E-06   284   0.380E-03    0.124E-03
DAV:  12    -0.243055244086E+02   -0.13653E-03   -0.57691E-06   296   0.262E-03    0.750E-04
DAV:  13    -0.243055637711E+02   -0.39362E-04   -0.11587E-06   280   0.144E-03
  21 F= -.24305564E+02 E0= -.24305564E+02  d E =-.528658E-01  mag=     0.0000
 curvature: -30.92 expect dE=-0.600E+00 dE for cont linesearch -0.218E-01
 ZBRENT: increasing intervall
 opt :   9.3082  next Energy=   -24.347215 (dE=-0.945E-01)
 bond charge predicted
       N       E                     dE             d eps       ncg     rms          rms(c)
DAV:   1    -0.241405902127E+02    0.16493E+00   -0.39915E+02   400   0.551E+01    0.101E+00
DAV:   2    -0.243339220297E+02   -0.19333E+00   -0.19514E+00   428   0.541E+00    0.769E-01
DAV:   3    -0.243313706136E+02    0.25514E-02   -0.33573E-02   448   0.727E-01    0.492E-01
DAV:   4    -0.243265567393E+02    0.48139E-02   -0.88648E-03   428   0.274E-01    0.290E-01
DAV:   5    -0.243257485298E+02    0.80821E-03   -0.68821E-03   432   0.203E-01    0.907E-02
DAV:   6    -0.243263687469E+02   -0.62022E-03   -0.48915E-04   288   0.414E-02    0.562E-02
DAV:   7    -0.243271979659E+02   -0.82922E-03   -0.54756E-04   280   0.343E-02    0.247E-02
DAV:   8    -0.243280010476E+02   -0.80308E-03   -0.45455E-04   288   0.256E-02    0.146E-02
DAV:   9    -0.243289636060E+02   -0.96256E-03   -0.60958E-04   284   0.256E-02    0.117E-02
DAV:  10    -0.243297482929E+02   -0.78469E-03   -0.53684E-04   296   0.227E-02    0.884E-03
DAV:  11    -0.243304404981E+02   -0.69221E-03   -0.63821E-04   288   0.227E-02    0.596E-03
DAV:  12    -0.243308638072E+02   -0.42331E-03   -0.34432E-04   304   0.159E-02    0.336E-03
DAV:  13    -0.243310097039E+02   -0.14590E-03   -0.60952E-05   280   0.800E-03    0.221E-03
DAV:  14    -0.243311512915E+02   -0.14159E-03   -0.82533E-05   292   0.838E-03    0.155E-03
DAV:  15    -0.243311773277E+02   -0.26036E-04   -0.57250E-06   272   0.371E-03
  22 F= -.24331177E+02 E0= -.24331177E+02  d E =-.784794E-01  mag=    -0.0000
 curvature: -59.18 expect dE=-0.157E+01 dE for cont linesearch -0.897E-02
 ZBRENT: bracketing found
 ZBRENT: interpolating
 opt :   7.5378  next Energy=   -24.335890 (dE=-0.832E-01)
 bond charge predicted
       N       E                     dE             d eps       ncg     rms          rms(c)
DAV:   1    -0.243158571818E+02    0.15294E-01   -0.39350E+01   400   0.170E+01    0.234E-01
DAV:   2    -0.243344237014E+02   -0.18567E-01   -0.18754E-01   424   0.165E+00    0.245E-01
DAV:   3    -0.243343066176E+02    0.11708E-03   -0.31239E-03   428   0.219E-01    0.180E-01
DAV:   4    -0.243338253431E+02    0.48127E-03   -0.76781E-04   416   0.829E-02    0.114E-01
DAV:   5    -0.243337822917E+02    0.43051E-04   -0.10173E-03   432   0.942E-02    0.397E-02
DAV:   6    -0.243337761838E+02    0.61079E-05   -0.25892E-05   264   0.164E-02
  23 F= -.24333776E+02 E0= -.24333776E+02  d E =-.810782E-01  mag=    -0.0000
 curvature: -31.08 expect dE=-0.728E+00 dE for cont linesearch -0.598E-03
 trial: gam= 0.30522 g(F)=  0.234E-01 g(S)=  0.000E+00 ort = 0.190E-02 (trialstep = 0.225E+01)
 search vector abs. value=  0.420E-01
 bond charge predicted
       N       E                     dE             d eps       ncg     rms          rms(c)
DAV:   1    -0.243777240415E+02   -0.43942E-01   -0.14310E+01   400   0.102E+01    0.170E-01
DAV:   2    -0.243843957582E+02   -0.66717E-02   -0.67589E-02   428   0.977E-01    0.151E-01
DAV:   3    -0.243843287093E+02    0.67049E-04   -0.10704E-03   432   0.120E-01    0.108E-01
DAV:   4    -0.243841905760E+02    0.13813E-03   -0.48107E-04   424   0.655E-02    0.461E-02
DAV:   5    -0.243842044723E+02   -0.13896E-04   -0.96583E-05   264   0.349E-02
  24 F= -.24384204E+02 E0= -.24384204E+02  d E =-.504283E-01  mag=    -0.0000
 ZBRENT: can't locate minimum, use default step
 trial-energy change:   -0.050428  1 .order   -0.050569   -0.054067   -0.047072
 step:   9.0089(harm= 17.4087)  dis= 0.05181  next Energy=   -24.542732 (dE=-0.209E+00)
 bond charge predicted
       N       E                     dE             d eps       ncg     rms          rms(c)
DAV:   1    -0.244336793396E+02   -0.49489E-01   -0.12960E+02   400   0.310E+01    0.483E-01
DAV:   2    -0.244945363135E+02   -0.60857E-01   -0.61235E-01   432   0.295E+00    0.443E-01
DAV:   3    -0.244941654866E+02    0.37083E-03   -0.95359E-03   432   0.353E-01    0.324E-01
DAV:   4    -0.244928186329E+02    0.13469E-02   -0.33309E-03   424   0.171E-01    0.164E-01
DAV:   5    -0.244928574816E+02   -0.38849E-04   -0.13726E-03   432   0.110E-01    0.558E-02
DAV:   6    -0.244928390970E+02    0.18385E-04   -0.64409E-05   272   0.235E-02
  25 F= -.24492839E+02 E0= -.24492839E+02  d E =-.159063E+00  mag=    -0.0000
 curvature: -10.55 expect dE=-0.110E+00 dE for cont linesearch -0.346E-01
 ZBRENT: increasing intervall
 opt :  22.5222  next Energy=   -24.527584 (dE=-0.194E+00)
 bond charge predicted
       N       E                     dE             d eps       ncg     rms          rms(c)
DAV:   1    -0.242935531965E+02    0.19930E+00   -0.53064E+02   400   0.636E+01    0.113E+00
DAV:   2    -0.245474803987E+02   -0.25393E+00   -0.25651E+00   432   0.616E+00    0.890E-01
DAV:   3    -0.245457429334E+02    0.17375E-02   -0.40476E-02   432   0.735E-01    0.616E-01
DAV:   4    -0.245410990863E+02    0.46438E-02   -0.92177E-03   432   0.290E-01    0.355E-01
DAV:   5    -0.245408086803E+02    0.29041E-03   -0.56360E-03   432   0.213E-01    0.104E-01
DAV:   6    -0.245408478794E+02   -0.39199E-04   -0.16885E-04   288   0.414E-02
  26 F= -.24540848E+02 E0= -.24540848E+02  d E =-.207072E+00  mag=    -0.0000
 curvature: -10.60 expect dE=-0.199E+00 dE for cont linesearch -0.322E-02
 trial: gam= 0.78946 g(F)=  0.187E-01 g(S)=  0.000E+00 ort =-0.357E-02 (trialstep = 0.631E+01)
 search vector abs. value=  0.393E-01
 bond charge predicted
       N       E                     dE             d eps       ncg     rms          rms(c)
DAV:   1    -0.245828395918E+02   -0.42031E-01   -0.10542E+02   400   0.278E+01    0.373E-01
DAV:   2    -0.246330823998E+02   -0.50243E-01   -0.50623E-01   432   0.271E+00    0.382E-01
DAV:   3    -0.246328946191E+02    0.18778E-03   -0.79674E-03   432   0.329E-01    0.281E-01
DAV:   4    -0.246316974394E+02    0.11972E-02   -0.19300E-03   432   0.135E-01    0.176E-01
DAV:   5    -0.246315914362E+02    0.10600E-03   -0.20301E-03   432   0.125E-01    0.635E-02
DAV:   6    -0.246316225404E+02   -0.31104E-04   -0.41027E-05   272   0.193E-02
  27 F= -.24631623E+02 E0= -.24631623E+02  d E =-.907747E-01  mag=    -0.0000
 ZBRENT: can't locate minimum, use default step
 trial-energy change:   -0.090775  1 .order   -0.092191   -0.100425   -0.083957
 step:  25.2249(harm= 38.4573)  dis= 0.13629  next Energy=   -24.847060 (dE=-0.306E+00)
 bond charge predicted
       N       E                     dE             d eps       ncg     rms          rms(c)
DAV:   1    -0.243146396423E+02    0.31695E+00   -0.99547E+02   400   0.884E+01    0.172E+00
DAV:   2    -0.248177176309E+02   -0.50308E+00   -0.50364E+00   448   0.888E+00    0.139E+00
DAV:   3    -0.248163658666E+02    0.13518E-02   -0.82527E-02   424   0.107E+00    0.906E-01
DAV:   4    -0.248080823468E+02    0.82835E-02   -0.11977E-02   432   0.342E-01    0.615E-01
DAV:   5    -0.248060805116E+02    0.20018E-02   -0.13582E-02   432   0.325E-01    0.181E-01
DAV:   6    -0.248063086148E+02   -0.22810E-03   -0.23401E-04   288   0.585E-02    0.868E-02
DAV:   7    -0.248064332543E+02   -0.12464E-03   -0.12388E-04   288   0.367E-02    0.261E-02
DAV:   8    -0.248065346739E+02   -0.10142E-03   -0.38250E-05   288   0.197E-02    0.898E-03
DAV:   9    -0.248066272502E+02   -0.92576E-04   -0.11864E-05   272   0.765E-03
  28 F= -.24806627E+02 E0= -.24806627E+02  d E =-.265779E+00  mag=    -0.0000
 curvature: -39.40 expect dE=-0.792E+00 dE for cont linesearch -0.304E-01
 ZBRENT: increasing intervall
 opt :  63.0622  next Energy=   -24.719576 (dE=-0.179E+00)
 bond charge predicted
       N       E                     dE             d eps       ncg     rms          rms(c)
DAV:   1    -0.213782158696E+02    0.34283E+01   -0.45291E+03   400   0.205E+02    0.935E+00
DAV:   2    -0.248172973512E+02   -0.34391E+01   -0.36054E+01   448   0.243E+01    0.578E+00
DAV:   3    -0.247498311289E+02    0.67466E-01   -0.73677E-01   416   0.346E+00    0.323E+00
DAV:   4    -0.247255104423E+02    0.24321E-01   -0.41532E-02   432   0.668E-01    0.234E+00
DAV:   5    -0.247120640987E+02    0.13446E-01   -0.61998E-02   416   0.826E-01    0.520E-01
DAV:   6    -0.247128729953E+02   -0.80890E-03   -0.28528E-03   432   0.225E-01    0.152E-01
DAV:   7    -0.247132393592E+02   -0.36636E-03   -0.32415E-04   304   0.622E-02    0.598E-02
DAV:   8    -0.247134746955E+02   -0.23534E-03   -0.74064E-05   288   0.269E-02    0.178E-02
DAV:   9    -0.247136816376E+02   -0.20694E-03   -0.21796E-05   272   0.132E-02    0.634E-03
DAV:  10    -0.247138995254E+02   -0.21789E-03   -0.21957E-05   272   0.763E-03    0.601E-03
DAV:  11    -0.247141558221E+02   -0.25630E-03   -0.36902E-05   264   0.834E-03    0.331E-03
DAV:  12    -0.247142448986E+02   -0.89076E-04   -0.85377E-06   304   0.457E-03
  29 F= -.24714245E+02 E0= -.24714245E+02  d E =-.173397E+00  mag=     0.0000
 curvature: 112.78 expect dE= 0.101E+02 dE for cont linesearch  0.345E+00
 ZBRENT: bracketing found
 ZBRENT: interpolating
 opt :  37.8738  next Energy=   -24.841452 (dE=-0.301E+00)
 bond charge predicted
       N       E                     dE             d eps       ncg     rms          rms(c)
DAV:   1    -0.238198089051E+02    0.89435E+00   -0.18346E+03   400   0.123E+02    0.357E+00
DAV:   2    -0.248590457685E+02   -0.10392E+01   -0.10515E+01   432   0.130E+01    0.200E+00
DAV:   3    -0.248547904379E+02    0.42553E-02   -0.18661E-01   432   0.167E+00    0.113E+00
DAV:   4    -0.248449709698E+02    0.98195E-02   -0.14913E-02   416   0.391E-01    0.805E-01
DAV:   5    -0.248417350499E+02    0.32359E-02   -0.22304E-02   408   0.439E-01    0.150E-01
DAV:   6    -0.248419701146E+02   -0.23506E-03   -0.44954E-04   384   0.796E-02    0.789E-02
DAV:   7    -0.248421307156E+02   -0.16060E-03   -0.89509E-05   280   0.357E-02    0.293E-02
DAV:   8    -0.248422493769E+02   -0.11866E-03   -0.26489E-05   288   0.168E-02    0.891E-03
DAV:   9    -0.248423388749E+02   -0.89498E-04   -0.93983E-06   288   0.665E-03
  30 F= -.24842339E+02 E0= -.24842339E+02  d E =-.301491E+00  mag=    -0.0000
 curvature: -11.38 expect dE=-0.389E+00 dE for cont linesearch -0.180E-04
 trial: gam= 1.58212 g(F)=  0.342E-01 g(S)=  0.000E+00 ort = 0.249E-03 (trialstep = 0.372E+01)
 search vector abs. value=  0.133E+00
 bond charge predicted
       N       E                     dE             d eps       ncg     rms          rms(c)
DAV:   1    -0.249098870342E+02   -0.67638E-01   -0.12441E+02   400   0.302E+01    0.420E-01
DAV:   2    -0.249698110359E+02   -0.59924E-01   -0.60181E-01   416   0.295E+00    0.320E-01
DAV:   3    -0.249693630550E+02    0.44798E-03   -0.94644E-03   448   0.364E-01    0.228E-01
DAV:   4    -0.249682680630E+02    0.10950E-02   -0.15922E-03   400   0.121E-01    0.132E-01
DAV:   5    -0.249680827340E+02    0.18533E-03   -0.19479E-03   432   0.122E-01    0.357E-02
DAV:   6    -0.249681017244E+02   -0.18990E-04   -0.37399E-05   272   0.196E-02
  31 F= -.24968102E+02 E0= -.24968102E+02  d E =-.125763E+00  mag=     0.0000
 ZBRENT: can't locate minimum, use default step
 trial-energy change:   -0.125763  1 .order   -0.125903   -0.128633   -0.123172
 step:  14.8741(harm= 87.5787)  dis= 0.14004  next Energy=   -26.357131 (dE=-0.151E+01)
 bond charge predicted
       N       E                     dE             d eps       ncg     rms          rms(c)
DAV:   1    -0.246775849202E+02    0.29050E+00   -0.11755E+03   400   0.964E+01    0.236E+00
DAV:   2    -0.252836781552E+02   -0.60609E+00   -0.61288E+00   416   0.983E+00    0.129E+00
DAV:   3    -0.252795194158E+02    0.41587E-02   -0.10338E-01   432   0.126E+00    0.737E-01
DAV:   4    -0.252717807921E+02    0.77386E-02   -0.11485E-02   416   0.332E-01    0.484E-01
DAV:   5    -0.252697287652E+02    0.20520E-02   -0.12063E-02   408   0.312E-01    0.112E-01
DAV:   6    -0.252699108209E+02   -0.18206E-03   -0.21675E-04   288   0.606E-02    0.596E-02
DAV:   7    -0.252700573390E+02   -0.14652E-03   -0.67003E-05   272   0.274E-02    0.177E-02
DAV:   8    -0.252701620731E+02   -0.10473E-03   -0.17604E-05   288   0.136E-02    0.525E-03
DAV:   9    -0.252702602483E+02   -0.98175E-04   -0.10847E-05   272   0.599E-03
  32 F= -.25270260E+02 E0= -.25270260E+02  d E =-.427921E+00  mag=    -0.0000
 curvature: -41.91 expect dE=-0.886E+00 dE for cont linesearch -0.120E+00
 ZBRENT: increasing intervall
 opt :  37.1851  next Energy=   -25.402562 (dE=-0.560E+00)
 bond charge predicted
       N       E                     dE             d eps       ncg     rms          rms(c)
DAV:   1    -0.205607081859E+02    0.47095E+01   -0.53926E+03   400   0.227E+02    0.134E+01
DAV:   2    -0.248930410042E+02   -0.43323E+01   -0.46033E+01   448   0.277E+01    0.665E+00
DAV:   3    -0.247445712437E+02    0.14847E+00   -0.11518E+00   416   0.449E+00    0.333E+00
DAV:   4    -0.247102929687E+02    0.34278E-01   -0.93569E-02   432   0.966E-01    0.191E+00
DAV:   5    -0.247059305080E+02    0.43625E-02   -0.49732E-02   416   0.757E-01    0.203E-01
DAV:   6    -0.247062569331E+02   -0.32643E-03   -0.16235E-03   432   0.214E-01    0.848E-02
DAV:   7    -0.247065147041E+02   -0.25777E-03   -0.53488E-04   416   0.672E-02    0.568E-02
DAV:   8    -0.247068143931E+02   -0.29969E-03   -0.49305E-05   288   0.314E-02    0.136E-02
DAV:   9    -0.247070669773E+02   -0.25258E-03   -0.27475E-05   272   0.120E-02    0.726E-03
DAV:  10    -0.247072887579E+02   -0.22178E-03   -0.17313E-05   272   0.790E-03    0.416E-03
DAV:  11    -0.247076082808E+02   -0.31952E-03   -0.51825E-05   264   0.867E-03    0.335E-03
DAV:  12    -0.247077289696E+02   -0.12069E-03   -0.12162E-05   288   0.479E-03    0.153E-03
DAV:  13    -0.247077827725E+02   -0.53803E-04   -0.34535E-06   272   0.306E-03
  33 F= -.24707783E+02 E0= -.24707783E+02  d E =0.134556E+00  mag=     0.0000
 curvature: -46.26 expect dE=-0.181E+02 dE for cont linesearch -0.400E+01
 ZBRENT: bracketing found
 ZBRENT: interpolating
 opt :  18.3087  next Energy=   -25.303794 (dE=-0.461E+00)
 bond charge predicted
       N       E                     dE             d eps       ncg     rms          rms(c)
DAV:   1    -0.231474898829E+02    0.15602E+01   -0.36870E+03   400   0.182E+02    0.650E+00
DAV:   2    -0.253780575338E+02   -0.22306E+01   -0.22919E+01   432   0.199E+01    0.503E+00
DAV:   3    -0.253526625219E+02    0.25395E-01   -0.43257E-01   464   0.257E+00    0.319E+00
DAV:   4    -0.253277701851E+02    0.24892E-01   -0.47151E-02   416   0.699E-01    0.192E+00
DAV:   5    -0.253241390433E+02    0.36311E-02   -0.48075E-02   416   0.721E-01    0.220E-01
DAV:   6    -0.253240233381E+02    0.11571E-03   -0.16663E-03   432   0.159E-01    0.131E-01
DAV:   7    -0.253242010077E+02   -0.17767E-03   -0.75195E-04   416   0.820E-02    0.506E-02
DAV:   8    -0.253244281790E+02   -0.22717E-03   -0.39623E-05   272   0.213E-02    0.118E-02
DAV:   9    -0.253246031555E+02   -0.17498E-03   -0.17143E-05   256   0.884E-03    0.509E-03
DAV:  10    -0.253248122026E+02   -0.20905E-03   -0.22035E-05   272   0.650E-03    0.398E-03
DAV:  11    -0.253250259499E+02   -0.21375E-03   -0.34876E-05   264   0.633E-03    0.266E-03
DAV:  12    -0.253251168345E+02   -0.90885E-04   -0.10277E-05   272   0.485E-03
  34 F= -.25325117E+02 E0= -.25325117E+02  d E =-.482778E+00  mag=    -0.0000
 curvature:  -0.39 expect dE=-0.816E-02 dE for cont linesearch -0.420E-03
 trial: gam= 0.01763 g(F)=  0.210E-01 g(S)=  0.000E+00 ort = 0.120E-01 (trialstep = 0.664E+01)
 search vector abs. value=  0.215E-01
 bond charge predicted
       N       E                     dE             d eps       ncg     rms          rms(c)
DAV:   1    -0.254160720075E+02   -0.91046E-01   -0.64204E+01   400   0.217E+01    0.507E-01
DAV:   2    -0.254468478167E+02   -0.30776E-01   -0.32013E-01   424   0.211E+00    0.317E-01
DAV:   3    -0.254465962616E+02    0.25156E-03   -0.54735E-03   416   0.249E-01    0.203E-01
DAV:   4    -0.254464062367E+02    0.19002E-03   -0.17304E-03   408   0.133E-01    0.447E-02
DAV:   5    -0.254464189464E+02   -0.12710E-04   -0.53835E-05   256   0.416E-02
  35 F= -.25446419E+02 E0= -.25446419E+02  d E =-.121302E+00  mag=     0.0000
 trial-energy change:   -0.121302  1 .order   -0.121253   -0.140865   -0.101640
 step:  23.8331(harm= 23.8331)  dis= 0.10698  next Energy=   -25.578054 (dE=-0.253E+00)
 bond charge predicted
       N       E                     dE             d eps       ncg     rms          rms(c)
DAV:   1    -0.253276889063E+02    0.11872E+00   -0.43869E+02   400   0.575E+01    0.181E+00
DAV:   2    -0.255457426558E+02   -0.21805E+00   -0.22830E+00   416   0.568E+00    0.892E-01
DAV:   3    -0.255432953005E+02    0.24474E-02   -0.40771E-02   416   0.701E-01    0.554E-01
DAV:   4    -0.255420578593E+02    0.12374E-02   -0.96059E-03   432   0.315E-01    0.120E-01
DAV:   5    -0.255420254299E+02    0.32429E-04   -0.42341E-04   328   0.102E-01
  36 F= -.25542025E+02 E0= -.25542025E+02  d E =-.216909E+00  mag=    -0.0000
 curvature: -12.06 expect dE=-0.179E+00 dE for cont linesearch -0.145E-01
 ZBRENT: interpolating
 opt :  19.5466  next Energy=   -25.552924 (dE=-0.228E+00)
 bond charge predicted
       N       E                     dE             d eps       ncg     rms          rms(c)
DAV:   1    -0.255401561733E+02    0.19017E-02   -0.26807E+01   400   0.140E+01    0.369E-01
DAV:   2    -0.255524828197E+02   -0.12327E-01   -0.12825E-01   432   0.134E+00    0.278E-01
DAV:   3    -0.255523400425E+02    0.14278E-03   -0.22275E-03   416   0.159E-01    0.173E-01
DAV:   4    -0.255522623840E+02    0.77659E-04   -0.82465E-04   400   0.921E-02
  37 F= -.25552262E+02 E0= -.25552262E+02  d E =-.227146E+00  mag=    -0.0000
 curvature:  -9.05 expect dE=-0.793E-01 dE for cont linesearch -0.560E-04
 trial: gam= 0.41160 g(F)=  0.876E-02 g(S)=  0.000E+00 ort = 0.365E-03 (trialstep = 0.922E+01)
 search vector abs. value=  0.127E-01
 bond charge predicted
       N       E                     dE             d eps       ncg     rms          rms(c)
DAV:   1    -0.255879238269E+02   -0.35584E-01   -0.72763E+01   400   0.231E+01    0.414E-01
DAV:   2    -0.256220373299E+02   -0.34114E-01   -0.34658E-01   416   0.222E+00    0.298E-01
DAV:   3    -0.256215130011E+02    0.52433E-03   -0.54961E-03   448   0.271E-01    0.206E-01
DAV:   4    -0.256208573286E+02    0.65567E-03   -0.22856E-03   408   0.142E-01    0.699E-02
DAV:   5    -0.256209023550E+02   -0.45026E-04   -0.24055E-04   296   0.556E-02
  38 F= -.25620902E+02 E0= -.25620902E+02  d E =-.686400E-01  mag=     0.0000
 trial-energy change:   -0.068640  1 .order   -0.068754   -0.082172   -0.055335
 step:  28.2267(harm= 28.2267)  dis= 0.11018  next Energy=   -25.678065 (dE=-0.126E+00)
 bond charge predicted
       N       E                     dE             d eps       ncg     rms          rms(c)
DAV:   1    -0.255163894757E+02    0.10447E+00   -0.31303E+02   400   0.483E+01    0.110E+00
DAV:   2    -0.256680094811E+02   -0.15162E+00   -0.15396E+00   432   0.471E+00    0.627E-01
DAV:   3    -0.256658318664E+02    0.21776E-02   -0.25190E-02   448   0.587E-01    0.410E-01
DAV:   4    -0.256637188514E+02    0.21130E-02   -0.83139E-03   416   0.275E-01    0.132E-01
DAV:   5    -0.256638503663E+02   -0.13151E-03   -0.63948E-04   448   0.938E-02    0.451E-02
DAV:   6    -0.256638294445E+02    0.20922E-04   -0.23047E-04   288   0.434E-02
  39 F= -.25663829E+02 E0= -.25663829E+02  d E =-.111567E+00  mag=    -0.0000
 curvature: -20.11 expect dE=-0.171E+00 dE for cont linesearch -0.461E-02
 ZBRENT: interpolating
 opt :  24.0190  next Energy=   -25.667420 (dE=-0.115E+00)
 bond charge predicted
       N       E                     dE             d eps       ncg     rms          rms(c)
DAV:   1    -0.256601378052E+02    0.37126E-02   -0.15123E+01   400   0.105E+01    0.191E-01
DAV:   2    -0.256672025406E+02   -0.70647E-02   -0.71044E-02   432   0.100E+00    0.157E-01
DAV:   3    -0.256671490402E+02    0.53500E-04   -0.11232E-03   432   0.123E-01    0.110E-01
DAV:   4    -0.256670584028E+02    0.90637E-04   -0.51145E-04   416   0.684E-02
  40 F= -.25667058E+02 E0= -.25667058E+02  d E =-.114796E+00  mag=     0.0000
 curvature: -15.66 expect dE=-0.945E-01 dE for cont linesearch -0.246E-05
 trial: gam= 0.56617 g(F)=  0.603E-02 g(S)=  0.000E+00 ort = 0.447E-04 (trialstep = 0.122E+02)
 search vector abs. value=  0.102E-01
 bond charge predicted
       N       E                     dE             d eps       ncg     rms          rms(c)
DAV:   1    -0.256798551913E+02   -0.12706E-01   -0.10137E+02   400   0.273E+01    0.381E-01
DAV:   2    -0.257278198055E+02   -0.47965E-01   -0.48021E-01   432   0.265E+00    0.369E-01
DAV:   3    -0.257274986162E+02    0.32119E-03   -0.75756E-03   432   0.322E-01    0.268E-01
DAV:   4    -0.257262908494E+02    0.12078E-02   -0.20372E-03   416   0.139E-01    0.157E-01
DAV:   5    -0.257262003574E+02    0.90492E-04   -0.17355E-03   416   0.119E-01    0.547E-02
DAV:   6    -0.257262006971E+02   -0.33975E-06   -0.44614E-05   264   0.204E-02
  41 F= -.25726201E+02 E0= -.25726201E+02  d E =-.591423E-01  mag=     0.0000
 trial-energy change:   -0.059142  1 .order   -0.059031   -0.073792   -0.044270
 step:  30.4413(harm= 30.4413)  dis= 0.08545  next Energy=   -25.759283 (dE=-0.922E-01)
 bond charge predicted
       N       E                     dE             d eps       ncg     rms          rms(c)
DAV:   1    -0.256474161571E+02    0.78784E-01   -0.22942E+02   400   0.413E+01    0.644E-01
DAV:   2    -0.257574448450E+02   -0.11003E+00   -0.11017E+00   432   0.403E+00    0.559E-01
DAV:   3    -0.257567120055E+02    0.73284E-03   -0.17523E-02   432   0.491E-01    0.387E-01
DAV:   4    -0.257543440997E+02    0.23679E-02   -0.44719E-03   416   0.205E-01    0.218E-01
DAV:   5    -0.257542172219E+02    0.12688E-03   -0.29058E-03   424   0.155E-01    0.714E-02
DAV:   6    -0.257542256008E+02   -0.83789E-05   -0.98703E-05   272   0.298E-02
  42 F= -.25754226E+02 E0= -.25754226E+02  d E =-.871672E-01  mag=     0.0000
 curvature: -25.51 expect dE=-0.139E+00 dE for cont linesearch -0.481E-03
 trial: gam= 0.86362 g(F)=  0.547E-02 g(S)=  0.000E+00 ort =-0.438E-03 (trialstep = 0.131E+02)
 search vector abs. value=  0.123E-01
 bond charge predicted
       N       E                     dE             d eps       ncg     rms          rms(c)
DAV:   1    -0.257285214016E+02    0.25696E-01   -0.14247E+02   400   0.323E+01    0.523E-01
DAV:   2    -0.257968402756E+02   -0.68319E-01   -0.68778E-01   432   0.314E+00    0.433E-01
DAV:   3    -0.257963089616E+02    0.53131E-03   -0.10705E-02   432   0.378E-01    0.304E-01
DAV:   4    -0.257948999236E+02    0.14090E-02   -0.33582E-03   416   0.169E-01    0.147E-01
DAV:   5    -0.257949346223E+02   -0.34699E-04   -0.12545E-03   448   0.106E-01    0.492E-02
DAV:   6    -0.257949466184E+02   -0.11996E-04   -0.69752E-05   256   0.245E-02
  43 F= -.25794947E+02 E0= -.25794947E+02  d E =-.407210E-01  mag=     0.0000
 trial-energy change:   -0.040721  1 .order   -0.041340   -0.066602   -0.016078
 step:  17.7108(harm= 17.2510)  dis= 0.07151  next Energy=   -25.797760 (dE=-0.435E-01)
 bond charge predicted
       N       E                     dE             d eps       ncg     rms          rms(c)
DAV:   1    -0.257891714007E+02    0.57632E-02   -0.17614E+01   400   0.113E+01    0.171E-01
DAV:   2    -0.257974617686E+02   -0.82904E-02   -0.83722E-02   416   0.109E+00    0.145E-01
DAV:   3    -0.257973946336E+02    0.67135E-04   -0.12816E-03   440   0.129E-01    0.104E-01
DAV:   4    -0.257972366073E+02    0.15803E-03   -0.46312E-04   416   0.625E-02    0.474E-02
DAV:   5    -0.257972648528E+02   -0.28246E-04   -0.14090E-04   256   0.378E-02
  44 F= -.25797265E+02 E0= -.25797265E+02  d E =-.430393E-01  mag=     0.0000
 curvature: -20.57 expect dE=-0.497E-01 dE for cont linesearch -0.658E-05
 trial: gam= 0.27344 g(F)=  0.242E-02 g(S)=  0.000E+00 ort =-0.627E-04 (trialstep = 0.140E+02)
 search vector abs. value=  0.330E-02
 bond charge predicted
       N       E                     dE             d eps       ncg     rms          rms(c)
DAV:   1    -0.257986916736E+02   -0.14551E-02   -0.43722E+01   400   0.179E+01    0.301E-01
DAV:   2    -0.258198657459E+02   -0.21174E-01   -0.21530E-01   432   0.174E+00    0.237E-01
DAV:   3    -0.258197086689E+02    0.15708E-03   -0.34462E-03   448   0.213E-01    0.163E-01
DAV:   4    -0.258193631722E+02    0.34550E-03   -0.11082E-03   408   0.100E-01    0.702E-02
DAV:   5    -0.258194059654E+02   -0.42793E-04   -0.26006E-04   320   0.537E-02
  45 F= -.25819406E+02 E0= -.25819406E+02  d E =-.221411E-01  mag=     0.0000
 trial-energy change:   -0.022141  1 .order   -0.022828   -0.033601   -0.012054
 step:  26.2151(harm= 21.8496)  dis= 0.05507  next Energy=   -25.824202 (dE=-0.269E-01)
 bond charge predicted
       N       E                     dE             d eps       ncg     rms          rms(c)
DAV:   1    -0.258045406903E+02    0.14822E-01   -0.33128E+01   400   0.156E+01    0.275E-01
DAV:   2    -0.258205804613E+02   -0.16040E-01   -0.16317E-01   424   0.151E+00    0.212E-01
DAV:   3    -0.258204524035E+02    0.12806E-03   -0.26156E-03   416   0.185E-01    0.144E-01
DAV:   4    -0.258202099184E+02    0.24249E-03   -0.88745E-04   408   0.899E-02    0.575E-02
DAV:   5    -0.258202436182E+02   -0.33700E-04   -0.14787E-04   272   0.429E-02
  46 F= -.25820244E+02 E0= -.25820244E+02  d E =-.229788E-01  mag=     0.0000
 curvature: -10.37 expect dE=-0.205E-01 dE for cont linesearch -0.108E-02
 ZBRENT: interpolating
 opt :  21.2680  next Energy=   -25.821694 (dE=-0.244E-01)
 bond charge predicted
       N       E                     dE             d eps       ncg     rms          rms(c)
DAV:   1    -0.258195008270E+02    0.70909E-03   -0.54508E+00   400   0.630E+00    0.994E-02
DAV:   2    -0.258221131306E+02   -0.26123E-02   -0.26428E-02   432   0.610E-01    0.893E-02
DAV:   3    -0.258220928287E+02    0.20302E-04   -0.41379E-04   384   0.740E-02
  47 F= -.25822093E+02 E0= -.25822093E+02  d E =-.248280E-01  mag=     0.0000
 curvature: -13.92 expect dE=-0.165E-01 dE for cont linesearch -0.300E-07
 trial: gam= 0.46959 g(F)=  0.118E-02 g(S)=  0.000E+00 ort = 0.267E-05 (trialstep = 0.155E+02)
 search vector abs. value=  0.191E-02
 bond charge predicted
       N       E                     dE             d eps       ncg     rms          rms(c)
DAV:   1    -0.258202556677E+02    0.18575E-02   -0.30724E+01   400   0.150E+01    0.214E-01
DAV:   2    -0.258349803923E+02   -0.14725E-01   -0.14687E-01   416   0.144E+00    0.183E-01
DAV:   3    -0.258348393479E+02    0.14104E-03   -0.22018E-03   432   0.171E-01    0.137E-01
DAV:   4    -0.258344973324E+02    0.34202E-03   -0.75267E-04   408   0.784E-02    0.616E-02
DAV:   5    -0.258344998222E+02   -0.24898E-05   -0.28816E-04   320   0.524E-02
  48 F= -.25834500E+02 E0= -.25834500E+02  d E =-.124070E-01  mag=     0.0000
 trial-energy change:   -0.012407  1 .order   -0.013040   -0.018301   -0.007780
 step:  26.8975(harm= 26.8975)  dis= 0.04753  next Energy=   -25.838010 (dE=-0.159E-01)
 bond charge predicted
       N       E                     dE             d eps       ncg     rms          rms(c)
DAV:   1    -0.258287923066E+02    0.57050E-02   -0.16784E+01   400   0.111E+01    0.154E-01
DAV:   2    -0.258367735903E+02   -0.79813E-02   -0.80246E-02   416   0.106E+00    0.131E-01
DAV:   3    -0.258367095020E+02    0.64088E-04   -0.11928E-03   432   0.125E-01    0.975E-02
DAV:   4    -0.258365417493E+02    0.16775E-03   -0.37446E-04   384   0.561E-02    0.452E-02
DAV:   5    -0.258365483416E+02   -0.65923E-05   -0.17959E-04   256   0.421E-02
  49 F= -.25836548E+02 E0= -.25836548E+02  d E =-.144555E-01  mag=     0.0000
 curvature: -21.73 expect dE=-0.205E-01 dE for cont linesearch -0.640E-05
 trial: gam= 0.77432 g(F)=  0.944E-03 g(S)=  0.000E+00 ort =-0.237E-04 (trialstep = 0.165E+02)
 search vector abs. value=  0.205E-02
 bond charge predicted
       N       E                     dE             d eps       ncg     rms          rms(c)
DAV:   1    -0.258293318842E+02    0.72099E-02   -0.37719E+01   400   0.166E+01    0.233E-01
DAV:   2    -0.258473238096E+02   -0.17992E-01   -0.18078E-01   416   0.161E+00    0.226E-01
DAV:   3    -0.258471817761E+02    0.14203E-03   -0.27222E-03   424   0.190E-01    0.171E-01
DAV:   4    -0.258466969852E+02    0.48479E-03   -0.95108E-04   408   0.913E-02    0.905E-02
DAV:   5    -0.258466916950E+02    0.52901E-05   -0.58339E-04   416   0.706E-02
  50 F= -.25846692E+02 E0= -.25846692E+02  d E =-.101434E-01  mag=     0.0000
 trial-energy change:   -0.010143  1 .order   -0.011025   -0.015297   -0.006753
 step:  29.5894(harm= 29.5894)  dis= 0.04640  next Energy=   -25.850242 (dE=-0.137E-01)
 bond charge predicted
       N       E                     dE             d eps       ncg     rms          rms(c)
DAV:   1    -0.258378749556E+02    0.88220E-02   -0.23534E+01   400   0.131E+01    0.186E-01
DAV:   2    -0.258491618218E+02   -0.11287E-01   -0.11361E-01   416   0.127E+00    0.173E-01
DAV:   3    -0.258490819295E+02    0.79892E-04   -0.17152E-03   448   0.151E-01    0.128E-01
DAV:   4    -0.258488157408E+02    0.26619E-03   -0.56412E-04   416   0.707E-02    0.665E-02
DAV:   5    -0.258488208209E+02   -0.50801E-05   -0.30106E-04   320   0.526E-02
  51 F= -.25848821E+02 E0= -.25848821E+02  d E =-.122725E-01  mag=     0.0000
 curvature: -32.83 expect dE=-0.309E-01 dE for cont linesearch -0.118E-04
 trial: gam= 0.90242 g(F)=  0.943E-03 g(S)=  0.000E+00 ort = 0.271E-04 (trialstep = 0.148E+02)
 search vector abs. value=  0.266E-02
 bond charge predicted
       N       E                     dE             d eps       ncg     rms          rms(c)
DAV:   1    -0.258416021289E+02    0.72136E-02   -0.38928E+01   400   0.168E+01    0.235E-01
DAV:   2    -0.258603421276E+02   -0.18740E-01   -0.18743E-01   408   0.163E+00    0.189E-01
DAV:   3    -0.258601214528E+02    0.22067E-03   -0.28075E-03   416   0.191E-01    0.140E-01
DAV:   4    -0.258596899928E+02    0.43146E-03   -0.92645E-04   416   0.877E-02    0.628E-02
DAV:   5    -0.258596948142E+02   -0.48214E-05   -0.43576E-04   384   0.602E-02
  52 F= -.25859695E+02 E0= -.25859695E+02  d E =-.108740E-01  mag=     0.0000
 trial-energy change:   -0.010874  1 .order   -0.011621   -0.014270   -0.008972
 step:  39.7421(harm= 39.7421)  dis= 0.05968  next Energy=   -25.868039 (dE=-0.192E-01)
 bond charge predicted
       N       E                     dE             d eps       ncg     rms          rms(c)
DAV:   1    -0.258131491661E+02    0.46541E-01   -0.11205E+02   400   0.286E+01    0.447E-01
DAV:   2    -0.258677037616E+02   -0.54555E-01   -0.54401E-01   408   0.279E+00    0.326E-01
DAV:   3    -0.258669538362E+02    0.74993E-03   -0.82733E-03   408   0.330E-01    0.234E-01
DAV:   4    -0.258657437070E+02    0.12101E-02   -0.28865E-03   408   0.154E-01    0.971E-02
DAV:   5    -0.258657645337E+02   -0.20827E-04   -0.92569E-04   416   0.884E-02
  53 F= -.25865765E+02 E0= -.25865765E+02  d E =-.169437E-01  mag=    -0.0000
 curvature: -54.74 expect dE=-0.650E-01 dE for cont linesearch -0.155E-05
 trial: gam= 1.26068 g(F)=  0.119E-02 g(S)=  0.000E+00 ort =-0.869E-05 (trialstep = 0.975E+01)
 search vector abs. value=  0.540E-02
 bond charge predicted
       N       E                     dE             d eps       ncg     rms          rms(c)
DAV:   1    -0.258588136280E+02    0.69301E-02   -0.34372E+01   400   0.158E+01    0.201E-01
DAV:   2    -0.258756591981E+02   -0.16846E-01   -0.16531E-01   408   0.153E+00    0.170E-01
DAV:   3    -0.258755233321E+02    0.13587E-03   -0.24065E-03   408   0.174E-01    0.131E-01
DAV:   4    -0.258751512377E+02    0.37209E-03   -0.75711E-04   408   0.784E-02    0.603E-02
DAV:   5    -0.258751648171E+02   -0.13579E-04   -0.47853E-04   432   0.620E-02
  54 F= -.25875165E+02 E0= -.25875165E+02  d E =-.940028E-02  mag=    -0.0000
 ZBRENT: can't locate minimum, use default step
 trial-energy change:   -0.009400  1 .order   -0.010191   -0.011465   -0.008918
 step:  38.9827(harm= 43.8662)  dis= 0.09011  next Energy=   -25.891567 (dE=-0.258E-01)
 bond charge predicted
       N       E                     dE             d eps       ncg     rms          rms(c)
DAV:   1    -0.257384826656E+02    0.13667E+00   -0.31404E+02   400   0.483E+01    0.791E-01
DAV:   2    -0.258947553504E+02   -0.15627E+00   -0.15422E+00   408   0.472E+00    0.554E-01
DAV:   3    -0.258930756636E+02    0.16797E-02   -0.23232E-02   424   0.554E-01    0.387E-01
DAV:   4    -0.258898636482E+02    0.32120E-02   -0.55934E-03   408   0.215E-01    0.197E-01
DAV:   5    -0.258895343739E+02    0.32927E-03   -0.33558E-03   424   0.162E-01    0.543E-02
DAV:   6    -0.258895981082E+02   -0.63734E-04   -0.82394E-05   272   0.308E-02
  55 F= -.25889598E+02 E0= -.25889598E+02  d E =-.238336E-01  mag=     0.0000
 curvature: -98.61 expect dE=-0.212E+00 dE for cont linesearch -0.900E-03
 trial: gam= 1.63570 g(F)=  0.215E-02 g(S)=  0.000E+00 ort = 0.222E-03 (trialstep = 0.486E+01)
 search vector abs. value=  0.173E-01
 bond charge predicted
       N       E                     dE             d eps       ncg     rms          rms(c)
DAV:   1    -0.258870770692E+02    0.24573E-02   -0.27428E+01   400   0.141E+01    0.155E-01
DAV:   2    -0.259002796447E+02   -0.13203E-01   -0.13082E-01   408   0.136E+00    0.162E-01
DAV:   3    -0.259001927122E+02    0.86933E-04   -0.19070E-03   432   0.156E-01    0.128E-01
DAV:   4    -0.258998658378E+02    0.32687E-03   -0.43493E-04   432   0.603E-02    0.784E-02
DAV:   5    -0.258998301800E+02    0.35658E-04   -0.69919E-04   400   0.724E-02
  56 F= -.25899830E+02 E0= -.25899830E+02  d E =-.102321E-01  mag=     0.0000
 ZBRENT: can't locate minimum, use default step
 trial-energy change:   -0.010232  1 .order   -0.011095   -0.012195   -0.009995
 step:  19.4471(harm= 26.9477)  dis= 0.08253  next Energy=   -25.923396 (dE=-0.338E-01)
 bond charge predicted
       N       E                     dE             d eps       ncg     rms          rms(c)
DAV:   1    -0.257995598763E+02    0.10031E+00   -0.24989E+02   400   0.430E+01    0.563E-01
DAV:   2    -0.259215069150E+02   -0.12195E+00   -0.12126E+00   408   0.419E+00    0.533E-01
DAV:   3    -0.259206485492E+02    0.85837E-03   -0.18114E-02   424   0.487E-01    0.389E-01
DAV:   4    -0.259179030272E+02    0.27455E-02   -0.34816E-03   408   0.171E-01    0.246E-01
DAV:   5    -0.259172539113E+02    0.64912E-03   -0.47883E-03   416   0.189E-01    0.799E-02
DAV:   6    -0.259173309363E+02   -0.77025E-04   -0.60145E-05   272   0.274E-02
  57 F= -.25917331E+02 E0= -.25917331E+02  d E =-.277328E-01  mag=    -0.0000
 curvature: -82.30 expect dE=-0.111E+00 dE for cont linesearch -0.301E-02
 ZBRENT: increasing intervall
 opt :  48.6177  next Energy=   -25.903825 (dE=-0.142E-01)
 bond charge predicted
       N       E                     dE             d eps       ncg     rms          rms(c)
DAV:   1    -0.253688125388E+02    0.54844E+00   -0.10387E+03   400   0.902E+01    0.180E+00
DAV:   2    -0.259014286946E+02   -0.53262E+00   -0.52927E+00   424   0.908E+00    0.137E+00
DAV:   3    -0.258978014630E+02    0.36272E-02   -0.84070E-02   416   0.109E+00    0.865E-01
DAV:   4    -0.258888047743E+02    0.89967E-02   -0.11307E-02   416   0.319E-01    0.599E-01
DAV:   5    -0.258859198063E+02    0.28850E-02   -0.14800E-02   408   0.337E-01    0.177E-01
DAV:   6    -0.258862053645E+02   -0.28556E-03   -0.24431E-04   288   0.574E-02    0.887E-02
DAV:   7    -0.258863812242E+02   -0.17586E-03   -0.79864E-05   288   0.336E-02    0.270E-02
DAV:   8    -0.258864715032E+02   -0.90279E-04   -0.26523E-05   272   0.152E-02
  58 F= -.25886472E+02 E0= -.25886472E+02  d E =0.312661E-02  mag=     0.0000
 curvature: 368.75 expect dE= 0.314E+01 dE for cont linesearch  0.162E+00
 ZBRENT: bracketing found
 ZBRENT: interpolating
 opt :  25.9827  next Energy=   -25.919934 (dE=-0.303E-01)
 bond charge predicted
       N       E                     dE             d eps       ncg     rms          rms(c)
DAV:   1    -0.256177800439E+02    0.26860E+00   -0.61304E+02   400   0.683E+01    0.130E+00
DAV:   2    -0.259279748013E+02   -0.31019E+00   -0.30678E+00   432   0.673E+00    0.808E-01
DAV:   3    -0.259246662051E+02    0.33086E-02   -0.48106E-02   416   0.818E-01    0.535E-01
DAV:   4    -0.259193660962E+02    0.53001E-02   -0.79881E-03   448   0.265E-01    0.315E-01
DAV:   5    -0.259183235919E+02    0.10425E-02   -0.72547E-03   400   0.237E-01    0.737E-02
DAV:   6    -0.259184018557E+02   -0.78264E-04   -0.12291E-04   288   0.411E-02
  59 F= -.25918402E+02 E0= -.25918402E+02  d E =-.288037E-01  mag=    -0.0000
 curvature:  -5.92 expect dE=-0.123E-01 dE for cont linesearch -0.124E-03
 trial: gam= 0.00000 g(F)=  0.208E-02 g(S)=  0.000E+00 ort =-0.601E-03 (trialstep = 0.909E+01)
 search vector abs. value=  0.208E-02
 bond charge predicted
       N       E                     dE             d eps       ncg     rms          rms(c)
DAV:   1    -0.259267918192E+02   -0.84682E-02   -0.11570E+01   400   0.919E+00    0.196E-01
DAV:   2    -0.259321552216E+02   -0.53634E-02   -0.55192E-02   432   0.872E-01    0.146E-01
DAV:   3    -0.259321105432E+02    0.44678E-04   -0.91620E-04   448   0.107E-01
  60 F= -.25932111E+02 E0= -.25932111E+02  d E =-.137087E-01  mag=    -0.0000
 trial-energy change:   -0.013709  1 .order   -0.013492   -0.018877   -0.008107
 step:  15.9255(harm= 15.9255)  dis= 0.01634  next Energy=   -25.934945 (dE=-0.165E-01)
 bond charge predicted
       N       E                     dE             d eps       ncg     rms          rms(c)
DAV:   1    -0.259325701910E+02   -0.41497E-03   -0.65750E+00   400   0.693E+00    0.167E-01
DAV:   2    -0.259355938122E+02   -0.30236E-02   -0.31441E-02   432   0.655E-01    0.119E-01
DAV:   3    -0.259355720639E+02    0.21748E-04   -0.53057E-04   432   0.801E-02
  61 F= -.25935572E+02 E0= -.25935572E+02  d E =-.171702E-01  mag=    -0.0000
 curvature:  -7.96 expect dE=-0.640E-02 dE for cont linesearch -0.115E-04
 trial: gam= 0.36035 g(F)=  0.803E-03 g(S)=  0.000E+00 ort = 0.548E-04 (trialstep = 0.105E+02)
 search vector abs. value=  0.111E-02
 bond charge predicted
       N       E                     dE             d eps       ncg     rms          rms(c)
DAV:   1    -0.259387095617E+02   -0.31157E-02   -0.81868E+00   400   0.771E+00    0.133E-01
DAV:   2    -0.259425964944E+02   -0.38869E-02   -0.39643E-02   432   0.747E-01    0.115E-01
DAV:   3    -0.259425638352E+02    0.32659E-04   -0.62819E-04   432   0.923E-02
  62 F= -.25942564E+02 E0= -.25942564E+02  d E =-.699177E-02  mag=    -0.0000
 trial-energy change:   -0.006992  1 .order   -0.006857   -0.008606   -0.005108
 step:  25.7146(harm= 25.7146)  dis= 0.02546  next Energy=   -25.946157 (dE=-0.106E-01)
 bond charge predicted
       N       E                     dE             d eps       ncg     rms          rms(c)
DAV:   1    -0.259384320020E+02    0.41645E-02   -0.17464E+01   400   0.113E+01    0.212E-01
DAV:   2    -0.259466519446E+02   -0.82199E-02   -0.83932E-02   424   0.109E+00    0.181E-01
DAV:   3    -0.259465384242E+02    0.11352E-03   -0.13281E-03   432   0.133E-01    0.123E-01
DAV:   4    -0.259463735549E+02    0.16487E-03   -0.65467E-04   408   0.780E-02    0.486E-02
DAV:   5    -0.259463960132E+02   -0.22458E-04   -0.84993E-05   272   0.353E-02
  63 F= -.25946396E+02 E0= -.25946396E+02  d E =-.108239E-01  mag=    -0.0000
 curvature: -17.38 expect dE=-0.109E-01 dE for cont linesearch -0.287E-04
 trial: gam= 0.76346 g(F)=  0.627E-03 g(S)=  0.000E+00 ort = 0.429E-04 (trialstep = 0.112E+02)
 search vector abs. value=  0.134E-02
 bond charge predicted
       N       E                     dE             d eps       ncg     rms          rms(c)
DAV:   1    -0.259470463142E+02   -0.67276E-03   -0.11300E+01   400   0.905E+00    0.112E-01
DAV:   2    -0.259524272840E+02   -0.53810E-02   -0.54119E-02   432   0.875E-01    0.111E-01
DAV:   3    -0.259523899699E+02    0.37314E-04   -0.82920E-04   416   0.107E-01
  64 F= -.25952390E+02 E0= -.25952390E+02  d E =-.599396E-02  mag=    -0.0000
 trial-energy change:   -0.005994  1 .order   -0.006058   -0.007394   -0.004722
 step:  31.0092(harm= 31.0092)  dis= 0.04196  next Energy=   -25.956627 (dE=-0.102E-01)
 bond charge predicted
       N       E                     dE             d eps       ncg     rms          rms(c)
DAV:   1    -0.259406769570E+02    0.11750E-01   -0.35405E+01   400   0.160E+01    0.213E-01
DAV:   2    -0.259572663703E+02   -0.16589E-01   -0.16692E-01   432   0.154E+00    0.221E-01
DAV:   3    -0.259570726646E+02    0.19371E-03   -0.25268E-03   432   0.183E-01    0.171E-01
DAV:   4    -0.259565239796E+02    0.54868E-03   -0.95651E-04   416   0.913E-02    0.997E-02
DAV:   5    -0.259565002062E+02    0.23773E-04   -0.88008E-04   432   0.858E-02
  65 F= -.25956500E+02 E0= -.25956500E+02  d E =-.101042E-01  mag=    -0.0000
 curvature: -31.51 expect dE=-0.183E-01 dE for cont linesearch -0.131E-03
 trial: gam= 0.87820 g(F)=  0.582E-03 g(S)=  0.000E+00 ort = 0.748E-04 (trialstep = 0.116E+02)
 search vector abs. value=  0.175E-02
 bond charge predicted
       N       E                     dE             d eps       ncg     rms          rms(c)
DAV:   1    -0.259553766133E+02    0.11474E-02   -0.15825E+01   400   0.107E+01    0.129E-01
DAV:   2    -0.259629068761E+02   -0.75303E-02   -0.74575E-02   432   0.103E+00    0.131E-01
DAV:   3    -0.259628629433E+02    0.43933E-04   -0.11386E-03   432   0.125E-01    0.975E-02
DAV:   4    -0.259626898004E+02    0.17314E-03   -0.23791E-04   304   0.470E-02    0.645E-02
DAV:   5    -0.259626764729E+02    0.13328E-04   -0.48929E-04   416   0.653E-02
  66 F= -.25962676E+02 E0= -.25962676E+02  d E =-.617627E-02  mag=    -0.0000
 ZBRENT: can't locate minimum, use default step
 trial-energy change:   -0.006176  1 .order   -0.006724   -0.007540   -0.005907
 step:  46.5507(harm= 53.7512)  dis= 0.07202  next Energy=   -25.973912 (dE=-0.174E-01)
 bond charge predicted
       N       E                     dE             d eps       ncg     rms          rms(c)
DAV:   1    -0.259046647191E+02    0.58025E-01   -0.14366E+02   400   0.325E+01    0.443E-01
DAV:   2    -0.259728590802E+02   -0.68194E-01   -0.67890E-01   424   0.313E+00    0.399E-01
DAV:   3    -0.259720327674E+02    0.82631E-03   -0.10424E-02   432   0.383E-01    0.286E-01
DAV:   4    -0.259702404745E+02    0.17923E-02   -0.26244E-03   416   0.149E-01    0.170E-01
DAV:   5    -0.259699540690E+02    0.28641E-03   -0.26456E-03   432   0.145E-01    0.564E-02
DAV:   6    -0.259699856983E+02   -0.31629E-04   -0.43218E-05   272   0.217E-02
  67 F= -.25969986E+02 E0= -.25969986E+02  d E =-.134855E-01  mag=    -0.0000
 curvature: -70.39 expect dE=-0.676E-01 dE for cont linesearch -0.301E-06
 trial: gam= 1.68934 g(F)=  0.960E-03 g(S)=  0.000E+00 ort = 0.273E-05 (trialstep = 0.546E+01)
 search vector abs. value=  0.596E-02
 bond charge predicted
       N       E                     dE             d eps       ncg     rms          rms(c)
DAV:   1    -0.259688209036E+02    0.11332E-02   -0.11880E+01   400   0.931E+00    0.106E-01
DAV:   2    -0.259743630051E+02   -0.55421E-02   -0.55158E-02   432   0.887E-01    0.108E-01
DAV:   3    -0.259742997512E+02    0.63254E-04   -0.82512E-04   448   0.107E-01
  68 F= -.25974300E+02 E0= -.25974300E+02  d E =-.431405E-02  mag=    -0.0000
 trial-energy change:   -0.004314  1 .order   -0.004516   -0.005271   -0.003760
 step:  19.0557(harm= 19.0557)  dis= 0.04980  next Energy=   -25.979180 (dE=-0.919E-02)
 bond charge predicted
       N       E                     dE             d eps       ncg     rms          rms(c)
DAV:   1    -0.259461304009E+02    0.28233E-01   -0.73980E+01   400   0.233E+01    0.294E-01
DAV:   2    -0.259800731066E+02   -0.33943E-01   -0.34081E-01   424   0.221E+00    0.297E-01
DAV:   3    -0.259795147013E+02    0.55841E-03   -0.51207E-03   432   0.264E-01    0.229E-01
DAV:   4    -0.259783247195E+02    0.11900E-02   -0.17748E-03   408   0.119E-01    0.130E-01
DAV:   5    -0.259781742749E+02    0.15044E-03   -0.18463E-03   424   0.122E-01    0.467E-02
DAV:   6    -0.259781985066E+02   -0.24232E-04   -0.30727E-05   256   0.181E-02
  69 F= -.25978199E+02 E0= -.25978199E+02  d E =-.821281E-02  mag=    -0.0000
 curvature: -58.83 expect dE=-0.526E-01 dE for cont linesearch -0.129E-04
 trial: gam= 0.60837 g(F)=  0.893E-03 g(S)=  0.000E+00 ort = 0.361E-04 (trialstep = 0.818E+01)
 search vector abs. value=  0.314E-02
 bond charge predicted
       N       E                     dE             d eps       ncg     rms          rms(c)
DAV:   1    -0.259785609645E+02   -0.38669E-03   -0.14097E+01   400   0.101E+01    0.116E-01
DAV:   2    -0.259851647686E+02   -0.66038E-02   -0.66150E-02   432   0.965E-01    0.112E-01
DAV:   3    -0.259850842390E+02    0.80530E-04   -0.97543E-04   432   0.114E-01
  70 F= -.25985084E+02 E0= -.25985084E+02  d E =-.688573E-02  mag=    -0.0000
 ZBRENT: can't locate minimum, use default step
 trial-energy change:   -0.006886  1 .order   -0.007015   -0.007488   -0.006542
 step:  32.7253(harm= 64.7073)  dis= 0.07753  next Energy=   -26.007812 (dE=-0.296E-01)
 bond charge predicted
       N       E                     dE             d eps       ncg     rms          rms(c)
DAV:   1    -0.259403981206E+02    0.44767E-01   -0.12835E+02   400   0.306E+01    0.417E-01
DAV:   2    -0.260007726829E+02   -0.60375E-01   -0.60906E-01   416   0.296E+00    0.373E-01
DAV:   3    -0.259997455474E+02    0.10271E-02   -0.92114E-03   432   0.354E-01    0.279E-01
DAV:   4    -0.259979776758E+02    0.17679E-02   -0.27146E-03   416   0.148E-01    0.148E-01
DAV:   5    -0.259977485353E+02    0.22914E-03   -0.21958E-03   432   0.133E-01    0.451E-02
DAV:   6    -0.259977831701E+02   -0.34635E-04   -0.39773E-05   272   0.216E-02
  71 F= -.25997783E+02 E0= -.25997783E+02  d E =-.195847E-01  mag=     0.0000
 curvature: -75.52 expect dE=-0.543E-01 dE for cont linesearch -0.302E-02
 ZBRENT: increasing intervall
 opt :  81.8131  next Energy=   -25.993361 (dE=-0.152E-01)
 bond charge predicted
       N       E                     dE             d eps       ncg     rms          rms(c)
DAV:   1    -0.257192685822E+02    0.27848E+00   -0.53065E+02   400   0.634E+01    0.120E+00
DAV:   2    -0.259886950171E+02   -0.26943E+00   -0.27138E+00   416   0.635E+00    0.794E-01
DAV:   3    -0.259856349864E+02    0.30600E-02   -0.43617E-02   424   0.800E-01    0.518E-01
DAV:   4    -0.259808934949E+02    0.47415E-02   -0.68521E-03   416   0.243E-01    0.315E-01
DAV:   5    -0.259798404003E+02    0.10531E-02   -0.60141E-03   408   0.220E-01    0.829E-02
DAV:   6    -0.259799702003E+02   -0.12980E-03   -0.94977E-05   272   0.386E-02    0.427E-02
DAV:   7    -0.259800594032E+02   -0.89203E-04   -0.33706E-05   272   0.201E-02
  72 F= -.25980059E+02 E0= -.25980059E+02  d E =-.186090E-02  mag=     0.0000
 curvature: 110.41 expect dE= 0.291E+00 dE for cont linesearch  0.446E-01
 ZBRENT: bracketing found
 ZBRENT: interpolating
 opt :  44.4819  next Energy=   -25.999868 (dE=-0.217E-01)
 bond charge predicted
       N       E                     dE             d eps       ncg     rms          rms(c)
DAV:   1    -0.258578902927E+02    0.12208E+00   -0.30140E+02   400   0.473E+01    0.692E-01
DAV:   2    -0.260047238111E+02   -0.14683E+00   -0.14625E+00   416   0.461E+00    0.561E-01
DAV:   3    -0.260033664474E+02    0.13574E-02   -0.22751E-02   432   0.566E-01    0.414E-01
DAV:   4    -0.260004792438E+02    0.28872E-02   -0.34782E-03   416   0.178E-01    0.264E-01
DAV:   5    -0.259995508336E+02    0.92841E-03   -0.54212E-03   400   0.209E-01    0.629E-02
DAV:   6    -0.259996070275E+02   -0.56194E-04   -0.66298E-05   288   0.309E-02
  73 F= -.25999607E+02 E0= -.25999607E+02  d E =-.214085E-01  mag=     0.0000
 curvature:  -5.16 expect dE=-0.457E-02 dE for cont linesearch -0.216E-04
 trial: gam= 0.68789 g(F)=  0.886E-03 g(S)=  0.000E+00 ort =-0.115E-03 (trialstep = 0.154E+02)
 search vector abs. value=  0.221E-02
 bond charge predicted
       N       E                     dE             d eps       ncg     rms          rms(c)
DAV:   1    -0.259928534713E+02    0.66974E-02   -0.35498E+01   400   0.161E+01    0.220E-01
DAV:   2    -0.260094202537E+02   -0.16567E-01   -0.16676E-01   408   0.154E+00    0.200E-01
DAV:   3    -0.260091993570E+02    0.22090E-03   -0.25735E-03   448   0.186E-01    0.148E-01
DAV:   4    -0.260087541328E+02    0.44522E-03   -0.83030E-04   400   0.839E-02    0.746E-02
DAV:   5    -0.260087388000E+02    0.15333E-04   -0.54271E-04   424   0.669E-02
  74 F= -.26008739E+02 E0= -.26008739E+02  d E =-.913177E-02  mag=     0.0000
 trial-energy change:   -0.009132  1 .order   -0.008718   -0.012460   -0.004975
 step:  22.3734(harm= 25.7061)  dis= 0.04194  next Energy=   -26.009893 (dE=-0.103E-01)
 bond charge predicted
       N       E                     dE             d eps       ncg     rms          rms(c)
DAV:   1    -0.260063746170E+02    0.23795E-02   -0.71251E+00   400   0.720E+00    0.101E-01
DAV:   2    -0.260097203170E+02   -0.33457E-02   -0.33757E-02   416   0.690E-01    0.884E-02
DAV:   3    -0.260096908803E+02    0.29437E-04   -0.52008E-04   424   0.834E-02
  75 F= -.26009691E+02 E0= -.26009691E+02  d E =-.100839E-01  mag=     0.0000
 curvature: -31.56 expect dE=-0.241E-01 dE for cont linesearch -0.446E-06
 trial: gam= 0.77835 g(F)=  0.763E-03 g(S)=  0.000E+00 ort =-0.560E-05 (trialstep = 0.168E+02)
 search vector abs. value=  0.210E-02
 bond charge predicted
       N       E                     dE             d eps       ncg     rms          rms(c)
DAV:   1    -0.260001599023E+02    0.95604E-02   -0.39839E+01   400   0.170E+01    0.216E-01
DAV:   2    -0.260187135512E+02   -0.18554E-01   -0.18503E-01   432   0.162E+00    0.215E-01
DAV:   3    -0.260185074942E+02    0.20606E-03   -0.27542E-03   448   0.189E-01    0.166E-01
DAV:   4    -0.260179551131E+02    0.55238E-03   -0.98375E-04   416   0.923E-02    0.934E-02
DAV:   5    -0.260179329855E+02    0.22128E-04   -0.86132E-04   432   0.829E-02
  76 F= -.26017933E+02 E0= -.26017933E+02  d E =-.824211E-02  mag=     0.0000
 trial-energy change:   -0.008242  1 .order   -0.009055   -0.012764   -0.005347
 step:  28.9594(harm= 28.9594)  dis= 0.04880  next Energy=   -26.020674 (dE=-0.110E-01)
 bond charge predicted
       N       E                     dE             d eps       ncg     rms          rms(c)
DAV:   1    -0.260092736147E+02    0.86815E-02   -0.20649E+01   400   0.123E+01    0.162E-01
DAV:   2    -0.260190890509E+02   -0.98154E-02   -0.97369E-02   424   0.117E+00    0.150E-01
DAV:   3    -0.260190195478E+02    0.69503E-04   -0.14603E-03   448   0.139E-01    0.111E-01
DAV:   4    -0.260188050546E+02    0.21449E-03   -0.45788E-04   424   0.640E-02    0.611E-02
DAV:   5    -0.260188175189E+02   -0.12464E-04   -0.34426E-04   416   0.534E-02
  77 F= -.26018818E+02 E0= -.26018818E+02  d E =-.912664E-02  mag=     0.0000
 curvature: -40.01 expect dE=-0.212E-01 dE for cont linesearch -0.992E-04
 trial: gam= 0.68539 g(F)=  0.529E-03 g(S)=  0.000E+00 ort =-0.721E-04 (trialstep = 0.193E+02)
 search vector abs. value=  0.141E-02
 bond charge predicted
       N       E                     dE             d eps       ncg     rms          rms(c)
DAV:   1    -0.260082944704E+02    0.10511E-01   -0.35161E+01   400   0.160E+01    0.187E-01
DAV:   2    -0.260253868990E+02   -0.17092E-01   -0.16661E-01   424   0.155E+00    0.189E-01
DAV:   3    -0.260252944932E+02    0.92406E-04   -0.25156E-03   448   0.184E-01    0.146E-01
DAV:   4    -0.260248932066E+02    0.40129E-03   -0.54210E-04   400   0.694E-02    0.923E-02
DAV:   5    -0.260248149814E+02    0.78225E-04   -0.93975E-04   424   0.863E-02
  78 F= -.26024815E+02 E0= -.26024815E+02  d E =-.599746E-02  mag=     0.0000
 trial-energy change:   -0.005997  1 .order   -0.006789   -0.009231   -0.004346
 step:  36.3868(harm= 36.3868)  dis= 0.03568  next Energy=   -26.027540 (dE=-0.872E-02)
 bond charge predicted
       N       E                     dE             d eps       ncg     rms          rms(c)
DAV:   1    -0.260126438719E+02    0.12249E-01   -0.27819E+01   400   0.143E+01    0.169E-01
DAV:   2    -0.260259990889E+02   -0.13355E-01   -0.13182E-01   416   0.137E+00    0.167E-01
DAV:   3    -0.260259152715E+02    0.83817E-04   -0.19891E-03   440   0.164E-01    0.127E-01
DAV:   4    -0.260256047090E+02    0.31056E-03   -0.44138E-04   400   0.624E-02    0.791E-02
DAV:   5    -0.260255595020E+02    0.45207E-04   -0.68056E-04   424   0.737E-02
  79 F= -.26025560E+02 E0= -.26025560E+02  d E =-.674198E-02  mag=     0.0000
 curvature: -53.68 expect dE=-0.272E-01 dE for cont linesearch -0.403E-04
 trial: gam= 0.81780 g(F)=  0.506E-03 g(S)=  0.000E+00 ort =-0.326E-04 (trialstep = 0.227E+02)
 search vector abs. value=  0.140E-02
 bond charge predicted
       N       E                     dE             d eps       ncg     rms          rms(c)
DAV:   1    -0.260092468128E+02    0.16358E-01   -0.48351E+01   400   0.188E+01    0.240E-01
DAV:   2    -0.260324837233E+02   -0.23237E-01   -0.23289E-01   408   0.183E+00    0.234E-01
DAV:   3    -0.260322944523E+02    0.18927E-03   -0.36162E-03   448   0.225E-01    0.172E-01
DAV:   4    -0.260317282913E+02    0.56616E-03   -0.82140E-04   400   0.873E-02    0.107E-01
DAV:   5    -0.260316491656E+02    0.79126E-04   -0.11019E-03   416   0.933E-02    0.364E-02
DAV:   6    -0.260316632901E+02   -0.14125E-04   -0.24991E-05   256   0.151E-02
  80 F= -.26031663E+02 E0= -.26031663E+02  d E =-.610379E-02  mag=     0.0000
 trial-energy change:   -0.006104  1 .order   -0.006728   -0.010877   -0.002580
 step:  29.7320(harm= 29.7320)  dis= 0.03987  next Energy=   -26.032689 (dE=-0.713E-02)
 bond charge predicted
       N       E                     dE             d eps       ncg     rms          rms(c)
DAV:   1    -0.260297469379E+02    0.19022E-02   -0.46578E+00   400   0.582E+00    0.704E-02
DAV:   2    -0.260319761795E+02   -0.22292E-02   -0.22322E-02   432   0.567E-01    0.733E-02
DAV:   3    -0.260319599255E+02    0.16254E-04   -0.31866E-04   320   0.690E-02
  81 F= -.26031960E+02 E0= -.26031960E+02  d E =-.640042E-02  mag=     0.0000
 curvature: -43.37 expect dE=-0.197E-01 dE for cont linesearch -0.464E-03
 trial: gam= 0.00000 g(F)=  0.453E-03 g(S)=  0.000E+00 ort =-0.122E-03 (trialstep = 0.241E+02)
 search vector abs. value=  0.453E-03
 bond charge predicted
       N       E                     dE             d eps       ncg     rms          rms(c)
DAV:   1    -0.260260134901E+02    0.59627E-02   -0.17776E+01   400   0.114E+01    0.235E-01
DAV:   2    -0.260342165642E+02   -0.82031E-02   -0.85944E-02   408   0.110E+00    0.187E-01
DAV:   3    -0.260341417759E+02    0.74788E-04   -0.14611E-03   432   0.137E-01    0.121E-01
DAV:   4    -0.260340309840E+02    0.11079E-03   -0.57420E-04   408   0.845E-02    0.440E-02
DAV:   5    -0.260340492085E+02   -0.18224E-04   -0.50468E-05   256   0.303E-02
  82 F= -.26034049E+02 E0= -.26034049E+02  d E =-.208928E-02  mag=     0.0000
 trial-energy change:   -0.002089  1 .order   -0.002368   -0.010924    0.006188
 step:  15.3795(harm= 15.3795)  dis= 0.01338  next Energy=   -26.035447 (dE=-0.349E-02)
 bond charge predicted
       N       E                     dE             d eps       ncg     rms          rms(c)
DAV:   1    -0.260342163352E+02   -0.18535E-03   -0.23273E+00   400   0.413E+00    0.869E-02
DAV:   2    -0.260353043068E+02   -0.10880E-02   -0.11202E-02   432   0.397E-01    0.696E-02
DAV:   3    -0.260352932146E+02    0.11092E-04   -0.17491E-04   240   0.497E-02
  83 F= -.26035293E+02 E0= -.26035293E+02  d E =-.333329E-02  mag=     0.0000
 curvature:  -7.69 expect dE=-0.217E-02 dE for cont linesearch -0.913E-04
 trial: gam= 0.46036 g(F)=  0.282E-03 g(S)=  0.000E+00 ort = 0.734E-04 (trialstep = 0.223E+02)
 search vector abs. value=  0.446E-03
 bond charge predicted
       N       E                     dE             d eps       ncg     rms          rms(c)
DAV:   1    -0.260321344617E+02    0.31698E-02   -0.14926E+01   400   0.104E+01    0.135E-01
DAV:   2    -0.260393961744E+02   -0.72617E-02   -0.71395E-02   416   0.101E+00    0.127E-01
DAV:   3    -0.260393475141E+02    0.48660E-04   -0.10745E-03   432   0.120E-01    0.974E-02
DAV:   4    -0.260391705941E+02    0.17692E-03   -0.30973E-04   320   0.525E-02    0.541E-02
DAV:   5    -0.260391662073E+02    0.43867E-05   -0.32251E-04   400   0.544E-02
  84 F= -.26039166E+02 E0= -.26039166E+02  d E =-.387299E-02  mag=    -0.0000
 trial-energy change:   -0.003873  1 .order   -0.004657   -0.007060   -0.002254
 step:  32.8266(harm= 32.8266)  dis= 0.02062  next Energy=   -26.040478 (dE=-0.519E-02)
 bond charge predicted
       N       E                     dE             d eps       ncg     rms          rms(c)
DAV:   1    -0.260379286307E+02    0.12420E-02   -0.32777E+00   400   0.489E+00    0.673E-02
DAV:   2    -0.260395079993E+02   -0.15794E-02   -0.15766E-02   416   0.471E-01    0.587E-02
DAV:   3    -0.260394987939E+02    0.92054E-05   -0.20882E-04   248   0.559E-02
  85 F= -.26039499E+02 E0= -.26039499E+02  d E =-.420558E-02  mag=    -0.0000
 curvature: -23.16 expect dE=-0.455E-02 dE for cont linesearch -0.579E-03
 trial: gam= 0.00000 g(F)=  0.197E-03 g(S)=  0.000E+00 ort =-0.106E-03 (trialstep = 0.244E+02)
 search vector abs. value=  0.197E-03
 bond charge predicted
       N       E                     dE             d eps       ncg     rms          rms(c)
DAV:   1    -0.260371024434E+02    0.24056E-02   -0.78976E+00   400   0.762E+00    0.132E-01
DAV:   2    -0.260408430573E+02   -0.37406E-02   -0.37935E-02   432   0.744E-01    0.120E-01
DAV:   3    -0.260408316104E+02    0.11447E-04   -0.65814E-04   432   0.998E-02
  86 F= -.26040832E+02 E0= -.26040832E+02  d E =-.133282E-02  mag=    -0.0000
 trial-energy change:   -0.001333  1 .order   -0.001423   -0.004806    0.001960
 step:  17.3626(harm= 17.3626)  dis= 0.00794  next Energy=   -26.041206 (dE=-0.171E-02)
 bond charge predicted
       N       E                     dE             d eps       ncg     rms          rms(c)
DAV:   1    -0.260406963056E+02    0.14675E-03   -0.65815E-01   416   0.220E+00    0.389E-02
DAV:   2    -0.260410213540E+02   -0.32505E-03   -0.33009E-03   408   0.222E-01    0.189E-02
DAV:   3    -0.260410238297E+02   -0.24757E-05   -0.57420E-05   256   0.340E-02
  87 F= -.26041024E+02 E0= -.26041024E+02  d E =-.152504E-02  mag=    -0.0000
 curvature:  -8.68 expect dE=-0.673E-03 dE for cont linesearch -0.469E-04
 trial: gam= 0.22841 g(F)=  0.775E-04 g(S)=  0.000E+00 ort = 0.326E-04 (trialstep = 0.230E+02)
 search vector abs. value=  0.103E-03
 bond charge predicted
       N       E                     dE             d eps       ncg     rms          rms(c)
DAV:   1    -0.260402055777E+02    0.81578E-03   -0.36524E+00   400   0.516E+00    0.806E-02
DAV:   2    -0.260419772966E+02   -0.17717E-02   -0.17691E-02   416   0.498E-01    0.683E-02
DAV:   3    -0.260419656921E+02    0.11604E-04   -0.25488E-04   264   0.614E-02
  88 F= -.26041966E+02 E0= -.26041966E+02  d E =-.941862E-03  mag=    -0.0000
 trial-energy change:   -0.000942  1 .order   -0.000583   -0.001956    0.000791
 step:  16.3998(harm= 16.3998)  dis= 0.00560  next Energy=   -26.041720 (dE=-0.697E-03)
 bond charge predicted
       N       E                     dE             d eps       ncg     rms          rms(c)
DAV:   1    -0.260416803757E+02    0.29692E-03   -0.29788E-01   408   0.147E+00    0.209E-02
DAV:   2    -0.260418386627E+02   -0.15829E-03   -0.15282E-03   400   0.147E-01    0.124E-02
DAV:   3    -0.260418401054E+02   -0.14427E-05   -0.23130E-05   224   0.197E-02
  89 F= -.26041840E+02 E0= -.26041840E+02  d E =-.816276E-03  mag=    -0.0000
 curvature:  -9.91 expect dE=-0.678E-03 dE for cont linesearch -0.163E-03
 trial: gam= 0.00000 g(F)=  0.684E-04 g(S)=  0.000E+00 ort = 0.411E-04 (trialstep = 0.217E+02)
 search vector abs. value=  0.684E-04
 reached required accuracy - stopping structural energy minimisation
Application 90924635 resources: utime ~29063s, stime ~373s, Rss ~65956, inblocks ~83399, outblocks ~156877
