unknown system                          
           1
    22.604484    0.000000    0.000000
     0.000000   22.604484    0.000000
     0.000000    0.000000   22.604484
   Ag
  42
Direct configuration=     1
   0.74420878  0.64469710  0.63671242
   0.63322146  0.69958425  0.60377652
   0.42337490  0.64658871  0.61528834
   0.64156748  0.59862666  0.67160603
   0.70082605  0.62497298  0.52704620
   0.52239840  0.68484962  0.55641357
   0.44713904  0.55499569  0.69531177
   0.62416944  0.71077348  0.48522337
   0.55756373  0.54236074  0.72434088
   0.42804265  0.63341617  0.49245211
   0.72627734  0.53100098  0.60144917
   0.35033596  0.56004044  0.55175859
   0.51991312  0.68078527  0.43125105
   0.58545095  0.58193455  0.56246848
   0.62108354  0.48024638  0.63876887
   0.33573763  0.57243287  0.66798229
   0.47343992  0.54365475  0.57500911
   0.50658265  0.45149090  0.66624939
   0.61816324  0.71007924  0.36428739
   0.65231572  0.60883514  0.42076242
   0.69152262  0.41952502  0.56562212
   0.55946647  0.60697810  0.33916197
   0.38619362  0.46078717  0.62706641
   0.52239283  0.55761670  0.46059327
   0.67161375  0.51262836  0.48924370
   0.43657237  0.61727346  0.37093916
   0.57893186  0.37251246  0.60317996
   0.35650400  0.54921088  0.43405196
   0.60179422  0.50158161  0.38896823
   0.45554968  0.36048070  0.61032303
   0.54475577  0.46085006  0.52836021
   0.62864345  0.40521013  0.45977904
   0.34764331  0.45256894  0.50377043
   0.48979991  0.50862283  0.34204686
   0.52338492  0.26680736  0.58465556
   0.34508139  0.35486012  0.57102464
   0.37340973  0.52723481  0.31646130
   0.52384760  0.40522027  0.39762994
   0.54776999  0.32182460  0.48467021
   0.40390406  0.43959598  0.39191620
   0.45216130  0.39152590  0.49382729
   0.34815837  0.34663184  0.44946377
Direct configuration=     2
   0.74437861  0.64491608  0.63684726
   0.63333530  0.69955910  0.60386973
   0.42320735  0.64667190  0.61532525
   0.64178028  0.59866271  0.67159148
   0.70094830  0.62505984  0.52713809
   0.52230979  0.68490263  0.55638297
   0.44700770  0.55493596  0.69539315
   0.62411292  0.71081446  0.48521903
   0.55761984  0.54228166  0.72454980
   0.42793259  0.63353218  0.49251831
   0.72632606  0.53094892  0.60145979
   0.35027025  0.56018692  0.55192911
   0.51997352  0.68091240  0.43118730
   0.58569628  0.58193179  0.56244798
   0.62102487  0.48032754  0.63885461
   0.33547478  0.57245829  0.66805033
   0.47329256  0.54359520  0.57505633
   0.50657373  0.45151092  0.66624606
   0.61821733  0.71022846  0.36415323
   0.65226626  0.60889629  0.42062533
   0.69159099  0.41936964  0.56554219
   0.55943620  0.60698174  0.33908587
   0.38616529  0.46088165  0.62706819
   0.52232083  0.55771463  0.46039709
   0.67164181  0.51261009  0.48935656
   0.43657087  0.61727051  0.37082537
   0.57902150  0.37233911  0.60319094
   0.35650304  0.54921580  0.43391139
   0.60189085  0.50143161  0.38884220
   0.45561948  0.36037042  0.61044956
   0.54498195  0.46085629  0.52837938
   0.62885429  0.40511109  0.45972093
   0.34754971  0.45266146  0.50378994
   0.48981012  0.50867707  0.34194505
   0.52340823  0.26656670  0.58479305
   0.34500829  0.35477611  0.57108966
   0.37329459  0.52730628  0.31630561
   0.52386256  0.40522429  0.39756800
   0.54782419  0.32173214  0.48471209
   0.40379315  0.43953127  0.39187890
   0.45194757  0.39146301  0.49388399
   0.34806938  0.34648906  0.44933211
Direct configuration=     3
   0.74488811  0.64557299  0.63725178
   0.63367681  0.69948365  0.60414938
   0.42270470  0.64692145  0.61543596
   0.64241867  0.59877087  0.67154781
   0.70131505  0.62532044  0.52741375
   0.52204393  0.68506166  0.55629119
   0.44661369  0.55475680  0.69563729
   0.62394338  0.71093741  0.48520604
   0.55778817  0.54204442  0.72517658
   0.42760241  0.63388018  0.49271692
   0.72647223  0.53079275  0.60149165
   0.35007311  0.56062637  0.55244068
   0.52015471  0.68129379  0.43099604
   0.58643228  0.58192351  0.56238649
   0.62084885  0.48057103  0.63911182
   0.33468620  0.57253456  0.66825445
   0.47285047  0.54341655  0.57519800
   0.50654697  0.45157098  0.66623606
   0.61837963  0.71067610  0.36375078
   0.65211789  0.60907974  0.42021408
   0.69179612  0.41890351  0.56530238
   0.55934539  0.60699265  0.33885757
   0.38608030  0.46116510  0.62707354
   0.52210482  0.55800841  0.45980855
   0.67172599  0.51255528  0.48969513
   0.43656638  0.61726166  0.37048400
   0.57929044  0.37181908  0.60322391
   0.35650018  0.54923056  0.43348970
   0.60218074  0.50098159  0.38846408
   0.45582888  0.36003958  0.61082916
   0.54566049  0.46087501  0.52843690
   0.62948680  0.40481398  0.45954660
   0.34726893  0.45293902  0.50384847
   0.48984076  0.50883978  0.34163961
   0.52347816  0.26584472  0.58520552
   0.34478900  0.35452408  0.57128473
   0.37294915  0.52752070  0.31583852
   0.52390743  0.40523637  0.39738217
   0.54798678  0.32145473  0.48483772
   0.40346040  0.43933712  0.39176698
   0.45130640  0.39127433  0.49405408
   0.34780243  0.34606071  0.44893716
Direct configuration=     4
   0.74590711  0.64688682  0.63806083
   0.63435985  0.69933276  0.60470866
   0.42169939  0.64742056  0.61565738
   0.64369544  0.59898719  0.67146048
   0.70204855  0.62584164  0.52796509
   0.52151221  0.68537972  0.55610762
   0.44582566  0.55439846  0.69612557
   0.62360429  0.71118331  0.48518005
   0.55812483  0.54156994  0.72643013
   0.42694206  0.63457619  0.49311413
   0.72676455  0.53048041  0.60155538
   0.34967883  0.56150525  0.55346382
   0.52051710  0.68205656  0.43061353
   0.58790426  0.58190696  0.56226352
   0.62049682  0.48105801  0.63962624
   0.33310906  0.57268708  0.66866270
   0.47196630  0.54305926  0.57548133
   0.50649346  0.45169110  0.66621607
   0.61870421  0.71157139  0.36294586
   0.65182114  0.60944665  0.41939157
   0.69220637  0.41797126  0.56482277
   0.55916377  0.60701447  0.33840097
   0.38591033  0.46173199  0.62708423
   0.52167279  0.55859598  0.45863146
   0.67189436  0.51244566  0.49037227
   0.43655740  0.61724395  0.36980125
   0.57982831  0.37077901  0.60328984
   0.35649447  0.54926006  0.43264632
   0.60276052  0.50008156  0.38770786
   0.45624768  0.35937791  0.61158834
   0.54701756  0.46091243  0.52855193
   0.63075183  0.40421975  0.45919794
   0.34670736  0.45349413  0.50396554
   0.48990204  0.50916521  0.34102873
   0.52361802  0.26440075  0.58603045
   0.34435042  0.35402002  0.57167486
   0.37225829  0.52794955  0.31490436
   0.52399716  0.40526053  0.39701052
   0.54831196  0.32089993  0.48508900
   0.40279492  0.43894884  0.39154315
   0.45002405  0.39089698  0.49439426
   0.34726854  0.34520402  0.44814724
Direct configuration=     5
   0.74794510  0.64951448  0.63967892
   0.63572592  0.69903096  0.60582724
   0.41968878  0.64841878  0.61610022
   0.64624898  0.59941982  0.67128583
   0.70351554  0.62688403  0.52906776
   0.52044878  0.68601583  0.55574049
   0.44424961  0.55368179  0.69710213
   0.62292610  0.71167510  0.48512806
   0.55879814  0.54062098  0.72893724
   0.42562135  0.63596821  0.49390856
   0.72734921  0.52985573  0.60168284
   0.34889026  0.56326301  0.55551010
   0.52124187  0.68358211  0.42984850
   0.59084823  0.58187386  0.56201756
   0.61979276  0.48203196  0.64065509
   0.32995477  0.57299213  0.66947919
   0.47019794  0.54234468  0.57604798
   0.50638643  0.45193133  0.66617609
   0.61935338  0.71336196  0.36133603
   0.65122764  0.61018047  0.41774656
   0.69302687  0.41610675  0.56386354
   0.55880053  0.60705812  0.33748778
   0.38557038  0.46286577  0.62710561
   0.52080875  0.55977111  0.45627728
   0.67223108  0.51222642  0.49172655
   0.43653944  0.61720854  0.36843575
   0.58090405  0.36869887  0.60342171
   0.35648303  0.54931908  0.43095955
   0.60392007  0.49828149  0.38619541
   0.45708529  0.35805456  0.61310671
   0.54973171  0.46098728  0.52878199
   0.63328188  0.40303130  0.45850061
   0.34558421  0.45460436  0.50419968
   0.49002460  0.50981605  0.33980698
   0.52389774  0.26151281  0.58768031
   0.34347326  0.35301189  0.57245513
   0.37087656  0.52880723  0.31303602
   0.52417662  0.40530884  0.39626720
   0.54896231  0.31979033  0.48559155
   0.40146394  0.43817227  0.39109548
   0.44745934  0.39014229  0.49507462
   0.34620074  0.34349064  0.44656741
Direct configuration=     6
   0.74882097  0.65032112  0.64022501
   0.63592635  0.69917965  0.60571539
   0.41896235  0.64856795  0.61645523
   0.64668831  0.59877298  0.67199604
   0.70395037  0.62725478  0.52893848
   0.52051390  0.68579437  0.55576762
   0.44379662  0.55346798  0.69747625
   0.62299360  0.71160347  0.48543738
   0.55902533  0.54070014  0.72948714
   0.42537482  0.63636677  0.49352825
   0.72767371  0.52989832  0.60188690
   0.34840679  0.56371307  0.55498500
   0.52084928  0.68391179  0.42932776
   0.59067835  0.58193507  0.56142780
   0.62004217  0.48169794  0.64044160
   0.32890700  0.57316335  0.67038689
   0.47077540  0.54233426  0.57556306
   0.50639909  0.45206479  0.66600294
   0.61949790  0.71379556  0.36082543
   0.65121843  0.61013424  0.41807545
   0.69302792  0.41567240  0.56416636
   0.55895464  0.60741611  0.33709808
   0.38534878  0.46281286  0.62697247
   0.52076189  0.55987180  0.45612005
   0.67212243  0.51263796  0.49158083
   0.43663363  0.61748855  0.36827243
   0.58121603  0.36826987  0.60350031
   0.35655882  0.54946131  0.43111008
   0.60427897  0.49811845  0.38601156
   0.45709045  0.35748676  0.61338172
   0.55032588  0.46121769  0.52859020
   0.63372040  0.40235164  0.45793957
   0.34507643  0.45464073  0.50435014
   0.48959028  0.50944708  0.33935079
   0.52411396  0.26071104  0.58806709
   0.34373456  0.35314041  0.57247945
   0.37058318  0.52898472  0.31248655
   0.52401435  0.40515143  0.39685394
   0.54883125  0.31997285  0.48616556
   0.40117665  0.43820654  0.39062667
   0.44749950  0.38977744  0.49538652
   0.34575253  0.34339797  0.44645322
Direct configuration=     7
   0.75091460  0.65224924  0.64153034
   0.63640546  0.69953509  0.60544803
   0.41722593  0.64892451  0.61730381
   0.64773845  0.59722682  0.67369370
   0.70498975  0.62814099  0.52862946
   0.52066955  0.68526500  0.55583248
   0.44271382  0.55295690  0.69837052
   0.62315493  0.71143225  0.48617677
   0.55956838  0.54088938  0.73080158
   0.42478551  0.63731946  0.49261918
   0.72844937  0.53000011  0.60237466
   0.34725112  0.56478888  0.55372984
   0.51991085  0.68469984  0.42808304
   0.59027227  0.58208140  0.56001809
   0.62063834  0.48089953  0.63993129
   0.32640246  0.57357262  0.67255659
   0.47215570  0.54230934  0.57440391
   0.50642934  0.45238381  0.66558907
   0.61984334  0.71483202  0.35960493
   0.65119641  0.61002374  0.41886162
   0.69303042  0.41463417  0.56489021
   0.55932302  0.60827185  0.33616658
   0.38481908  0.46268639  0.62665423
   0.52064987  0.56011246  0.45574423
   0.67186270  0.51362166  0.49123251
   0.43685877  0.61815788  0.36788205
   0.58196176  0.36724443  0.60368821
   0.35673998  0.54980130  0.43146990
   0.60513686  0.49772874  0.38557212
   0.45710277  0.35612953  0.61403908
   0.55174613  0.46176844  0.52813175
   0.63476861  0.40072702  0.45659849
   0.34386265  0.45472767  0.50470981
   0.48855211  0.50856511  0.33826034
   0.52463082  0.25879452  0.58899163
   0.34435917  0.35344761  0.57253758
   0.36988190  0.52940898  0.31117315
   0.52362646  0.40477515  0.39825643
   0.54851796  0.32040916  0.48753762
   0.40048994  0.43828847  0.38950604
   0.44759549  0.38890534  0.49613207
   0.34468116  0.34317647  0.44618027
Direct configuration=     8
   0.75102584  0.65268095  0.64183424
   0.63680440  0.69897994  0.60564964
   0.41644761  0.64834678  0.61739846
   0.64870417  0.59684655  0.67394178
   0.70570508  0.62842103  0.52904107
   0.52051002  0.68462548  0.55590541
   0.44219925  0.55262653  0.69824511
   0.62282194  0.71116950  0.48586412
   0.55936465  0.54076915  0.73082960
   0.42474112  0.63781448  0.49230138
   0.72875969  0.53044545  0.60245427
   0.34687655  0.56524009  0.55412125
   0.51987463  0.68523392  0.42756500
   0.59021473  0.58250751  0.55952117
   0.62093685  0.48046626  0.63966533
   0.32581047  0.57365650  0.67281011
   0.47244815  0.54288423  0.57411214
   0.50646947  0.45266851  0.66511750
   0.61984880  0.71478863  0.35965519
   0.65086837  0.61034502  0.41916674
   0.69278359  0.41464617  0.56500214
   0.55947360  0.60823783  0.33594660
   0.38471739  0.46285924  0.62635985
   0.52072160  0.56009765  0.45535103
   0.67177294  0.51327444  0.49121855
   0.43682026  0.61809964  0.36759441
   0.58188402  0.36697831  0.60377468
   0.35702350  0.54987801  0.43138058
   0.60492731  0.49786341  0.38546735
   0.45742324  0.35549087  0.61439746
   0.55258480  0.46150444  0.52754216
   0.63524609  0.40040888  0.45622160
   0.34350776  0.45443541  0.50456069
   0.48852150  0.50842743  0.33797623
   0.52502816  0.25821992  0.58930657
   0.34489738  0.35374939  0.57234349
   0.36971111  0.52975940  0.31107134
   0.52327153  0.40493881  0.39932655
   0.54833244  0.32069500  0.48873209
   0.40014899  0.43823689  0.38939347
   0.44729639  0.38883483  0.49632727
   0.34438784  0.34376075  0.44641964
Direct configuration=     9
   0.75134856  0.65393338  0.64271589
   0.63796177  0.69736941  0.60623452
   0.41418966  0.64667074  0.61767304
   0.65150580  0.59574337  0.67466151
   0.70778028  0.62923344  0.53023519
   0.52004720  0.68277019  0.55611698
   0.44070643  0.55166810  0.69788126
   0.62185592  0.71040726  0.48495711
   0.55877363  0.54042034  0.73091088
   0.42461233  0.63925058  0.49137940
   0.72965995  0.53173742  0.60268520
   0.34578988  0.56654909  0.55525673
   0.51976954  0.68678335  0.42606211
   0.59004781  0.58374369  0.55807958
   0.62180284  0.47920932  0.63889375
   0.32409304  0.57389984  0.67354558
   0.47329656  0.54455204  0.57326568
   0.50658589  0.45349446  0.66374943
   0.61986463  0.71466277  0.35980099
   0.64991668  0.61127708  0.42005195
   0.69206753  0.41468100  0.56532686
   0.55991043  0.60813914  0.33530840
   0.38442236  0.46336070  0.62550582
   0.52092972  0.56005467  0.45421035
   0.67151255  0.51226711  0.49117803
   0.43670856  0.61793068  0.36675992
   0.58165848  0.36620628  0.60402554
   0.35784602  0.55010056  0.43112147
   0.60431938  0.49825410  0.38516342
   0.45835295  0.35363805  0.61543717
   0.55501784  0.46073858  0.52583170
   0.63663130  0.39948595  0.45512823
   0.34247820  0.45358754  0.50412807
   0.48843273  0.50802801  0.33715201
   0.52618089  0.25655296  0.59022021
   0.34645876  0.35462488  0.57178044
   0.36921562  0.53077599  0.31077598
   0.52224183  0.40541360  0.40243102
   0.54779424  0.32152425  0.49219732
   0.39915988  0.43808725  0.38906689
   0.44642867  0.38863030  0.49689355
   0.34353690  0.34545579  0.44711404
Direct configuration=    10
   0.75159233  0.65443369  0.64307846
   0.63817615  0.69656112  0.60626527
   0.41343088  0.64610684  0.61765485
   0.65215962  0.59485861  0.67505242
   0.70837610  0.62931022  0.53030308
   0.51959831  0.68201850  0.55624582
   0.44017345  0.55118358  0.69753517
   0.62151475  0.71013143  0.48531496
   0.55867327  0.54031224  0.73024638
   0.42445951  0.63967839  0.49111006
   0.73001446  0.53199954  0.60252930
   0.34555628  0.56639427  0.55521579
   0.51938514  0.68716010  0.42549875
   0.59074086  0.58406105  0.55759088
   0.62192900  0.47939206  0.63896068
   0.32349227  0.57396205  0.67373497
   0.47362892  0.54517656  0.57288877
   0.50654235  0.45376116  0.66280176
   0.61994200  0.71457920  0.35980846
   0.64957556  0.61118836  0.42066881
   0.69188804  0.41471508  0.56516596
   0.55994679  0.60788412  0.33512263
   0.38451676  0.46367671  0.62493836
   0.52085999  0.56015252  0.45370444
   0.67155463  0.51222728  0.49128499
   0.43687639  0.61791145  0.36643685
   0.58152774  0.36606200  0.60445919
   0.35817523  0.55006509  0.43147701
   0.60395452  0.49830333  0.38517841
   0.45881028  0.35305155  0.61590770
   0.55564809  0.46050839  0.52507324
   0.63714788  0.39905342  0.45461391
   0.34197287  0.45458230  0.50388658
   0.48846184  0.50790233  0.33697422
   0.52677501  0.25573911  0.59081921
   0.34714876  0.35467736  0.57189863
   0.36911440  0.53111055  0.31082483
   0.52191821  0.40603178  0.40368432
   0.54775967  0.32206920  0.49342544
   0.39890114  0.43823204  0.38891963
   0.44600609  0.38881244  0.49748462
   0.34298768  0.34587620  0.44712845
Direct configuration=    11
   0.75216805  0.65561528  0.64393473
   0.63868245  0.69465221  0.60633788
   0.41163890  0.64477508  0.61761189
   0.65370376  0.59276907  0.67597562
   0.70978324  0.62949155  0.53046343
   0.51853819  0.68024324  0.55655010
   0.43891471  0.55003931  0.69671781
   0.62070903  0.70948003  0.48616009
   0.55843628  0.54005696  0.72867702
   0.42409859  0.64068877  0.49047396
   0.73085170  0.53261857  0.60216112
   0.34500458  0.56602863  0.55511910
   0.51847732  0.68804989  0.42416829
   0.59237762  0.58481056  0.55643670
   0.62222695  0.47982362  0.63911875
   0.32207343  0.57410899  0.67418225
   0.47441383  0.54665148  0.57199863
   0.50643953  0.45439104  0.66056364
   0.62012473  0.71438183  0.35982610
   0.64876992  0.61097881  0.42212565
   0.69146416  0.41479557  0.56478597
   0.56003268  0.60728184  0.33468390
   0.38473970  0.46442301  0.62359818
   0.52069529  0.56038363  0.45250963
   0.67165401  0.51213320  0.49153759
   0.43727276  0.61786604  0.36567384
   0.58121897  0.36572124  0.60548333
   0.35895272  0.54998131  0.43231669
   0.60309285  0.49841960  0.38521381
   0.45989035  0.35166641  0.61701897
   0.55713652  0.45996474  0.52328200
   0.63836788  0.39803193  0.45339922
   0.34077944  0.45693163  0.50331623
   0.48853059  0.50760552  0.33655434
   0.52817813  0.25381707  0.59223387
   0.34877834  0.35480128  0.57217775
   0.36887534  0.53190067  0.31094019
   0.52115392  0.40749175  0.40664423
   0.54767803  0.32335621  0.49632587
   0.39829010  0.43857401  0.38857183
   0.44500807  0.38924259  0.49888055
   0.34169058  0.34686908  0.44716248
Direct configuration=    12
   0.75228133  0.65572684  0.64415237
   0.63838743  0.69394817  0.60647037
   0.41141457  0.64502984  0.61753593
   0.65396912  0.59228922  0.67642877
   0.71011146  0.62938736  0.52982244
   0.51802476  0.67973362  0.55671764
   0.43872230  0.54969394  0.69643101
   0.62017947  0.70943197  0.48708767
   0.55812836  0.54014624  0.72755656
   0.42357175  0.64068738  0.49038690
   0.73118158  0.53214604  0.60169081
   0.34500699  0.56574409  0.55478314
   0.51819304  0.68801443  0.42417286
   0.59353278  0.58448180  0.55601010
   0.62216229  0.48017739  0.63914372
   0.32173348  0.57408571  0.67404736
   0.47508033  0.54692087  0.57146751
   0.50626167  0.45444414  0.65915772
   0.62023186  0.71401949  0.35999765
   0.64832426  0.61039019  0.42255899
   0.69126623  0.41483825  0.56444693
   0.56011860  0.60720487  0.33466573
   0.38511689  0.46444390  0.62278099
   0.52028186  0.56079001  0.45255180
   0.67210096  0.51228822  0.49147512
   0.43740174  0.61790666  0.36551438
   0.58163049  0.36621227  0.60674142
   0.35940033  0.55074196  0.43209353
   0.60323419  0.49806383  0.38547313
   0.46018333  0.35116588  0.61742330
   0.55689127  0.46015376  0.52313242
   0.63878281  0.39777204  0.45289291
   0.34021284  0.45676928  0.50347519
   0.48828990  0.50743445  0.33650287
   0.52902446  0.25328957  0.59288055
   0.34900227  0.35499326  0.57232378
   0.36889090  0.53194278  0.31122471
   0.52104480  0.40846778  0.40734833
   0.54774119  0.32390908  0.49687097
   0.39837357  0.43880525  0.38859578
   0.44425448  0.38996472  0.49979562
   0.34117130  0.34725670  0.44708427
Direct configuration=    13
   0.75248628  0.65592866  0.64454613
   0.63785368  0.69267440  0.60671008
   0.41100870  0.64549076  0.61739849
   0.65444922  0.59142105  0.67724862
   0.71070528  0.62919886  0.52866274
   0.51709584  0.67881161  0.55702074
   0.43837419  0.54906907  0.69591212
   0.61922138  0.70934501  0.48876586
   0.55757127  0.54030777  0.72552939
   0.42261859  0.64068486  0.49022940
   0.73177840  0.53129114  0.60083992
   0.34501133  0.56522930  0.55417532
   0.51767871  0.68795028  0.42418113
   0.59562272  0.58388699  0.55523830
   0.62204531  0.48081745  0.63918888
   0.32111842  0.57404359  0.67380330
   0.47628619  0.54740827  0.57050660
   0.50593989  0.45454021  0.65661408
   0.62042568  0.71336394  0.36030803
   0.64751796  0.60932524  0.42334300
   0.69090814  0.41491546  0.56383353
   0.56027404  0.60706560  0.33463287
   0.38579933  0.46448169  0.62130252
   0.51953389  0.56152526  0.45262810
   0.67290961  0.51256870  0.49136210
   0.43763511  0.61798014  0.36522588
   0.58237501  0.36710066  0.60901760
   0.36021016  0.55211814  0.43168978
   0.60348990  0.49742017  0.38594229
   0.46071339  0.35026030  0.61815481
   0.55644755  0.46049575  0.52286179
   0.63953350  0.39730184  0.45197688
   0.33918774  0.45647555  0.50376279
   0.48785442  0.50712494  0.33640975
   0.53055565  0.25233522  0.59405053
   0.34940743  0.35534059  0.57258800
   0.36891904  0.53201896  0.31173945
   0.52084738  0.41023364  0.40862219
   0.54785545  0.32490935  0.49785720
   0.39852460  0.43922362  0.38863911
   0.44289106  0.39127122  0.50145119
   0.34023181  0.34795799  0.44694276
Direct configuration=    14
   0.75217727  0.65557478  0.64440904
   0.63754903  0.69172661  0.60726745
   0.41087143  0.64575310  0.61727976
   0.65519827  0.59154283  0.67752753
   0.71121298  0.62927015  0.52825461
   0.51682664  0.67804709  0.55721407
   0.43808259  0.54890624  0.69543775
   0.61850344  0.70915899  0.48917108
   0.55677264  0.54055220  0.72429682
   0.42209795  0.64086334  0.49035580
   0.73194189  0.53084550  0.60041861
   0.34524719  0.56519472  0.55410712
   0.51772370  0.68780891  0.42462424
   0.59640841  0.58362796  0.55490975
   0.62227220  0.48093387  0.63883267
   0.32115056  0.57393853  0.67326228
   0.47682995  0.54787419  0.57026142
   0.50570233  0.45483372  0.65512869
   0.62050275  0.71270981  0.36091917
   0.64668729  0.60923055  0.42348346
   0.69057294  0.41492184  0.56348960
   0.56032054  0.60686190  0.33473731
   0.38633090  0.46442702  0.62042788
   0.51917303  0.56193972  0.45264631
   0.67386060  0.51189749  0.49094391
   0.43790298  0.61827759  0.36486856
   0.58289006  0.36726017  0.61026168
   0.36026054  0.55236759  0.43165752
   0.60371792  0.49729632  0.38619422
   0.46101906  0.34925375  0.61836348
   0.55615101  0.46054854  0.52302445
   0.63977999  0.39732850  0.45173931
   0.33817473  0.45649284  0.50331749
   0.48791115  0.50724130  0.33643075
   0.53181204  0.25261578  0.59460709
   0.34908949  0.35521125  0.57300664
   0.36875476  0.53187706  0.31179646
   0.52049702  0.41092670  0.40946123
   0.54769812  0.32578307  0.49874193
   0.39856176  0.43940558  0.38912250
   0.44290950  0.39225628  0.50213512
   0.33976658  0.34832985  0.44677848
Direct configuration=    15
   0.75148646  0.65478367  0.64410257
   0.63686795  0.68960776  0.60851347
   0.41056455  0.64633959  0.61701432
   0.65687281  0.59181506  0.67815104
   0.71234798  0.62942952  0.52734220
   0.51622482  0.67633796  0.55764627
   0.43743071  0.54854222  0.69437725
   0.61689846  0.70874313  0.49007697
   0.55498725  0.54109862  0.72154133
   0.42093405  0.64126235  0.49063838
   0.73230738  0.52984926  0.59947674
   0.34577445  0.56511742  0.55395465
   0.51782426  0.68749286  0.42561483
   0.59816485  0.58304889  0.55417527
   0.62277942  0.48119414  0.63803634
   0.32122239  0.57370366  0.67205281
   0.47804555  0.54891577  0.56971329
   0.50517127  0.45548988  0.65180801
   0.62067504  0.71124747  0.36228541
   0.64483030  0.60901886  0.42379746
   0.68982360  0.41493609  0.56272074
   0.56042449  0.60640652  0.33497078
   0.38751925  0.46430479  0.61847259
   0.51836632  0.56286628  0.45268702
   0.67598661  0.51039698  0.49000903
   0.43850183  0.61894255  0.36406976
   0.58404148  0.36761677  0.61304291
   0.36037319  0.55292525  0.43158538
   0.60422765  0.49701944  0.38675741
   0.46170241  0.34700355  0.61882996
   0.55548808  0.46066655  0.52338810
   0.64033103  0.39738811  0.45120823
   0.33591008  0.45653151  0.50232201
   0.48803798  0.50750143  0.33647771
   0.53462078  0.25324299  0.59585131
   0.34837874  0.35492210  0.57394255
   0.36838749  0.53155985  0.31192391
   0.51971378  0.41247609  0.41133695
   0.54734639  0.32773634  0.50071980
   0.39864485  0.43981235  0.39020315
   0.44295073  0.39445845  0.50366409
   0.33872653  0.34916115  0.44641123
Direct configuration=    16
   0.75184504  0.65433992  0.64336109
   0.63629955  0.68875397  0.60886558
   0.41031142  0.64659278  0.61711099
   0.65715667  0.59083110  0.67904558
   0.71274248  0.62957815  0.52696575
   0.51651339  0.67508074  0.55803800
   0.43655714  0.54872184  0.69345135
   0.61672482  0.70838834  0.49086520
   0.55457732  0.54205319  0.71967205
   0.42056612  0.64208093  0.49048569
   0.73229819  0.52981096  0.59914004
   0.34620742  0.56503990  0.55383273
   0.51751440  0.68720141  0.42620599
   0.59880878  0.58251350  0.55349363
   0.62323248  0.48173321  0.63771606
   0.32132143  0.57349882  0.67116145
   0.47819254  0.55008466  0.57008432
   0.50528746  0.45557917  0.65006143
   0.62084797  0.71088580  0.36311598
   0.64409192  0.60871139  0.42490654
   0.68961643  0.41411411  0.56266167
   0.56026581  0.60600770  0.33474918
   0.38781215  0.46386398  0.61690246
   0.51817023  0.56288775  0.45247500
   0.67745108  0.51000371  0.48864023
   0.43844992  0.61932452  0.36358830
   0.58469502  0.36702748  0.61428482
   0.36005038  0.55266230  0.43153312
   0.60421856  0.49731776  0.38685659
   0.46169954  0.34571385  0.61853873
   0.55579119  0.46060402  0.52397882
   0.64005046  0.39736345  0.45107873
   0.33421547  0.45676884  0.50155908
   0.48825605  0.50781261  0.33670999
   0.53686299  0.25396433  0.59667411
   0.34805698  0.35477949  0.57421443
   0.36824480  0.53124158  0.31188910
   0.51940441  0.41284537  0.41201619
   0.54705084  0.32937094  0.50239808
   0.39860988  0.44024485  0.39100333
   0.44241019  0.39607073  0.50500181
   0.33843429  0.34944409  0.44658000
Direct configuration=    17
   0.75223877  0.65385265  0.64254690
   0.63567542  0.68781646  0.60925223
   0.41003347  0.64687079  0.61721713
   0.65746837  0.58975065  0.68002785
   0.71317567  0.62974135  0.52655239
   0.51683026  0.67370022  0.55846814
   0.43559791  0.54891907  0.69243466
   0.61653415  0.70799875  0.49173073
   0.55412718  0.54310136  0.71761946
   0.42016211  0.64297978  0.49031804
   0.73228809  0.52976890  0.59877032
   0.34668286  0.56495477  0.55369884
   0.51717415  0.68688137  0.42685513
   0.59951586  0.58192561  0.55274514
   0.62372996  0.48232515  0.63736438
   0.32143018  0.57327390  0.67018268
   0.47835395  0.55136818  0.57049172
   0.50541504  0.45567721  0.64814357
   0.62103786  0.71048865  0.36402800
   0.64328113  0.60837377  0.42612437
   0.68938894  0.41321153  0.56259680
   0.56009156  0.60556977  0.33450585
   0.38813378  0.46337993  0.61517835
   0.51795492  0.56291133  0.45224219
   0.67905917  0.50957186  0.48713720
   0.43839293  0.61974396  0.36305963
   0.58541266  0.36638041  0.61564852
   0.35969593  0.55237356  0.43147572
   0.60420858  0.49764533  0.38696549
   0.46169639  0.34429768  0.61821893
   0.55612403  0.46053536  0.52462748
   0.63974237  0.39733638  0.45093654
   0.33235467  0.45702945  0.50072133
   0.48849552  0.50815431  0.33696504
   0.53932507  0.25475641  0.59757760
   0.34770367  0.35462289  0.57451298
   0.36808811  0.53089209  0.31185087
   0.51906471  0.41325087  0.41276204
   0.54672630  0.33116583  0.50424095
   0.39857148  0.44071976  0.39188198
   0.44181664  0.39784111  0.50647072
   0.33811339  0.34975479  0.44676532
Direct configuration=    18
   0.75268966  0.65319822  0.64164521
   0.63564546  0.68691507  0.60976159
   0.40961322  0.64754515  0.61738097
   0.65862511  0.58945329  0.68088680
   0.71329735  0.62982429  0.52665614
   0.51748845  0.67287175  0.55898773
   0.43552897  0.54858048  0.69140458
   0.61714159  0.70801912  0.49238376
   0.55311445  0.54426828  0.71591417
   0.41985634  0.64372123  0.48972904
   0.73205285  0.53031528  0.59836680
   0.34716878  0.56486466  0.55277468
   0.51703014  0.68673747  0.42691687
   0.60012141  0.58074046  0.55174850
   0.62387188  0.48152582  0.63688178
   0.32029547  0.57307355  0.66968926
   0.47830804  0.55251537  0.57109830
   0.50584670  0.45529911  0.64697728
   0.62097395  0.71047411  0.36492943
   0.64276423  0.60826819  0.42728422
   0.68928801  0.41256934  0.56272849
   0.56033334  0.60600573  0.33423425
   0.38807132  0.46285908  0.61351390
   0.51765896  0.56209393  0.45234236
   0.68066867  0.50919428  0.48638432
   0.43743591  0.61966791  0.36300182
   0.58630670  0.36643333  0.61712672
   0.35950712  0.55283633  0.43116204
   0.60383537  0.49772923  0.38658823
   0.46142349  0.34389893  0.61752268
   0.55719733  0.46094864  0.52538380
   0.63895689  0.39723860  0.45087510
   0.33039828  0.45711571  0.50062705
   0.48800771  0.50792381  0.33732862
   0.54209023  0.25433730  0.59856792
   0.34739389  0.35441908  0.57403581
   0.36826453  0.53053349  0.31187499
   0.51882233  0.41309833  0.41300498
   0.54613760  0.33304111  0.50559859
   0.39871471  0.44114185  0.39223715
   0.44066330  0.40008510  0.50798486
   0.33830353  0.34953120  0.44737246
Direct configuration=    19
   0.75300512  0.65274034  0.64101434
   0.63562451  0.68628442  0.61011796
   0.40931919  0.64801697  0.61749559
   0.65943442  0.58924524  0.68148777
   0.71338248  0.62988232  0.52672872
   0.51794896  0.67229211  0.55935127
   0.43548074  0.54834359  0.69068389
   0.61756658  0.70803337  0.49284065
   0.55240588  0.54508472  0.71472107
   0.41964240  0.64424000  0.48931695
   0.73188827  0.53069756  0.59808448
   0.34750876  0.56480162  0.55212810
   0.51692938  0.68663679  0.42696007
   0.60054507  0.57991126  0.55105120