   27   27 1000    2
  0.3790346E+03  0.2171105E-08  0.2171105E-08  0.2171105E-08  0.1000000E-15
  1.000000000000000E-004
  CAR 
 unknown system                          
    297      1    192
 
  0.0000000E+00  0.0000000E+00  0.0000000E+00  0.1000000E+01
    1       -9.859356     -9.849734
    2       -9.430476     -9.420995
    3       -9.381008     -9.374948
    4       -9.372469     -9.359297
    5       -9.307582     -9.301780
    6       -9.297258     -9.289329
    7       -9.269948     -9.261823
    8       -9.054005     -9.038804
    9       -9.023027     -9.014264
   10       -8.956946     -8.944877
   11       -8.932309     -8.922266
   12       -8.873038     -8.862528
   13       -8.854942     -8.841499
   14       -8.826739     -8.814043
   15       -8.794470     -8.785123
   16       -8.712029     -8.699398
   17       -8.679141     -8.667320
   18       -8.646039     -8.633901
   19       -8.635076     -8.624378
   20       -8.558966     -8.545516
   21       -8.557209     -8.543952
   22       -8.528230     -8.515842
   23       -8.480577     -8.470755
   24       -8.450632     -8.441751
   25       -8.425949     -8.413144
   26       -8.411765     -8.400805
   27       -8.398286     -8.386432
   28       -8.355673     -8.339643
   29       -8.332560     -8.318140
   30       -8.308455     -8.298696
   31       -8.275801     -8.259680
   32       -8.257815     -8.245665
   33       -8.234074     -8.224863
   34       -8.221034     -8.213385
   35       -8.208819     -8.198993
   36       -8.178122     -8.162413
   37       -8.154664     -8.144181
   38       -8.146102     -8.135694
   39       -8.119436     -8.103133
   40       -8.107569     -8.094445
   41       -8.082482     -8.073585
   42       -8.056727     -8.047725
   43       -8.051053     -8.042606
   44       -8.016470     -8.008733
   45       -8.007182     -7.998844
   46       -7.977426     -7.968831
   47       -7.970502     -7.962067
   48       -7.961374     -7.947058
   49       -7.942323     -7.927742
   50       -7.923219     -7.913362
   51       -7.887672     -7.876639
   52       -7.839260     -7.826142
   53       -7.827325     -7.817387
   54       -7.814507     -7.801683
   55       -7.806162     -7.799428
   56       -7.765189     -7.755607
   57       -7.741657     -7.727219
   58       -7.726266     -7.717354
   59       -7.683864     -7.673226
   60       -7.665067     -7.655288
   61       -7.653009     -7.642666
   62       -7.632367     -7.621677
   63       -7.615561     -7.603110
   64       -7.600194     -7.590078
   65       -7.575064     -7.567044
   66       -7.556756     -7.542497
   67       -7.535883     -7.527568
   68       -7.520624     -7.511815
   69       -7.497831     -7.489935
   70       -7.489085     -7.477069
   71       -7.477415     -7.467044
   72       -7.457565     -7.446592
   73       -7.441743     -7.429958
   74       -7.419517     -7.410431
   75       -7.415312     -7.405641
   76       -7.400400     -7.391376
   77       -7.364318     -7.355471
   78       -7.321952     -7.310887
   79       -7.305998     -7.291875
   80       -7.289567     -7.276259
   81       -7.254536     -7.243118
   82       -7.217314     -7.208268
   83       -7.202436     -7.193220
   84       -7.177797     -7.167920
   85       -7.142845     -7.131766
   86       -7.129593     -7.114809
   87       -7.102423     -7.093166
   88       -7.088871     -7.079338
   89       -7.067417     -7.058317
   90       -7.033545     -7.021935
   91       -7.020489     -7.009472
   92       -7.015232     -7.002280
   93       -6.996596     -6.985711
   94       -6.978912     -6.971085
   95       -6.975946     -6.966212
   96       -6.956329     -6.944605
   97       -6.924611     -6.916037
   98       -6.901444     -6.891167
   99       -6.890160     -6.879628
  100       -6.875428     -6.866770
  101       -6.854007     -6.845193
  102       -6.850039     -6.839585
  103       -6.838091     -6.828478
  104       -6.827853     -6.820470
  105       -6.805204     -6.796658
  106       -6.786627     -6.779549
  107       -6.778071     -6.768113
  108       -6.763239     -6.753003
  109       -6.750771     -6.741466
  110       -6.740206     -6.728895
  111       -6.728184     -6.713323
  112       -6.722085     -6.711168
  113       -6.702276     -6.692774
  114       -6.697846     -6.691247
  115       -6.693210     -6.684333
  116       -6.657267     -6.645403
  117       -6.655190     -6.642887
  118       -6.639771     -6.630488
  119       -6.625431     -6.618436
  120       -6.602518     -6.594550
  121       -6.592465     -6.585690
  122       -6.583667     -6.573342
  123       -6.577901     -6.568457
  124       -6.559648     -6.552109
  125       -6.554173     -6.541424
  126       -6.535719     -6.525845
  127       -6.527148     -6.521446
  128       -6.503672     -6.484854
  129       -6.490573     -6.482618
  130       -6.487026     -6.475286
  131       -6.457836     -6.451063
  132       -6.441659     -6.434800
  133       -6.425236     -6.415281
  134       -6.410446     -6.399153
  135       -6.402042     -6.391892
  136       -6.386720     -6.378830
  137       -6.352605     -6.342356
  138       -6.283795     -6.275184
  139       -6.137338     -6.117991
  140       -5.823849     -5.813564
  141       -5.425374     -5.384479
  142       -5.414619     -5.373550
  143       -4.976636     -4.927619
  144       -4.849297     -4.830828
  145       -4.436830     -4.414106
  146       -4.123000     -4.090573
  147       -3.690744     -3.672434
  148       -3.615848     -3.591268
  149       -3.451019     -3.314633
  150       -3.109472     -3.082432
  151       -3.001840     -2.954343
  152       -2.848281     -2.821967
  153       -2.727425     -2.683768
  154       -2.573167     -2.541277
  155       -2.463487     -2.430040
  156       -2.357166     -2.342828
  157       -2.183274     -2.159147
  158       -1.947083     -1.861956
  159       -1.756813     -1.732996
  160       -1.467423     -1.442454
  161       -1.456443     -1.347959
  162       -1.288363     -1.263313
  163       -1.192316     -1.146965
  164       -1.070208     -1.046110
  165       -0.962242     -0.930317
  166       -0.954235     -0.916941
  167       -0.934185     -0.903411
  168       -0.751095     -0.710997
  169       -0.695975     -0.655442
  170       -0.596467     -0.582070
  171       -0.523357     -0.496509
  172       -0.468368     -0.408842
  173       -0.254286     -0.237342
  174       -0.169137     -0.152758
  175       -0.036251     -0.005810
  176        0.191219      0.293768
  177        0.397739      0.411196
  178        0.546388      0.596356
  179        0.575006      0.612567
  180        0.619959      0.631298
  181        0.630938      0.651266
  182        0.649699      0.681461
  183        0.686640      0.696935
  184        0.740470      0.754097
  185        0.790198      0.825785
  186        0.819060      0.843761
  187        0.832580      0.866799
  188        0.884378      0.899561
  189        0.912934      0.931858
  190        0.928781      0.943648
  191        0.935868      0.962384
  192        0.983247      0.994887
