 running on   32 total cores
 distrk:  each k-point on   32 cores,    1 groups
 distr:  one band on    8 cores,    4 groups
 using from now: INCAR     
 vasp.5.3.5 31Mar14 (build Feb 01 2018 12:10:03) gamma-only                     
  
 POSCAR found type information on POSCAR  Ag
 POSCAR found :  1 types and      21 ions
 scaLAPACK will be used

 ----------------------------------------------------------------------------- 
|                                                                             |
|  ADVICE TO THIS USER RUNNING 'VASP/VAMP'   (HEAR YOUR MASTER'S VOICE ...):  |
|                                                                             |
|      You have a (more or less) 'large supercell' and for larger cells       |
|      it might be more efficient to use real space projection opertators     |
|      So try LREAL= Auto  in the INCAR   file.                               |
|      Mind: At the moment your POTCAR file does not contain real space       |
|       projectors, and has to be modified,  BUT if you                       |
|      want to do an extremely  accurate calculation you might also keep the  |
|      reciprocal projection scheme          (i.e. LREAL=.FALSE.)             |
|                                                                             |
 ----------------------------------------------------------------------------- 

 LDA part: xc-table for Pade appr. of Perdew
 POSCAR, INCAR and KPOINTS ok, starting setup
 WARNING: small aliasing (wrap around) errors must be expected
 FFT: planning ...
 WAVECAR not read
 entering main loop
       N       E                     dE             d eps       ncg     rms          rms(c)
DAV:   1     0.204094142881E+04    0.20409E+04   -0.40319E+04   608   0.572E+02
DAV:   2     0.517400416570E+03   -0.15235E+04   -0.13549E+04  1072   0.133E+02
DAV:   3    -0.117238253108E+02   -0.52912E+03   -0.48444E+03   832   0.888E+01
DAV:   4    -0.412898742201E+02   -0.29566E+02   -0.29282E+02   664   0.240E+01
DAV:   5    -0.417046064127E+02   -0.41473E+00   -0.41411E+00   704   0.337E+00    0.262E+01
DAV:   6    -0.132477654624E+02    0.28457E+02   -0.88063E+01   608   0.156E+01    0.140E+01
DAV:   7    -0.662151601502E+01    0.66262E+01   -0.54338E+00   656   0.460E+00    0.831E+00
DAV:   8    -0.965335876731E+01   -0.30318E+01   -0.19884E+00   648   0.281E+00    0.435E+00
DAV:   9    -0.145136414144E+02   -0.48603E+01   -0.13371E+00   648   0.190E+00    0.260E+00
DAV:  10    -0.234360763869E+02   -0.89224E+01   -0.34093E+00   624   0.294E+00    0.177E+00
DAV:  11    -0.322292855056E+02   -0.87932E+01   -0.45166E+00   648   0.280E+00    0.218E+00
DAV:  12    -0.323344977972E+02   -0.10521E+00   -0.73655E-02   720   0.401E-01    0.209E+00
DAV:  13    -0.328079402267E+02   -0.47344E+00   -0.29863E-02   648   0.323E-01    0.201E+00
DAV:  14    -0.369047576907E+02   -0.40968E+01   -0.18604E+00   608   0.248E+00    0.154E+00
DAV:  15    -0.389560284554E+02   -0.20513E+01   -0.77798E-01   624   0.143E+00    0.949E-01
DAV:  16    -0.395063164495E+02   -0.55029E+00   -0.74449E-02   648   0.407E-01    0.667E-01
DAV:  17    -0.402623416116E+02   -0.75603E+00   -0.71509E-02   632   0.354E-01    0.490E-01
DAV:  18    -0.409535516626E+02   -0.69121E+00   -0.65319E-02   632   0.427E-01    0.193E-01
DAV:  19    -0.411093438420E+02   -0.15579E+00   -0.42585E-03   680   0.122E-01    0.163E-01
DAV:  20    -0.412088640869E+02   -0.99520E-01   -0.42806E-03   624   0.118E-01    0.876E-02
DAV:  21    -0.412266938856E+02   -0.17830E-01   -0.12902E-03   576   0.582E-02    0.542E-02
DAV:  22    -0.412298415839E+02   -0.31477E-02   -0.27502E-04   456   0.250E-02    0.329E-02
DAV:  23    -0.412326391329E+02   -0.27975E-02   -0.67342E-04   448   0.316E-02    0.221E-02
DAV:  24    -0.412341263189E+02   -0.14872E-02   -0.12359E-04   456   0.174E-02    0.154E-02
DAV:  25    -0.412356309874E+02   -0.15047E-02   -0.59385E-05   424   0.134E-02    0.117E-02
DAV:  26    -0.412364711808E+02   -0.84019E-03   -0.40871E-05   440   0.985E-03    0.421E-03
DAV:  27    -0.412365536265E+02   -0.82446E-04   -0.73549E-06   432   0.413E-03
   1 F= -.41236554E+02 E0= -.41236554E+02  d E =-.412366E+02  mag=     0.9991
 curvature:   0.00 expect dE= 0.000E+00 dE for cont linesearch  0.000E+00
 trial: gam= 0.00000 g(F)=  0.278E-01 g(S)=  0.000E+00 ort = 0.000E+00 (trialstep = 0.100E+01)
 search vector abs. value=  0.278E-01
 bond charge predicted
       N       E                     dE             d eps       ncg     rms          rms(c)
DAV:   1    -0.412626558178E+02   -0.26185E-01   -0.18720E+00   640   0.298E+00    0.105E-01
DAV:   2    -0.412635364639E+02   -0.88065E-03   -0.86871E-03   656   0.285E-01    0.779E-02
DAV:   3    -0.412635287307E+02    0.77332E-05   -0.15227E-04   400   0.416E-02
   2 F= -.41263529E+02 E0= -.41263529E+02  d E =-.269751E-01  mag=     0.9995
 ZBRENT: can't locate minimum, use default step
 trial-energy change:   -0.026975  1 .order   -0.026598   -0.027838   -0.025358
 step:   4.0000(harm= 11.2246)  dis= 0.01948  next Energy=   -41.392791 (dE=-0.156E+00)
 bond charge predicted
       N       E                     dE             d eps       ncg     rms          rms(c)
DAV:   1    -0.413258067469E+02   -0.62270E-01   -0.16896E+01   632   0.895E+00    0.302E-01
DAV:   2    -0.413334843993E+02   -0.76777E-02   -0.77866E-02   656   0.852E-01    0.228E-01
DAV:   3    -0.413333244999E+02    0.15990E-03   -0.14312E-03   656   0.121E-01    0.142E-01
DAV:   4    -0.413331993195E+02    0.12518E-03   -0.68449E-04   656   0.670E-02    0.277E-02
DAV:   5    -0.413331999832E+02   -0.66376E-06   -0.20358E-05   400   0.184E-02
   3 F= -.41333200E+02 E0= -.41333200E+02  d E =-.966464E-01  mag=     0.9998
 curvature:  -2.81 expect dE=-0.451E-01 dE for cont linesearch -0.432E-01
 ZBRENT: increasing intervall
 opt :  10.0000  next Energy=   -41.429238 (dE=-0.193E+00)
 bond charge predicted
       N       E                     dE             d eps       ncg     rms          rms(c)
DAV:   1    -0.413973284896E+02   -0.64129E-01   -0.67620E+01   608   0.179E+01    0.535E-01
DAV:   2    -0.414280507663E+02   -0.30722E-01   -0.30938E-01   640   0.170E+00    0.426E-01
DAV:   3    -0.414275289970E+02    0.52177E-03   -0.53661E-03   640   0.230E-01    0.285E-01
DAV:   4    -0.414269062904E+02    0.62271E-03   -0.28551E-03   640   0.134E-01    0.707E-02
DAV:   5    -0.414269242751E+02   -0.17985E-04   -0.95346E-05   384   0.403E-02
   4 F= -.41426924E+02 E0= -.41426924E+02  d E =-.190371E+00  mag=     0.9999
 curvature:  -6.25 expect dE=-0.490E-01 dE for cont linesearch -0.275E-01
 ZBRENT: increasing intervall
 opt :  22.0000  next Energy=   -41.444190 (dE=-0.208E+00)
 bond charge predicted
       N       E                     dE             d eps       ncg     rms          rms(c)
DAV:   1    -0.413378275741E+02    0.89079E-01   -0.27344E+02   608   0.362E+01    0.923E-01
DAV:   2    -0.414650720938E+02   -0.12724E+00   -0.12605E+00   632   0.348E+00    0.779E-01
DAV:   3    -0.414643034953E+02    0.76860E-03   -0.20714E-02   640   0.441E-01    0.559E-01
DAV:   4    -0.414614696581E+02    0.28338E-02   -0.87733E-03   632   0.238E-01    0.217E-01
DAV:   5    -0.414616066179E+02   -0.13696E-03   -0.11779E-03   640   0.975E-02    0.659E-02
DAV:   6    -0.414615783634E+02    0.28254E-04   -0.19969E-04   416   0.311E-02
   5 F= -.41461578E+02 E0= -.41461578E+02  d E =-.225025E+00  mag=     1.0000
 curvature:  -3.93 expect dE=-0.489E-01 dE for cont linesearch -0.254E-02
 ZBRENT: bracketing found
 ZBRENT: interpolating
 opt :  18.6743  next Energy=   -41.468630 (dE=-0.232E+00)
 bond charge predicted
       N       E                     dE             d eps       ncg     rms          rms(c)
DAV:   1    -0.414599182783E+02    0.16883E-02   -0.20743E+01   608   0.991E+00    0.263E-01
DAV:   2    -0.414698686235E+02   -0.99503E-02   -0.97887E-02   656   0.957E-01    0.186E-01
DAV:   3    -0.414697869228E+02    0.81701E-04   -0.17075E-03   664   0.128E-01    0.124E-01
DAV:   4    -0.414697105026E+02    0.76420E-04   -0.72809E-04   640   0.675E-02
   6 F= -.41469711E+02 E0= -.41469711E+02  d E =-.233157E+00  mag=     1.0000
 curvature: -10.92 expect dE=-0.102E+00 dE for cont linesearch -0.177E-03
 trial: gam= 0.35946 g(F)=  0.934E-02 g(S)=  0.000E+00 ort =-0.671E-03 (trialstep = 0.453E+01)
 search vector abs. value=  0.125E-01
 bond charge predicted
       N       E                     dE             d eps       ncg     rms          rms(c)
DAV:   1    -0.414991681953E+02   -0.29381E-01   -0.17178E+01   608   0.903E+00    0.202E-01
DAV:   2    -0.415070797314E+02   -0.79115E-02   -0.78885E-02   664   0.866E-01    0.175E-01
DAV:   3    -0.415069754166E+02    0.10431E-03   -0.12911E-03   664   0.112E-01    0.124E-01
DAV:   4    -0.415067461858E+02    0.22923E-03   -0.63129E-04   664   0.595E-02    0.495E-02
DAV:   5    -0.415067451571E+02    0.10287E-05   -0.97015E-05   424   0.272E-02
   7 F= -.41506745E+02 E0= -.41506745E+02  d E =-.370347E-01  mag=     1.0000
 ZBRENT: can't locate minimum, use default step
 trial-energy change:   -0.037035  1 .order   -0.037111   -0.041242   -0.032980
 step:  18.1394(harm= 22.6392)  dis= 0.05606  next Energy=   -41.572655 (dE=-0.103E+00)
 bond charge predicted
       N       E                     dE             d eps       ncg     rms          rms(c)
DAV:   1    -0.414947348735E+02    0.12011E-01   -0.15540E+02   608   0.273E+01    0.568E-01
DAV:   2    -0.415663132895E+02   -0.71578E-01   -0.71464E-01   640   0.261E+00    0.519E-01
DAV:   3    -0.415657807026E+02    0.53259E-03   -0.11531E-02   656   0.331E-01    0.372E-01
DAV:   4    -0.415638799010E+02    0.19008E-02   -0.39843E-03   640   0.154E-01    0.189E-01
DAV:   5    -0.415638202209E+02    0.59680E-04   -0.15944E-03   664   0.968E-02    0.620E-02
DAV:   6    -0.415638332443E+02   -0.13023E-04   -0.95194E-05   392   0.222E-02
   8 F= -.41563833E+02 E0= -.41563833E+02  d E =-.941227E-01  mag=     1.0000
 curvature: -14.54 expect dE=-0.400E-01 dE for cont linesearch -0.209E-02
 ZBRENT: extrapolating
 opt :  21.2050  next Energy=   -41.565883 (dE=-0.962E-01)
 bond charge predicted
       N       E                     dE             d eps       ncg     rms          rms(c)
DAV:   1    -0.415623237803E+02    0.14964E-02   -0.78387E+00   616   0.609E+00    0.129E-01
DAV:   2    -0.415659771238E+02   -0.36533E-02   -0.36465E-02   672   0.587E-01    0.108E-01
DAV:   3    -0.415659529371E+02    0.24187E-04   -0.58747E-04   648   0.755E-02
   9 F= -.41565953E+02 E0= -.41565953E+02  d E =-.962424E-01  mag=     1.0000
 curvature: -14.27 expect dE=-0.466E-01 dE for cont linesearch -0.469E-05
 trial: gam= 0.30800 g(F)=  0.327E-02 g(S)=  0.000E+00 ort =-0.640E-04 (trialstep = 0.787E+01)
 search vector abs. value=  0.441E-02
 bond charge predicted
       N       E                     dE             d eps       ncg     rms          rms(c)
DAV:   1    -0.415793841504E+02   -0.13407E-01   -0.18322E+01   608   0.935E+00    0.205E-01
DAV:   2    -0.415879667465E+02   -0.85826E-02   -0.85665E-02   664   0.898E-01    0.157E-01
DAV:   3    -0.415878520834E+02    0.11466E-03   -0.13767E-03   640   0.114E-01    0.109E-01
DAV:   4    -0.415876751208E+02    0.17696E-03   -0.59418E-04   648   0.589E-02    0.395E-02
DAV:   5    -0.415877188218E+02   -0.43701E-04   -0.83074E-05   416   0.250E-02
  10 F= -.41587719E+02 E0= -.41587719E+02  d E =-.217659E-01  mag=     1.0000
 trial-energy change:   -0.021766  1 .order   -0.021909   -0.025552   -0.018267
 step:  27.5987(harm= 27.5987)  dis= 0.05022  next Energy=   -41.610762 (dE=-0.448E-01)
 bond charge predicted
       N       E                     dE             d eps       ncg     rms          rms(c)
DAV:   1    -0.415534829012E+02    0.34192E-01   -0.11541E+02   608   0.235E+01    0.594E-01
DAV:   2    -0.416088267884E+02   -0.55344E-01   -0.55119E-01   648   0.228E+00    0.390E-01
DAV:   3    -0.416080024489E+02    0.82434E-03   -0.90969E-03   656   0.299E-01    0.257E-01
DAV:   4    -0.416069395579E+02    0.10629E-02   -0.34280E-03   640   0.144E-01    0.852E-02
DAV:   5    -0.416070376533E+02   -0.98095E-04   -0.31245E-04   488   0.514E-02
  11 F= -.41607038E+02 E0= -.41607038E+02  d E =-.410847E-01  mag=     1.0000
 curvature: -18.73 expect dE=-0.508E-01 dE for cont linesearch -0.263E-03
 trial: gam= 0.87445 g(F)=  0.271E-02 g(S)=  0.000E+00 ort =-0.249E-03 (trialstep = 0.922E+01)
 search vector abs. value=  0.565E-02
 bond charge predicted
       N       E                     dE             d eps       ncg     rms          rms(c)
DAV:   1    -0.416091645062E+02   -0.22249E-02   -0.32173E+01   608   0.124E+01    0.256E-01
DAV:   2    -0.416247988814E+02   -0.15634E-01   -0.15174E-01   648   0.119E+00    0.189E-01
DAV:   3    -0.416246786165E+02    0.12026E-03   -0.23697E-03   680   0.148E-01    0.133E-01
DAV:   4    -0.416244263643E+02    0.25225E-03   -0.85648E-04   648   0.694E-02    0.520E-02
DAV:   5    -0.416245082499E+02   -0.81886E-04   -0.17890E-04   432   0.347E-02
  12 F= -.41624508E+02 E0= -.41624508E+02  d E =-.174706E-01  mag=     1.0000
 trial-energy change:   -0.017471  1 .order   -0.017945   -0.023015   -0.012875
 step:  20.9244(harm= 20.9244)  dis= 0.04197  next Energy=   -41.633157 (dE=-0.261E-01)
 bond charge predicted
       N       E                     dE             d eps       ncg     rms          rms(c)
DAV:   1    -0.416068025242E+02    0.17624E-01   -0.51909E+01   608   0.157E+01    0.340E-01
DAV:   2    -0.416324759847E+02   -0.25673E-01   -0.24608E-01   648   0.152E+00    0.246E-01
DAV:   3    -0.416322976572E+02    0.17833E-03   -0.39222E-03   688   0.191E-01    0.171E-01
DAV:   4    -0.416318213699E+02    0.47629E-03   -0.14762E-03   648   0.916E-02    0.636E-02
DAV:   5    -0.416318922358E+02   -0.70866E-04   -0.24164E-04   424   0.414E-02
  13 F= -.41631892E+02 E0= -.41631892E+02  d E =-.248546E-01  mag=     1.0000
 curvature: -23.68 expect dE=-0.426E-01 dE for cont linesearch -0.162E-04
 trial: gam= 0.56598 g(F)=  0.180E-02 g(S)=  0.000E+00 ort = 0.621E-04 (trialstep = 0.116E+02)
 search vector abs. value=  0.368E-02
 bond charge predicted
       N       E                     dE             d eps       ncg     rms          rms(c)
DAV:   1    -0.416325670812E+02   -0.74571E-03   -0.32972E+01   608   0.125E+01    0.210E-01
DAV:   2    -0.416492658240E+02   -0.16699E-01   -0.15653E-01   632   0.121E+00    0.194E-01
DAV:   3    -0.416492243534E+02    0.41471E-04   -0.24080E-03   688   0.146E-01    0.146E-01
DAV:   4    -0.416488396640E+02    0.38469E-03   -0.61565E-04   648   0.616E-02    0.804E-02
DAV:   5    -0.416488212592E+02    0.18405E-04   -0.57207E-04   656   0.549E-02
  14 F= -.41648821E+02 E0= -.41648821E+02  d E =-.169290E-01  mag=     1.0000
 trial-energy change:   -0.016929  1 .order   -0.017585   -0.021194   -0.013976
 step:  33.9459(harm= 33.9459)  dis= 0.06890  next Energy=   -41.663010 (dE=-0.311E-01)
 bond charge predicted
       N       E                     dE             d eps       ncg     rms          rms(c)
DAV:   1    -0.415999003367E+02    0.48939E-01   -0.12412E+02   608   0.243E+01    0.410E-01
DAV:   2    -0.416615939891E+02   -0.61694E-01   -0.58876E-01   624   0.235E+00    0.377E-01
DAV:   3    -0.416613275048E+02    0.26648E-03   -0.90647E-03   688   0.283E-01    0.282E-01
DAV:   4    -0.416598534742E+02    0.14740E-02   -0.21159E-03   624   0.114E-01    0.161E-01
DAV:   5    -0.416596791741E+02    0.17430E-03   -0.21130E-03   656   0.105E-01    0.533E-02
DAV:   6    -0.416598057601E+02   -0.12659E-03   -0.42869E-05   424   0.162E-02    0.339E-02
DAV:   7    -0.416599656046E+02   -0.15984E-03   -0.52279E-05   448   0.162E-02    0.122E-02
DAV:   8    -0.416601090072E+02   -0.14340E-03   -0.15024E-05   448   0.100E-02    0.343E-03
DAV:   9    -0.416602371634E+02   -0.12816E-03   -0.43022E-06   440   0.456E-03    0.207E-03
DAV:  10    -0.416603075445E+02   -0.70381E-04   -0.10791E-06   424   0.206E-03
  15 F= -.41660308E+02 E0= -.41660308E+02  d E =-.284153E-01  mag=     1.0000
 curvature: -34.05 expect dE=-0.766E-01 dE for cont linesearch -0.308E-03
 trial: gam= 1.39370 g(F)=  0.225E-02 g(S)=  0.000E+00 ort =-0.182E-03 (trialstep = 0.664E+01)
 search vector abs. value=  0.889E-02
 bond charge predicted
       N       E                     dE             d eps       ncg     rms          rms(c)
DAV:   1    -0.416578849406E+02    0.23522E-02   -0.26303E+01   608   0.111E+01    0.175E-01
DAV:   2    -0.416708170830E+02   -0.12932E-01   -0.12499E-01   640   0.107E+00    0.163E-01
DAV:   3    -0.416707486710E+02    0.68412E-04   -0.18830E-03   704   0.127E-01    0.126E-01
DAV:   4    -0.416704132658E+02    0.33541E-03   -0.44637E-04   600   0.518E-02    0.710E-02
DAV:   5    -0.416703541300E+02    0.59136E-04   -0.52663E-04   648   0.522E-02
  16 F= -.41670354E+02 E0= -.41670354E+02  d E =-.100466E-01  mag=     1.0000
 trial-energy change:   -0.010047  1 .order   -0.010377   -0.013245   -0.007508
 step:  15.3281(harm= 15.3281)  dis= 0.06172  next Energy=   -41.675597 (dE=-0.153E-01)
 bond charge predicted
       N       E                     dE             d eps       ncg     rms          rms(c)
DAV:   1    -0.416519155740E+02    0.18498E-01   -0.45067E+01   608   0.146E+01    0.234E-01
DAV:   2    -0.416738821597E+02   -0.21967E-01   -0.21478E-01   632   0.141E+00    0.211E-01
DAV:   3    -0.416737479882E+02    0.13417E-03   -0.32289E-03   680   0.167E-01    0.159E-01
DAV:   4    -0.416732278202E+02    0.52017E-03   -0.73803E-04   632   0.665E-02    0.893E-02
DAV:   5    -0.416731678237E+02    0.59996E-04   -0.77879E-04   640   0.630E-02
  17 F= -.41673168E+02 E0= -.41673168E+02  d E =-.128603E-01  mag=     1.0000
 curvature: -34.14 expect dE=-0.359E-01 dE for cont linesearch -0.185E-03
 trial: gam= 0.17184 g(F)=  0.105E-02 g(S)=  0.000E+00 ort =-0.220E-03 (trialstep = 0.838E+01)
 search vector abs. value=  0.124E-02
 bond charge predicted
       N       E                     dE             d eps       ncg     rms          rms(c)
DAV:   1    -0.416774198284E+02   -0.41920E-02   -0.58234E+00   608   0.526E+00    0.124E-01
DAV:   2    -0.416802040350E+02   -0.27842E-02   -0.27358E-02   648   0.505E-01    0.979E-02
DAV:   3    -0.416801925502E+02    0.11485E-04   -0.44450E-04   648   0.627E-02
  18 F= -.41680193E+02 E0= -.41680193E+02  d E =-.702473E-02  mag=     1.0000
 trial-energy change:   -0.007025  1 .order   -0.006904   -0.008489   -0.005318
 step:  22.4240(harm= 22.4240)  dis= 0.02114  next Energy=   -41.684530 (dE=-0.114E-01)
 bond charge predicted
       N       E                     dE             d eps       ncg     rms          rms(c)
DAV:   1    -0.416776263608E+02    0.25777E-02   -0.16415E+01   608   0.884E+00    0.225E-01
DAV:   2    -0.416853562582E+02   -0.77299E-02   -0.76434E-02   640   0.844E-01    0.176E-01
DAV:   3    -0.416852239037E+02    0.13235E-03   -0.12550E-03   672   0.104E-01    0.115E-01
DAV:   4    -0.416850714335E+02    0.15247E-03   -0.63456E-04   648   0.646E-02    0.366E-02
DAV:   5    -0.416851019438E+02   -0.30510E-04   -0.41555E-05   424   0.224E-02
  19 F= -.41685102E+02 E0= -.41685102E+02  d E =-.119341E-01  mag=     1.0000
 curvature: -13.70 expect dE=-0.977E-02 dE for cont linesearch -0.388E-04
 trial: gam= 0.55707 g(F)=  0.714E-03 g(S)=  0.000E+00 ort = 0.592E-04 (trialstep = 0.112E+02)
 search vector abs. value=  0.116E-02
 bond charge predicted
       N       E                     dE             d eps       ncg     rms          rms(c)
DAV:   1    -0.416871649827E+02   -0.20935E-02   -0.97532E+00   608   0.682E+00    0.133E-01
DAV:   2    -0.416918670557E+02   -0.47021E-02   -0.45613E-02   640   0.653E-01    0.116E-01
DAV:   3    -0.416918109812E+02    0.56075E-04   -0.70441E-04   664   0.780E-02
  20 F= -.41691811E+02 E0= -.41691811E+02  d E =-.670904E-02  mag=     1.0000
 trial-energy change:   -0.006709  1 .order   -0.006656   -0.008350   -0.004962
 step:  27.5710(harm= 27.5710)  dis= 0.02268  next Energy=   -41.695393 (dE=-0.103E-01)
 bond charge predicted
       N       E                     dE             d eps       ncg     rms          rms(c)
DAV:   1    -0.416856922570E+02    0.61748E-02   -0.20973E+01   608   0.100E+01    0.221E-01
DAV:   2    -0.416954254813E+02   -0.97332E-02   -0.96734E-02   656   0.950E-01    0.189E-01
DAV:   3    -0.416951901801E+02    0.23530E-03   -0.15140E-03   688   0.113E-01    0.131E-01
DAV:   4    -0.416948354469E+02    0.35473E-03   -0.90167E-04   624   0.723E-02    0.490E-02
DAV:   5    -0.416948704984E+02   -0.35052E-04   -0.11074E-04   440   0.300E-02
  21 F= -.41694870E+02 E0= -.41694870E+02  d E =-.976855E-02  mag=     1.0000
 curvature: -21.49 expect dE=-0.135E-01 dE for cont linesearch -0.246E-06
 trial: gam= 0.91113 g(F)=  0.627E-03 g(S)=  0.000E+00 ort = 0.365E-05 (trialstep = 0.105E+02)
 search vector abs. value=  0.160E-02
 bond charge predicted
       N       E                     dE             d eps       ncg     rms          rms(c)
DAV:   1    -0.416941949268E+02    0.64052E-03   -0.11845E+01   608   0.751E+00    0.118E-01
DAV:   2    -0.416998760837E+02   -0.56812E-02   -0.55181E-02   624   0.717E-01    0.110E-01
DAV:   3    -0.416998254789E+02    0.50605E-04   -0.83519E-04   672   0.860E-02
  22 F= -.41699825E+02 E0= -.41699825E+02  d E =-.495498E-02  mag=     1.0000
 trial-energy change:   -0.004955  1 .order   -0.004960   -0.006630   -0.003289
 step:  20.8859(harm= 20.8859)  dis= 0.02186  next Energy=   -41.701450 (dE=-0.658E-02)
 bond charge predicted
       N       E                     dE             d eps       ncg     rms          rms(c)
DAV:   1    -0.416961526645E+02    0.37234E-02   -0.11514E+01   608   0.740E+00    0.133E-01
DAV:   2    -0.417013496493E+02   -0.51970E-02   -0.51975E-02   656   0.698E-01    0.131E-01
DAV:   3    -0.417012369088E+02    0.11274E-03   -0.77755E-04   672   0.811E-02    0.103E-01
DAV:   4    -0.417009976276E+02    0.23928E-03   -0.47362E-04   624   0.512E-02    0.475E-02
DAV:   5    -0.417010423968E+02   -0.44769E-04   -0.18497E-04   416   0.339E-02
  23 F= -.41701042E+02 E0= -.41701042E+02  d E =-.617190E-02  mag=     1.0000
 curvature: -26.51 expect dE=-0.102E-01 dE for cont linesearch -0.240E-04
 trial: gam= 0.43168 g(F)=  0.385E-03 g(S)=  0.000E+00 ort = 0.380E-04 (trialstep = 0.126E+02)
 search vector abs. value=  0.715E-03
 bond charge predicted
       N       E                     dE             d eps       ncg     rms          rms(c)
DAV:   1    -0.417009461465E+02    0.51481E-04   -0.76129E+00   608   0.602E+00    0.118E-01
DAV:   2    -0.417045258055E+02   -0.35797E-02   -0.35965E-02   624   0.577E-01    0.950E-02
DAV:   3    -0.417044626878E+02    0.63118E-04   -0.56216E-04   672   0.703E-02
  24 F= -.41704463E+02 E0= -.41704463E+02  d E =-.342029E-02  mag=     1.0000
 trial-energy change:   -0.003420  1 .order   -0.003464   -0.005051   -0.001877
 step:  20.0412(harm= 20.0412)  dis= 0.01209  next Energy=   -41.705061 (dE=-0.402E-02)
 bond charge predicted
       N       E                     dE             d eps       ncg     rms          rms(c)
DAV:   1    -0.417038592380E+02    0.66657E-03   -0.26697E+00   608   0.357E+00    0.853E-02
DAV:   2    -0.417050444214E+02   -0.11852E-02   -0.12275E-02   648   0.337E-01    0.698E-02
DAV:   3    -0.417050011576E+02    0.43264E-04   -0.17651E-04   408   0.402E-02
  25 F= -.41705001E+02 E0= -.41705001E+02  d E =-.395876E-02  mag=     1.0000
 curvature: -17.88 expect dE=-0.402E-02 dE for cont linesearch -0.153E-03
 trial: gam= 0.00000 g(F)=  0.225E-03 g(S)=  0.000E+00 ort =-0.782E-04 (trialstep = 0.141E+02)
 search vector abs. value=  0.225E-03
 bond charge predicted
       N       E                     dE             d eps       ncg     rms          rms(c)
DAV:   1    -0.417050936009E+02   -0.49179E-04   -0.30073E+00   616   0.378E+00    0.100E-01
DAV:   2    -0.417065502131E+02   -0.14566E-02   -0.14343E-02   648   0.362E-01    0.763E-02
DAV:   3    -0.417065789557E+02   -0.28743E-04   -0.23062E-04   440   0.457E-02
  26 F= -.41706579E+02 E0= -.41706579E+02  d E =-.157780E-02  mag=     1.0000
 trial-energy change:   -0.001578  1 .order   -0.001062   -0.003165    0.001041
 step:  11.9378(harm= 10.5990)  dis= 0.00648  next Energy=   -41.706656 (dE=-0.166E-02)
 bond charge predicted
       N       E                     dE             d eps       ncg     rms          rms(c)
DAV:   1    -0.417066431736E+02   -0.92961E-04   -0.67711E-02   648   0.565E-01    0.114E-02
DAV:   2    -0.417067398509E+02   -0.96677E-04   -0.31734E-04   560   0.579E-02
  27 F= -.41706740E+02 E0= -.41706740E+02  d E =-.173869E-02  mag=     1.0000
 curvature:  -4.52 expect dE=-0.582E-03 dE for cont linesearch -0.528E-04
 trial: gam= 0.34566 g(F)=  0.129E-03 g(S)=  0.000E+00 ort = 0.513E-04 (trialstep = 0.137E+02)
 search vector abs. value=  0.191E-03
 bond charge predicted
       N       E                     dE             d eps       ncg     rms          rms(c)
DAV:   1    -0.417071676486E+02   -0.52448E-03   -0.23863E+00   608   0.335E+00    0.600E-02
DAV:   2    -0.417083159362E+02   -0.11483E-02   -0.11403E-02   632   0.326E-01    0.512E-02
DAV:   3    -0.417083021935E+02    0.13743E-04   -0.16653E-04   424   0.415E-02
  28 F= -.41708302E+02 E0= -.41708302E+02  d E =-.156234E-02  mag=     1.0000
 trial-energy change:   -0.001562  1 .order   -0.001267   -0.002003   -0.000531
 step:  18.5846(harm= 18.5846)  dis= 0.00968  next Energy=   -41.708103 (dE=-0.136E-02)
 bond charge predicted
       N       E                     dE             d eps       ncg     rms          rms(c)
DAV:   1    -0.417085607024E+02   -0.24477E-03   -0.31532E-01   640   0.122E+00    0.306E-02
DAV:   2    -0.417087043986E+02   -0.14370E-03   -0.13968E-03   656   0.115E-01    0.269E-02
DAV:   3    -0.417087064888E+02   -0.20902E-05   -0.20920E-05   384   0.140E-02
  29 F= -.41708706E+02 E0= -.41708706E+02  d E =-.196664E-02  mag=     1.0000
 curvature: -12.12 expect dE=-0.927E-03 dE for cont linesearch -0.229E-03
 trial: gam= 0.09181 g(F)=  0.765E-04 g(S)=  0.000E+00 ort = 0.601E-04 (trialstep = 0.146E+02)
 search vector abs. value=  0.892E-04
 bond charge predicted
       N       E                     dE             d eps       ncg     rms          rms(c)
DAV:   1    -0.417091766229E+02   -0.47222E-03   -0.12843E+00   632   0.246E+00    0.492E-02
DAV:   2    -0.417098011855E+02   -0.62456E-03   -0.60134E-03   656   0.235E-01    0.400E-02
DAV:   3    -0.417097984374E+02    0.27481E-05   -0.83833E-05   368   0.281E-02
  30 F= -.41709798E+02 E0= -.41709798E+02  d E =-.109195E-02  mag=     1.0000
 trial-energy change:   -0.001092  1 .order   -0.000789   -0.001201   -0.000377
 step:  21.3399(harm= 21.3399)  dis= 0.00732  next Energy=   -41.709582 (dE=-0.875E-03)
 bond charge predicted
       N       E                     dE             d eps       ncg     rms          rms(c)
DAV:   1    -0.417099794545E+02   -0.17827E-03   -0.27146E-01   640   0.113E+00    0.287E-02
DAV:   2    -0.417101178684E+02   -0.13841E-03   -0.12379E-03   656   0.106E-01    0.222E-02
DAV:   3    -0.417101244759E+02   -0.66075E-05   -0.17663E-05   384   0.125E-02
  31 F= -.41710124E+02 E0= -.41710124E+02  d E =-.141799E-02  mag=     1.0000
 curvature: -11.60 expect dE=-0.955E-03 dE for cont linesearch -0.743E-04
 trial: gam= 0.00000 g(F)=  0.824E-04 g(S)=  0.000E+00 ort = 0.239E-04 (trialstep = 0.160E+02)
 search vector abs. value=  0.824E-04
 bond charge predicted
       N       E                     dE             d eps       ncg     rms          rms(c)
DAV:   1    -0.417103730475E+02   -0.25518E-03   -0.14165E+00   632   0.259E+00    0.658E-02
DAV:   2    -0.417110318934E+02   -0.65885E-03   -0.67799E-03   624   0.252E-01    0.520E-02
DAV:   3    -0.417110170646E+02    0.14829E-04   -0.11241E-04   416   0.335E-02
  32 F= -.41711017E+02 E0= -.41711017E+02  d E =-.892589E-03  mag=     1.0000
 trial-energy change:   -0.000893  1 .order   -0.000645   -0.001316    0.000027
 step:  15.6655(harm= 15.6655)  dis= 0.00636  next Energy=   -41.710770 (dE=-0.645E-03)
 bond charge predicted
       N       E                     dE             d eps       ncg     rms          rms(c)
DAV:   1    -0.417109871904E+02    0.44703E-04   -0.46333E-04   624   0.462E-02    0.113E-02
DAV:   2    -0.417110072010E+02   -0.20011E-04   -0.56550E-06   408   0.878E-03
  33 F= -.41711007E+02 E0= -.41711007E+02  d E =-.882725E-03  mag=     1.0000
 curvature:  -7.83 expect dE=-0.714E-03 dE for cont linesearch -0.938E-04
 trial: gam= 0.00000 g(F)=  0.911E-04 g(S)=  0.000E+00 ort = 0.314E-04 (trialstep = 0.144E+02)
 search vector abs. value=  0.911E-04
 reached required accuracy - stopping structural energy minimisation
Application 90934035 resources: utime ~17134s, stime ~157s, Rss ~70028, inblocks ~81959, outblocks ~152444
