20
Energy = -40.38440346 eV
Ag 9.799170048466095 7.297532486053332 11.50491008502314
Ag 9.350937562418688 7.899248561448496 5.979021050440573
Ag 8.327380277643881 9.091184984655213 13.037030876906895
Ag 9.47750011657378 7.422605223005666 8.741282743415892
Ag 10.367528483289464 9.862602292235188 10.198710975985174
Ag 8.723745385374052 9.992914579388865 7.684082951181834
Ag 11.111367164165467 9.275109744489642 12.981976167768625
Ag 11.409340151585154 9.108747953461085 7.481896009800519
Ag 9.519957330905672 11.568802806388126 12.418822974198124
Ag 12.079850534188067 7.711366735332361 9.906048999927208
Ag 7.69157621678472 9.064368706747118 10.224574069001862
Ag 8.337016708450308 11.836091785444815 9.579928918056876
Ag 6.793019239867191 11.149234277918413 11.863410950103638
Ag 13.604995581496144 9.085949924116935 11.823836230496935
Ag 13.050045878138416 10.32154700594412 9.317532701157313
Ag 12.275080049484997 11.549941564897589 11.748422110938142
Ag 10.850940940015711 11.846841246847223 8.135932247612455
Ag 13.054118150763822 13.09801509236876 9.46755678491424
Ag 7.938110751144642 13.726952764282597 11.511603238979747
Ag 10.507857917247808 13.369324684774384 10.514737262501095
