   20   20 1000    2
  0.3796285E+03  0.1965454E-08  0.1965454E-08  0.1965454E-08  0.1000000E-15
  1.000000000000000E-004
  CAR 
 unknown system                          
    220      1    144
 
  0.0000000E+00  0.0000000E+00  0.0000000E+00  0.1000000E+01
    1       -9.426451     -9.426451
    2       -9.105903     -9.105903
    3       -8.986659     -8.986659
    4       -8.972294     -8.972294
    5       -8.879311     -8.879311
    6       -8.866780     -8.866780
    7       -8.851387     -8.851387
    8       -8.815237     -8.815237
    9       -8.764497     -8.764497
   10       -8.682686     -8.682686
   11       -8.646903     -8.646903
   12       -8.615588     -8.615588
   13       -8.596640     -8.596640
   14       -8.577723     -8.577723
   15       -8.567513     -8.567513
   16       -8.503422     -8.503422
   17       -8.487114     -8.487114
   18       -8.481111     -8.481111
   19       -8.445422     -8.445422
   20       -8.427691     -8.427691
   21       -8.351695     -8.351695
   22       -8.342763     -8.342763
   23       -8.312107     -8.312107
   24       -8.295542     -8.295542
   25       -8.280270     -8.280270
   26       -8.238278     -8.238278
   27       -8.213683     -8.213683
   28       -8.162647     -8.162647
   29       -8.142004     -8.142004
   30       -8.103610     -8.103610
   31       -8.087521     -8.087521
   32       -8.058027     -8.058027
   33       -8.014675     -8.014675
   34       -7.964206     -7.964206
   35       -7.955532     -7.955532
   36       -7.902781     -7.902781
   37       -7.868676     -7.868676
   38       -7.850344     -7.850344
   39       -7.831346     -7.831346
   40       -7.772740     -7.772740
   41       -7.731395     -7.731395
   42       -7.681761     -7.681761
   43       -7.654654     -7.654654
   44       -7.638775     -7.638775
   45       -7.569135     -7.569135
   46       -7.539172     -7.539172
   47       -7.508329     -7.508329
   48       -7.443935     -7.443935
   49       -7.381598     -7.381598
   50       -7.368875     -7.368875
   51       -7.338904     -7.338904
   52       -7.307625     -7.307625
   53       -7.287168     -7.287168
   54       -7.266945     -7.266945
   55       -7.239840     -7.239840
   56       -7.227348     -7.227348
   57       -7.187525     -7.187525
   58       -7.176730     -7.176730
   59       -7.170498     -7.170498
   60       -7.132715     -7.132715
   61       -7.123028     -7.123028
   62       -7.080687     -7.080687
   63       -7.071683     -7.071683
   64       -7.054435     -7.054435
   65       -7.047187     -7.047187
   66       -7.027260     -7.027260
   67       -7.007846     -7.007846
   68       -7.000920     -7.000920
   69       -6.968907     -6.968907
   70       -6.949702     -6.949702
   71       -6.931551     -6.931551
   72       -6.925097     -6.925097
   73       -6.896069     -6.896069
   74       -6.878918     -6.878918
   75       -6.859592     -6.859592
   76       -6.852229     -6.852229
   77       -6.821096     -6.821096
   78       -6.797270     -6.797270
   79       -6.777427     -6.777427
   80       -6.762053     -6.762053
   81       -6.727857     -6.727857
   82       -6.725545     -6.725545
   83       -6.707932     -6.707932
   84       -6.675437     -6.675437
   85       -6.669803     -6.669803
   86       -6.660798     -6.660798
   87       -6.614647     -6.614647
   88       -6.590059     -6.590059
   89       -6.559814     -6.559814
   90       -6.538477     -6.538477
   91       -6.516834     -6.516834
   92       -6.477468     -6.477468
   93       -6.468695     -6.468695
   94       -6.450617     -6.450617
   95       -6.446185     -6.446185
   96       -6.425855     -6.425855
   97       -6.381242     -6.381242
   98       -6.359659     -6.359659
   99       -6.336616     -6.336616
  100       -6.331021     -6.331021
  101       -6.286684     -6.286684
  102       -6.242427     -6.242427
  103       -6.206797     -6.206797
  104       -6.090725     -6.090725
  105       -4.978857     -4.978857
  106       -4.701861     -4.701861
  107       -4.571545     -4.571545
  108       -4.483264     -4.483264
  109       -4.207837     -4.207837
  110       -3.710258     -3.710258
  111       -2.913730     -2.913730
  112       -2.791903     -2.791903
  113       -2.619865     -2.619865
  114       -2.421027     -2.421027
  115       -2.339431     -2.339431
  116       -2.240307     -2.240308
  117       -2.163488     -2.163488
  118       -2.082729     -2.082729
  119       -1.957900     -1.957900
  120       -1.570636     -1.570637
  121       -1.033846     -1.033847
  122       -0.940168     -0.940167
  123       -0.808807     -0.808808
  124       -0.568250     -0.568250
  125       -0.449063     -0.449062
  126       -0.380389     -0.380388
  127       -0.326916     -0.326917
  128       -0.205967     -0.205969
  129       -0.158645     -0.158645
  130       -0.098214     -0.098214
  131       -0.019854     -0.019855
  132        0.122549      0.122548
  133        0.350886      0.350889
  134        0.403571      0.403571
  135        0.539345      0.539339
  136        0.689896      0.689896
  137        0.752887      0.752880
  138        0.787365      0.787370
  139        0.814002      0.814012
  140        0.840281      0.840272
  141        0.884282      0.884282
  142        0.951881      0.951888
  143        0.978037      0.978041
  144        1.045122      1.045111
