26
Energy = -53.31926997 eV
Ag 15.262282819634525 9.267205375244005 10.592929026215412
Ag 11.514231189263652 7.261288009204163 12.770968862489745
Ag 12.909462692263522 9.554604592720606 12.231722729006234
Ag 13.636575362480269 7.010277364630275 11.08090180881908
Ag 12.851158232081145 9.051319037721479 9.364349010955467
Ag 13.433612711688983 11.644761650984282 10.564816634418209
Ag 14.78301854776177 10.793147089465144 8.257963847203156
Ag 9.218629002316789 8.682383650849728 12.411745797903247
Ag 11.07608139771516 9.753119179309843 14.2755723708756
Ag 13.725407679444793 13.338908675768854 8.388603515624254
Ag 11.202120494884586 8.388102450651962 7.287756986856912
Ag 11.59318011285322 12.152142429808352 12.774363795423492
Ag 10.533322180277569 7.7278018414709315 10.080500896410678
Ag 11.72654717402842 11.281932784324306 8.141262139344448
Ag 10.62028187125965 10.693620068888528 10.704360129307647
Ag 11.485697342490068 13.571004202223932 10.031366541597174
Ag 9.190842559741473 9.735524109320059 8.449556143826003
Ag 8.899514151984649 11.250449444251373 13.354975421539773
Ag 7.708917436588229 8.126375816784114 10.180418010453817
Ag 9.17820850257603 13.296555548145795 11.587574064111958
Ag 9.196299224459597 12.485219136183828 8.756815918349423
Ag 7.72330508424248 10.876247849397002 10.563928487535728
Ag 9.204707335755302 15.157823031688816 9.494396403659408
Ag 6.6234541015397985 9.550456935865752 12.777983294145944
Ag 6.43501158509597 12.3535651740851 12.468719208072763
Ag 6.896686538635511 13.624719882073817 10.035004286916738
