19
Energy = -12.47306659 eV
Cs 13.140826884439422 14.918097090876968 15.256868228251191
Cs 17.838545894263355 12.72191042172587 16.4342785362834
Cs 4.8371601560984026 15.662827452909452 0.5062234398092919
Cs 7.144826114691153 15.006937200604737 16.29030336478619
Cs 11.0981637839623 17.03572580992193 19.409838394481582
Cs 1.6674171312684223 16.55515572525772 4.957546186361937
Cs 2.826923456712274 11.606949756286873 17.180473262045748
Cs -0.7407415218239717 7.517664768204199 18.228274028663613
Cs 1.5188893145368605 16.657251948322582 16.41380016559125
Cs 16.80207087097708 17.34564535027906 19.19936396302527
Cs 1.1449524251397223 19.48930818608829 0.49206095382354686
Cs 17.55913691591763 17.43021867786513 13.386958272941984
Cs 20.23443169871472 13.92973334092836 0.739130364170988
Cs -1.3290499660340505 1.5052224311299176 16.69993974600204
Cs 13.966614029421777 0.12480943915908595 16.032119125106988
Cs 17.628219650946317 19.231229173489673 4.318771246654762
Cs 18.599626721190027 3.3140002028213282 1.289033352758329
Cs 13.992524139526353 0.8813135436508936 1.1248508632634588
Cs 14.799478635878776 4.950710626801134 18.282801247522176
