10
Energy = -5.78995481 eV
Cs 17.561651327622517 18.441379422515364 10.701812158935121
Cs 13.68359227918053 17.901226448210203 13.754395186036948
Cs 18.49039183674839 18.90620171782762 15.733530466730427
Cs 10.474686175787838 17.169022115323205 17.548678743700393
Cs 17.823635171484707 14.136954786141274 13.781868802997977
Cs 19.045057742144795 18.458916651138768 1.1695423776248306
Cs 15.206352482120922 15.103708110455694 18.053060679822522
Cs 0.5963846708292948 14.049270888482715 18.374335673393777
Cs 14.629906842745072 0.616006909229314 18.792025990793633
Cs 3.1886410849507794 15.546224542838786 2.7910495335797707
