13
Energy = -7.98737648 eV
Cs 14.98292585919281 18.951141413231777 19.647617726184677
Cs 14.466628524353267 1.12889787292642 14.61967052520003
Cs 13.783885498392236 13.758471381652356 0.9274206839846091
Cs 15.446648760682045 15.63728022808297 15.346883874782444
Cs 16.45500892088471 17.591951678919738 10.464817846002516
Cs 10.995086434492457 17.419118329454335 16.884242314248347
Cs 11.172506513647187 12.367812620771602 15.541304748220618
Cs 17.561019969304702 12.330397376838704 12.18084352650537
Cs 18.242796597091672 12.73894234620559 18.134426344058237
Cs 15.115777035996084 9.14326872696787 15.92098048435592
Cs 11.979144194012441 15.50578134020888 11.438842904889468
Cs 14.94076613227289 13.608082240859646 6.989077456164381
Cs 13.309201851861602 10.007824417142391 10.99187453507191
