28
Energy = -19.63253703 eV
Cs 19.007581894712636 12.954212426313017 13.235650811610721
Cs 15.153048538873753 11.039960246042503 16.714931079027195
Cs 14.251939600614014 15.542331002355535 13.731387389922213
Cs 0.019809367524555536 10.142927478586255 18.116418715319302
Cs 19.26844304369861 18.118476565369264 12.465089587473221
Cs 12.577944069494501 15.78933318682241 18.749557782871033
Cs 2.813048418540203 14.76997603267014 16.311681423197165
Cs 18.228694086027573 15.516720054688673 17.728368461920926
Cs 14.3744932217447 20.28516959467997 10.918971727411845
Cs 10.145626029961498 18.86608860168618 14.51944976568137
Cs 16.036381545613168 17.20006827795629 2.1910713972700715
Cs 2.438472253790443 13.986985682647845 0.9086991986848584
Cs 15.793620222362104 20.117150083720073 16.58567658244364
Cs 17.72802721548562 12.333239995011146 1.3050692725465527
Cs 20.157504979881484 15.306695717528479 5.265919513956599
Cs 2.714644782761983 20.005981025251145 16.167207762151065
Cs 12.31006169723977 3.197795703915047 14.390776927379752
Cs 17.982432948813265 2.8190384234013734 13.09178198104838
Cs 11.04996113363184 0.7632451143274834 19.278996671110836
Cs 6.804335549513403 17.297506144009386 19.37233628561825
Cs 0.14062462609781953 18.85299697439612 0.10186000953821273
Cs 16.347986231489468 1.7019291758437252 0.9257144070935869
Cs 20.447866895796473 3.4064770666652366 18.002789382776644
Cs 18.21327417891778 20.420056719613292 6.1702111704623
Cs 3.890434873681511 18.592197239153457 3.4508857174007046
Cs 15.6651276884526 5.541169733797314 17.56580458660054
Cs 5.275884971539858 1.9001318363664816 20.282285250972553
Cs 0.8983953243330107 2.8097832003744143 2.6253993326851
