21
Energy = -13.91677221 eV
Cs 0.15265759424688044 17.778720275410198 4.632517554975083
Cs 18.471642574026262 0.9230000439923034 3.965378619621482
Cs 4.163277427051636 20.56912009862088 2.6606888894690113
Cs 16.609627767127115 3.907082283055578 0.045872448161730896
Cs 21.102567658729043 20.306368942650188 20.83707864429581
Cs 2.976439724118105 15.982759532304561 0.2705601139052954
Cs 8.637753257159572 -1.0564967775677698 0.2755920283768082
Cs 16.855610736745064 17.529276097290673 1.969621962274999
Cs 7.555446549889712 15.771254578954213 18.58069253981312
Cs 13.37978642552605 0.26863575892569247 2.1117996461515998
Cs 18.96493397458824 16.173875552628697 18.44908173871538
Cs 4.505609727177221 -0.6556164907528422 18.04527040783791
Cs 11.923957942021877 2.3711947717393556 18.575502947478764
Cs 2.658913068051429 15.685778682694586 16.31330896222678
Cs 16.353509190286395 -0.4050676063954836 18.579558600588403
Cs 12.615289460821925 17.242246468586867 19.769511951300178
Cs 20.447802005451965 3.165675138789305 17.64962012694951
Cs 19.2388890164517 15.699240986839506 13.080987697759877
Cs -0.2455012075261966 20.059118927476675 15.01340821133537
Cs 9.568626428938783 19.91191453262703 15.811189784224087
Cs 14.594949376137503 17.76815166188989 14.743596678305286
