20
Energy = -13.47211779 eV
Cs 17.52685541473616 19.08488546418866 5.083755456758525
Cs 17.827226435085475 6.715940603670022 18.93551878283232
Cs 0.006428571464147231 17.291888694194252 16.323311022881928
Cs 15.087698238256142 4.5869185277984075 3.842362522957882
Cs 17.94211348236036 1.3260330997365641 0.5826482678498801
Cs 16.536374323012684 2.326829610046428 15.31659411461215
Cs 12.650396431549803 0.1853629328898976 2.0932482693612906
Cs 5.957366670908542 5.395120213212069 4.814539684031245
Cs 0.8314187521831344 4.884046890907542 4.199058221808083
Cs 3.6118080485055004 13.653372515319635 15.541599496405626
Cs 1.6749935156851719 15.772191222267102 2.110446943400038
Cs 3.8898332045200643 7.786509027482688 0.29743194459285716
Cs 7.904958252819122 2.9245821197106125 0.7355527495399002
Cs 12.972259524798666 4.5127281075093455 -1.0775191416640562
Cs 15.889819715896762 15.619076266653943 0.7785883428500519
Cs 3.8623142916384503 0.7229147282746973 3.5761340271523783
Cs -0.22397554433925154 11.75296718525567 18.711220736461396
Cs 2.780243882764533 3.09204873215604 17.819194978887758
Cs 5.847326551040645 12.452781206722099 0.6546910791595223
Cs 5.3816895954433015 17.870952210333037 18.240444981867306
