37
Energy = -26.09771628 eV
Cs 5.363202148869205 19.6225732362788 18.357335662803465
Cs 4.816938243750358 3.296019923467518 18.49788598026469
Cs 4.975300620749468 0.6758037671930185 0.687972394553414
Cs 5.252417659534207 17.54354198134072 1.1054838049953852
Cs 3.025700135790945 0.5567253409744246 14.201978935879806
Cs 0.5586230538137639 3.9963772267882747 21.980764298548223
Cs 0.9714510034514735 14.7888882366098 2.614395272455742
Cs 20.448201411046956 16.986820626356952 6.647331091188101
Cs 0.5131133855074125 0.13973084325415766 18.80087733209337
Cs 0.167402580604046 4.817806511144363 16.16424069258975
Cs 3.394370687494503 14.137222334578517 19.21214213211529
Cs 1.1069795100238564 17.828783323981263 15.182582278772292
Cs 0.6912235047666465 20.553730856662025 2.787998562327825
Cs 21.2516576878284 3.0366546783136372 11.055870168247903
Cs 21.80335916482535 20.153756246748937 10.346353773037858
Cs 0.26470711836786437 17.691245052702726 20.46075336561933
Cs 20.049775593729347 12.7157353610473 21.009550585462044
Cs 20.83740852744183 13.409864137089437 16.025154545620797
Cs 18.394237407873177 21.945596262476457 5.565462674514455
Cs 16.57333626118703 -0.19451044543446097 10.504468093285446
Cs 17.832595492132683 17.400966518049177 1.669385613298952
Cs 18.415124556259922 0.2963521908787469 0.16360616834580166
Cs 17.542739902921898 5.460694128745606 13.636242696623881
Cs 17.668045168298395 13.01538151317097 4.110895393097778
Cs 19.04846677015209 -0.14955982945174875 15.058432585845194
Cs 18.212953954880746 16.729620887823643 12.564138026702144
Cs 15.341154788026387 17.81462298956033 7.047963552923202
Cs 15.468612203086622 13.592997519105676 16.279269177562288
Cs 17.702139837711275 17.807201973808873 18.388813241046844
Cs 17.687861409557378 3.8336667292971134 18.637653437557226
Cs 15.04535258948406 12.556815387712813 21.414596972166954
Cs 13.651506714485281 20.559375579114857 2.4079278092123286
Cs 13.80516696487811 2.0314564598931955 14.540039596614605
Cs 13.69511099414729 18.776707567449076 14.618327023095352
Cs 12.605560127110081 15.388426989211474 3.011631567140064
Cs 14.10311350175041 21.818714394996608 19.204797970460493
Cs 12.556426338357907 16.859368122522923 19.89575794028898
