33
Energy = -23.55744131 eV
Cs 4.062907572196427 13.67006680071054 13.423104153574652
Cs 6.171144589974806 17.862940159594043 16.14372873031806
Cs 3.6616035103380704 13.146830383353372 18.905129040236872
Cs 0.029325478823724854 10.643154105657699 14.978925970772218
Cs 2.8689728259513894 18.52130845869989 11.573796359588243
Cs 3.968866103207564 18.257644618388138 20.882492488399468
Cs 19.975271781836174 14.974786219696036 11.46703197586714
Cs 0.5083935466220073 16.41930569216176 16.56672562562562
Cs 19.186272717107006 11.40017474240618 19.85187107756254
Cs 20.313001267294347 16.018550798901224 1.286884761054587
Cs 1.973314965556866 0.787293149162248 15.65686312256975
Cs 1.2893199046890318 -0.009932234957226753 3.7937670932691154
Cs 16.29814139978623 13.134157824932368 15.104494161763983
Cs 18.91616657858435 20.76068599515947 11.407771005561674
Cs 3.949178066091644 2.6188372389145096 20.631615538337766
Cs 20.103437020452382 0.5103183783049529 19.938502310434163
Cs 16.95197728704641 18.5481436852526 16.01268144262341
Cs 0.3955455640703254 5.930922942061044 18.116476701938442
Cs 14.98762263442751 16.538476549420352 10.875285734237757
Cs 15.004540821633613 15.124674453552252 19.82995893209074
Cs -0.008019630192905575 5.128139333828965 2.2525474912377565
Cs 15.314932434563026 14.953762313881397 4.133863785140188
Cs 19.185404624822773 17.857912841116345 6.807386393778975
Cs 16.325138010086263 19.567159899702997 1.7070913614870178
Cs 17.589096732192395 2.9970658388771723 15.63010579283102
Cs 11.595395335760697 16.792814362185 15.754535474696414
Cs 13.41572038376974 0.24046370990777627 12.860516817794261
Cs 16.424724095261503 4.34493207581666 20.771658805634043
Cs 17.622326669756653 2.117080254678841 5.325599262536914
Cs 13.034363442923551 0.26424699010380726 18.531279826311174
Cs 11.025034196054097 17.62508439759916 1.2982746291082314
Cs 13.798619484268276 19.590329742045146 6.614834939128495
Cs 12.473867074155674 1.940116543142025 2.539726970221986
