37
Energy = -26.01252238 eV
Cs 13.822384246923844 1.517396551692258 3.189652686065811
Cs 12.186074574235157 20.069138850359202 1.0928632021606868
Cs 13.662329937299278 1.3778609994045075 21.30667354317792
Cs 18.2617877039785 3.8783449112382615 1.1033763554829232
Cs 17.855522695531242 4.678188864895284 19.118742623119985
Cs 15.235227460521276 20.33023861754534 5.542058981654643
Cs 15.495665619387813 19.103370361568714 20.497832167933655
Cs 18.804577055069817 0.9650987497790235 5.807803538753574
Cs 22.416679891171633 5.959250915317261 22.124864595322627
Cs 16.887438118185802 -0.1718871059722711 17.18315686954823
Cs 17.842355113485826 22.142005648597234 0.7971854767241074
Cs 21.44975684023816 7.867521259358427 17.164388243341897
Cs 17.582556938170196 17.051205736325773 2.1984692447932357
Cs 20.894688535891593 2.769771939612206 14.959897209638244
Cs 18.28467463659405 18.14050290944788 16.19847346349897
Cs -0.1518535309664819 3.186618872423712 3.4585170883594643
Cs 21.602543659347326 0.8232428687029328 20.38276342396512
Cs 20.196140507178143 19.09165503771011 6.821029730379756
Cs 22.69084791765156 21.326071166019787 2.610731480297921
Cs 1.928653197548618 4.27884858417827 17.88063711028124
Cs 20.642480483120366 21.311437913743852 12.314317421290841
Cs 20.892786710601587 18.549151852687633 21.33830926293179
Cs 22.854876876945962 16.065123150839273 2.4954481470401135
Cs 2.0832776086932245 -0.1288951006593636 14.928159598299438
Cs 3.311525513412165 2.7624922254397695 22.86777363042162
Cs 2.059394723131082 18.724280052870288 6.919528104631912
Cs 2.6420625846750103 21.16748408935922 21.342327436816884
Cs 0.24637225832681858 0.2637637537116318 8.299571907570616
Cs 0.11554779501017837 18.84231154296339 16.77346939646052
Cs 4.121854494681306 23.052308781570318 4.26745494136449
Cs 4.560525855367812 18.150359209502593 2.35063023300193
Cs 2.485938229263222 15.947578271454624 21.062466344450403
Cs 6.21771403709476 1.0910381991288913 18.439896359660484
Cs 5.38945121059045 19.246316887517093 17.29134801179877
Cs 7.739126498567269 22.72762987329876 0.005323045166051692
Cs 7.869768248950742 17.618275485162208 21.739755128041498
Cs 10.655184688282013 21.060837007363382 18.96104293070993
