4
Energy = -1.76066303 eV
Cs 8.626685337720353 11.012806372062567 8.073042615792119
Cs 12.678404163739302 13.446428430676105 11.225611390137745
Cs 11.134427618503993 8.704768856860396 11.557066394832818
Cs 7.016086472893337 6.290802603236339 8.599649148907215
