4
Energy = -1.60189721 eV
Cs 3.116250013906569 17.16715362079812 2.849340352703947
Cs 2.3342212233754633 2.9502807119604064 16.771659366500902
Cs 1.1057689859180935 6.392324812332424 13.112055309660352
Cs 3.3036675379527205 13.686303402128782 6.654539536643567
