44
Energy = -31.93710095 eV
Cs 3.475282551582328 21.175795512710405 12.06171069279837
Cs 7.28623107830694 17.990463369062102 17.742129153853192
Cs 6.473249503120056 1.2006422513858332 16.365876782413476
Cs 3.7119945900167184 16.226907268387883 14.375371570041217
Cs 20.081493832705828 1.0842445590688392 12.397202899734067
Cs 20.763217805143345 17.612800424465096 13.043268332652323
Cs 2.3320117912551117 3.9707696702226034 14.157567683546853
Cs 0.14505667547431927 12.36591250293863 14.589789919529855
Cs 15.668913928225352 19.278209507617813 13.895374179708343
Cs 1.5061567142057677 20.77206616490302 16.626133631224715
Cs 16.93294798659792 13.32222029895055 14.87011086613335
Cs 4.482143262900669 21.164472353749364 21.257496650971536
Cs 4.5268522617283935 12.52766720767846 18.298280963853305
Cs 6.200423914978193 15.911985597013391 0.44764546221429735
Cs 1.5356794108056868 16.4782694464453 19.39423534672138
Cs 1.204930946638533 3.287494852829162 19.2411542609987
Cs 18.25876698710033 0.5869422041371387 17.44753598083791
Cs 15.263133041732345 3.0197386890851865 13.896270953398787
Cs 20.483456375922803 11.675368337373804 19.373651840187332
Cs 19.649963793901154 6.055094906784002 15.686306831434491
Cs 1.526902421759687 13.205334851646636 1.3916790353059993
Cs 18.580733184237783 16.92738428246353 17.88280292437558
Cs 15.519590878516958 11.282813649250208 20.496089101785824
Cs 20.87151224041583 20.489322773880332 21.46369864825776
Cs 12.252338246666916 0.0212896695918085 17.315480721927802
Cs 12.9561253798193 16.498698980474675 17.744873779117544
Cs 19.246581722580036 10.307709067399147 2.884673266649113
Cs 15.275131187573365 5.648263704490346 18.66824219682472
Cs 18.16435234352042 15.546265572646252 0.8083407418862222
Cs 20.07448902811123 6.764865089545241 -0.5692137554718278
Cs 15.101959413886716 19.944090584319845 21.552247927147896
Cs 17.588863728508233 2.48618217811517 0.27154254226119157
Cs 1.773203578097241 18.267934873687555 3.14699740305714
Cs 0.8028237633251671 2.4685929437418817 2.475953303795717
Cs 11.94800551547595 15.142713873654628 0.7946417275720589
Cs 11.690380602810869 3.147351276338654 -0.2982937183098668
Cs 14.838892030393735 12.373028948377101 4.115712160628132
Cs 9.84694084565339 20.1226581889283 0.11056174563038977
Cs 19.65212300845076 15.163774115140248 5.635569288541663
Cs 14.834431969166024 7.020724328100502 2.0674968531640556
Cs 18.84585760126637 20.774035696184356 4.389253629529469
Cs 14.427847349620372 17.76687259060259 4.661466726365621
Cs 18.82496773093677 4.946422261482196 4.9334516778225845
Cs 14.133489525912212 1.2396672056883784 4.111464998366008
