5
Energy = -2.02987899 eV
Cs 10.11242252444215 12.861270320302516 14.236686008945407
Cs 1.7572368549192168 0.48890878253319464 16.9916908522371
Cs 15.15984790952109 0.6000679619864882 0.4375269270258843
Cs 0.47729165533568646 15.237995439566566 13.626997311153595
Cs 14.549223709884277 14.444237646202879 16.239121900077055
