5
Energy = -2.07449634 eV
Cs 11.895091145831078 6.075757607830959 8.52457844
Cs 11.895091145831078 10.973399272169043 8.52457844
Cs 7.2371571471223595 12.486853775040863 8.52457844
Cs 4.3583956045223395 8.52457844 8.52457844
Cs 7.2371571471223595 4.562303104959139 8.52457844
