7
Energy = -3.59912469 eV
Cs 16.604590553229333 0.2555838471376988 10.996801353426177
Cs 16.11639381228822 1.6981812925627866 15.843783058286274
Cs 11.970156488866804 16.19736943048313 12.787145542883765
Cs 16.44576543034744 13.720501478008869 14.292185501195178
Cs 15.686335445334018 15.753167432342082 1.9981082753576827
Cs 11.564989335896549 12.792319317457935 16.324590581694746
Cs 15.785682734138616 10.72754417901898 1.0810799383033722
