9
Energy = -5.13211309 eV
Cs 17.0379037765246 11.232558878020065 12.789208579841567
Cs 3.043254471471284 13.902053744298122 13.363134202244044
Cs 1.817682376989497 18.045024641779708 15.68018108612697
Cs 15.987649514484092 16.431226428166305 12.276051731772908
Cs 17.23603622621312 13.740025155086482 17.497295625497784
Cs 15.219692735529183 0.2963975621714978 16.853390649136742
Cs 12.718132118164364 13.009429408486211 14.638779852670154
Cs 10.83364684257765 17.644227883280134 14.104337841006293
Cs 12.281633993221256 15.12955182422985 0.9069902425207633
