  45  45   0   0
  0.2923155E+03  0.2360595E-08  0.2360595E-08  0.2360595E-08  0.1000000E-15
  1.000000000000000E-004
  CAR 
 unknown system                          
      1.94637053    -10.47900635  301     -3.29299672      1.00000000
    -10.479  0.0000E+00  0.0000E+00  0.0000E+00  0.0000E+00
    -10.438  0.0000E+00  0.0000E+00  0.0000E+00  0.0000E+00
    -10.396  0.0000E+00  0.0000E+00  0.0000E+00  0.0000E+00
    -10.355  0.0000E+00  0.0000E+00  0.0000E+00  0.0000E+00
    -10.313  0.0000E+00  0.0000E+00  0.0000E+00  0.0000E+00
    -10.272  0.0000E+00  0.0000E+00  0.0000E+00  0.0000E+00
    -10.230  0.0000E+00  0.0000E+00  0.0000E+00  0.0000E+00
    -10.189  0.0000E+00  0.0000E+00  0.0000E+00  0.0000E+00
    -10.148  0.0000E+00  0.0000E+00  0.0000E+00  0.0000E+00
    -10.106  0.0000E+00  0.0000E+00  0.0000E+00  0.0000E+00
    -10.065  0.0000E+00  0.0000E+00  0.0000E+00  0.0000E+00
    -10.023  0.0000E+00  0.0000E+00  0.0000E+00  0.0000E+00
     -9.982  0.0000E+00  0.0000E+00  0.0000E+00  0.0000E+00
     -9.941  0.0000E+00  0.0000E+00  0.0000E+00  0.0000E+00
     -9.899  0.0000E+00  0.0000E+00  0.1000E-02  0.1000E-02
     -9.858  0.0000E+00  0.0000E+00  0.1000E-02  0.1000E-02
     -9.816  0.0000E+00  0.0000E+00  0.1000E-02  0.1000E-02
     -9.775  0.0000E+00  0.0000E+00  0.1000E-02  0.1000E-02
     -9.733  0.0000E+00  0.0000E+00  0.1000E-02  0.1000E-02
     -9.692  0.0000E+00  0.0000E+00  0.1000E-02  0.1000E-02
     -9.651  0.0000E+00  0.0000E+00  0.1000E-02  0.1000E-02
     -9.609  0.0000E+00  0.0000E+00  0.1000E-02  0.1000E-02
     -9.568  0.0000E+00  0.0000E+00  0.1000E-02  0.1000E-02
     -9.526  0.0000E+00  0.0000E+00  0.1000E-02  0.1000E-02
     -9.485  0.0000E+00  0.0000E+00  0.1000E-02  0.1000E-02
     -9.444  0.0000E+00  0.0000E+00  0.1000E-02  0.1000E-02
     -9.402  0.0000E+00  0.0000E+00  0.1000E-02  0.1000E-02
     -9.361  0.0000E+00  0.0000E+00  0.1000E-02  0.1000E-02
     -9.319  0.0000E+00  0.0000E+00  0.2000E-02  0.2000E-02
     -9.278  0.0000E+00  0.0000E+00  0.3000E-02  0.3000E-02
     -9.236  0.0000E+00  0.0000E+00  0.4000E-02  0.3000E-02
     -9.195  0.0000E+00  0.0000E+00  0.5000E-02  0.5000E-02
     -9.154  0.0000E+00  0.0000E+00  0.6000E-02  0.6000E-02
     -9.112  0.0000E+00  0.0000E+00  0.7000E-02  0.7000E-02
     -9.071  0.0000E+00  0.0000E+00  0.8000E-02  0.7000E-02
     -9.029  0.0000E+00  0.0000E+00  0.8000E-02  0.8000E-02
     -8.988  0.0000E+00  0.0000E+00  0.1000E-01  0.1000E-01
     -8.947  0.0000E+00  0.0000E+00  0.1100E-01  0.1100E-01
     -8.905  0.0000E+00  0.0000E+00  0.1300E-01  0.1300E-01
     -8.864  0.0000E+00  0.0000E+00  0.1300E-01  0.1300E-01
     -8.822  0.0000E+00  0.0000E+00  0.1700E-01  0.1700E-01
     -8.781  0.0000E+00  0.2414E-01  0.1900E-01  0.1900E-01
     -8.739  0.0000E+00  0.1494E-01  0.2100E-01  0.2062E-01
     -8.698  0.0000E+00  0.0000E+00  0.2300E-01  0.2300E-01
     -8.657  0.0000E+00  0.0000E+00  0.2600E-01  0.2500E-01
     -8.615  0.0000E+00  0.0000E+00  0.2900E-01  0.2800E-01
     -8.574  0.0000E+00  0.0000E+00  0.3200E-01  0.3100E-01
     -8.532  0.0000E+00  0.0000E+00  0.3500E-01  0.3400E-01
     -8.491  0.0000E+00  0.0000E+00  0.3700E-01  0.3700E-01
     -8.450  0.0000E+00  0.0000E+00  0.3900E-01  0.3900E-01
     -8.408  0.0000E+00  0.0000E+00  0.4100E-01  0.4100E-01
     -8.367  0.0000E+00  0.0000E+00  0.4500E-01  0.4500E-01
     -8.325  0.0000E+00  0.0000E+00  0.4600E-01  0.4600E-01
     -8.284  0.0000E+00  0.0000E+00  0.4900E-01  0.4900E-01
     -8.242  0.0000E+00  0.1582E-04  0.5200E-01  0.5100E-01
     -8.201  0.0000E+00  0.2414E-01  0.5600E-01  0.5600E-01
     -8.160  0.0000E+00  0.0000E+00  0.5800E-01  0.5800E-01
     -8.118  0.0000E+00  0.0000E+00  0.6200E-01  0.6100E-01
     -8.077  0.2414E-01  0.0000E+00  0.6400E-01  0.6300E-01
     -8.035  0.0000E+00  0.0000E+00  0.6700E-01  0.6700E-01
     -7.994  0.0000E+00  0.0000E+00  0.7000E-01  0.7000E-01
     -7.953  0.0000E+00  0.0000E+00  0.7300E-01  0.7200E-01
     -7.911  0.2414E-01  0.0000E+00  0.7600E-01  0.7500E-01
     -7.870  0.0000E+00  0.0000E+00  0.7900E-01  0.7900E-01
     -7.828  0.0000E+00  0.0000E+00  0.8200E-01  0.8100E-01
     -7.787  0.0000E+00  0.1756E-15  0.8400E-01  0.8300E-01
     -7.745  0.0000E+00  0.0000E+00  0.8800E-01  0.8700E-01
     -7.704  0.0000E+00  0.0000E+00  0.9100E-01  0.9100E-01
     -7.663  0.0000E+00  0.0000E+00  0.9500E-01  0.9400E-01
     -7.621  0.0000E+00  0.0000E+00  0.9800E-01  0.9700E-01
     -7.580  0.0000E+00  0.2414E-01  0.1000E+00  0.1000E+00
     -7.538  0.2176E-01  0.0000E+00  0.1029E+00  0.1020E+00
     -7.497  0.0000E+00  0.0000E+00  0.1070E+00  0.1060E+00
     -7.455  0.0000E+00  0.2100E-01  0.1100E+00  0.1099E+00
     -7.414  0.0000E+00  0.0000E+00  0.1120E+00  0.1120E+00
     -7.373  0.0000E+00  0.0000E+00  0.1160E+00  0.1160E+00
     -7.331  0.0000E+00  0.0000E+00  0.1190E+00  0.1180E+00
     -7.290  0.2384E-01  0.0000E+00  0.1220E+00  0.1210E+00
     -7.248  0.0000E+00  0.0000E+00  0.1240E+00  0.1240E+00
     -7.207  0.0000E+00  0.0000E+00  0.1270E+00  0.1270E+00
     -7.166  0.0000E+00  0.2929E-11  0.1290E+00  0.1280E+00
     -7.124  0.0000E+00  0.0000E+00  0.1330E+00  0.1320E+00
     -7.083  0.2371E-01  0.0000E+00  0.1360E+00  0.1350E+00
     -7.041  0.0000E+00  0.0000E+00  0.1400E+00  0.1390E+00
     -7.000  0.0000E+00  0.0000E+00  0.1430E+00  0.1420E+00
     -6.958  0.0000E+00  0.0000E+00  0.1460E+00  0.1460E+00
     -6.917  0.0000E+00  0.0000E+00  0.1500E+00  0.1490E+00
     -6.876  0.0000E+00  0.0000E+00  0.1540E+00  0.1540E+00
     -6.834  0.0000E+00  0.0000E+00  0.1600E+00  0.1580E+00
     -6.793  0.2414E-01  0.4021E-17  0.1650E+00  0.1630E+00
     -6.751  0.0000E+00  0.3087E-04  0.1690E+00  0.1680E+00
     -6.710  0.0000E+00  0.3352E-02  0.1740E+00  0.1731E+00
     -6.669  0.0000E+00  0.0000E+00  0.1780E+00  0.1780E+00
     -6.627  0.0000E+00  0.0000E+00  0.1830E+00  0.1830E+00
     -6.586  0.0000E+00  0.0000E+00  0.1870E+00  0.1870E+00
     -6.544  0.0000E+00  0.0000E+00  0.1920E+00  0.1900E+00
     -6.503  0.0000E+00  0.0000E+00  0.1960E+00  0.1950E+00
     -6.461  0.0000E+00  0.0000E+00  0.2000E+00  0.1990E+00
     -6.420  0.0000E+00  0.0000E+00  0.2050E+00  0.2050E+00
     -6.379  0.0000E+00  0.0000E+00  0.2100E+00  0.2100E+00
     -6.337  0.0000E+00  0.0000E+00  0.2140E+00  0.2140E+00
     -6.296  0.0000E+00  0.0000E+00  0.2170E+00  0.2170E+00
     -6.254  0.0000E+00  0.0000E+00  0.2210E+00  0.2200E+00
     -6.213  0.0000E+00  0.0000E+00  0.2240E+00  0.2230E+00
     -6.172  0.0000E+00  0.4683E-08  0.2270E+00  0.2260E+00
     -6.130  0.0000E+00  0.0000E+00  0.2280E+00  0.2280E+00
     -6.089  0.0000E+00  0.0000E+00  0.2300E+00  0.2300E+00
     -6.047  0.0000E+00  0.0000E+00  0.2310E+00  0.2310E+00
     -6.006  0.0000E+00  0.0000E+00  0.2320E+00  0.2310E+00
     -5.964  0.1880E-10  0.0000E+00  0.2320E+00  0.2320E+00
     -5.923  0.0000E+00  0.0000E+00  0.2330E+00  0.2330E+00
     -5.882  0.0000E+00  0.0000E+00  0.2330E+00  0.2330E+00
     -5.840  0.0000E+00  0.0000E+00  0.2330E+00  0.2330E+00
     -5.799  0.0000E+00  0.0000E+00  0.2330E+00  0.2330E+00
     -5.757  0.0000E+00  0.0000E+00  0.2340E+00  0.2340E+00
     -5.716  0.0000E+00  0.0000E+00  0.2340E+00  0.2340E+00
     -5.675  0.0000E+00  0.0000E+00  0.2340E+00  0.2340E+00
     -5.633  0.0000E+00  0.0000E+00  0.2340E+00  0.2340E+00
     -5.592  0.0000E+00  0.0000E+00  0.2340E+00  0.2340E+00
     -5.550  0.0000E+00  0.0000E+00  0.2340E+00  0.2340E+00
     -5.509  0.0000E+00  0.0000E+00  0.2340E+00  0.2340E+00
     -5.467  0.0000E+00  0.0000E+00  0.2340E+00  0.2340E+00
     -5.426  0.0000E+00  0.0000E+00  0.2340E+00  0.2340E+00
     -5.385  0.0000E+00  0.0000E+00  0.2350E+00  0.2340E+00
     -5.343  0.0000E+00  0.0000E+00  0.2350E+00  0.2350E+00
     -5.302  0.0000E+00  0.0000E+00  0.2350E+00  0.2350E+00
     -5.260  0.0000E+00  0.0000E+00  0.2350E+00  0.2350E+00
     -5.219  0.0000E+00  0.0000E+00  0.2350E+00  0.2350E+00
     -5.178  0.0000E+00  0.0000E+00  0.2360E+00  0.2350E+00
     -5.136  0.0000E+00  0.0000E+00  0.2360E+00  0.2360E+00
     -5.095  0.0000E+00  0.0000E+00  0.2360E+00  0.2360E+00
     -5.053  0.0000E+00  0.0000E+00  0.2360E+00  0.2360E+00
     -5.012  0.0000E+00  0.0000E+00  0.2360E+00  0.2360E+00
     -4.970  0.0000E+00  0.0000E+00  0.2370E+00  0.2360E+00
     -4.929  0.0000E+00  0.0000E+00  0.2370E+00  0.2370E+00
     -4.888  0.0000E+00  0.0000E+00  0.2380E+00  0.2370E+00
     -4.846  0.0000E+00  0.0000E+00  0.2380E+00  0.2380E+00
     -4.805  0.0000E+00  0.2414E-01  0.2390E+00  0.2390E+00
     -4.763  0.0000E+00  0.0000E+00  0.2390E+00  0.2390E+00
     -4.722  0.0000E+00  0.0000E+00  0.2390E+00  0.2390E+00
     -4.680  0.0000E+00  0.0000E+00  0.2390E+00  0.2390E+00
     -4.639  0.0000E+00  0.0000E+00  0.2390E+00  0.2390E+00
     -4.598  0.2381E-03  0.0000E+00  0.2390E+00  0.2390E+00
     -4.556  0.0000E+00  0.0000E+00  0.2400E+00  0.2400E+00
     -4.515  0.0000E+00  0.0000E+00  0.2400E+00  0.2400E+00
     -4.473  0.0000E+00  0.0000E+00  0.2410E+00  0.2400E+00
     -4.432  0.0000E+00  0.0000E+00  0.2410E+00  0.2410E+00
     -4.391  0.0000E+00  0.0000E+00  0.2410E+00  0.2410E+00
     -4.349  0.0000E+00  0.0000E+00  0.2410E+00  0.2410E+00
     -4.308  0.0000E+00  0.0000E+00  0.2420E+00  0.2410E+00
     -4.266  0.0000E+00  0.0000E+00  0.2420E+00  0.2420E+00
     -4.225  0.0000E+00  0.0000E+00  0.2420E+00  0.2420E+00
     -4.183  0.0000E+00  0.0000E+00  0.2420E+00  0.2420E+00
     -4.142  0.0000E+00  0.0000E+00  0.2420E+00  0.2420E+00
     -4.101  0.0000E+00  0.0000E+00  0.2420E+00  0.2420E+00
     -4.059  0.0000E+00  0.0000E+00  0.2420E+00  0.2420E+00
     -4.018  0.0000E+00  0.0000E+00  0.2430E+00  0.2430E+00
     -3.976  0.0000E+00  0.0000E+00  0.2430E+00  0.2430E+00
     -3.935  0.0000E+00  0.0000E+00  0.2430E+00  0.2430E+00
     -3.894  0.0000E+00  0.0000E+00  0.2430E+00  0.2430E+00
     -3.852  0.0000E+00  0.0000E+00  0.2440E+00  0.2430E+00
     -3.811  0.0000E+00  0.0000E+00  0.2440E+00  0.2440E+00
     -3.769  0.0000E+00  0.0000E+00  0.2440E+00  0.2440E+00
     -3.728  0.0000E+00  0.0000E+00  0.2440E+00  0.2440E+00
     -3.686  0.0000E+00  0.0000E+00  0.2440E+00  0.2440E+00
     -3.645  0.0000E+00  0.0000E+00  0.2450E+00  0.2450E+00
     -3.604  0.0000E+00  0.0000E+00  0.2450E+00  0.2450E+00
     -3.562  0.0000E+00  0.0000E+00  0.2450E+00  0.2450E+00
     -3.521  0.0000E+00  0.0000E+00  0.2460E+00  0.2450E+00
     -3.479  0.0000E+00  0.0000E+00  0.2460E+00  0.2460E+00
     -3.438  0.3723E-02  0.0000E+00  0.2462E+00  0.2460E+00
     -3.397  0.0000E+00  0.0000E+00  0.2470E+00  0.2470E+00
     -3.355  0.0000E+00  0.0000E+00  0.2470E+00  0.2470E+00
     -3.314  0.0000E+00  0.0000E+00  0.2470E+00  0.2470E+00
     -3.272  0.0000E+00  0.0000E+00  0.2480E+00  0.2470E+00
     -3.231  0.0000E+00  0.0000E+00  0.2480E+00  0.2470E+00
     -3.189  0.0000E+00  0.0000E+00  0.2490E+00  0.2490E+00
     -3.148  0.0000E+00  0.0000E+00  0.2490E+00  0.2490E+00
     -3.107  0.0000E+00  0.0000E+00  0.2490E+00  0.2490E+00
     -3.065  0.0000E+00  0.0000E+00  0.2490E+00  0.2490E+00
     -3.024  0.0000E+00  0.0000E+00  0.2490E+00  0.2490E+00
     -2.982  0.0000E+00  0.0000E+00  0.2500E+00  0.2500E+00
     -2.941  0.0000E+00  0.0000E+00  0.2510E+00  0.2510E+00
     -2.900  0.0000E+00  0.0000E+00  0.2510E+00  0.2510E+00
     -2.858  0.0000E+00  0.0000E+00  0.2510E+00  0.2510E+00
     -2.817  0.0000E+00  0.0000E+00  0.2510E+00  0.2510E+00
     -2.775  0.0000E+00  0.0000E+00  0.2520E+00  0.2510E+00
     -2.734  0.0000E+00  0.0000E+00  0.2520E+00  0.2520E+00
     -2.692  0.0000E+00  0.0000E+00  0.2520E+00  0.2520E+00
     -2.651  0.0000E+00  0.0000E+00  0.2530E+00  0.2520E+00
     -2.610  0.0000E+00  0.0000E+00  0.2530E+00  0.2530E+00
     -2.568  0.0000E+00  0.0000E+00  0.2540E+00  0.2530E+00
     -2.527  0.0000E+00  0.0000E+00  0.2540E+00  0.2540E+00
     -2.485  0.0000E+00  0.0000E+00  0.2540E+00  0.2540E+00
     -2.444  0.0000E+00  0.0000E+00  0.2540E+00  0.2540E+00
     -2.403  0.0000E+00  0.0000E+00  0.2550E+00  0.2550E+00
     -2.361  0.0000E+00  0.0000E+00  0.2560E+00  0.2550E+00
     -2.320  0.0000E+00  0.0000E+00  0.2560E+00  0.2560E+00
     -2.278  0.0000E+00  0.0000E+00  0.2560E+00  0.2560E+00
     -2.237  0.0000E+00  0.0000E+00  0.2560E+00  0.2560E+00
     -2.195  0.0000E+00  0.0000E+00  0.2560E+00  0.2560E+00
     -2.154  0.0000E+00  0.0000E+00  0.2570E+00  0.2560E+00
     -2.113  0.0000E+00  0.0000E+00  0.2580E+00  0.2570E+00
     -2.071  0.0000E+00  0.0000E+00  0.2580E+00  0.2580E+00
     -2.030  0.0000E+00  0.0000E+00  0.2590E+00  0.2590E+00
     -1.988  0.0000E+00  0.0000E+00  0.2590E+00  0.2590E+00
     -1.947  0.0000E+00  0.0000E+00  0.2590E+00  0.2590E+00
     -1.905  0.0000E+00  0.0000E+00  0.2600E+00  0.2600E+00
     -1.864  0.0000E+00  0.0000E+00  0.2610E+00  0.2600E+00
     -1.823  0.0000E+00  0.0000E+00  0.2610E+00  0.2610E+00
     -1.781  0.0000E+00  0.0000E+00  0.2610E+00  0.2610E+00
     -1.740  0.0000E+00  0.0000E+00  0.2620E+00  0.2620E+00
     -1.698  0.0000E+00  0.0000E+00  0.2630E+00  0.2620E+00
     -1.657  0.0000E+00  0.0000E+00  0.2630E+00  0.2630E+00
     -1.616  0.0000E+00  0.0000E+00  0.2630E+00  0.2630E+00
     -1.574  0.0000E+00  0.0000E+00  0.2630E+00  0.2630E+00
     -1.533  0.0000E+00  0.0000E+00  0.2640E+00  0.2640E+00
     -1.491  0.0000E+00  0.0000E+00  0.2650E+00  0.2640E+00
     -1.450  0.0000E+00  0.0000E+00  0.2650E+00  0.2650E+00
     -1.408  0.0000E+00  0.0000E+00  0.2650E+00  0.2650E+00
     -1.367  0.0000E+00  0.0000E+00  0.2660E+00  0.2660E+00
     -1.326  0.0000E+00  0.0000E+00  0.2660E+00  0.2660E+00
     -1.284  0.0000E+00  0.0000E+00  0.2670E+00  0.2670E+00
     -1.243  0.0000E+00  0.0000E+00  0.2680E+00  0.2680E+00
     -1.201  0.0000E+00  0.0000E+00  0.2680E+00  0.2680E+00
     -1.160  0.0000E+00  0.0000E+00  0.2680E+00  0.2680E+00
     -1.119  0.0000E+00  0.0000E+00  0.2690E+00  0.2690E+00
     -1.077  0.0000E+00  0.0000E+00  0.2690E+00  0.2690E+00
     -1.036  0.0000E+00  0.0000E+00  0.2700E+00  0.2690E+00
     -0.994  0.0000E+00  0.0000E+00  0.2700E+00  0.2700E+00
     -0.953  0.0000E+00  0.0000E+00  0.2710E+00  0.2710E+00
     -0.911  0.0000E+00  0.0000E+00  0.2710E+00  0.2710E+00
     -0.870  0.0000E+00  0.0000E+00  0.2710E+00  0.2710E+00
     -0.829  0.0000E+00  0.0000E+00  0.2720E+00  0.2720E+00
     -0.787  0.0000E+00  0.0000E+00  0.2730E+00  0.2730E+00
     -0.746  0.0000E+00  0.0000E+00  0.2730E+00  0.2730E+00
     -0.704  0.0000E+00  0.2414E-01  0.2750E+00  0.2750E+00
     -0.663  0.0000E+00  0.0000E+00  0.2750E+00  0.2750E+00
     -0.622  0.0000E+00  0.0000E+00  0.2760E+00  0.2760E+00
     -0.580  0.0000E+00  0.0000E+00  0.2760E+00  0.2760E+00
     -0.539  0.0000E+00  0.0000E+00  0.2760E+00  0.2760E+00
     -0.497  0.0000E+00  0.0000E+00  0.2770E+00  0.2770E+00
     -0.456  0.0000E+00  0.0000E+00  0.2780E+00  0.2780E+00
     -0.414  0.0000E+00  0.0000E+00  0.2790E+00  0.2790E+00
     -0.373  0.0000E+00  0.0000E+00  0.2800E+00  0.2790E+00
     -0.332  0.0000E+00  0.0000E+00  0.2800E+00  0.2800E+00
     -0.290  0.0000E+00  0.0000E+00  0.2810E+00  0.2800E+00
     -0.249  0.0000E+00  0.0000E+00  0.2810E+00  0.2810E+00
     -0.207  0.0000E+00  0.0000E+00  0.2810E+00  0.2810E+00
     -0.166  0.0000E+00  0.0000E+00  0.2820E+00  0.2810E+00
     -0.125  0.0000E+00  0.0000E+00  0.2820E+00  0.2820E+00
     -0.083  0.0000E+00  0.0000E+00  0.2820E+00  0.2820E+00
     -0.042  0.0000E+00  0.0000E+00  0.2830E+00  0.2820E+00
     -0.000  0.0000E+00  0.0000E+00  0.2830E+00  0.2830E+00
      0.041  0.0000E+00  0.0000E+00  0.2830E+00  0.2830E+00
      0.083  0.0000E+00  0.2414E-01  0.2840E+00  0.2840E+00
      0.124  0.0000E+00  0.0000E+00  0.2840E+00  0.2840E+00
      0.165  0.0000E+00  0.0000E+00  0.2840E+00  0.2840E+00
      0.207  0.0000E+00  0.0000E+00  0.2840E+00  0.2840E+00
      0.248  0.0000E+00  0.0000E+00  0.2850E+00  0.2840E+00
      0.290  0.0000E+00  0.0000E+00  0.2860E+00  0.2850E+00
      0.331  0.0000E+00  0.0000E+00  0.2870E+00  0.2860E+00
      0.372  0.0000E+00  0.0000E+00  0.2870E+00  0.2870E+00
      0.414  0.0000E+00  0.2414E-01  0.2880E+00  0.2880E+00
      0.455  0.0000E+00  0.0000E+00  0.2880E+00  0.2880E+00
      0.497  0.0000E+00  0.0000E+00  0.2890E+00  0.2890E+00
      0.538  0.0000E+00  0.0000E+00  0.2890E+00  0.2890E+00
      0.580  0.0000E+00  0.0000E+00  0.2900E+00  0.2900E+00
      0.621  0.0000E+00  0.0000E+00  0.2910E+00  0.2900E+00
      0.662  0.0000E+00  0.0000E+00  0.2910E+00  0.2910E+00
      0.704  0.0000E+00  0.0000E+00  0.2920E+00  0.2920E+00
      0.745  0.0000E+00  0.0000E+00  0.2930E+00  0.2930E+00
      0.787  0.0000E+00  0.0000E+00  0.2940E+00  0.2940E+00
      0.828  0.0000E+00  0.0000E+00  0.2950E+00  0.2950E+00
      0.870  0.0000E+00  0.0000E+00  0.2970E+00  0.2970E+00
      0.911  0.0000E+00  0.0000E+00  0.2990E+00  0.2980E+00
      0.952  0.0000E+00  0.2000E-14  0.3000E+00  0.2990E+00
      0.994  0.2414E-01  0.0000E+00  0.3020E+00  0.3010E+00
      1.035  0.0000E+00  0.0000E+00  0.3050E+00  0.3040E+00
      1.077  0.0000E+00  0.0000E+00  0.3060E+00  0.3060E+00
      1.118  0.0000E+00  0.0000E+00  0.3090E+00  0.3080E+00
      1.159  0.0000E+00  0.0000E+00  0.3090E+00  0.3090E+00
      1.201  0.0000E+00  0.0000E+00  0.3110E+00  0.3110E+00
      1.242  0.0000E+00  0.0000E+00  0.3130E+00  0.3120E+00
      1.284  0.0000E+00  0.0000E+00  0.3140E+00  0.3130E+00
      1.325  0.0000E+00  0.0000E+00  0.3160E+00  0.3160E+00
      1.367  0.0000E+00  0.0000E+00  0.3200E+00  0.3180E+00
      1.408  0.0000E+00  0.0000E+00  0.3200E+00  0.3200E+00
      1.449  0.0000E+00  0.0000E+00  0.3200E+00  0.3200E+00
      1.491  0.0000E+00  0.0000E+00  0.3200E+00  0.3200E+00
      1.532  0.0000E+00  0.0000E+00  0.3200E+00  0.3200E+00
      1.574  0.0000E+00  0.0000E+00  0.3200E+00  0.3200E+00
      1.615  0.0000E+00  0.0000E+00  0.3200E+00  0.3200E+00
      1.656  0.0000E+00  0.0000E+00  0.3200E+00  0.3200E+00
      1.698  0.0000E+00  0.0000E+00  0.3200E+00  0.3200E+00
      1.739  0.0000E+00  0.0000E+00  0.3200E+00  0.3200E+00
      1.781  0.0000E+00  0.0000E+00  0.3200E+00  0.3200E+00
      1.822  0.0000E+00  0.0000E+00  0.3200E+00  0.3200E+00
      1.864  0.0000E+00  0.0000E+00  0.3200E+00  0.3200E+00
      1.905  0.0000E+00  0.0000E+00  0.3200E+00  0.3200E+00
      1.946  0.0000E+00  0.0000E+00  0.3200E+00  0.3200E+00
