 vasp.5.3.5 31Mar14 (build Feb 01 2018 12:10:03) gamma-only                     
  
 executed on             LinuxIFC date 2019.03.22  06:15:07
 running on   32 total cores
 distrk:  each k-point on   32 cores,    1 groups
 distr:  one band on NCORES_PER_BAND=   8 cores,    4 groups


--------------------------------------------------------------------------------------------------------


 INCAR:
 POTCAR:    PAW_PBE Ag 02Apr2005                  
 POTCAR:    PAW_PBE Ag 02Apr2005                  
   VRHFIN =Ag : s1 d10                                                          
   LEXCH  = PE                                                                  
   EATOM  =  1037.2675 eV,   76.2370 Ry                                         
                                                                                
   TITEL  = PAW_PBE Ag 02Apr2005                                                
   LULTRA =        F    use ultrasoft PP ?                                      
   IUNSCR =        1    unscreen: 0-lin 1-nonlin 2-no                           
   RPACOR =    2.000    partial core radius                                     
   POMASS =  107.868; ZVAL   =   11.000    mass and valenz                      
   RCORE  =    2.500    outmost cutoff radius                                   
   RWIGS  =    2.840; RWIGS  =    1.503    wigner-seitz radius (au A)           
   ENMAX  =  249.844; ENMIN  =  187.383 eV                                      
   ICORE  =        3    local potential                                         
   LCOR   =        T    correct aug charges                                     
   LPAW   =        T    paw PP                                                  
   EAUG   =  412.496                                                            
   DEXC   =    0.000                                                            
   RMAX   =    2.560    core radius for proj-oper                               
   RAUG   =    1.300    factor for augmentation sphere                          
   RDEP   =    2.576    radius for radial grids                                 
   RDEPT  =    2.072    core radius for aug-charge                              
                                                                                
   Atomic configuration                                                         
   12 entries                                                                   
     n  l   j            E        occ.                                          
     1  0  0.50    -25324.9161   2.0000                                         
     2  0  0.50     -3728.5341   2.0000                                         
     2  1  1.50     -3344.0404   6.0000                                         
     3  0  0.50      -683.5581   2.0000                                         
     3  1  1.50      -557.3225   6.0000                                         
     3  2  2.50      -358.3853  10.0000                                         
     4  0  0.50       -95.0341   2.0000                                         
     4  1  1.50       -58.5511   6.0000                                         
     4  2  2.50        -7.4440  10.0000                                         
     5  0  0.50        -4.4045   1.0000                                         
     5  1  0.50        -1.3606   0.0000                                         
     4  3  2.50        -1.3606   0.0000                                         
   Description                                                                  
     l       E           TYP  RCUT    TYP  RCUT                                 
     2     -7.4439781     23  2.400                                             
     2     -8.8045607     23  2.400                                             
     0     -4.4044681     23  2.400                                             
     0      1.9520038     23  2.400                                             
     1     -1.3605826     23  2.500                                             
     1     27.2116520     23  2.500                                             
     3     -4.0817478     23  2.400                                             
  local pseudopotential read in
  partial core-charges read in
  partial kinetic energy density read in
  atomic valenz-charges read in
  non local Contribution for L=           2  read in
    real space projection operators read in
  non local Contribution for L=           2  read in
    real space projection operators read in
  non local Contribution for L=           0  read in
    real space projection operators read in
  non local Contribution for L=           0  read in
    real space projection operators read in
  non local Contribution for L=           1  read in
    real space projection operators read in
  non local Contribution for L=           1  read in
    real space projection operators read in
    PAW grid and wavefunctions read in
 
   number of l-projection  operators is LMAX  =           6
   number of lm-projection operators is LMMAX =          18
 

 ----------------------------------------------------------------------------- 
|                                                                             |
|  ADVICE TO THIS USER RUNNING 'VASP/VAMP'   (HEAR YOUR MASTER'S VOICE ...):  |
|                                                                             |
|      You have a (more or less) 'large supercell' and for larger cells       |
|      it might be more efficient to use real space projection opertators     |
|      So try LREAL= Auto  in the INCAR   file.                               |
|      Mind: At the moment your POTCAR file does not contain real space       |
|       projectors, and has to be modified,  BUT if you                       |
|      want to do an extremely  accurate calculation you might also keep the  |
|      reciprocal projection scheme          (i.e. LREAL=.FALSE.)             |
|                                                                             |
 ----------------------------------------------------------------------------- 

  PAW_PBE Ag 02Apr2005                  :
 energy of atom  1       EATOM=-1037.2675
 kinetic energy error for atom=    0.0689 (will be added to EATOM!!)
 
 
 POSCAR: Cu25, -69.57520668 <s> Ag </s>          
  positions in direct lattice
  No initial velocities read in
 exchange correlation table for  LEXCH =        8
   RHO(1)=    0.500       N(1)  =     2000
   RHO(2)=  100.500       N(2)  =     4000
 


--------------------------------------------------------------------------------------------------------


 ion  position               nearest neighbor table
   1  0.619  0.649  0.431-  16 2.76  17 2.78  19 2.80   5 2.86  25 2.88   3 2.90
   2  0.520  0.481  0.631-   6 2.74   9 2.83  17 2.83  13 2.85  20 2.85  24 2.87  11 2.88  23 2.88

   3  0.488  0.590  0.410-   7 2.75   5 2.78  22 2.80  16 2.82  12 2.83   1 2.90  24 3.01  17 3.06

   4  0.603  0.671  0.697-  20 2.74  21 2.75  14 2.83  15 2.83  25 2.85  11 2.86  10 2.87
   5  0.601  0.509  0.405-  19 2.77   9 2.78   3 2.78  12 2.80  18 2.83   1 2.86  17 3.08
   6  0.429  0.468  0.734-  20 2.73   2 2.74  13 2.78
   7  0.361  0.537  0.409-  24 2.75   3 2.75  22 2.82  12 2.88
   8  0.761  0.504  0.683-  10 2.74  11 2.81  15 2.82  23 2.83
   9  0.556  0.425  0.506-  24 2.75   5 2.78  18 2.78  23 2.80   2 2.83  12 2.89  17 3.11
  10  0.701  0.607  0.613-   8 2.74  19 2.75  21 2.77  15 2.78  25 2.84   4 2.87  23 2.90  11 2.94
                            17 3.07
  11  0.626  0.530  0.715-  20 2.77  15 2.81   8 2.81  23 2.83   4 2.86   2 2.88  10 2.94
  12  0.474  0.451  0.389-  24 2.76   5 2.80   3 2.83   7 2.88   9 2.89
  13  0.401  0.560  0.633-  20 2.78   6 2.78  24 2.79  22 2.81  14 2.83   2 2.85
  14  0.488  0.670  0.614-  16 2.79   4 2.83  13 2.83  20 2.84  17 2.87  22 2.88  25 2.95
  15  0.726  0.624  0.749-  10 2.78  11 2.81  21 2.81   8 2.82   4 2.83
  16  0.507  0.711  0.481-   1 2.76  25 2.77  22 2.79  14 2.79   3 2.82  17 3.17
  17  0.569  0.577  0.539-   1 2.78   2 2.83  14 2.87  25 2.90  19 2.94  23 2.98   3 3.06  10 3.07
                             5 3.08   9 3.11  24 3.14  16 3.17
  18  0.689  0.415  0.464-   9 2.78  19 2.79  23 2.82   5 2.83
  19  0.704  0.552  0.487-  10 2.75   5 2.77  18 2.79   1 2.80  23 2.82  17 2.94
  20  0.500  0.585  0.727-   6 2.73   4 2.74  11 2.77  13 2.78  14 2.84   2 2.85
  21  0.719  0.735  0.663-   4 2.75  10 2.77  15 2.81  25 2.88
  22  0.397  0.628  0.510-  24 2.79  16 2.79   3 2.80  13 2.81   7 2.82  14 2.88
  23  0.658  0.469  0.591-   9 2.80  19 2.82  18 2.82  11 2.83   8 2.83   2 2.88  10 2.90  17 2.98

  24  0.437  0.495  0.515-   7 2.75   9 2.75  12 2.76  13 2.79  22 2.79   2 2.87   3 3.01  17 3.14

  25  0.620  0.711  0.561-  16 2.77  10 2.84   4 2.85  21 2.88   1 2.88  17 2.90  14 2.95
 
  LATTYP: Found a simple cubic cell.
 ALAT       =    19.9682654593
  
  Lattice vectors:
  
 A1 = (  19.9682654593,   0.0000000000,   0.0000000000)
 A2 = (   0.0000000000,  19.9682654593,   0.0000000000)
 A3 = (   0.0000000000,   0.0000000000,  19.9682654593)


Analysis of symmetry for initial positions (statically):
=====================================================================
 Subroutine PRICEL returns:
 Original cell was already a primitive cell.
 

 Routine SETGRP: Setting up the symmetry group for a 
 simple cubic supercell.


 Subroutine GETGRP returns: Found  1 space group operations
 (whereof  1 operations were pure point group operations)
 out of a pool of 48 trial point group operations.


The static configuration has the point symmetry C_1 .


Analysis of symmetry for dynamics (positions and initial velocities):
=====================================================================
 Subroutine PRICEL returns:
 Original cell was already a primitive cell.
 

 Routine SETGRP: Setting up the symmetry group for a 
 simple cubic supercell.


 Subroutine GETGRP returns: Found  1 space group operations
 (whereof  1 operations were pure point group operations)
 out of a pool of 48 trial point group operations.


The dynamic configuration has the point symmetry C_1 .


Analysis of magnetic symmetry:
=====================================================================
 Subroutine PRICEL returns:
 Original cell was already a primitive cell.
 

 Subroutine MAGSYM returns: Found  1 space group operations
 (whereof  1 operations were pure point group operations)
 out of a pool of  1 trial space group operations
 (whereof  1 operations were pure point group operations)
 and found also     1 'primitive' translations


The magnetic configuration has the point symmetry C_1 .
 
 
 KPOINTS: Gamma-point only                        
  k-points in reciprocal lattice
Space group operators:
 irot       det(A)        alpha          n_x          n_y          n_z        tau_x        tau_y        tau_z
    1     1.000000     0.000000     1.000000     0.000000     0.000000     0.000000     0.000000     0.000000


--------------------------------------------------------------------------------------------------------




 Dimension of arrays:
   k-points           NKPTS =      1   k-points in BZ     NKDIM =      1   number of bands    NBANDS=    180
   number of dos      NEDOS =    301   number of ions     NIONS =     25
   non local maximal  LDIM  =      6   non local SUM 2l+1 LMDIM =     18
   total plane-waves  NPLWV = 512000
   max r-space proj   IRMAX =      1   max aug-charges    IRDMAX=   3361
   dimension x,y,z NGX =    80 NGY =   80 NGZ =   80
   dimension x,y,z NGXF=   160 NGYF=  160 NGZF=  160
   support grid    NGXF=   160 NGYF=  160 NGZF=  160
   ions per type =              25
 NGX,Y,Z   is equivalent  to a cutoff of   6.66,  6.66,  6.66 a.u.
 NGXF,Y,Z  is equivalent  to a cutoff of  13.32, 13.32, 13.32 a.u.


 I would recommend the setting:
   dimension x,y,z NGX =    77 NGY =   77 NGZ =   77
 SYSTEM =  unknown system                          
 POSCAR =  Cu25, -69.57520668 <s> Ag </s>          

 Startparameter for this run:
   NWRITE =      2    write-flag & timer
   PREC   = normal    normal or accurate (medium, high low for compatibility)
   ISTART =      0    job   : 0-new  1-cont  2-samecut
   ICHARG =      2    charge: 1-file 2-atom 10-const
   ISPIN  =      2    spin polarized calculation?
   LNONCOLLINEAR =      F non collinear calculations
   LSORBIT =      F    spin-orbit coupling
   INIWAV =      1    electr: 0-lowe 1-rand  2-diag
   LASPH  =      F    aspherical Exc in radial PAW
   METAGGA=      F    non-selfconsistent MetaGGA calc.

 Electronic Relaxation 1
   ENCUT  =  249.8 eV  18.36 Ry    4.29 a.u.  25.74 25.74 25.74*2*pi/ulx,y,z
   ENINI  =  249.8     initial cutoff
   ENAUG  =  412.5 eV  augmentation charge cutoff
   NELM   =     60;   NELMIN=  2; NELMDL= -5     # of ELM steps 
   EDIFF  = 0.1E-03   stopping-criterion for ELM
   LREAL  =      F    real-space projection
   NLSPLINE    = F    spline interpolate recip. space projectors
   LCOMPAT=      F    compatible to vasp.4.4
   GGA_COMPAT  = T    GGA compatible to vasp.4.4-vasp.4.6
   LMAXPAW     = -100 max onsite density
   LMAXMIX     =    2 max onsite mixed and CHGCAR
   VOSKOWN=      0    Vosko Wilk Nusair interpolation
   ROPT   =    0.00000
 Ionic relaxation
   EDIFFG = 0.1E-02   stopping-criterion for IOM
   NSW    =   1000    number of steps for IOM
   NBLOCK =      1;   KBLOCK =   1000    inner block; outer block 
   IBRION =      2    ionic relax: 0-MD 1-quasi-New 2-CG
   NFREE  =      1    steps in history (QN), initial steepest desc. (CG)
   ISIF   =      2    stress and relaxation
   IWAVPR =     11    prediction:  0-non 1-charg 2-wave 3-comb
   ISYM   =      2    0-nonsym 1-usesym 2-fastsym
   LCORR  =      T    Harris-Foulkes like correction to forces

   POTIM  = 0.1000    time-step for ionic-motion
   TEIN   =    0.0    initial temperature
   TEBEG  =    0.0;   TEEND  =   0.0 temperature during run
   SMASS  =  -3.00    Nose mass-parameter (am)
   estimated Nose-frequenzy (Omega)   =  0.10E-29 period in steps =****** mass=  -0.911E-26a.u.
   SCALEE = 1.0000    scale energy and forces
   NPACO  =    256;   APACO  = 16.0  distance and # of slots for P.C.
   PSTRESS=    0.0 pullay stress

  Mass of Ions in am
   POMASS = 107.87
  Ionic Valenz
   ZVAL   =  11.00
  Atomic Wigner-Seitz radii
   RWIGS  =  -1.00
  virtual crystal weights 
   VCA    =   1.00
   NELECT =     275.0000    total number of electrons
   NUPDOWN=      -1.0000    fix difference up-down

 DOS related values:
   EMIN   =  10.00;   EMAX   =-10.00  energy-range for DOS
   EFERMI =   0.00
   ISMEAR =     0;   SIGMA  =   0.00  broadening in eV -4-tet -1-fermi 0-gaus

 Electronic relaxation 2 (details)
   IALGO  =     38    algorithm
   LDIAG  =      T    sub-space diagonalisation (order eigenvalues)
   LSUBROT=      F    optimize rotation matrix (better conditioning)
   TURBO    =      0    0=normal 1=particle mesh
   IRESTART =      0    0=no restart 2=restart with 2 vectors
   NREBOOT  =      0    no. of reboots
   NMIN     =      0    reboot dimension
   EREF     =   0.00    reference energy to select bands
   IMIX   =      4    mixing-type and parameters
     AMIX     =   0.40;   BMIX     =  1.00
     AMIX_MAG =   1.60;   BMIX_MAG =  1.00
     AMIN     =   0.10
     WC   =   100.;   INIMIX=   1;  MIXPRE=   1;  MAXMIX= -45

 Intra band minimization:
   WEIMIN = 0.0010     energy-eigenvalue tresh-hold
   EBREAK =  0.14E-06  absolut break condition
   DEPER  =   0.30     relativ break condition  

   TIME   =   0.40     timestep for ELM

  volume/ion in A,a.u.               =     318.48      2149.20
  Fermi-wavevector in a.u.,A,eV,Ry     =   0.533145  1.007498  3.867370  0.284244
  Thomas-Fermi vector in A             =   1.556957
 
 Write flags
   LWAVE  =      F    write WAVECAR
   LCHARG =      F    write CHGCAR
   LVTOT  =      F    write LOCPOT, total local potential
   LVHAR  =      F    write LOCPOT, Hartree potential only
   LELF   =      F    write electronic localiz. function (ELF)
   LORBIT =      0    0 simple, 1 ext, 2 COOP (PROOUT)


 Dipole corrections
   LMONO  =      F    monopole corrections only (constant potential shift)
   LDIPOL =      F    correct potential (dipole corrections)
   IDIPOL =      0    1-x, 2-y, 3-z, 4-all directions 
   EPSILON=  1.0000000 bulk dielectric constant

 Exchange correlation treatment:
   GGA     =    PE    GGA type
   LEXCH   =     8    internal setting for exchange type
   VOSKOWN=      0    Vosko Wilk Nusair interpolation
   LHFCALC =     F    Hartree Fock is set to
   LHFONE  =     F    Hartree Fock one center treatment
   AEXX    =    0.0000 exact exchange contribution

 Linear response parameters
   LEPSILON=     F    determine dielectric tensor
   LRPA    =     F    only Hartree local field effects (RPA)
   LNABLA  =     F    use nabla operator in PAW spheres
   LVEL    =     F    velocity operator in full k-point grid
   LINTERFAST=   F  fast interpolation
   KINTER  =     0    interpolate to denser k-point grid
   CSHIFT  =0.1000    complex shift for real part using Kramers Kronig
   OMEGAMAX=  -1.0    maximum frequency
   DEG_THRESHOLD= 0.2000000E-02 threshold for treating states as degnerate
   RTIME   =    0.100 relaxation time in fs

 Orbital magnetization related:
   ORBITALMAG=     F  switch on orbital magnetization
   LCHIMAG   =     F  perturbation theory with respect to B field
   DQ        =  0.001000  dq finite difference perturbation B field



--------------------------------------------------------------------------------------------------------


 conjugate gradient relaxation of ions
 charge density and potential will be updated during run
 spin polarized calculation
 Variant of blocked Davidson
 Davidson routine will perform the subspace rotation
 perform sub-space diagonalisation
    after iterative eigenvector-optimisation
 modified Broyden-mixing scheme, WC =      100.0
 initial mixing is a Kerker type mixing with AMIX =  0.4000 and BMIX =      1.0000
 Hartree-type preconditioning will be used
 using additional bands           42
 reciprocal scheme for non local part
 use partial core corrections
 calculate Harris-corrections to forces 
   (improved forces if not selfconsistent)
 use gradient corrections 
 use of overlap-Matrix (Vanderbilt PP)
 Gauss-broadening in eV      SIGMA  =   0.00


--------------------------------------------------------------------------------------------------------


  energy-cutoff  :      249.84
  volume of cell :     7961.98
      direct lattice vectors                 reciprocal lattice vectors
    19.968265459  0.000000000  0.000000000     0.050079462  0.000000000  0.000000000
     0.000000000 19.968265459  0.000000000     0.000000000  0.050079462  0.000000000
     0.000000000  0.000000000 19.968265459     0.000000000  0.000000000  0.050079462

  length of vectors
    19.968265459 19.968265459 19.968265459     0.050079462  0.050079462  0.050079462


 
 k-points in units of 2pi/SCALE and weight: Gamma-point only                        
   0.00000000  0.00000000  0.00000000       1.000
 
 k-points in reciprocal lattice and weights: Gamma-point only                        
   0.00000000  0.00000000  0.00000000       1.000
 
 position of ions in fractional coordinates (direct lattice) 
   0.61938569  0.64868719  0.43068958
   0.51999648  0.48112218  0.63131236
   0.48820414  0.59032537  0.40973345
   0.60272903  0.67053961  0.69661920
   0.60123020  0.50898369  0.40473934
   0.42926166  0.46826544  0.73353031
   0.36087710  0.53732332  0.40854518
   0.76100010  0.50438892  0.68260187
   0.55610287  0.42526145  0.50620692
   0.70065881  0.60654218  0.61349374
   0.62634388  0.53034950  0.71511386
   0.47438828  0.45064695  0.38925986
   0.40093448  0.55990609  0.63255636
   0.48816326  0.67000890  0.61356868
   0.72577653  0.62406997  0.74923849
   0.50660816  0.71092402  0.48102978
   0.56900374  0.57716167  0.53926832
   0.68863302  0.41510366  0.46442823
   0.70426423  0.55231556  0.48703108
   0.49954488  0.58515623  0.72721213
   0.71945838  0.73512974  0.66271277
   0.39738612  0.62844447  0.50977561
   0.65830769  0.46931133  0.59143662
   0.43734345  0.49461799  0.51474336
   0.62016094  0.71117768  0.56091604
 
 position of ions in cartesian coordinates  (Angst):
  12.36805786 12.95315797  8.60012384
  10.38342771  9.60717540 12.60621289
   9.74858982 11.78777370  8.18166622
  12.03545325 13.38951288 13.91027706
  12.00552418 10.16352151  8.08194264
   8.57161076  9.35044863 14.64732788
   7.20608977 10.72941471  8.15793852
  15.19585208 10.07177185 13.63037531
  11.10440973  8.49173352 10.10807416
  13.99094115 12.11159523 12.25040593
  12.50700084 10.59015965 14.27958335
   9.47271113  8.99863801  7.77284423
   8.00596607 11.18035340 12.63105335
   9.74777352 13.37891551 12.25190222
  14.49249842 12.46159473 14.96099303
  10.11608621 14.19591965  9.60533028
  11.36201780 11.52491751 10.76825303
  13.75080689  8.28890014  9.27382609
  14.06293509 11.02878367  9.72516593
   9.97504480 11.68455485 14.52116476
  14.36633601 14.67926588 13.23322442
   7.93511161 12.54894599 10.17933464
  13.14526272  9.37133314 11.80996344
   8.73299001  9.87666339 10.27853202
  12.38353822 14.20098473 11.20052037
 


--------------------------------------------------------------------------------------------------------


 use parallel FFT for wavefunctions z direction half grid
 k-point  1 :   0.0000 0.0000 0.0000  plane waves:   35796

 maximum and minimum number of plane-waves per node :      4477     4470

 maximum number of plane-waves:     35796
 maximum index in each direction: 
   IXMAX=   25   IYMAX=   25   IZMAX=   25
   IXMIN=  -25   IYMIN=  -25   IZMIN=    0

 WARNING: aliasing errors must be expected set NGX to 102 to avoid them
 WARNING: aliasing errors must be expected set NGY to 102 to avoid them
 WARNING: aliasing errors must be expected set NGZ to 102 to avoid them
 aliasing errors are usually negligible using standard VASP settings
 and one can safely disregard these warnings

 parallel 3D FFT for wavefunctions:
    minimum data exchange during FFTs selected (reduces bandwidth)
 parallel 3D FFT for charge:
    minimum data exchange during FFTs selected (reduces bandwidth)


 total amount of memory used by VASP on root node    59208. kBytes
========================================================================

   base      :      30000. kBytes
   nonl-proj :       2432. kBytes
   fftplans  :       5772. kBytes
   grid      :      14451. kBytes
   one-center:         62. kBytes
   wavefun   :       6491. kBytes
 
     INWAV:  cpu time    0.00: real time    0.00
 Broyden mixing: mesh for mixing (old mesh)
   NGX = 51   NGY = 51   NGZ = 51
  (NGX  =160   NGY  =160   NGZ  =160)
  gives a total of 132651 points

 initial charge density was supplied:
 charge density of overlapping atoms calculated
 number of electron     275.0000000 magnetization      25.0000000
 keeping initial charge density in first step


--------------------------------------------------------------------------------------------------------


 Maximum index for augmentation-charges          257 (set IRDMAX)


--------------------------------------------------------------------------------------------------------


 First call to EWALD:  gamma=   0.089
 Maximum number of real-space cells 3x 3x 3
 Maximum number of reciprocal cells 3x 3x 3

 FEWALD executed in parallel
    FEWALD:  cpu time    0.00: real time    0.00


----------------------------------------- Iteration    1(   1)  ---------------------------------------


    POTLOK:  cpu time    0.23: real time    0.23
    SETDIJ:  cpu time    0.01: real time    0.01
     EDDAV:  cpu time    2.36: real time    2.36
       DOS:  cpu time    0.00: real time    0.00
    --------------------------------------------
      LOOP:  cpu time    2.60: real time    2.64

 eigenvalue-minimisations  :   720
 total energy-change (2. order) : 0.2316251E+04  (-0.5331470E+04)
 number of electron     275.0000000 magnetization      25.0000000
 augmentation part      275.0000000 magnetization      25.0000000

 Free energy of the ion-electron system (eV)
  ---------------------------------------------------
  alpha Z        PSCENC =        66.76873889
  Ewald energy   TEWEN  =     44333.35972718
  -Hartree energ DENC   =    -69237.65822912
  -exchange      EXHF   =         0.00000000
  -V(xc)+E(xc)   XCENC  =      -275.43992053
  PAW double counting   =     25084.30445174   -23931.61522197
  entropy T*S    EENTRO =         0.00000000
  eigenvalues    EBANDS =       346.56611834
  atomic energy  EATOM  =     25929.96575216
  ---------------------------------------------------
  free energy    TOTEN  =      2316.25141668 eV

  energy without entropy =     2316.25141668  energy(sigma->0) =     2316.25141668


--------------------------------------------------------------------------------------------------------




----------------------------------------- Iteration    1(   2)  ---------------------------------------


     EDDAV:  cpu time    3.58: real time    3.58
       DOS:  cpu time    0.00: real time    0.00
    --------------------------------------------
      LOOP:  cpu time    3.58: real time    3.59

 eigenvalue-minimisations  :  1176
 total energy-change (2. order) :-0.1863038E+04  (-0.1663980E+04)
 number of electron     275.0000000 magnetization      25.0000000
 augmentation part      275.0000000 magnetization      25.0000000

 Free energy of the ion-electron system (eV)
  ---------------------------------------------------
  alpha Z        PSCENC =        66.76873889
  Ewald energy   TEWEN  =     44333.35972718
  -Hartree energ DENC   =    -69237.65822912
  -exchange      EXHF   =         0.00000000
  -V(xc)+E(xc)   XCENC  =      -275.43992053
  PAW double counting   =     25084.30445174   -23931.61522197
  entropy T*S    EENTRO =         0.00000000
  eigenvalues    EBANDS =     -1516.47236995
  atomic energy  EATOM  =     25929.96575216
  ---------------------------------------------------
  free energy    TOTEN  =       453.21292839 eV

  energy without entropy =      453.21292839  energy(sigma->0) =      453.21292839


--------------------------------------------------------------------------------------------------------




----------------------------------------- Iteration    1(   3)  ---------------------------------------


     EDDAV:  cpu time    2.99: real time    3.00
       DOS:  cpu time    0.00: real time    0.00
    --------------------------------------------
      LOOP:  cpu time    3.00: real time    3.01

 eigenvalue-minimisations  :   944
 total energy-change (2. order) :-0.4832491E+03  (-0.4432530E+03)
 number of electron     275.0000000 magnetization      25.0000000
 augmentation part      275.0000000 magnetization      25.0000000

 Free energy of the ion-electron system (eV)
  ---------------------------------------------------
  alpha Z        PSCENC =        66.76873889
  Ewald energy   TEWEN  =     44333.35972718
  -Hartree energ DENC   =    -69237.65822912
  -exchange      EXHF   =         0.00000000
  -V(xc)+E(xc)   XCENC  =      -275.43992053
  PAW double counting   =     25084.30445174   -23931.61522197
  entropy T*S    EENTRO =         0.00000000
  eigenvalues    EBANDS =     -1999.72151385
  atomic energy  EATOM  =     25929.96575216
  ---------------------------------------------------
  free energy    TOTEN  =       -30.03621551 eV

  energy without entropy =      -30.03621551  energy(sigma->0) =      -30.03621551


--------------------------------------------------------------------------------------------------------




----------------------------------------- Iteration    1(   4)  ---------------------------------------


     EDDAV:  cpu time    2.61: real time    2.61
       DOS:  cpu time    0.00: real time    0.00
    --------------------------------------------
      LOOP:  cpu time    2.61: real time    2.61

 eigenvalue-minimisations  :   792
 total energy-change (2. order) :-0.2125883E+02  (-0.2108841E+02)
 number of electron     275.0000000 magnetization      25.0000000
 augmentation part      275.0000000 magnetization      25.0000000

 Free energy of the ion-electron system (eV)
  ---------------------------------------------------
  alpha Z        PSCENC =        66.76873889
  Ewald energy   TEWEN  =     44333.35972718
  -Hartree energ DENC   =    -69237.65822912
  -exchange      EXHF   =         0.00000000
  -V(xc)+E(xc)   XCENC  =      -275.43992053
  PAW double counting   =     25084.30445174   -23931.61522197
  entropy T*S    EENTRO =         0.00000000
  eigenvalues    EBANDS =     -2020.98034354
  atomic energy  EATOM  =     25929.96575216
  ---------------------------------------------------
  free energy    TOTEN  =       -51.29504520 eV

  energy without entropy =      -51.29504520  energy(sigma->0) =      -51.29504520


--------------------------------------------------------------------------------------------------------




----------------------------------------- Iteration    1(   5)  ---------------------------------------


     EDDAV:  cpu time    2.67: real time    2.67
       DOS:  cpu time    0.00: real time    0.00
    CHARGE:  cpu time    0.10: real time    0.10
    MIXING:  cpu time    0.01: real time    0.01
    --------------------------------------------
      LOOP:  cpu time    2.78: real time    2.94

 eigenvalue-minimisations  :   816
 total energy-change (2. order) :-0.3034131E+00  (-0.3030958E+00)
 number of electron     274.9999876 magnetization      21.5405374
 augmentation part      129.4045962 magnetization      21.0886697

 Broyden mixing:
  rms(total) = 0.28099E+01    rms(broyden)= 0.28095E+01
  rms(prec ) = 0.28692E+01
  weight for this iteration     100.00

 Free energy of the ion-electron system (eV)
  ---------------------------------------------------
  alpha Z        PSCENC =        66.76873889
  Ewald energy   TEWEN  =     44333.35972718
  -Hartree energ DENC   =    -69237.65822912
  -exchange      EXHF   =         0.00000000
  -V(xc)+E(xc)   XCENC  =      -275.43992053
  PAW double counting   =     25084.30445174   -23931.61522197
  entropy T*S    EENTRO =         0.00000000
  eigenvalues    EBANDS =     -2021.28375663
  atomic energy  EATOM  =     25929.96575216
  ---------------------------------------------------
  free energy    TOTEN  =       -51.59845829 eV

  energy without entropy =      -51.59845829  energy(sigma->0) =      -51.59845829


--------------------------------------------------------------------------------------------------------




----------------------------------------- Iteration    1(   6)  ---------------------------------------


    POTLOK:  cpu time    0.22: real time    0.22
    SETDIJ:  cpu time    0.00: real time    0.01
     EDDAV:  cpu time    2.47: real time    2.48
       DOS:  cpu time    0.00: real time    0.00
    CHARGE:  cpu time    0.10: real time    0.09
    MIXING:  cpu time    0.01: real time    0.01
    --------------------------------------------
      LOOP:  cpu time    2.81: real time    2.81

 eigenvalue-minimisations  :   740
 total energy-change (2. order) : 0.3365658E+02  (-0.1002402E+02)
 number of electron     274.9999873 magnetization      19.3329356
 augmentation part      132.2855726 magnetization      12.4836453

 Broyden mixing:
  rms(total) = 0.14516E+01    rms(broyden)= 0.14515E+01
  rms(prec ) = 0.14802E+01
  weight for this iteration     100.00

 eigenvalues of (default mixing * dielectric matrix)
  average eigenvalue GAMMA=   0.8497
  0.8497

 Free energy of the ion-electron system (eV)
  ---------------------------------------------------
  alpha Z        PSCENC =        66.76873889
  Ewald energy   TEWEN  =     44333.35972718
  -Hartree energ DENC   =    -69144.85916581
  -exchange      EXHF   =         0.00000000
  -V(xc)+E(xc)   XCENC  =      -259.74933720
  PAW double counting   =     25880.30993832   -24745.15608341
  entropy T*S    EENTRO =         0.00000000
  eigenvalues    EBANDS =     -2078.58145099
  atomic energy  EATOM  =     25929.96575216
  ---------------------------------------------------
  free energy    TOTEN  =       -17.94188088 eV

  energy without entropy =      -17.94188088  energy(sigma->0) =      -17.94188088


--------------------------------------------------------------------------------------------------------




----------------------------------------- Iteration    1(   7)  ---------------------------------------


    POTLOK:  cpu time    0.22: real time    0.22
    SETDIJ:  cpu time    0.00: real time    0.01
     EDDAV:  cpu time    2.59: real time    2.59
       DOS:  cpu time    0.00: real time    0.00
    CHARGE:  cpu time    0.09: real time    0.09
    MIXING:  cpu time    0.01: real time    0.01
    --------------------------------------------
      LOOP:  cpu time    2.92: real time    2.93

 eigenvalue-minimisations  :   784
 total energy-change (2. order) : 0.4663585E+01  (-0.6022640E+00)
 number of electron     274.9999874 magnetization      16.0189196
 augmentation part      132.2302992 magnetization       9.4364248

 Broyden mixing:
  rms(total) = 0.86120E+00    rms(broyden)= 0.86119E+00
  rms(prec ) = 0.87604E+00
  weight for this iteration     100.00

 eigenvalues of (default mixing * dielectric matrix)
  average eigenvalue GAMMA=   0.9820
  0.7586  1.2054

 Free energy of the ion-electron system (eV)
  ---------------------------------------------------
  alpha Z        PSCENC =        66.76873889
  Ewald energy   TEWEN  =     44333.35972718
  -Hartree energ DENC   =    -69205.79967585
  -exchange      EXHF   =         0.00000000
  -V(xc)+E(xc)   XCENC  =      -255.75431630
  PAW double counting   =     26359.92725439   -25236.02940914
  entropy T*S    EENTRO =         0.00000000
  eigenvalues    EBANDS =     -2005.71636745
  atomic energy  EATOM  =     25929.96575216
  ---------------------------------------------------
  free energy    TOTEN  =       -13.27829613 eV

  energy without entropy =      -13.27829613  energy(sigma->0) =      -13.27829613


--------------------------------------------------------------------------------------------------------




----------------------------------------- Iteration    1(   8)  ---------------------------------------


    POTLOK:  cpu time    0.22: real time    0.22
    SETDIJ:  cpu time    0.00: real time    0.01
     EDDAV:  cpu time    2.55: real time    2.55
       DOS:  cpu time    0.00: real time    0.00
    CHARGE:  cpu time    0.09: real time    0.09
    MIXING:  cpu time    0.01: real time    0.01
    --------------------------------------------
      LOOP:  cpu time    2.88: real time    2.89

 eigenvalue-minimisations  :   764
 total energy-change (2. order) :-0.2569440E+01  (-0.2045036E+00)
 number of electron     274.9999874 magnetization      13.7751804
 augmentation part      132.0459478 magnetization       7.4129521

 Broyden mixing:
  rms(total) = 0.46110E+00    rms(broyden)= 0.46109E+00
  rms(prec ) = 0.46580E+00
  weight for this iteration     100.00

 eigenvalues of (default mixing * dielectric matrix)
  average eigenvalue GAMMA=   1.2394
  2.1968  0.9062  0.6153

 Free energy of the ion-electron system (eV)
  ---------------------------------------------------
  alpha Z        PSCENC =        66.76873889
  Ewald energy   TEWEN  =     44333.35972718
  -Hartree energ DENC   =    -69274.32211194
  -exchange      EXHF   =         0.00000000
  -V(xc)+E(xc)   XCENC  =      -257.23853397
  PAW double counting   =     26913.88912891   -25801.63277000
  entropy T*S    EENTRO =         0.00000000
  eigenvalues    EBANDS =     -1926.63766706
  atomic energy  EATOM  =     25929.96575216
  ---------------------------------------------------
  free energy    TOTEN  =       -15.84773584 eV

  energy without entropy =      -15.84773584  energy(sigma->0) =      -15.84773584


--------------------------------------------------------------------------------------------------------




----------------------------------------- Iteration    1(   9)  ---------------------------------------


    POTLOK:  cpu time    0.22: real time    0.22
    SETDIJ:  cpu time    0.01: real time    0.01
     EDDAV:  cpu time    2.60: real time    2.60
       DOS:  cpu time    0.00: real time    0.00
    CHARGE:  cpu time    0.10: real time    0.09
    MIXING:  cpu time    0.01: real time    0.01
    --------------------------------------------
      LOOP:  cpu time    2.93: real time    2.93

 eigenvalue-minimisations  :   784
 total energy-change (2. order) :-0.4401439E+01  (-0.1138387E+00)
 number of electron     274.9999873 magnetization      13.1672198
 augmentation part      131.9907378 magnetization       8.9334086

 Broyden mixing:
  rms(total) = 0.34818E+00    rms(broyden)= 0.34810E+00
  rms(prec ) = 0.35851E+00
  weight for this iteration     100.00

 eigenvalues of (default mixing * dielectric matrix)
  average eigenvalue GAMMA=   1.0128
  2.2215  0.9089  0.6034  0.3173

 Free energy of the ion-electron system (eV)
  ---------------------------------------------------
  alpha Z        PSCENC =        66.76873889
  Ewald energy   TEWEN  =     44333.35972718
  -Hartree energ DENC   =    -69296.79789679
  -exchange      EXHF   =         0.00000000
  -V(xc)+E(xc)   XCENC  =      -260.33900121
  PAW double counting   =     27124.30353097   -26016.33567795
  entropy T*S    EENTRO =        -0.00000000
  eigenvalues    EBANDS =     -1901.17434832
  atomic energy  EATOM  =     25929.96575216
  ---------------------------------------------------
  free energy    TOTEN  =       -20.24917509 eV

  energy without entropy =      -20.24917509  energy(sigma->0) =      -20.24917509


--------------------------------------------------------------------------------------------------------




----------------------------------------- Iteration    1(  10)  ---------------------------------------


    POTLOK:  cpu time    0.22: real time    0.22
    SETDIJ:  cpu time    0.01: real time    0.01
     EDDAV:  cpu time    2.62: real time    2.62
       DOS:  cpu time    0.00: real time    0.00
    CHARGE:  cpu time    0.09: real time    0.09
    MIXING:  cpu time    0.01: real time    0.01
    --------------------------------------------
      LOOP:  cpu time    2.95: real time    2.95

 eigenvalue-minimisations  :   792
 total energy-change (2. order) :-0.9582183E+00  (-0.1442937E-01)
 number of electron     274.9999873 magnetization      10.5801070
 augmentation part      131.9737286 magnetization       6.4281545

 Broyden mixing:
  rms(total) = 0.31281E+00    rms(broyden)= 0.31281E+00
  rms(prec ) = 0.32066E+00
  weight for this iteration     100.00

 eigenvalues of (default mixing * dielectric matrix)
  average eigenvalue GAMMA=   1.0784
  2.2306  1.0109  0.6428  0.7537  0.7537

 Free energy of the ion-electron system (eV)
  ---------------------------------------------------
  alpha Z        PSCENC =        66.76873889
  Ewald energy   TEWEN  =     44333.35972718
  -Hartree energ DENC   =    -69299.76133032
  -exchange      EXHF   =         0.00000000
  -V(xc)+E(xc)   XCENC  =      -260.91136577
  PAW double counting   =     27137.72755190   -26030.08103765
  entropy T*S    EENTRO =         0.00000000
  eigenvalues    EBANDS =     -1898.27542981
  atomic energy  EATOM  =     25929.96575216
  ---------------------------------------------------
  free energy    TOTEN  =       -21.20739342 eV

  energy without entropy =      -21.20739342  energy(sigma->0) =      -21.20739342


--------------------------------------------------------------------------------------------------------




----------------------------------------- Iteration    1(  11)  ---------------------------------------


    POTLOK:  cpu time    0.22: real time    0.23
    SETDIJ:  cpu time    0.01: real time    0.01
     EDDAV:  cpu time    2.34: real time    2.33
       DOS:  cpu time    0.00: real time    0.00
    CHARGE:  cpu time    0.09: real time    0.09
    MIXING:  cpu time    0.01: real time    0.01
    --------------------------------------------
      LOOP:  cpu time    2.67: real time    5.22

 eigenvalue-minimisations  :   728
 total energy-change (2. order) :-0.8638845E+01  (-0.3586074E+00)
 number of electron     274.9999873 magnetization       8.8203564
 augmentation part      131.9625346 magnetization       6.9491798

 Broyden mixing:
  rms(total) = 0.29853E+00    rms(broyden)= 0.29843E+00
  rms(prec ) = 0.30649E+00
  weight for this iteration     100.00

 eigenvalues of (default mixing * dielectric matrix)
  average eigenvalue GAMMA=   1.0646
  2.3093  1.1239  0.9524  0.9524  0.6383  0.4115

 Free energy of the ion-electron system (eV)
  ---------------------------------------------------
  alpha Z        PSCENC =        66.76873889
  Ewald energy   TEWEN  =     44333.35972718
  -Hartree energ DENC   =    -69304.81791323
  -exchange      EXHF   =         0.00000000
  -V(xc)+E(xc)   XCENC  =      -267.03297384
  PAW double counting   =     27130.83694561   -26023.54218923
  entropy T*S    EENTRO =         0.00000000
  eigenvalues    EBANDS =     -1895.38432589
  atomic energy  EATOM  =     25929.96575216
  ---------------------------------------------------
  free energy    TOTEN  =       -29.84623835 eV

  energy without entropy =      -29.84623835  energy(sigma->0) =      -29.84623835


--------------------------------------------------------------------------------------------------------




----------------------------------------- Iteration    1(  12)  ---------------------------------------


    POTLOK:  cpu time    0.22: real time    0.22
    SETDIJ:  cpu time    0.01: real time    0.01
     EDDAV:  cpu time    2.56: real time    2.56
       DOS:  cpu time    0.00: real time    0.00
    CHARGE:  cpu time    0.09: real time    0.09
    MIXING:  cpu time    0.01: real time    0.01
    --------------------------------------------
      LOOP:  cpu time    2.90: real time    2.92

 eigenvalue-minimisations  :   768
 total energy-change (2. order) :-0.3418637E+01  (-0.1055637E+00)
 number of electron     274.9999873 magnetization       6.0993588
 augmentation part      131.9453360 magnetization       4.4415211

 Broyden mixing:
  rms(total) = 0.21730E+00    rms(broyden)= 0.21729E+00
  rms(prec ) = 0.22272E+00
  weight for this iteration     100.00

 eigenvalues of (default mixing * dielectric matrix)
  average eigenvalue GAMMA=   1.2029
  2.6883  1.9649  0.9984  0.9984  0.6891  0.5405  0.5405

 Free energy of the ion-electron system (eV)
  ---------------------------------------------------
  alpha Z        PSCENC =        66.76873889
  Ewald energy   TEWEN  =     44333.35972718
  -Hartree energ DENC   =    -69310.30933154
  -exchange      EXHF   =         0.00000000
  -V(xc)+E(xc)   XCENC  =      -269.33538125
  PAW double counting   =     27138.96966497   -26032.12192467
  entropy T*S    EENTRO =         0.00000000
  eigenvalues    EBANDS =     -1890.56212119
  atomic energy  EATOM  =     25929.96575216
  ---------------------------------------------------
  free energy    TOTEN  =       -33.26487545 eV

  energy without entropy =      -33.26487545  energy(sigma->0) =      -33.26487545


--------------------------------------------------------------------------------------------------------




----------------------------------------- Iteration    1(  13)  ---------------------------------------


    POTLOK:  cpu time    0.23: real time    0.22
    SETDIJ:  cpu time    0.00: real time    0.01
     EDDAV:  cpu time    2.46: real time    2.47
       DOS:  cpu time    0.00: real time    0.00
    CHARGE:  cpu time    0.09: real time    0.09
    MIXING:  cpu time    0.01: real time    0.01
    --------------------------------------------
      LOOP:  cpu time    2.80: real time    2.80

 eigenvalue-minimisations  :   728
 total energy-change (2. order) :-0.6894886E+01  (-0.3159542E+00)
 number of electron     274.9999873 magnetization       4.2329254
 augmentation part      131.9392576 magnetization       2.8740848

 Broyden mixing:
  rms(total) = 0.13641E+00    rms(broyden)= 0.13640E+00
  rms(prec ) = 0.14093E+00
  weight for this iteration     100.00

 eigenvalues of (default mixing * dielectric matrix)
  average eigenvalue GAMMA=   1.3483
  3.7858  2.1886  1.1178  1.1178  0.7494  0.6191  0.6191  0.5883

 Free energy of the ion-electron system (eV)
  ---------------------------------------------------
  alpha Z        PSCENC =        66.76873889
  Ewald energy   TEWEN  =     44333.35972718
  -Hartree energ DENC   =    -69311.33506063
  -exchange      EXHF   =         0.00000000
  -V(xc)+E(xc)   XCENC  =      -274.42838160
  PAW double counting   =     27104.58993069   -25997.66439782
  entropy T*S    EENTRO =         0.00000000
  eigenvalues    EBANDS =     -1891.41607014
  atomic energy  EATOM  =     25929.96575216
  ---------------------------------------------------
  free energy    TOTEN  =       -40.15976128 eV

  energy without entropy =      -40.15976128  energy(sigma->0) =      -40.15976128


--------------------------------------------------------------------------------------------------------




----------------------------------------- Iteration    1(  14)  ---------------------------------------


    POTLOK:  cpu time    0.22: real time    0.22
    SETDIJ:  cpu time    0.01: real time    0.01
     EDDAV:  cpu time    2.46: real time    2.47
       DOS:  cpu time    0.00: real time    0.00
    CHARGE:  cpu time    0.10: real time    0.09
    MIXING:  cpu time    0.01: real time    0.01
    --------------------------------------------
      LOOP:  cpu time    2.80: real time    2.81

 eigenvalue-minimisations  :   728
 total energy-change (2. order) :-0.5083490E+01  (-0.1863374E+00)
 number of electron     274.9999873 magnetization       3.2428263
 augmentation part      131.9469828 magnetization       2.0605399

 Broyden mixing:
  rms(total) = 0.91754E-01    rms(broyden)= 0.91742E-01
  rms(prec ) = 0.98168E-01
  weight for this iteration     100.00

 eigenvalues of (default mixing * dielectric matrix)
  average eigenvalue GAMMA=   1.4045
  4.4835  2.2362  1.2875  1.2875  0.7804  0.6983  0.6669  0.6669  0.5330

 Free energy of the ion-electron system (eV)
  ---------------------------------------------------
  alpha Z        PSCENC =        66.76873889
  Ewald energy   TEWEN  =     44333.35972718
  -Hartree energ DENC   =    -69301.10490306
  -exchange      EXHF   =         0.00000000
  -V(xc)+E(xc)   XCENC  =      -278.60893613
  PAW double counting   =     27055.11817685   -25947.64144608
  entropy T*S    EENTRO =         0.00000000
  eigenvalues    EBANDS =     -1903.10036147
  atomic energy  EATOM  =     25929.96575216
  ---------------------------------------------------
  free energy    TOTEN  =       -45.24325166 eV

  energy without entropy =      -45.24325166  energy(sigma->0) =      -45.24325166


--------------------------------------------------------------------------------------------------------




----------------------------------------- Iteration    1(  15)  ---------------------------------------


    POTLOK:  cpu time    0.22: real time    0.22
    SETDIJ:  cpu time    0.01: real time    0.01
     EDDAV:  cpu time    2.50: real time    2.51
       DOS:  cpu time    0.00: real time    0.00
    CHARGE:  cpu time    0.10: real time    0.09
    MIXING:  cpu time    0.01: real time    0.01
    --------------------------------------------
      LOOP:  cpu time    2.84: real time    2.87

 eigenvalue-minimisations  :   744
 total energy-change (2. order) :-0.2365199E+01  (-0.5365241E-01)
 number of electron     274.9999873 magnetization       2.0830083
 augmentation part      131.9603731 magnetization       0.9712342

 Broyden mixing:
  rms(total) = 0.63220E-01    rms(broyden)= 0.63211E-01
  rms(prec ) = 0.70069E-01
  weight for this iteration     100.00

 eigenvalues of (default mixing * dielectric matrix)
  average eigenvalue GAMMA=   1.5553
  5.0159  2.8419  2.1823  1.0560  1.0560  0.9222  0.6635  0.6386  0.6386  0.5378

 Free energy of the ion-electron system (eV)
  ---------------------------------------------------
  alpha Z        PSCENC =        66.76873889
  Ewald energy   TEWEN  =     44333.35972718
  -Hartree energ DENC   =    -69287.57177471
  -exchange      EXHF   =         0.00000000
  -V(xc)+E(xc)   XCENC  =      -280.77425099
  PAW double counting   =     27019.59337026   -25911.67152568
  entropy T*S    EENTRO =        -0.00000000
  eigenvalues    EBANDS =     -1917.27848805
  atomic energy  EATOM  =     25929.96575216
  ---------------------------------------------------
  free energy    TOTEN  =       -47.60845095 eV

  energy without entropy =      -47.60845095  energy(sigma->0) =      -47.60845095


--------------------------------------------------------------------------------------------------------




----------------------------------------- Iteration    1(  16)  ---------------------------------------


    POTLOK:  cpu time    0.22: real time    0.22
    SETDIJ:  cpu time    0.00: real time    0.01
     EDDAV:  cpu time    2.48: real time    2.48
       DOS:  cpu time    0.00: real time    0.00
    CHARGE:  cpu time    0.10: real time    0.09
    MIXING:  cpu time    0.01: real time    0.01
    --------------------------------------------
      LOOP:  cpu time    2.81: real time    2.84

 eigenvalue-minimisations  :   732
 total energy-change (2. order) :-0.2190391E+01  (-0.4902945E-01)
 number of electron     274.9999873 magnetization       1.6230407
 augmentation part      132.0027422 magnetization       0.5520519

 Broyden mixing:
  rms(total) = 0.33885E-01    rms(broyden)= 0.33849E-01
  rms(prec ) = 0.37857E-01
  weight for this iteration     100.00

 eigenvalues of (default mixing * dielectric matrix)
  average eigenvalue GAMMA=   1.6041
  5.7130  2.9318  2.5083  1.1543  1.1543  0.9137  0.7578  0.7578  0.5639  0.5639
  0.6265

 Free energy of the ion-electron system (eV)
  ---------------------------------------------------
  alpha Z        PSCENC =        66.76873889
  Ewald energy   TEWEN  =     44333.35972718
  -Hartree energ DENC   =    -69259.52726931
  -exchange      EXHF   =         0.00000000
  -V(xc)+E(xc)   XCENC  =      -283.10631461
  PAW double counting   =     26966.76567292   -25858.09098323
  entropy T*S    EENTRO =         0.00000000
  eigenvalues    EBANDS =     -1945.93416634
  atomic energy  EATOM  =     25929.96575216
  ---------------------------------------------------
  free energy    TOTEN  =       -49.79884235 eV

  energy without entropy =      -49.79884235  energy(sigma->0) =      -49.79884235


--------------------------------------------------------------------------------------------------------




----------------------------------------- Iteration    1(  17)  ---------------------------------------


    POTLOK:  cpu time    0.22: real time    0.23
    SETDIJ:  cpu time    0.01: real time    0.01
     EDDAV:  cpu time    2.64: real time    2.64
       DOS:  cpu time    0.00: real time    0.00
    CHARGE:  cpu time    0.09: real time    0.09
    MIXING:  cpu time    0.01: real time    0.01
    --------------------------------------------
      LOOP:  cpu time    2.98: real time    3.94

 eigenvalue-minimisations  :   792
 total energy-change (2. order) :-0.5394180E+00  (-0.3620004E-02)
 number of electron     274.9999873 magnetization       1.3170232
 augmentation part      131.9984758 magnetization       0.2685273

 Broyden mixing:
  rms(total) = 0.20077E-01    rms(broyden)= 0.20065E-01
  rms(prec ) = 0.24179E-01
  weight for this iteration     100.00

 eigenvalues of (default mixing * dielectric matrix)
  average eigenvalue GAMMA=   1.6074
  6.0214  3.2244  2.4094  1.2697  1.2697  0.9287  0.8666  0.8666  0.6402  0.6402
  0.5709  0.5808

 Free energy of the ion-electron system (eV)
  ---------------------------------------------------
  alpha Z        PSCENC =        66.76873889
  Ewald energy   TEWEN  =     44333.35972718
  -Hartree energ DENC   =    -69252.20540724
  -exchange      EXHF   =         0.00000000
  -V(xc)+E(xc)   XCENC  =      -283.69544173
  PAW double counting   =     26972.44153756   -25863.85444558
  entropy T*S    EENTRO =         0.00000000
  eigenvalues    EBANDS =     -1953.11872159
  atomic energy  EATOM  =     25929.96575216
  ---------------------------------------------------
  free energy    TOTEN  =       -50.33826037 eV

  energy without entropy =      -50.33826037  energy(sigma->0) =      -50.33826037


--------------------------------------------------------------------------------------------------------




----------------------------------------- Iteration    1(  18)  ---------------------------------------


    POTLOK:  cpu time    0.23: real time    0.23
    SETDIJ:  cpu time    0.01: real time    0.01
     EDDAV:  cpu time    2.57: real time    2.57
       DOS:  cpu time    0.00: real time    0.00
    CHARGE:  cpu time    0.09: real time    0.09
    MIXING:  cpu time    0.01: real time    0.01
    --------------------------------------------
      LOOP:  cpu time    2.91: real time    3.95

 eigenvalue-minimisations  :   768
 total energy-change (2. order) :-0.3340514E+00  (-0.1273410E-02)
 number of electron     274.9999873 magnetization       1.0895626
 augmentation part      132.0014402 magnetization       0.0519036

 Broyden mixing:
  rms(total) = 0.11341E-01    rms(broyden)= 0.11336E-01
  rms(prec ) = 0.15147E-01
  weight for this iteration     100.00

 eigenvalues of (default mixing * dielectric matrix)
  average eigenvalue GAMMA=   1.6596
  6.5444  3.1970  2.2993  2.2993  1.0844  1.0844  1.0322  0.8007  0.8007  0.6724
  0.5584  0.6010  0.6010

 Free energy of the ion-electron system (eV)
  ---------------------------------------------------
  alpha Z        PSCENC =        66.76873889
  Ewald energy   TEWEN  =     44333.35972718
  -Hartree energ DENC   =    -69245.24220570
  -exchange      EXHF   =         0.00000000
  -V(xc)+E(xc)   XCENC  =      -284.07916840
  PAW double counting   =     26978.18154505   -25869.56264857
  entropy T*S    EENTRO =         0.00000000
  eigenvalues    EBANDS =     -1960.06405236
  atomic energy  EATOM  =     25929.96575216
  ---------------------------------------------------
  free energy    TOTEN  =       -50.67231177 eV

  energy without entropy =      -50.67231177  energy(sigma->0) =      -50.67231177


--------------------------------------------------------------------------------------------------------




----------------------------------------- Iteration    1(  19)  ---------------------------------------


    POTLOK:  cpu time    0.22: real time    0.22
    SETDIJ:  cpu time    0.01: real time    0.01
     EDDAV:  cpu time    2.53: real time    2.53
       DOS:  cpu time    0.00: real time    0.00
    CHARGE:  cpu time    0.10: real time    0.09
    MIXING:  cpu time    0.01: real time    0.01
    --------------------------------------------
      LOOP:  cpu time    2.87: real time    2.89

 eigenvalue-minimisations  :   752
 total energy-change (2. order) :-0.1721438E+00  (-0.9154749E-03)
 number of electron     274.9999873 magnetization       1.0625916
 augmentation part      132.0040338 magnetization       0.0302133

 Broyden mixing:
  rms(total) = 0.71098E-02    rms(broyden)= 0.71080E-02
  rms(prec ) = 0.99034E-02
  weight for this iteration     100.00

 eigenvalues of (default mixing * dielectric matrix)
  average eigenvalue GAMMA=   1.6771
  6.7365  3.2884  2.8200  2.4458  1.1932  1.1932  0.9002  0.9002  0.9164  0.6746
  0.6746  0.5659  0.5659  0.6050

 Free energy of the ion-electron system (eV)
  ---------------------------------------------------
  alpha Z        PSCENC =        66.76873889
  Ewald energy   TEWEN  =     44333.35972718
  -Hartree energ DENC   =    -69238.85372000
  -exchange      EXHF   =         0.00000000
  -V(xc)+E(xc)   XCENC  =      -284.29219538
  PAW double counting   =     26985.94362421   -25877.32783344
  entropy T*S    EENTRO =         0.00000000
  eigenvalues    EBANDS =     -1966.40854917
  atomic energy  EATOM  =     25929.96575216
  ---------------------------------------------------
  free energy    TOTEN  =       -50.84445556 eV

  energy without entropy =      -50.84445556  energy(sigma->0) =      -50.84445556


--------------------------------------------------------------------------------------------------------




----------------------------------------- Iteration    1(  20)  ---------------------------------------


    POTLOK:  cpu time    0.22: real time    0.22
    SETDIJ:  cpu time    0.01: real time    0.01
     EDDAV:  cpu time    2.57: real time    2.58
       DOS:  cpu time    0.00: real time    0.00
    CHARGE:  cpu time    0.09: real time    0.09
    MIXING:  cpu time    0.01: real time    0.01
    --------------------------------------------
      LOOP:  cpu time    2.91: real time    2.93

 eigenvalue-minimisations  :   768
 total energy-change (2. order) :-0.4540650E-01  (-0.2399384E-03)
 number of electron     274.9999873 magnetization       1.0677350
 augmentation part      132.0029701 magnetization       0.0324170

 Broyden mixing:
  rms(total) = 0.47686E-02    rms(broyden)= 0.47677E-02
  rms(prec ) = 0.69291E-02
  weight for this iteration     100.00

 eigenvalues of (default mixing * dielectric matrix)
  average eigenvalue GAMMA=   1.6703
  6.7541  3.9069  2.4908  2.4908  1.3522  1.3522  1.0190  1.0190  0.7920  0.7515
  0.7515  0.5656  0.5909  0.5909  0.6268

 Free energy of the ion-electron system (eV)
  ---------------------------------------------------
  alpha Z        PSCENC =        66.76873889
  Ewald energy   TEWEN  =     44333.35972718
  -Hartree energ DENC   =    -69235.25075192
  -exchange      EXHF   =         0.00000000
  -V(xc)+E(xc)   XCENC  =      -284.35447785
  PAW double counting   =     26990.81407569   -25882.21018736
  entropy T*S    EENTRO =         0.00000000
  eigenvalues    EBANDS =     -1969.98273884
  atomic energy  EATOM  =     25929.96575216
  ---------------------------------------------------
  free energy    TOTEN  =       -50.88986206 eV

  energy without entropy =      -50.88986206  energy(sigma->0) =      -50.88986206


--------------------------------------------------------------------------------------------------------




----------------------------------------- Iteration    1(  21)  ---------------------------------------


    POTLOK:  cpu time    0.22: real time    0.22
    SETDIJ:  cpu time    0.01: real time    0.01
     EDDAV:  cpu time    2.08: real time    2.08
       DOS:  cpu time    0.00: real time    0.00
    CHARGE:  cpu time    0.09: real time    0.09
    MIXING:  cpu time    0.02: real time    0.01
    --------------------------------------------
      LOOP:  cpu time    2.42: real time    2.47

 eigenvalue-minimisations  :   572
 total energy-change (2. order) :-0.5383067E-02  (-0.8954871E-04)
 number of electron     274.9999873 magnetization       1.0370659
 augmentation part      132.0056690 magnetization       0.0002015

 Broyden mixing:
  rms(total) = 0.30219E-02    rms(broyden)= 0.30213E-02
  rms(prec ) = 0.46995E-02
  weight for this iteration     100.00

 eigenvalues of (default mixing * dielectric matrix)
  average eigenvalue GAMMA=   1.6750
  6.7677  4.2312  2.3590  2.3590  1.5760  1.5760  1.0978  1.0978  1.0635  0.7543
  0.7543  0.7744  0.5655  0.5898  0.5898  0.6437

 Free energy of the ion-electron system (eV)
  ---------------------------------------------------
  alpha Z        PSCENC =        66.76873889
  Ewald energy   TEWEN  =     44333.35972718
  -Hartree energ DENC   =    -69232.28762697
  -exchange      EXHF   =         0.00000000
  -V(xc)+E(xc)   XCENC  =      -284.37956112
  PAW double counting   =     26990.03730852   -25881.40150672
  entropy T*S    EENTRO =         0.00000000
  eigenvalues    EBANDS =     -1972.95807705
  atomic energy  EATOM  =     25929.96575216
  ---------------------------------------------------
  free energy    TOTEN  =       -50.89524512 eV

  energy without entropy =      -50.89524512  energy(sigma->0) =      -50.89524512


--------------------------------------------------------------------------------------------------------




----------------------------------------- Iteration    1(  22)  ---------------------------------------


    POTLOK:  cpu time    0.22: real time    0.22
    SETDIJ:  cpu time    0.01: real time    0.01
     EDDAV:  cpu time    1.97: real time    1.97
       DOS:  cpu time    0.00: real time    0.00
    CHARGE:  cpu time    0.10: real time    0.09
    MIXING:  cpu time    0.01: real time    0.01
    --------------------------------------------
      LOOP:  cpu time    2.31: real time    2.39

 eigenvalue-minimisations  :   528
 total energy-change (2. order) :-0.1890817E-02  (-0.5957237E-04)
 number of electron     274.9999873 magnetization       1.0224786
 augmentation part      132.0078229 magnetization      -0.0135162

 Broyden mixing:
  rms(total) = 0.20912E-02    rms(broyden)= 0.20909E-02
  rms(prec ) = 0.30972E-02
  weight for this iteration     100.00

 eigenvalues of (default mixing * dielectric matrix)
  average eigenvalue GAMMA=   1.6892
  6.7904  4.4873  2.9970  2.0951  2.0951  1.3321  1.3321  1.0702  1.0702  0.7944
  0.7944  0.7384  0.7384  0.5665  0.5869  0.5869  0.6409

 Free energy of the ion-electron system (eV)
  ---------------------------------------------------
  alpha Z        PSCENC =        66.76873889
  Ewald energy   TEWEN  =     44333.35972718
  -Hartree energ DENC   =    -69229.38119716
  -exchange      EXHF   =         0.00000000
  -V(xc)+E(xc)   XCENC  =      -284.40097623
  PAW double counting   =     26990.99737111   -25882.37677171
  entropy T*S    EENTRO =         0.00000000
  eigenvalues    EBANDS =     -1975.82978017
  atomic energy  EATOM  =     25929.96575216
  ---------------------------------------------------
  free energy    TOTEN  =       -50.89713594 eV

  energy without entropy =      -50.89713594  energy(sigma->0) =      -50.89713594


--------------------------------------------------------------------------------------------------------




----------------------------------------- Iteration    1(  23)  ---------------------------------------


    POTLOK:  cpu time    0.22: real time    0.22
    SETDIJ:  cpu time    0.01: real time    0.01
     EDDAV:  cpu time    1.98: real time    1.98
       DOS:  cpu time    0.00: real time    0.00
    CHARGE:  cpu time    0.09: real time    0.09
    MIXING:  cpu time    0.01: real time    0.01
    --------------------------------------------
      LOOP:  cpu time    2.32: real time    2.34

 eigenvalue-minimisations  :   528
 total energy-change (2. order) :-0.3215893E-02  (-0.1784802E-04)
 number of electron     274.9999873 magnetization       1.0070829
 augmentation part      132.0074926 magnetization      -0.0286971

 Broyden mixing:
  rms(total) = 0.14009E-02    rms(broyden)= 0.14008E-02
  rms(prec ) = 0.21247E-02
  weight for this iteration     100.00

 eigenvalues of (default mixing * dielectric matrix)
  average eigenvalue GAMMA=   1.7098
  6.7813  4.8582  3.1920  2.2320  2.2320  1.4954  1.4954  1.0552  1.0552  1.0422
  0.7676  0.7676  0.7350  0.6970  0.5660  0.5896  0.5896  0.6251

 Free energy of the ion-electron system (eV)
  ---------------------------------------------------
  alpha Z        PSCENC =        66.76873889
  Ewald energy   TEWEN  =     44333.35972718
  -Hartree energ DENC   =    -69227.98799674
  -exchange      EXHF   =         0.00000000
  -V(xc)+E(xc)   XCENC  =      -284.41022352
  PAW double counting   =     26991.57114470   -25882.96213329
  entropy T*S    EENTRO =         0.00000000
  eigenvalues    EBANDS =     -1977.20536120
  atomic energy  EATOM  =     25929.96575216
  ---------------------------------------------------
  free energy    TOTEN  =       -50.90035183 eV

  energy without entropy =      -50.90035183  energy(sigma->0) =      -50.90035183


--------------------------------------------------------------------------------------------------------




----------------------------------------- Iteration    1(  24)  ---------------------------------------


    POTLOK:  cpu time    0.23: real time    0.22
    SETDIJ:  cpu time    0.00: real time    0.01
     EDDAV:  cpu time    1.94: real time    1.94
       DOS:  cpu time    0.00: real time    0.00
    CHARGE:  cpu time    0.09: real time    0.09
    MIXING:  cpu time    0.02: real time    0.01
    --------------------------------------------
      LOOP:  cpu time    2.28: real time    3.69

 eigenvalue-minimisations  :   512
 total energy-change (2. order) :-0.3607347E-02  (-0.1552346E-04)
 number of electron     274.9999873 magnetization       0.9936605
 augmentation part      132.0082535 magnetization      -0.0412702

 Broyden mixing:
  rms(total) = 0.88160E-03    rms(broyden)= 0.88141E-03
  rms(prec ) = 0.13169E-02
  weight for this iteration     100.00

 eigenvalues of (default mixing * dielectric matrix)
  average eigenvalue GAMMA=   1.7407
  6.8714  4.9595  3.8744  2.1527  2.1527  2.0447  1.3281  1.3281  1.0761  1.0761
  0.8489  0.8489  0.7444  0.7444  0.5692  0.5948  0.5948  0.6046  0.6605

 Free energy of the ion-electron system (eV)
  ---------------------------------------------------
  alpha Z        PSCENC =        66.76873889
  Ewald energy   TEWEN  =     44333.35972718
  -Hartree energ DENC   =    -69226.61948132
  -exchange      EXHF   =         0.00000000
  -V(xc)+E(xc)   XCENC  =      -284.42044837
  PAW double counting   =     26991.07518375   -25882.46215170
  entropy T*S    EENTRO =         0.00000000
  eigenvalues    EBANDS =     -1978.57127978
  atomic energy  EATOM  =     25929.96575216
  ---------------------------------------------------
  free energy    TOTEN  =       -50.90395918 eV

  energy without entropy =      -50.90395918  energy(sigma->0) =      -50.90395918


--------------------------------------------------------------------------------------------------------




----------------------------------------- Iteration    1(  25)  ---------------------------------------


    POTLOK:  cpu time    0.22: real time    0.22
    SETDIJ:  cpu time    0.01: real time    0.01
     EDDAV:  cpu time    1.90: real time    1.90
       DOS:  cpu time    0.00: real time    0.00
    CHARGE:  cpu time    0.09: real time    0.09
    MIXING:  cpu time    0.02: real time    0.01
    --------------------------------------------
      LOOP:  cpu time    2.24: real time    2.26

 eigenvalue-minimisations  :   496
 total energy-change (2. order) :-0.1895427E-02  (-0.6386894E-05)
 number of electron     274.9999873 magnetization       0.9965468
 augmentation part      132.0080503 magnetization      -0.0375733

 Broyden mixing:
  rms(total) = 0.72296E-03    rms(broyden)= 0.72276E-03
  rms(prec ) = 0.94389E-03
  weight for this iteration     100.00

 eigenvalues of (default mixing * dielectric matrix)
  average eigenvalue GAMMA=   1.7758
  6.8689  5.5777  4.1363  2.2806  2.2806  2.2937  1.4572  1.4572  1.0636  1.0636
  0.9408  0.8121  0.8121  0.7331  0.7331  0.5700  0.5941  0.5941  0.6397  0.6067

 Free energy of the ion-electron system (eV)
  ---------------------------------------------------
  alpha Z        PSCENC =        66.76873889
  Ewald energy   TEWEN  =     44333.35972718
  -Hartree energ DENC   =    -69225.96166188
  -exchange      EXHF   =         0.00000000
  -V(xc)+E(xc)   XCENC  =      -284.42416073
  PAW double counting   =     26991.26688785   -25882.65930767
  entropy T*S    EENTRO =         0.00000000
  eigenvalues    EBANDS =     -1979.22183041
  atomic energy  EATOM  =     25929.96575216
  ---------------------------------------------------
  free energy    TOTEN  =       -50.90585461 eV

  energy without entropy =      -50.90585461  energy(sigma->0) =      -50.90585461


--------------------------------------------------------------------------------------------------------




----------------------------------------- Iteration    1(  26)  ---------------------------------------


    POTLOK:  cpu time    0.22: real time    0.22
    SETDIJ:  cpu time    0.01: real time    0.01
     EDDAV:  cpu time    1.94: real time    1.94
       DOS:  cpu time    0.00: real time    0.00
    --------------------------------------------
      LOOP:  cpu time    2.17: real time    2.18

 eigenvalue-minimisations  :   512
 total energy-change (2. order) :-0.5180074E-04  (-0.1274991E-05)
 number of electron     274.9999873 magnetization       0.9965468
 augmentation part      132.0080503 magnetization      -0.0375733

 Free energy of the ion-electron system (eV)
  ---------------------------------------------------
  alpha Z        PSCENC =        66.76873889
  Ewald energy   TEWEN  =     44333.35972718
  -Hartree energ DENC   =    -69225.66685053
  -exchange      EXHF   =         0.00000000
  -V(xc)+E(xc)   XCENC  =      -284.42491690
  PAW double counting   =     26991.44095414   -25882.83229848
  entropy T*S    EENTRO =         0.00000000
  eigenvalues    EBANDS =     -1979.51701286
  atomic energy  EATOM  =     25929.96575216
  ---------------------------------------------------
  free energy    TOTEN  =       -50.90590641 eV

  energy without entropy =      -50.90590641  energy(sigma->0) =      -50.90590641


--------------------------------------------------------------------------------------------------------




 average (electrostatic) potential at core
  the test charge radii are     1.1249
  (the norm of the test charge is              1.0000)
       1 -82.2460       2 -82.2923       3 -82.1627       4 -82.2731       5 -82.2047
       6 -81.9439       7 -81.8414       8 -81.9869       9 -82.1274      10 -82.4009
      11 -82.1700      12 -81.9087      13 -82.1319      14 -82.1322      15 -82.0476
      16 -82.0965      17 -82.2350      18 -82.0174      19 -82.1824      20 -82.1908
      21 -82.0745      22 -82.1291      23 -82.2708      24 -82.1570      25 -82.1603
 
 
 
 E-fermi :  -3.2046     XC(G=0):  -1.1760     alpha+bet : -0.7207


 spin component 1

 k-point     1 :       0.0000    0.0000    0.0000
  band No.  band energies     occupation 
      1      -9.3068      1.00000
      2      -9.0531      1.00000
      3      -8.9424      1.00000
      4      -8.9244      1.00000
      5      -8.8589      1.00000
      6      -8.8234      1.00000
      7      -8.7877      1.00000
      8      -8.7508      1.00000
      9      -8.7108      1.00000
     10      -8.6930      1.00000
     11      -8.6622      1.00000
     12      -8.6486      1.00000
     13      -8.6249      1.00000
     14      -8.6033      1.00000
     15      -8.5712      1.00000
     16      -8.5274      1.00000
     17      -8.5186      1.00000
     18      -8.4828      1.00000
     19      -8.4747      1.00000
     20      -8.4323      1.00000
     21      -8.4100      1.00000
     22      -8.4002      1.00000
     23      -8.3764      1.00000
     24      -8.3656      1.00000
     25      -8.3193      1.00000
     26      -8.3123      1.00000
     27      -8.2472      1.00000
     28      -8.2374      1.00000
     29      -8.1892      1.00000
     30      -8.1803      1.00000
     31      -8.1729      1.00000
     32      -8.1383      1.00000
     33      -8.0969      1.00000
     34      -8.0725      1.00000
     35      -8.0437      1.00000
     36      -8.0370      1.00000
     37      -7.9537      1.00000
     38      -7.9345      1.00000
     39      -7.9300      1.00000
     40      -7.8999      1.00000
     41      -7.8678      1.00000
     42      -7.8399      1.00000
     43      -7.8188      1.00000
     44      -7.8090      1.00000
     45      -7.8052      1.00000
     46      -7.7685      1.00000
     47      -7.7254      1.00000
     48      -7.6579      1.00000
     49      -7.6465      1.00000
     50      -7.6271      1.00000
     51      -7.5965      1.00000
     52      -7.5681      1.00000
     53      -7.5358      1.00000
     54      -7.5203      1.00000
     55      -7.5001      1.00000
     56      -7.4768      1.00000
     57      -7.4333      1.00000
     58      -7.4220      1.00000
     59      -7.3675      1.00000
     60      -7.3552      1.00000
     61      -7.3435      1.00000
     62      -7.3253      1.00000
     63      -7.2661      1.00000
     64      -7.2554      1.00000
     65      -7.2209      1.00000
     66      -7.2112      1.00000
     67      -7.1739      1.00000
     68      -7.1469      1.00000
     69      -7.1314      1.00000
     70      -7.1105      1.00000
     71      -7.0908      1.00000
     72      -7.0574      1.00000
     73      -7.0474      1.00000
     74      -7.0342      1.00000
     75      -7.0071      1.00000
     76      -6.9868      1.00000
     77      -6.9688      1.00000
     78      -6.9594      1.00000
     79      -6.9505      1.00000
     80      -6.9367      1.00000
     81      -6.9237      1.00000
     82      -6.8911      1.00000
     83      -6.8833      1.00000
     84      -6.8710      1.00000
     85      -6.8551      1.00000
     86      -6.8259      1.00000
     87      -6.8100      1.00000
     88      -6.8039      1.00000
     89      -6.7999      1.00000
     90      -6.7789      1.00000
     91      -6.7496      1.00000
     92      -6.7429      1.00000
     93      -6.7309      1.00000
     94      -6.7182      1.00000
     95      -6.7019      1.00000
     96      -6.6870      1.00000
     97      -6.6841      1.00000
     98      -6.6541      1.00000
     99      -6.6457      1.00000
    100      -6.6392      1.00000
    101      -6.6236      1.00000
    102      -6.5998      1.00000
    103      -6.5893      1.00000
    104      -6.5761      1.00000
    105      -6.5682      1.00000
    106      -6.5474      1.00000
    107      -6.5142      1.00000
    108      -6.4851      1.00000
    109      -6.4714      1.00000
    110      -6.4558      1.00000
    111      -6.4364      1.00000
    112      -6.4304      1.00000
    113      -6.4038      1.00000
    114      -6.3997      1.00000
    115      -6.3901      1.00000
    116      -6.3580      1.00000
    117      -6.3395      1.00000
    118      -6.3267      1.00000
    119      -6.3212      1.00000
    120      -6.2998      1.00000
    121      -6.2783      1.00000
    122      -6.2502      1.00000
    123      -6.2277      1.00000
    124      -6.1976      1.00000
    125      -6.1550      1.00000
    126      -6.1340      1.00000
    127      -6.0901      1.00000
    128      -6.0714      1.00000
    129      -6.0377      1.00000
    130      -5.7675      1.00000
    131      -5.1311      1.00000
    132      -4.8008      1.00000
    133      -4.6174      1.00000
    134      -4.5266      1.00000
    135      -4.2091      1.00000
    136      -3.9403      1.00000
    137      -3.7559      1.00000
    138      -3.2280      1.00000
    139      -2.8341      0.00000
    140      -2.7268      0.00000
    141      -2.5701      0.00000
    142      -2.4383      0.00000
    143      -2.3410      0.00000
    144      -2.2721      0.00000
    145      -2.2014      0.00000
    146      -1.9986      0.00000
    147      -1.7285      0.00000
    148      -1.4841      0.00000
    149      -1.2716      0.00000
    150      -1.2158      0.00000
    151      -0.9824      0.00000
    152      -0.8345      0.00000
    153      -0.8059      0.00000
    154      -0.6454      0.00000
    155      -0.5762      0.00000
    156      -0.4612      0.00000
    157      -0.3925      0.00000
    158      -0.2928      0.00000
    159      -0.2716      0.00000
    160      -0.1710      0.00000
    161      -0.0902      0.00000
    162       0.0150      0.00000
    163       0.2339      0.00000
    164       0.4053      0.00000
    165       0.5774      0.00000
    166       0.6528      0.00000
    167       0.8188      0.00000
    168       0.8331      0.00000
    169       0.8672      0.00000
    170       0.8794      0.00000
    171       0.9420      0.00000
    172       0.9854      0.00000
    173       1.0429      0.00000
    174       1.0576      0.00000
    175       1.1100      0.00000
    176       1.1446      0.00000
    177       1.1670      0.00000
    178       1.2074      0.00000
    179       1.2107      0.00000
    180       1.2521      0.00000

 spin component 2

 k-point     1 :       0.0000    0.0000    0.0000
  band No.  band energies     occupation 
      1      -9.2885      1.00000
      2      -9.0416      1.00000
      3      -8.9323      1.00000
      4      -8.9138      1.00000
      5      -8.8478      1.00000
      6      -8.8035      1.00000
      7      -8.7756      1.00000
      8      -8.7412      1.00000
      9      -8.6972      1.00000
     10      -8.6805      1.00000
     11      -8.6462      1.00000
     12      -8.6364      1.00000
     13      -8.6100      1.00000
     14      -8.5905      1.00000
     15      -8.5602      1.00000
     16      -8.5141      1.00000
     17      -8.5048      1.00000
     18      -8.4707      1.00000
     19      -8.4548      1.00000
     20      -8.4181      1.00000
     21      -8.3989      1.00000
     22      -8.3871      1.00000
     23      -8.3641      1.00000
     24      -8.3514      1.00000
     25      -8.3104      1.00000
     26      -8.2996      1.00000
     27      -8.2364      1.00000
     28      -8.2256      1.00000
     29      -8.1790      1.00000
     30      -8.1705      1.00000
     31      -8.1633      1.00000
     32      -8.1271      1.00000
     33      -8.0822      1.00000
     34      -8.0646      1.00000
     35      -8.0307      1.00000
     36      -8.0260      1.00000
     37      -7.9401      1.00000
     38      -7.9221      1.00000
     39      -7.9177      1.00000
     40      -7.8891      1.00000
     41      -7.8546      1.00000
     42      -7.8305      1.00000
     43      -7.8070      1.00000
     44      -7.7955      1.00000
     45      -7.7944      1.00000
     46      -7.7575      1.00000
     47      -7.7139      1.00000
     48      -7.6447      1.00000
     49      -7.6350      1.00000
     50      -7.6169      1.00000
     51      -7.5852      1.00000
     52      -7.5581      1.00000
     53      -7.5261      1.00000
     54      -7.5085      1.00000
     55      -7.4862      1.00000
     56      -7.4650      1.00000
     57      -7.4231      1.00000
     58      -7.4115      1.00000
     59      -7.3594      1.00000
     60      -7.3427      1.00000
     61      -7.3311      1.00000
     62      -7.3139      1.00000
     63      -7.2553      1.00000
     64      -7.2442      1.00000
     65      -7.2096      1.00000
     66      -7.2003      1.00000
     67      -7.1633      1.00000
     68      -7.1352      1.00000
     69      -7.1213      1.00000
     70      -7.1008      1.00000
     71      -7.0775      1.00000
     72      -7.0490      1.00000
     73      -7.0349      1.00000
     74      -7.0232      1.00000
     75      -6.9956      1.00000
     76      -6.9765      1.00000
     77      -6.9590      1.00000
     78      -6.9463      1.00000
     79      -6.9371      1.00000
     80      -6.9255      1.00000
     81      -6.9158      1.00000
     82      -6.8792      1.00000
     83      -6.8732      1.00000
     84      -6.8613      1.00000
     85      -6.8448      1.00000
     86      -6.8154      1.00000
     87      -6.7995      1.00000
     88      -6.7937      1.00000
     89      -6.7883      1.00000
     90      -6.7702      1.00000
     91      -6.7396      1.00000
     92      -6.7315      1.00000
     93      -6.7201      1.00000
     94      -6.7064      1.00000
     95      -6.6945      1.00000
     96      -6.6779      1.00000
     97      -6.6711      1.00000
     98      -6.6448      1.00000
     99      -6.6382      1.00000
    100      -6.6301      1.00000
    101      -6.6136      1.00000
    102      -6.5908      1.00000
    103      -6.5797      1.00000
    104      -6.5672      1.00000
[...]
    131      -5.1030      1.00000
    132      -4.7610      1.00000
    133      -4.5822      1.00000
    134      -4.4993      1.00000
    135      -4.1764      1.00000
    136      -3.9209      1.00000
    137      -3.7219      1.00000
    138      -3.1087      0.00000
    139      -2.8022      0.00000
    140      -2.7114      0.00000
    141      -2.5376      0.00000
    142      -2.4171      0.00000
    143      -2.3232      0.00000
    144      -2.2283      0.00000
    145      -2.1722      0.00000
    146      -1.9751      0.00000
    147      -1.7127      0.00000
    148      -1.4115      0.00000
    149      -1.2416      0.00000
    150      -1.1701      0.00000
    151      -0.9231      0.00000
    152      -0.7988      0.00000
    153      -0.7629      0.00000
    154      -0.6092      0.00000
    155      -0.5485      0.00000
    156      -0.4379      0.00000
    157      -0.3567      0.00000
    158      -0.2706      0.00000
    159      -0.2473      0.00000
    160      -0.1533      0.00000
    161      -0.0678      0.00000
    162       0.0496      0.00000
    163       0.2775      0.00000
    164       0.4219      0.00000
    165       0.5626      0.00000
    166       0.6702      0.00000
    167       0.8056      0.00000
    168       0.8291      0.00000
    169       0.8560      0.00000
    170       0.8815      0.00000
    171       0.9402      0.00000
    172       0.9765      0.00000
    173       1.0298      0.00000
    174       1.0563      0.00000
    175       1.0925      0.00000
    176       1.1288      0.00000
    177       1.1672      0.00000
    178       1.1937      0.00000
    179       1.2012      0.00000
    180       1.2257      0.00000


--------------------------------------------------------------------------------------------------------


 soft charge-density along one line, spin component           1
         0         1         2         3         4         5         6         7         8         9
 total charge-density along one line
 
 soft charge-density along one line, spin component           2
         0         1         2         3         4         5         6         7         8         9
 total charge-density along one line
 
 pseudopotential strength for first ion, spin component:           1
-10.341   0.005  -0.004   0.004   0.000 -10.314   0.005  -0.003
  0.005 -10.340   0.003  -0.002  -0.002   0.005 -10.313   0.003
 -0.004   0.003 -10.337   0.006   0.002  -0.003   0.003 -10.310
  0.004  -0.002   0.006 -10.335   0.003   0.004  -0.002   0.005
  0.000  -0.002   0.002   0.003 -10.336   0.000  -0.002   0.002
-10.314   0.005  -0.003   0.004   0.000 -10.263   0.005  -0.003
  0.005 -10.313   0.003  -0.002  -0.002   0.005 -10.262   0.003
 -0.003   0.003 -10.310   0.005   0.002  -0.003   0.003 -10.259
  0.004  -0.002   0.005 -10.309   0.003   0.004  -0.002   0.005
  0.000  -0.002   0.002   0.003 -10.310   0.000  -0.002   0.002
 -0.002   0.001  -0.002  -0.002  -0.001  -0.002   0.001  -0.002
 -0.004   0.001  -0.003  -0.002  -0.001  -0.003   0.001  -0.003
  0.013  -0.021  -0.009  -0.000  -0.016   0.012  -0.020  -0.009
 -0.000   0.016  -0.024   0.013  -0.000  -0.000   0.015  -0.023
  0.016  -0.000  -0.008  -0.021   0.013   0.015  -0.000  -0.007
  0.016  -0.025  -0.011  -0.000  -0.019   0.015  -0.024  -0.010
 -0.000   0.019  -0.030   0.015  -0.000  -0.000   0.018  -0.028
  0.019  -0.000  -0.009  -0.026   0.016   0.018  -0.000  -0.009
 pseudopotential strength for first ion, spin component:           2
-10.337   0.004  -0.005   0.006   0.002 -10.311   0.004  -0.004
  0.004 -10.340   0.003  -0.002  -0.002   0.004 -10.313   0.003
 -0.005   0.003 -10.337   0.005   0.002  -0.004   0.003 -10.310
  0.006  -0.002   0.005 -10.335   0.004   0.005  -0.002   0.005
  0.002  -0.002   0.002   0.004 -10.336   0.002  -0.002   0.002
-10.311   0.004  -0.004   0.005   0.002 -10.260   0.004  -0.004
  0.004 -10.313   0.003  -0.002  -0.002   0.004 -10.262   0.003
 -0.004   0.003 -10.310   0.005   0.002  -0.004   0.003 -10.260
  0.005  -0.002   0.005 -10.308   0.004   0.005  -0.002   0.005
  0.002  -0.002   0.002   0.004 -10.310   0.002  -0.002   0.002
 -0.002  -0.000  -0.002  -0.001  -0.000  -0.002  -0.000  -0.002
 -0.003  -0.000  -0.003  -0.002  -0.001  -0.003  -0.000  -0.003
  0.014  -0.021  -0.009   0.000  -0.015   0.013  -0.020  -0.009
  0.000   0.015  -0.025   0.013   0.000   0.000   0.014  -0.024
  0.016   0.000  -0.008  -0.021   0.013   0.015   0.000  -0.008
  0.017  -0.026  -0.011   0.000  -0.018   0.016  -0.025  -0.010
  0.000   0.018  -0.030   0.016   0.000   0.000   0.017  -0.029
  0.019   0.000  -0.010  -0.026   0.016   0.018   0.000  -0.009
 total augmentation occupancy for first ion, spin component:           1
  2.821  -0.033  -0.108   0.019   0.027  -0.860   0.034   0.041  -0.013  -0.010   0.177  -0.006   0.079   0.060   0.076   0.004
 -0.033   2.752   0.027  -0.146   0.142   0.034  -0.780  -0.016   0.119  -0.103  -0.020  -0.027  -0.134   0.016   0.068  -0.005
 -0.108   0.027   2.891   0.008   0.032   0.041  -0.016  -0.850   0.028  -0.009   0.152  -0.006  -0.096  -0.128  -0.072  -0.000
  0.019  -0.146   0.008   2.764  -0.144  -0.013   0.119   0.028  -0.718   0.128   0.122  -0.047   0.072   0.048  -0.109  -0.003
  0.027   0.142   0.032  -0.144   2.808  -0.010  -0.104  -0.009   0.128  -0.795   0.053  -0.008  -0.103   0.004   0.111  -0.002
 -0.860   0.034   0.041  -0.013  -0.010   0.861  -0.036   0.015   0.006  -0.005  -0.172   0.013  -0.087  -0.057  -0.092   0.004
  0.034  -0.780  -0.016   0.119  -0.104  -0.036   0.772   0.006  -0.096   0.074   0.036   0.011   0.148  -0.036  -0.063  -0.008
  0.041  -0.016  -0.850   0.028  -0.009   0.015   0.006   0.785  -0.058  -0.010  -0.146   0.014   0.100   0.146   0.073  -0.006
 -0.013   0.119   0.028  -0.718   0.128   0.006  -0.096  -0.058   0.650  -0.118  -0.098   0.033  -0.067  -0.064   0.124   0.003
 -0.010  -0.103  -0.009   0.128  -0.795  -0.005   0.074  -0.010  -0.118   0.750  -0.053   0.010   0.116  -0.005  -0.119  -0.007
  0.177  -0.020   0.152   0.122   0.053  -0.172   0.036  -0.146  -0.098  -0.053   1.861  -0.274  -0.131   0.163  -0.112   0.012
 -0.006  -0.027  -0.006  -0.047  -0.008   0.013   0.011   0.014   0.033   0.010  -0.274   0.057   0.028  -0.035   0.027  -0.002
  0.079  -0.134  -0.096   0.072  -0.103  -0.087   0.148   0.100  -0.067   0.116  -0.131   0.028   0.112   0.017  -0.015  -0.006
  0.060   0.016  -0.128   0.048   0.004  -0.057  -0.036   0.146  -0.064  -0.005   0.163  -0.035   0.017   0.074   0.007  -0.000
  0.076   0.068  -0.072  -0.109   0.111  -0.092  -0.063   0.073   0.124  -0.119  -0.112   0.027  -0.015   0.007   0.098   0.001
  0.004  -0.005  -0.000  -0.003  -0.002   0.004  -0.008  -0.006   0.003  -0.007   0.012  -0.002  -0.006  -0.000   0.001   0.001
 -0.003   0.007  -0.006   0.003  -0.000   0.003   0.003  -0.008   0.005   0.000  -0.015   0.003  -0.000  -0.005   0.000  -0.000
  0.005  -0.003  -0.001  -0.005   0.001   0.005   0.003  -0.004  -0.008   0.007   0.011  -0.002   0.001   0.000  -0.006   0.000
 total augmentation occupancy for first ion, spin component:           2
  0.059  -0.029  -0.008   0.043   0.037  -0.055   0.021   0.008  -0.034  -0.029   0.058   0.013   0.030   0.016   0.028  -0.000
 -0.029  -0.013   0.008  -0.021  -0.012   0.021   0.001  -0.007   0.014   0.011  -0.026  -0.001  -0.009  -0.004  -0.006   0.000
 -0.008   0.008  -0.019  -0.011  -0.008   0.008  -0.007   0.008   0.008   0.007  -0.012  -0.004  -0.008  -0.003  -0.007   0.000
  0.043  -0.021  -0.011  -0.004   0.018  -0.034   0.014   0.008  -0.005  -0.015   0.022   0.006   0.013   0.009   0.012  -0.000
  0.037  -0.012  -0.008   0.018  -0.025  -0.029   0.011   0.007  -0.015   0.010   0.023   0.005   0.011   0.007   0.011  -0.000
 -0.055   0.021   0.008  -0.034  -0.029   0.054  -0.015  -0.008   0.027   0.022  -0.045  -0.008  -0.022  -0.012  -0.020   0.000
  0.021   0.001  -0.007   0.014   0.011  -0.015   0.010   0.006  -0.008  -0.010   0.022   0.000   0.008   0.005   0.005  -0.000
  0.008  -0.007   0.008   0.008   0.007  -0.008   0.006   0.004  -0.006  -0.006   0.009   0.002   0.005   0.003   0.004  -0.000
 -0.034   0.014   0.008  -0.005  -0.015   0.027  -0.008  -0.006   0.014   0.013  -0.016  -0.005  -0.010  -0.006  -0.008   0.000
 -0.029   0.011   0.007  -0.015   0.010   0.022  -0.010  -0.006   0.013   0.004  -0.019  -0.003  -0.010  -0.006  -0.007   0.000
  0.058  -0.026  -0.012   0.022   0.023  -0.045   0.022   0.009  -0.016  -0.019   0.061   0.002   0.022   0.013   0.020  -0.000
  0.013  -0.001  -0.004   0.006   0.005  -0.008   0.000   0.002  -0.005  -0.003   0.002   0.002   0.003   0.001   0.003  -0.000
  0.030  -0.009  -0.008   0.013   0.011  -0.022   0.008   0.005  -0.010  -0.010   0.022   0.003   0.009   0.005   0.007  -0.000
  0.016  -0.004  -0.003   0.009   0.007  -0.012   0.005   0.003  -0.006  -0.006   0.013   0.001   0.005   0.003   0.005  -0.000
  0.028  -0.006  -0.007   0.012   0.011  -0.020   0.005   0.004  -0.008  -0.007   0.020   0.003   0.007   0.005   0.007  -0.000
 -0.000   0.000   0.000  -0.000  -0.000   0.000  -0.000  -0.000   0.000   0.000  -0.000  -0.000  -0.000  -0.000  -0.000   0.000
 -0.001   0.000   0.000  -0.000  -0.000   0.000  -0.000  -0.000   0.000   0.000  -0.001  -0.000  -0.000  -0.000  -0.000   0.000
 -0.000   0.000   0.000  -0.000  -0.000   0.000  -0.000  -0.000   0.000   0.000  -0.000  -0.000  -0.000  -0.000  -0.000   0.000


------------------------ aborting loop because EDIFF is reached ----------------------------------------


    CHARGE:  cpu time    0.09: real time    0.09
    FORLOC:  cpu time    0.01: real time    0.01
    FORNL :  cpu time    1.56: real time    1.56
    STRESS:  cpu time    1.92: real time    1.92
    FORCOR:  cpu time    0.23: real time    0.23
    FORHAR:  cpu time    0.04: real time    0.04
    MIXING:  cpu time    0.00: real time    0.01
    OFIELD:  cpu time    0.00: real time    0.00

  FORCE on cell =-STRESS in cart. coord.  units (eV):
  Direction    XX          YY          ZZ          XY          YZ          ZX
  --------------------------------------------------------------------------------------
  Alpha Z    66.76874    66.76874    66.76874
  Ewald   17764.24111  9001.16905 17368.41907   969.43818  2482.65888  4296.42632
  Hartree 25812.64346 17656.86018 25559.50901   896.96066  2263.65998  3896.55362
  E(xc)   -1448.90322 -1450.00712 -1449.51674     0.16908     0.37082     0.81412
  Local  -47653.92442-30741.61906-47009.08583 -1865.79859 -4745.20880 -8192.02769
  n-local  -265.17142  -266.85673  -265.57442     0.25528     0.85670     1.82205
  augment  2294.70935  2297.81217  2296.47398    -0.41768    -0.71546    -1.22366
  Kinetic  3420.92291  3427.32083  3424.42511    -0.61384    -1.58643    -2.28681
  Fock        0.00000     0.00000     0.00000     0.00000     0.00000     0.00000
  -------------------------------------------------------------------------------------
  Total      -8.71348    -8.55193    -8.58107    -0.00691     0.03570     0.07795
  in kB      -1.75340    -1.72089    -1.72676    -0.00139     0.00718     0.01569
  external pressure =       -1.73 kB  Pullay stress =        0.00 kB


 VOLUME and BASIS-vectors are now :
 -----------------------------------------------------------------------------
  energy-cutoff  :      249.84
  volume of cell :     7961.98
      direct lattice vectors                 reciprocal lattice vectors
    19.968265459  0.000000000  0.000000000     0.050079462  0.000000000  0.000000000
     0.000000000 19.968265459  0.000000000     0.000000000  0.050079462  0.000000000
     0.000000000  0.000000000 19.968265459     0.000000000  0.000000000  0.050079462

  length of vectors
    19.968265459 19.968265459 19.968265459     0.050079462  0.050079462  0.050079462


 FORCES acting on ions
    electron-ion (+dipol)            ewald-force                    non-local-force                 convergence-correction
 -----------------------------------------------------------------------------------------------
   -.560E+03 -.743E+03 0.103E+04   0.557E+03 0.740E+03 -.102E+04   0.210E+01 0.279E+01 -.335E+01   0.217E-01 -.149E-01 0.555E-01
   0.281E+03 0.905E+03 -.517E+03   -.280E+03 -.904E+03 0.516E+03   -.884E+00 -.398E+00 0.131E+01   0.111E-02 -.614E-01 0.416E-01
   0.357E+03 -.360E+03 0.111E+04   -.357E+03 0.360E+03 -.111E+04   -.173E+00 0.242E+00 -.149E+01   -.476E-02 0.432E-01 -.156E-01
   0.578E+02 -.834E+03 -.888E+03   -.579E+02 0.832E+03 0.887E+03   0.108E+00 0.283E+01 0.968E+00   0.319E-01 0.775E-01 0.477E-01
   -.388E+03 0.337E+03 0.118E+04   0.386E+03 -.336E+03 -.118E+04   0.159E+01 -.960E+00 -.242E+01   -.166E-01 -.109E-01 -.562E-01
   0.660E+03 0.674E+03 -.849E+03   -.657E+03 -.669E+03 0.845E+03   -.298E+01 -.493E+01 0.411E+01   -.843E-02 0.964E-02 -.117E-01
   0.107E+04 0.116E+03 0.710E+03   -.107E+04 -.115E+03 -.706E+03   -.530E+01 -.925E+00 -.335E+01   -.836E-03 0.235E-01 0.125E-01
   -.106E+04 0.575E+03 -.487E+03   0.106E+04 -.571E+03 0.486E+03   0.496E+01 -.363E+01 0.112E+01   0.714E-02 0.377E-01 0.378E-01
   0.945E+02 0.126E+04 0.198E+03   -.945E+02 -.125E+04 -.197E+03   -.623E-02 -.269E+01 -.295E+00   -.137E-01 -.277E-01 -.254E-01
   -.973E+03 -.274E+03 -.130E+02   0.973E+03 0.273E+03 0.120E+02   0.357E+00 0.680E+00 0.104E+01   -.392E-01 0.334E-01 -.307E-01
   -.208E+03 0.520E+03 -.107E+04   0.207E+03 -.518E+03 0.107E+04   0.555E+00 -.218E+01 0.173E+01   0.141E-01 -.123E-01 -.832E-02
   0.405E+03 0.831E+03 0.961E+03   -.404E+03 -.827E+03 -.958E+03   -.143E+01 -.340E+01 -.369E+01   -.372E-01 0.950E-02 0.435E-02
   0.120E+04 -.964E+01 -.472E+03   -.119E+04 0.952E+01 0.471E+03   -.361E+01 0.110E+00 0.949E+00   0.257E-01 0.114E-01 0.603E-01
   0.643E+03 -.960E+03 -.430E+03   -.642E+03 0.958E+03 0.430E+03   -.102E+01 0.195E+01 0.334E+00   0.468E-01 0.992E-02 -.518E-01
   -.753E+03 -.265E+03 -.103E+04   0.750E+03 0.265E+03 0.103E+04   0.275E+01 0.916E+00 0.422E+01   -.580E-01 0.138E-01 0.279E-01
   0.379E+03 -.121E+04 0.553E+03   -.377E+03 0.121E+04 -.551E+03   -.186E+01 0.345E+01 -.170E+01   -.801E-02 0.953E-01 -.464E-01
   -.205E+02 -.898E+02 0.124E+03   0.209E+02 0.885E+02 -.123E+03   -.439E+00 0.133E+01 -.256E+00   0.189E-01 -.896E-01 -.204E-01
   -.775E+03 0.970E+03 0.522E+03   0.772E+03 -.965E+03 -.520E+03   0.386E+01 -.430E+01 -.227E+01   -.521E-01 -.558E-01 0.188E-02
   -.117E+04 -.273E+02 0.616E+03   0.117E+04 0.272E+02 -.615E+03   0.374E+01 0.121E+00 -.907E+00   0.404E-01 -.382E-01 -.823E-01
   0.479E+03 -.229E+03 -.116E+04   -.477E+03 0.228E+03 0.116E+04   -.189E+01 0.100E+01 0.308E+01   -.274E-01 -.582E-01 0.654E-02
   -.748E+03 -.102E+04 -.283E+03   0.744E+03 0.102E+04 0.283E+03   0.377E+01 0.540E+01 -.362E-01   -.377E-02 -.299E-01 0.688E-02
   0.113E+04 -.619E+03 0.184E+03   -.113E+04 0.616E+03 -.184E+03   -.277E+01 0.262E+01 0.566E+00   0.232E-01 -.501E-03 0.126E-01
   -.626E+03 0.950E+03 -.249E+03   0.625E+03 -.949E+03 0.248E+03   0.916E+00 -.168E+01 0.334E+00   0.401E-01 0.254E-02 -.210E-01
   0.890E+03 0.701E+03 0.816E+02   -.889E+03 -.700E+03 -.812E+02   -.110E+01 -.618E+00 -.478E+00   -.213E-02 -.350E-02 0.319E-01
   -.366E+03 -.119E+04 0.182E+03   0.364E+03 0.119E+04 -.182E+03   0.137E+01 0.199E+01 -.324E+00   0.116E-01 0.306E-01 0.107E-01
 -----------------------------------------------------------------------------------------------
   -.258E+01 0.279E+00 0.835E+00   -.512E-12 0.227E-12 -.227E-12   0.262E+01 -.279E+00 -.808E+00   0.108E-01 -.483E-02 -.116E-01
 
 
 POSITION                                       TOTAL-FORCE (eV/Angst)
 -----------------------------------------------------------------------------------
     12.37711     12.94993      8.60828        -0.000583     -0.000957      0.013523
     10.39307      9.59658     12.60425         0.008266     -0.013296     -0.002486
      9.74981     11.79747      8.17579         0.001746      0.008923     -0.001207
     12.02550     13.39906     13.92724        -0.022651     -0.003590      0.012176
     11.99952     10.16400      8.06619        -0.006422     -0.002785     -0.008484
      8.56317      9.34399     14.65257        -0.009743     -0.010961      0.006654
      7.20004     10.73497      8.15616         0.000850      0.005069      0.003950
     15.20121     10.07398     13.64044        -0.000111      0.013300      0.006470
     11.09909      8.48513     10.10531        -0.005863     -0.001241     -0.002020
     13.98438     12.11585     12.23275        -0.006298     -0.008903     -0.011284
     12.50580     10.58638     14.28110        -0.003922      0.002818     -0.003881
      9.46683      8.99491      7.76923        -0.008558      0.004913      0.001641
      8.00211     11.18581     12.63867         0.000619      0.009527     -0.003151
      9.75557     13.38497     12.24623         0.015815     -0.004277     -0.004712
     14.48531     12.46259     14.97771        -0.009131      0.000983      0.009418
     10.11495     14.21990      9.59432         0.004205      0.013196     -0.009730
     11.36421     11.49930     10.76657         0.003609     -0.016960     -0.002046
     13.74153      8.27279      9.27644        -0.009768     -0.011653     -0.001592
     14.07175     11.02827      9.70827         0.007226     -0.011374     -0.009336
      9.98261     11.68453     14.52607         0.024110      0.014329     -0.001223
     14.37130     14.68197     13.23330         0.009049      0.004745      0.001751
      7.93277     12.54535     10.18349         0.008722      0.001292      0.006190
     13.15225      9.37332     11.80706         0.005915      0.001655     -0.004041
      8.73618      9.87366     10.29076         0.000293      0.001437      0.006663
     12.38998     14.21132     11.19783        -0.007376      0.003808     -0.003246
 -----------------------------------------------------------------------------------
    total drift:                                0.045623     -0.005512      0.014988


--------------------------------------------------------------------------------------------------------



  FREE ENERGIE OF THE ION-ELECTRON SYSTEM (eV)
  ---------------------------------------------------
  free  energy   TOTEN  =       -50.92095061 eV

  energy  without entropy=      -50.92095061  energy(sigma->0) =      -50.92095061
 
 d Force = 0.6296964E-03[ 0.400E-03, 0.859E-03]  d Energy = 0.9207434E-03-0.291E-03
 d Force = 0.1485101E+02[ 0.149E+02, 0.148E+02]  d Ewald  = 0.1485102E+02-0.181E-06


--------------------------------------------------------------------------------------------------------


    POTLOK:  cpu time    0.24: real time    0.24


--------------------------------------------------------------------------------------------------------




--------------------------------------------------------------------------------------------------------


  
 reached required accuracy - stopping structural energy minimisation
     LOOP+:  cpu time   11.85: real time   12.56
    4ORBIT:  cpu time    0.00: real time    0.00

 total amount of memory used by VASP on root node    59208. kBytes
========================================================================

   base      :      30000. kBytes
   nonl-proj :       2432. kBytes
   fftplans  :       5772. kBytes
   grid      :      14451. kBytes
   one-center:         62. kBytes
   wavefun   :       6491. kBytes
 
  
  
 General timing and accounting informations for this job:
 ========================================================
  
                  Total CPU time used (sec):      180.899
                            User time (sec):      179.535
                          System time (sec):        1.364
                         Elapsed time (sec):      192.512
  
                   Maximum memory used (kb):       68052.
                   Average memory used (kb):           0.
  
                          Minor page faults:       191860
                          Major page faults:            0
                 Voluntary context switches:         3419
