  32  32   0   0
  0.3444091E+03  0.2225401E-08  0.2225401E-08  0.2225401E-08  0.1000000E-15
  1.000000000000000E-004
  CAR 
 unknown system                          
      1.65197763    -10.18709400  301     -3.61640924      1.00000000
    -10.187  0.0000E+00  0.0000E+00  0.0000E+00  0.0000E+00
    -10.148  0.0000E+00  0.0000E+00  0.0000E+00  0.0000E+00
    -10.108  0.0000E+00  0.0000E+00  0.0000E+00  0.0000E+00
    -10.069  0.0000E+00  0.0000E+00  0.0000E+00  0.0000E+00
    -10.029  0.0000E+00  0.0000E+00  0.0000E+00  0.0000E+00
     -9.990  0.0000E+00  0.0000E+00  0.0000E+00  0.0000E+00
     -9.950  0.0000E+00  0.0000E+00  0.0000E+00  0.0000E+00
     -9.911  0.0000E+00  0.0000E+00  0.0000E+00  0.0000E+00
     -9.871  0.0000E+00  0.0000E+00  0.0000E+00  0.0000E+00
     -9.832  0.0000E+00  0.0000E+00  0.0000E+00  0.0000E+00
     -9.792  0.0000E+00  0.0000E+00  0.0000E+00  0.0000E+00
     -9.753  0.0000E+00  0.0000E+00  0.0000E+00  0.0000E+00
     -9.714  0.0000E+00  0.0000E+00  0.0000E+00  0.0000E+00
     -9.674  0.0000E+00  0.0000E+00  0.0000E+00  0.0000E+00
     -9.635  0.0000E+00  0.0000E+00  0.1000E-02  0.1000E-02
     -9.595  0.0000E+00  0.0000E+00  0.1000E-02  0.1000E-02
     -9.556  0.0000E+00  0.0000E+00  0.1000E-02  0.1000E-02
     -9.516  0.0000E+00  0.0000E+00  0.1000E-02  0.1000E-02
     -9.477  0.0000E+00  0.0000E+00  0.1000E-02  0.1000E-02
     -9.437  0.0000E+00  0.0000E+00  0.1000E-02  0.1000E-02
     -9.398  0.0000E+00  0.0000E+00  0.1000E-02  0.1000E-02
     -9.358  0.0000E+00  0.0000E+00  0.1000E-02  0.1000E-02
     -9.319  0.0000E+00  0.0000E+00  0.1000E-02  0.1000E-02
     -9.279  0.0000E+00  0.0000E+00  0.1000E-02  0.1000E-02
     -9.240  0.0000E+00  0.0000E+00  0.1000E-02  0.1000E-02
     -9.201  0.0000E+00  0.0000E+00  0.2000E-02  0.2000E-02
     -9.161  0.0000E+00  0.0000E+00  0.2000E-02  0.2000E-02
     -9.122  0.0000E+00  0.0000E+00  0.2000E-02  0.2000E-02
     -9.082  0.0000E+00  0.0000E+00  0.3000E-02  0.3000E-02
     -9.043  0.0000E+00  0.0000E+00  0.5000E-02  0.5000E-02
     -9.003  0.0000E+00  0.0000E+00  0.7000E-02  0.7000E-02
     -8.964  0.0000E+00  0.0000E+00  0.9000E-02  0.9000E-02
     -8.924  0.0000E+00  0.0000E+00  0.1000E-01  0.1000E-01
     -8.885  0.0000E+00  0.0000E+00  0.1200E-01  0.1200E-01
     -8.845  0.0000E+00  0.0000E+00  0.1300E-01  0.1300E-01
     -8.806  0.0000E+00  0.0000E+00  0.1400E-01  0.1400E-01
     -8.766  0.2534E-01  0.2534E-01  0.1600E-01  0.1600E-01
     -8.727  0.0000E+00  0.0000E+00  0.1700E-01  0.1700E-01
     -8.687  0.0000E+00  0.0000E+00  0.2000E-01  0.2000E-01
     -8.648  0.0000E+00  0.0000E+00  0.2200E-01  0.2200E-01
     -8.609  0.0000E+00  0.0000E+00  0.2400E-01  0.2400E-01
     -8.569  0.0000E+00  0.0000E+00  0.2500E-01  0.2500E-01
     -8.530  0.1407E-11  0.1412E-11  0.2700E-01  0.2700E-01
     -8.490  0.0000E+00  0.0000E+00  0.3000E-01  0.3000E-01
     -8.451  0.0000E+00  0.0000E+00  0.3200E-01  0.3200E-01
     -8.411  0.0000E+00  0.0000E+00  0.3300E-01  0.3300E-01
     -8.372  0.0000E+00  0.0000E+00  0.3500E-01  0.3500E-01
     -8.332  0.0000E+00  0.0000E+00  0.3800E-01  0.3800E-01
     -8.293  0.0000E+00  0.0000E+00  0.4000E-01  0.4000E-01
     -8.253  0.0000E+00  0.0000E+00  0.4200E-01  0.4200E-01
     -8.214  0.0000E+00  0.0000E+00  0.4400E-01  0.4400E-01
     -8.174  0.0000E+00  0.0000E+00  0.4500E-01  0.4500E-01
     -8.135  0.0000E+00  0.0000E+00  0.4700E-01  0.4700E-01
     -8.096  0.2534E-01  0.2534E-01  0.5000E-01  0.5000E-01
     -8.056  0.0000E+00  0.0000E+00  0.5200E-01  0.5200E-01
     -8.017  0.0000E+00  0.0000E+00  0.5400E-01  0.5400E-01
     -7.977  0.0000E+00  0.0000E+00  0.5700E-01  0.5700E-01
     -7.938  0.5647E-05  0.5658E-05  0.5800E-01  0.5800E-01
     -7.898  0.0000E+00  0.0000E+00  0.6100E-01  0.6100E-01
     -7.859  0.0000E+00  0.0000E+00  0.6200E-01  0.6200E-01
     -7.819  0.0000E+00  0.0000E+00  0.6400E-01  0.6400E-01
     -7.780  0.0000E+00  0.0000E+00  0.6600E-01  0.6600E-01
     -7.740  0.0000E+00  0.0000E+00  0.6900E-01  0.6900E-01
     -7.701  0.0000E+00  0.0000E+00  0.7100E-01  0.7100E-01
     -7.661  0.0000E+00  0.0000E+00  0.7200E-01  0.7200E-01
     -7.622  0.0000E+00  0.0000E+00  0.7500E-01  0.7500E-01
     -7.582  0.0000E+00  0.0000E+00  0.7800E-01  0.7800E-01
     -7.543  0.0000E+00  0.0000E+00  0.7900E-01  0.7900E-01
     -7.504  0.0000E+00  0.0000E+00  0.8200E-01  0.8200E-01
     -7.464  0.0000E+00  0.0000E+00  0.8300E-01  0.8300E-01
     -7.425  0.0000E+00  0.0000E+00  0.8500E-01  0.8500E-01
     -7.385  0.0000E+00  0.0000E+00  0.8700E-01  0.8700E-01
     -7.346  0.0000E+00  0.0000E+00  0.8900E-01  0.8900E-01
     -7.306  0.0000E+00  0.0000E+00  0.9100E-01  0.9100E-01
     -7.267  0.0000E+00  0.0000E+00  0.9200E-01  0.9200E-01
     -7.227  0.0000E+00  0.0000E+00  0.9400E-01  0.9400E-01
     -7.188  0.0000E+00  0.0000E+00  0.9600E-01  0.9600E-01
     -7.148  0.0000E+00  0.0000E+00  0.9900E-01  0.9900E-01
     -7.109  0.0000E+00  0.0000E+00  0.1000E+00  0.1000E+00
     -7.069  0.0000E+00  0.0000E+00  0.1030E+00  0.1030E+00
     -7.030  0.0000E+00  0.0000E+00  0.1070E+00  0.1070E+00
     -6.991  0.0000E+00  0.0000E+00  0.1090E+00  0.1090E+00
     -6.951  0.0000E+00  0.0000E+00  0.1130E+00  0.1130E+00
     -6.912  0.0000E+00  0.0000E+00  0.1160E+00  0.1160E+00
     -6.872  0.0000E+00  0.0000E+00  0.1180E+00  0.1180E+00
     -6.833  0.0000E+00  0.0000E+00  0.1210E+00  0.1210E+00
     -6.793  0.0000E+00  0.0000E+00  0.1240E+00  0.1240E+00
     -6.754  0.0000E+00  0.0000E+00  0.1280E+00  0.1280E+00
     -6.714  0.0000E+00  0.0000E+00  0.1310E+00  0.1310E+00
     -6.675  0.0000E+00  0.0000E+00  0.1340E+00  0.1340E+00
     -6.635  0.0000E+00  0.0000E+00  0.1370E+00  0.1370E+00
     -6.596  0.0000E+00  0.0000E+00  0.1410E+00  0.1410E+00
     -6.556  0.0000E+00  0.0000E+00  0.1450E+00  0.1450E+00
     -6.517  0.0000E+00  0.0000E+00  0.1470E+00  0.1470E+00
     -6.478  0.2534E-01  0.2534E-01  0.1510E+00  0.1510E+00
     -6.438  0.0000E+00  0.0000E+00  0.1540E+00  0.1540E+00
     -6.399  0.0000E+00  0.0000E+00  0.1570E+00  0.1570E+00
     -6.359  0.2534E-01  0.2534E-01  0.1600E+00  0.1600E+00
     -6.320  0.0000E+00  0.0000E+00  0.1610E+00  0.1610E+00
     -6.280  0.0000E+00  0.0000E+00  0.1630E+00  0.1630E+00
     -6.241  0.0000E+00  0.0000E+00  0.1630E+00  0.1630E+00
     -6.201  0.0000E+00  0.0000E+00  0.1640E+00  0.1640E+00
     -6.162  0.0000E+00  0.0000E+00  0.1640E+00  0.1640E+00
     -6.122  0.0000E+00  0.0000E+00  0.1640E+00  0.1640E+00
     -6.083  0.0000E+00  0.0000E+00  0.1640E+00  0.1640E+00
     -6.043  0.0000E+00  0.0000E+00  0.1640E+00  0.1640E+00
     -6.004  0.0000E+00  0.0000E+00  0.1640E+00  0.1640E+00
     -5.964  0.0000E+00  0.0000E+00  0.1640E+00  0.1640E+00
     -5.925  0.0000E+00  0.0000E+00  0.1640E+00  0.1640E+00
     -5.886  0.0000E+00  0.0000E+00  0.1650E+00  0.1650E+00
     -5.846  0.0000E+00  0.0000E+00  0.1660E+00  0.1660E+00
     -5.807  0.0000E+00  0.0000E+00  0.1660E+00  0.1660E+00
     -5.767  0.0000E+00  0.0000E+00  0.1660E+00  0.1660E+00
     -5.728  0.0000E+00  0.0000E+00  0.1660E+00  0.1660E+00
     -5.688  0.0000E+00  0.0000E+00  0.1660E+00  0.1660E+00
     -5.649  0.0000E+00  0.0000E+00  0.1670E+00  0.1670E+00
     -5.609  0.0000E+00  0.0000E+00  0.1670E+00  0.1670E+00
     -5.570  0.0000E+00  0.0000E+00  0.1670E+00  0.1670E+00
     -5.530  0.0000E+00  0.0000E+00  0.1670E+00  0.1670E+00
     -5.491  0.0000E+00  0.0000E+00  0.1670E+00  0.1670E+00
     -5.451  0.0000E+00  0.0000E+00  0.1670E+00  0.1670E+00
     -5.412  0.0000E+00  0.0000E+00  0.1680E+00  0.1680E+00
     -5.373  0.0000E+00  0.0000E+00  0.1680E+00  0.1680E+00
     -5.333  0.0000E+00  0.0000E+00  0.1680E+00  0.1680E+00
     -5.294  0.0000E+00  0.0000E+00  0.1690E+00  0.1690E+00
     -5.254  0.0000E+00  0.0000E+00  0.1690E+00  0.1690E+00
     -5.215  0.0000E+00  0.0000E+00  0.1690E+00  0.1690E+00
     -5.175  0.0000E+00  0.0000E+00  0.1690E+00  0.1690E+00
     -5.136  0.0000E+00  0.0000E+00  0.1690E+00  0.1690E+00
     -5.096  0.0000E+00  0.0000E+00  0.1690E+00  0.1690E+00
     -5.057  0.0000E+00  0.0000E+00  0.1690E+00  0.1690E+00
     -5.017  0.0000E+00  0.0000E+00  0.1690E+00  0.1690E+00
     -4.978  0.0000E+00  0.0000E+00  0.1690E+00  0.1690E+00
     -4.938  0.0000E+00  0.0000E+00  0.1690E+00  0.1690E+00
     -4.899  0.0000E+00  0.0000E+00  0.1690E+00  0.1690E+00
     -4.860  0.0000E+00  0.0000E+00  0.1690E+00  0.1690E+00
     -4.820  0.0000E+00  0.0000E+00  0.1690E+00  0.1690E+00
     -4.781  0.0000E+00  0.0000E+00  0.1690E+00  0.1690E+00
     -4.741  0.0000E+00  0.0000E+00  0.1690E+00  0.1690E+00
     -4.702  0.0000E+00  0.0000E+00  0.1690E+00  0.1690E+00
     -4.662  0.0000E+00  0.0000E+00  0.1690E+00  0.1690E+00
     -4.623  0.0000E+00  0.0000E+00  0.1690E+00  0.1690E+00
     -4.583  0.0000E+00  0.0000E+00  0.1690E+00  0.1690E+00
     -4.544  0.0000E+00  0.0000E+00  0.1690E+00  0.1690E+00
     -4.504  0.0000E+00  0.0000E+00  0.1700E+00  0.1700E+00
     -4.465  0.0000E+00  0.0000E+00  0.1700E+00  0.1700E+00
     -4.425  0.0000E+00  0.0000E+00  0.1700E+00  0.1700E+00
     -4.386  0.0000E+00  0.0000E+00  0.1700E+00  0.1700E+00
     -4.346  0.0000E+00  0.0000E+00  0.1710E+00  0.1710E+00
     -4.307  0.0000E+00  0.0000E+00  0.1710E+00  0.1710E+00
     -4.268  0.0000E+00  0.0000E+00  0.1720E+00  0.1720E+00
     -4.228  0.0000E+00  0.0000E+00  0.1720E+00  0.1720E+00
     -4.189  0.0000E+00  0.0000E+00  0.1720E+00  0.1720E+00
     -4.149  0.0000E+00  0.0000E+00  0.1730E+00  0.1730E+00
     -4.110  0.0000E+00  0.0000E+00  0.1730E+00  0.1730E+00
     -4.070  0.0000E+00  0.0000E+00  0.1730E+00  0.1730E+00
     -4.031  0.0000E+00  0.0000E+00  0.1740E+00  0.1740E+00
     -3.991  0.0000E+00  0.0000E+00  0.1740E+00  0.1740E+00
     -3.952  0.0000E+00  0.0000E+00  0.1740E+00  0.1740E+00
     -3.912  0.0000E+00  0.0000E+00  0.1750E+00  0.1750E+00
     -3.873  0.0000E+00  0.0000E+00  0.1750E+00  0.1750E+00
     -3.833  0.0000E+00  0.0000E+00  0.1750E+00  0.1750E+00
     -3.794  0.0000E+00  0.0000E+00  0.1750E+00  0.1750E+00
     -3.755  0.0000E+00  0.0000E+00  0.1750E+00  0.1750E+00
     -3.715  0.0000E+00  0.0000E+00  0.1750E+00  0.1750E+00
     -3.676  0.0000E+00  0.0000E+00  0.1750E+00  0.1750E+00
     -3.636  0.0000E+00  0.0000E+00  0.1750E+00  0.1750E+00
     -3.597  0.0000E+00  0.0000E+00  0.1760E+00  0.1760E+00
     -3.557  0.0000E+00  0.0000E+00  0.1760E+00  0.1760E+00
     -3.518  0.0000E+00  0.0000E+00  0.1760E+00  0.1760E+00
     -3.478  0.0000E+00  0.0000E+00  0.1760E+00  0.1760E+00
     -3.439  0.0000E+00  0.0000E+00  0.1760E+00  0.1760E+00
     -3.399  0.0000E+00  0.0000E+00  0.1770E+00  0.1770E+00
     -3.360  0.0000E+00  0.0000E+00  0.1770E+00  0.1770E+00
     -3.320  0.0000E+00  0.0000E+00  0.1770E+00  0.1770E+00
     -3.281  0.0000E+00  0.0000E+00  0.1770E+00  0.1770E+00
     -3.242  0.0000E+00  0.0000E+00  0.1770E+00  0.1770E+00
     -3.202  0.0000E+00  0.0000E+00  0.1770E+00  0.1770E+00
     -3.163  0.0000E+00  0.0000E+00  0.1770E+00  0.1770E+00
     -3.123  0.0000E+00  0.0000E+00  0.1770E+00  0.1770E+00
     -3.084  0.0000E+00  0.0000E+00  0.1780E+00  0.1780E+00
     -3.044  0.0000E+00  0.0000E+00  0.1780E+00  0.1780E+00
     -3.005  0.0000E+00  0.0000E+00  0.1780E+00  0.1780E+00
     -2.965  0.0000E+00  0.0000E+00  0.1780E+00  0.1780E+00
     -2.926  0.0000E+00  0.0000E+00  0.1780E+00  0.1780E+00
     -2.886  0.0000E+00  0.0000E+00  0.1780E+00  0.1780E+00
     -2.847  0.0000E+00  0.0000E+00  0.1790E+00  0.1790E+00
     -2.807  0.0000E+00  0.0000E+00  0.1790E+00  0.1790E+00
     -2.768  0.0000E+00  0.0000E+00  0.1790E+00  0.1790E+00
     -2.728  0.0000E+00  0.0000E+00  0.1790E+00  0.1790E+00
     -2.689  0.0000E+00  0.0000E+00  0.1800E+00  0.1800E+00
     -2.650  0.0000E+00  0.0000E+00  0.1800E+00  0.1800E+00
     -2.610  0.0000E+00  0.0000E+00  0.1800E+00  0.1800E+00
     -2.571  0.0000E+00  0.0000E+00  0.1810E+00  0.1810E+00
     -2.531  0.0000E+00  0.0000E+00  0.1810E+00  0.1810E+00
     -2.492  0.0000E+00  0.0000E+00  0.1810E+00  0.1810E+00
     -2.452  0.0000E+00  0.0000E+00  0.1820E+00  0.1820E+00
     -2.413  0.0000E+00  0.0000E+00  0.1820E+00  0.1820E+00
     -2.373  0.0000E+00  0.0000E+00  0.1830E+00  0.1830E+00
     -2.334  0.2534E-01  0.2534E-01  0.1840E+00  0.1840E+00
     -2.294  0.0000E+00  0.0000E+00  0.1840E+00  0.1840E+00
     -2.255  0.0000E+00  0.0000E+00  0.1850E+00  0.1850E+00
     -2.215  0.0000E+00  0.0000E+00  0.1850E+00  0.1850E+00
     -2.176  0.0000E+00  0.0000E+00  0.1850E+00  0.1850E+00
     -2.137  0.0000E+00  0.0000E+00  0.1850E+00  0.1850E+00
     -2.097  0.0000E+00  0.0000E+00  0.1860E+00  0.1860E+00
     -2.058  0.0000E+00  0.0000E+00  0.1860E+00  0.1860E+00
     -2.018  0.0000E+00  0.0000E+00  0.1860E+00  0.1860E+00
     -1.979  0.0000E+00  0.0000E+00  0.1870E+00  0.1870E+00
     -1.939  0.0000E+00  0.0000E+00  0.1870E+00  0.1870E+00
     -1.900  0.0000E+00  0.0000E+00  0.1870E+00  0.1870E+00
     -1.860  0.0000E+00  0.0000E+00  0.1870E+00  0.1870E+00
     -1.821  0.0000E+00  0.0000E+00  0.1870E+00  0.1870E+00
     -1.781  0.0000E+00  0.0000E+00  0.1870E+00  0.1870E+00
     -1.742  0.0000E+00  0.0000E+00  0.1880E+00  0.1880E+00
     -1.702  0.0000E+00  0.0000E+00  0.1880E+00  0.1880E+00
     -1.663  0.0000E+00  0.0000E+00  0.1890E+00  0.1890E+00
     -1.623  0.0000E+00  0.0000E+00  0.1900E+00  0.1900E+00
     -1.584  0.0000E+00  0.0000E+00  0.1900E+00  0.1900E+00
     -1.545  0.0000E+00  0.0000E+00  0.1910E+00  0.1910E+00
     -1.505  0.0000E+00  0.0000E+00  0.1910E+00  0.1910E+00
     -1.466  0.0000E+00  0.0000E+00  0.1910E+00  0.1910E+00
     -1.426  0.0000E+00  0.0000E+00  0.1910E+00  0.1910E+00
     -1.387  0.0000E+00  0.0000E+00  0.1910E+00  0.1910E+00
     -1.347  0.0000E+00  0.0000E+00  0.1910E+00  0.1910E+00
     -1.308  0.0000E+00  0.0000E+00  0.1910E+00  0.1910E+00
     -1.268  0.0000E+00  0.0000E+00  0.1910E+00  0.1910E+00
     -1.229  0.0000E+00  0.0000E+00  0.1910E+00  0.1910E+00
     -1.189  0.0000E+00  0.0000E+00  0.1910E+00  0.1910E+00
     -1.150  0.0000E+00  0.0000E+00  0.1910E+00  0.1910E+00
     -1.110  0.0000E+00  0.0000E+00  0.1910E+00  0.1910E+00
     -1.071  0.0000E+00  0.0000E+00  0.1920E+00  0.1920E+00
     -1.032  0.0000E+00  0.0000E+00  0.1920E+00  0.1920E+00
     -0.992  0.0000E+00  0.0000E+00  0.1920E+00  0.1920E+00
     -0.953  0.0000E+00  0.0000E+00  0.1930E+00  0.1930E+00
     -0.913  0.0000E+00  0.0000E+00  0.1940E+00  0.1940E+00
     -0.874  0.0000E+00  0.0000E+00  0.1940E+00  0.1940E+00
     -0.834  0.0000E+00  0.0000E+00  0.1950E+00  0.1950E+00
     -0.795  0.0000E+00  0.0000E+00  0.1950E+00  0.1950E+00
     -0.755  0.0000E+00  0.0000E+00  0.1960E+00  0.1960E+00
     -0.716  0.0000E+00  0.0000E+00  0.1970E+00  0.1970E+00
     -0.676  0.0000E+00  0.0000E+00  0.1970E+00  0.1970E+00
     -0.637  0.0000E+00  0.0000E+00  0.1970E+00  0.1970E+00
     -0.597  0.0000E+00  0.0000E+00  0.1970E+00  0.1970E+00
     -0.558  0.0000E+00  0.0000E+00  0.1980E+00  0.1980E+00
     -0.519  0.0000E+00  0.0000E+00  0.1980E+00  0.1980E+00
     -0.479  0.0000E+00  0.0000E+00  0.1980E+00  0.1980E+00
     -0.440  0.0000E+00  0.0000E+00  0.1990E+00  0.1990E+00
     -0.400  0.0000E+00  0.0000E+00  0.2000E+00  0.2000E+00
     -0.361  0.0000E+00  0.0000E+00  0.2000E+00  0.2000E+00
     -0.321  0.0000E+00  0.0000E+00  0.2010E+00  0.2010E+00
     -0.282  0.0000E+00  0.0000E+00  0.2010E+00  0.2010E+00
     -0.242  0.0000E+00  0.0000E+00  0.2020E+00  0.2020E+00
     -0.203  0.0000E+00  0.0000E+00  0.2020E+00  0.2020E+00
     -0.163  0.0000E+00  0.0000E+00  0.2020E+00  0.2020E+00
     -0.124  0.0000E+00  0.0000E+00  0.2030E+00  0.2030E+00
     -0.084  0.0000E+00  0.0000E+00  0.2030E+00  0.2030E+00
     -0.045  0.0000E+00  0.0000E+00  0.2040E+00  0.2040E+00
     -0.005  0.0000E+00  0.0000E+00  0.2040E+00  0.2040E+00
      0.034  0.0000E+00  0.0000E+00  0.2050E+00  0.2050E+00
      0.073  0.0000E+00  0.0000E+00  0.2060E+00  0.2060E+00
      0.113  0.0000E+00  0.0000E+00  0.2060E+00  0.2060E+00
      0.152  0.0000E+00  0.0000E+00  0.2060E+00  0.2060E+00
      0.192  0.0000E+00  0.0000E+00  0.2070E+00  0.2070E+00
      0.231  0.0000E+00  0.0000E+00  0.2070E+00  0.2070E+00
      0.271  0.0000E+00  0.0000E+00  0.2070E+00  0.2070E+00
      0.310  0.0000E+00  0.0000E+00  0.2070E+00  0.2070E+00
      0.350  0.0000E+00  0.0000E+00  0.2070E+00  0.2070E+00
      0.389  0.0000E+00  0.0000E+00  0.2070E+00  0.2070E+00
      0.429  0.0000E+00  0.0000E+00  0.2080E+00  0.2080E+00
      0.468  0.0000E+00  0.0000E+00  0.2090E+00  0.2090E+00
      0.508  0.0000E+00  0.0000E+00  0.2090E+00  0.2090E+00
      0.547  0.0000E+00  0.0000E+00  0.2090E+00  0.2090E+00
      0.586  0.0000E+00  0.0000E+00  0.2090E+00  0.2090E+00
      0.626  0.0000E+00  0.0000E+00  0.2100E+00  0.2100E+00
      0.665  0.0000E+00  0.0000E+00  0.2100E+00  0.2100E+00
      0.705  0.0000E+00  0.0000E+00  0.2120E+00  0.2120E+00
      0.744  0.0000E+00  0.0000E+00  0.2130E+00  0.2130E+00
      0.784  0.0000E+00  0.0000E+00  0.2140E+00  0.2140E+00
      0.823  0.0000E+00  0.0000E+00  0.2150E+00  0.2150E+00
      0.863  0.0000E+00  0.0000E+00  0.2160E+00  0.2160E+00
      0.902  0.0000E+00  0.0000E+00  0.2170E+00  0.2170E+00
      0.942  0.0000E+00  0.0000E+00  0.2190E+00  0.2190E+00
      0.981  0.0000E+00  0.0000E+00  0.2200E+00  0.2200E+00
      1.021  0.0000E+00  0.0000E+00  0.2220E+00  0.2220E+00
      1.060  0.0000E+00  0.0000E+00  0.2250E+00  0.2250E+00
      1.099  0.0000E+00  0.0000E+00  0.2270E+00  0.2270E+00
      1.139  0.0000E+00  0.0000E+00  0.2280E+00  0.2280E+00
      1.178  0.0000E+00  0.0000E+00  0.2280E+00  0.2280E+00
      1.218  0.0000E+00  0.0000E+00  0.2280E+00  0.2280E+00
      1.257  0.0000E+00  0.0000E+00  0.2280E+00  0.2280E+00
      1.297  0.0000E+00  0.0000E+00  0.2280E+00  0.2280E+00
      1.336  0.0000E+00  0.0000E+00  0.2280E+00  0.2280E+00
      1.376  0.0000E+00  0.0000E+00  0.2280E+00  0.2280E+00
      1.415  0.0000E+00  0.0000E+00  0.2280E+00  0.2280E+00
      1.455  0.0000E+00  0.0000E+00  0.2280E+00  0.2280E+00
      1.494  0.0000E+00  0.0000E+00  0.2280E+00  0.2280E+00
      1.534  0.0000E+00  0.0000E+00  0.2280E+00  0.2280E+00
      1.573  0.0000E+00  0.0000E+00  0.2280E+00  0.2280E+00
      1.613  0.0000E+00  0.0000E+00  0.2280E+00  0.2280E+00
      1.652  0.0000E+00  0.0000E+00  0.2280E+00  0.2280E+00
