    9    9 1000    2
  0.7188050E+03  0.1863308E-08  0.1863308E-08  0.1863308E-08  0.1000000E-15
  1.000000000000000E-004
  CAR 
 unknown system                          
     99      1     64
 
  0.0000000E+00  0.0000000E+00  0.0000000E+00  0.1000000E+01
    1       -9.081833     -9.045130
    2       -8.976780     -8.945632
    3       -8.849110     -8.820632
    4       -8.657178     -8.613936
    5       -8.566156     -8.540221
    6       -8.546324     -8.509349
    7       -8.497823     -8.471574
    8       -8.474220     -8.457481
    9       -8.444124     -8.411895
   10       -8.430220     -8.402464
   11       -8.377713     -8.345795
   12       -8.346352     -8.318596
   13       -8.223213     -8.189423
   14       -8.135180     -8.102616
   15       -8.110100     -8.057408
   16       -7.986620     -7.958758
   17       -7.915832     -7.887253
   18       -7.912205     -7.864830
   19       -7.811581     -7.777463
   20       -7.770856     -7.747134
   21       -7.561823     -7.530868
   22       -7.551183     -7.523856
   23       -7.502605     -7.469126
   24       -7.494282     -7.454752
   25       -7.334617     -7.297360
   26       -7.320273     -7.281004
   27       -7.281864     -7.251994
   28       -7.279369     -7.249414
   29       -7.244875     -7.223021
   30       -7.235012     -7.200905
   31       -7.177583     -7.167776
   32       -7.142247     -7.092130
   33       -7.084462     -7.028053
   34       -6.998933     -6.971649
   35       -6.895260     -6.878482
   36       -6.887593     -6.869008
   37       -6.872568     -6.845817
   38       -6.844999     -6.812571
   39       -6.756867     -6.738936
   40       -6.735457     -6.719133
   41       -6.722975     -6.702218
   42       -6.688026     -6.669768
   43       -6.646172     -6.612721
   44       -6.637409     -6.611634
   45       -6.589678     -6.577887
   46       -6.588951     -6.563131
   47       -5.798965     -5.705242
   48       -4.686712     -4.627502
   49       -4.581681     -4.533236
   50       -3.914891     -3.658249
   51       -2.889933     -2.820057
   52       -2.781639     -2.717645
   53       -2.280114     -2.225565
   54       -2.025056     -1.842717
   55       -1.697699     -1.636433
   56       -1.695978     -1.527635
   57       -0.929341     -0.794200
   58       -0.786527     -0.637407
   59       -0.454195     -0.317756
   60       -0.302380     -0.204312
   61       -0.157000     -0.009099
   62        0.135961      0.196545
   63        0.205109      0.237827
   64        0.254305      0.267230
