unknown system                          
           1
    23.807864    0.000000    0.000000
     0.000000   23.807864    0.000000
     0.000000    0.000000   23.807864
   Ag
  52
Direct configuration=     1
   0.68223306  0.37642338  0.54307901
   0.66005387  0.59637858  0.57118391
   0.67683387  0.55614564  0.67872216
   0.68176153  0.47356033  0.48448919
   0.63826567  0.59088440  0.41482881
   0.60957596  0.64467082  0.66684254
   0.59556135  0.65839198  0.47572606
   0.66604527  0.47706466  0.59555113
   0.64082413  0.36781033  0.43912281
   0.61142402  0.48091560  0.39812917
   0.60641159  0.37951318  0.63139004
   0.61295976  0.46562135  0.71566665
   0.58983748  0.31429163  0.53183135
   0.55392972  0.65095383  0.57677773
   0.58693548  0.54269724  0.51013416
   0.58648165  0.56652215  0.31961967
   0.58585309  0.57042634  0.74033201
   0.58537561  0.42639089  0.52553459
   0.54676191  0.65884971  0.37032693
   0.57616848  0.54264947  0.62884839
   0.52432214  0.56388355  0.41783974
   0.53929218  0.31729138  0.43519571
   0.49479182  0.60709096  0.67504580
   0.57230412  0.37653142  0.34887498
   0.53296723  0.39111001  0.71983853
   0.50992389  0.45065098  0.62309990
   0.48068244  0.57254311  0.55863668
   0.48118089  0.66306160  0.47661202
   0.49363475  0.33971299  0.63178036
   0.51587550  0.42603458  0.43182883
   0.52317203  0.47189449  0.31658391
   0.43069361  0.41716198  0.69579127
   0.47690847  0.36704026  0.52366261
   0.49926761  0.50126595  0.73268269
   0.46626148  0.48239011  0.51575835
   0.47280203  0.57648148  0.30547151
   0.42184021  0.64852932  0.36924885
   0.43186445  0.49802866  0.38467091
   0.37078464  0.68793184  0.46512309
   0.39558215  0.63358396  0.56280830
   0.40294517  0.41186184  0.58957762
   0.41917943  0.52065356  0.64833045
   0.44586493  0.38925808  0.35714058
   0.39967977  0.57850777  0.46109123
   0.38649139  0.42791583  0.46275547
   0.41693012  0.47224801  0.27864653
   0.35115523  0.55576523  0.32864650
   0.31109251  0.62533756  0.40014843
   0.35800072  0.51812147  0.54732566
   0.30114514  0.60731719  0.50670340
   0.34179817  0.44246619  0.35451054
   0.30430473  0.51544162  0.43142069
Direct configuration=     2
   0.68287170  0.37614129  0.54329535
   0.66043206  0.59663510  0.57102883
   0.67746180  0.55602649  0.67882598
   0.68205361  0.47384376  0.48432180
   0.63907193  0.59031570  0.41439936
   0.60988741  0.64536390  0.66703244
   0.59535741  0.65912916  0.47627207
   0.66616075  0.47710558  0.59577524
   0.64102386  0.36787256  0.43898231
   0.61143102  0.48077701  0.39793316
   0.60649155  0.37936857  0.63150288
   0.61325829  0.46548830  0.71558275
   0.58969859  0.31392588  0.53220379
   0.55366276  0.65133959  0.57658205
   0.58678768  0.54245026  0.51010989
   0.58664599  0.56642759  0.31922972
   0.58566231  0.57054816  0.74105401
   0.58486856  0.42668399  0.52555421
   0.54660677  0.65930029  0.37014635
   0.57595570  0.54241466  0.62867392
   0.52386297  0.56358479  0.41801431
   0.53893562  0.31684308  0.43512849
   0.49455330  0.60725457  0.67506823
   0.57243285  0.37646790  0.34839560
   0.53324997  0.39079303  0.72038547
   0.51014751  0.45084110  0.62276654
   0.48104220  0.57291304  0.55901506
   0.48129171  0.66314847  0.47664743
   0.49353288  0.33922197  0.63158092
   0.51595373  0.42635600  0.43197599
   0.52339391  0.47188212  0.31645682
   0.43014157  0.41702743  0.69618523
   0.47707610  0.36671705  0.52339544
   0.49912500  0.50136523  0.73278739
   0.46642103  0.48190723  0.51540769
   0.47286072  0.57643480  0.30521485
   0.42189230  0.64875539  0.36931379
   0.43210357  0.49837311  0.38512364
   0.37084940  0.68864175  0.46524233
   0.39535973  0.63394492  0.56328645
   0.40253528  0.41195688  0.58943708
   0.41899906  0.52087388  0.64825170
   0.44581507  0.38876099  0.35693035
   0.40010924  0.57825470  0.46092808
   0.38624402  0.42765608  0.46285477
   0.41691770  0.47224799  0.27802260
   0.35120341  0.55578191  0.32826652
   0.31060783  0.62559712  0.39971634
   0.35792595  0.51786598  0.54748419
   0.30054423  0.60727238  0.50710668
   0.34129598  0.44206843  0.35447880
   0.30421888  0.51530735  0.43161256
Direct configuration=     3
   0.68478760  0.37529500  0.54394437
   0.66156662  0.59740465  0.57056358
   0.67934559  0.55566904  0.67913746
   0.68292983  0.47469404  0.48381966
   0.64149073  0.58860962  0.41311098
   0.61082175  0.64744314  0.66760212
   0.59474559  0.66134070  0.47791011
   0.66650721  0.47722833  0.59644759
   0.64162305  0.36805924  0.43856080
   0.61145202  0.48036124  0.39734515
   0.60673144  0.37893474  0.63184139
   0.61415385  0.46508914  0.71533106
   0.58928190  0.31282863  0.53332110
   0.55286187  0.65249684  0.57599501
   0.58634429  0.54170930  0.51003708
   0.58713899  0.56614394  0.31805986
   0.58508996  0.57091359  0.74322003
   0.58334742  0.42756329  0.52561307
   0.54614135  0.66065205  0.36960461
   0.57531736  0.54171021  0.62815051
   0.52248548  0.56268851  0.41853802
   0.53786595  0.31549817  0.43492684
   0.49383776  0.60774543  0.67513550
   0.57281906  0.37627735  0.34695744
   0.53409822  0.38984208  0.72202626
   0.51081838  0.45141145  0.62176644
   0.48212146  0.57402282  0.56015020
   0.48162416  0.66340908  0.47675368
   0.49322730  0.33774892  0.63098261
   0.51618842  0.42732024  0.43241747
   0.52405952  0.47184500  0.31607556
   0.42848548  0.41662379  0.69736712
   0.47757899  0.36574740  0.52259392
   0.49869716  0.50166308  0.73310148
   0.46689967  0.48045860  0.51435574
   0.47303677  0.57629479  0.30444487
   0.42204854  0.64943362  0.36950861
   0.43282095  0.49940647  0.38648182
   0.37104368  0.69077148  0.46560006
   0.39469249  0.63502779  0.56472088
   0.40130560  0.41224200  0.58901545
   0.41845794  0.52153483  0.64801548
   0.44566546  0.38726971  0.35629966
   0.40139765  0.57749546  0.46043861
   0.38550190  0.42687683  0.46315264
   0.41688041  0.47224793  0.27615082
   0.35134794  0.55583195  0.32712660
   0.30915379  0.62637581  0.39842007
   0.35770166  0.51709954  0.54795976
   0.29874150  0.60713795  0.50831654
   0.33978943  0.44087516  0.35438358
   0.30396131  0.51490455  0.43218817
Direct configuration=     4
   0.68861942  0.37360244  0.54524242
   0.66383573  0.59894376  0.56963310
   0.68311316  0.55495414  0.67976041
   0.68468228  0.47639460  0.48281536
   0.64632832  0.58519744  0.41053424
   0.61269044  0.65160163  0.66874148
   0.59352194  0.66576379  0.48118619
   0.66720011  0.47747384  0.59779227
   0.64282144  0.36843261  0.43771780
   0.61149402  0.47952970  0.39616911
   0.60721122  0.37806708  0.63251843
   0.61594497  0.46429083  0.71482768
   0.58844853  0.31063412  0.53555572
   0.55126010  0.65481135  0.57482093
   0.58545750  0.54022738  0.50989146
   0.58812501  0.56557662  0.31572013
   0.58394526  0.57164446  0.74755207
   0.58030514  0.42932188  0.52573079
   0.54521051  0.66335555  0.36852111
   0.57404067  0.54030131  0.62710369
   0.51973049  0.56089595  0.41958543
   0.53572660  0.31280835  0.43452355
   0.49240668  0.60872713  0.67527005
   0.57359146  0.37589624  0.34408113
   0.53579470  0.38794019  0.72530785
   0.51216011  0.45255217  0.61976625
   0.48427999  0.57624239  0.56242049
   0.48228905  0.66393029  0.47696618
   0.49261613  0.33480281  0.62978598
   0.51665780  0.42924872  0.43330044
   0.52539075  0.47177077  0.31531304
   0.42517329  0.41581651  0.69973089
   0.47858478  0.36380810  0.52099087
   0.49784148  0.50225877  0.73372966
   0.46785696  0.47756133  0.51225182
   0.47338888  0.57601475  0.30290492
   0.42236104  0.65079007  0.36989826
   0.43425570  0.50147319  0.38919817
   0.37143225  0.69503094  0.46631551
   0.39335802  0.63719355  0.56758975
   0.39884623  0.41281224  0.58817220
   0.41737569  0.52285675  0.64754303
   0.44536625  0.38428716  0.35503827
   0.40397448  0.57597699  0.45945967
   0.38401767  0.42531833  0.46374840
   0.41680585  0.47224782  0.27240726
   0.35163701  0.55593204  0.32484675
   0.30624571  0.62793318  0.39582753
   0.35725308  0.51556664  0.54891091
   0.29513606  0.60686909  0.51073624
   0.33677633  0.43848861  0.35419315
   0.30344619  0.51409893  0.43333940
Direct configuration=     5
   0.68761887  0.37404439  0.54490348
   0.66324323  0.59854187  0.56987606
   0.68212939  0.55514081  0.67959775
   0.68422469  0.47595056  0.48307760
   0.64506514  0.58608842  0.41120707
   0.61220250  0.65051578  0.66844398
   0.59384146  0.66460885  0.48033075
   0.66701918  0.47740973  0.59744115
   0.64250852  0.36833511  0.43793792
   0.61148305  0.47974683  0.39647619
   0.60708594  0.37829364  0.63234164
   0.61547728  0.46449928  0.71495912
   0.58866613  0.31120714  0.53497222
   0.55167835  0.65420700  0.57512751
   0.58568906  0.54061434  0.50992948
   0.58786754  0.56572475  0.31633107
   0.58424416  0.57145362  0.74642090
   0.58109953  0.42886268  0.52570005
   0.54545357  0.66264962  0.36880403
   0.57437403  0.54066920  0.62737703
   0.52044986  0.56136401  0.41931194
   0.53628522  0.31351071  0.43462885
   0.49278036  0.60847079  0.67523492
   0.57338977  0.37599575  0.34483218
   0.53535172  0.38843680  0.72445097
   0.51180976  0.45225431  0.62028853
   0.48371636  0.57566282  0.56182768
   0.48211544  0.66379420  0.47691069
   0.49277571  0.33557209  0.63009844
   0.51653523  0.42874516  0.43306988
   0.52504314  0.47179015  0.31551215
   0.42603816  0.41602731  0.69911367
   0.47832215  0.36431449  0.52140945
   0.49806491  0.50210322  0.73356563
   0.46760699  0.47831786  0.51280119
   0.47329694  0.57608787  0.30330703
   0.42227944  0.65043588  0.36979651
   0.43388106  0.50093354  0.38848889
   0.37133079  0.69391872  0.46612869
   0.39370647  0.63662803  0.56684064
   0.39948841  0.41266334  0.58839238
   0.41765829  0.52251157  0.64766639
   0.44544438  0.38506595  0.35536764
   0.40330163  0.57637349  0.45971529
   0.38440523  0.42572528  0.46359284
   0.41682532  0.47224785  0.27338477
   0.35156153  0.55590590  0.32544205
   0.30700506  0.62752652  0.39650448
   0.35737021  0.51596690  0.54866255
   0.29607750  0.60693929  0.51010442
   0.33756310  0.43911178  0.35424287
   0.30358070  0.51430929  0.43303880
Direct configuration=     6
   0.68822428  0.37378999  0.54510108
   0.66362276  0.59898525  0.56965397
   0.68267226  0.55524353  0.67987996
   0.68463546  0.47640689  0.48300299
   0.64584096  0.58602023  0.41146821
   0.61267446  0.65103931  0.66870629
   0.59475594  0.66501301  0.47942467
   0.66728294  0.47727136  0.59762641
   0.64257086  0.36848257  0.43804227
   0.61161565  0.47933377  0.39596596
   0.60721204  0.37794775  0.63249212
   0.61602575  0.46453759  0.71471197
   0.58846162  0.31092465  0.53555789
   0.55158323  0.65552072  0.57621450
   0.58573878  0.54061888  0.50979494
   0.58810894  0.56584715  0.31576244
   0.58427599  0.57187865  0.74708841
   0.58113786  0.42873774  0.52603201
   0.54517889  0.66288961  0.36871705
   0.57482162  0.54123688  0.62767556
   0.52037566  0.56159319  0.41943628
   0.53582612  0.31299173  0.43428318
   0.49254277  0.60888301  0.67539948
   0.57348541  0.37564261  0.34431917
   0.53532425  0.38788704  0.72504685
   0.51146730  0.45171732  0.62016602
   0.48328119  0.57496598  0.56189009
   0.48199230  0.66400166  0.47691535
   0.49265432  0.33510147  0.62999894
   0.51701084  0.42843081  0.43188846
   0.52507610  0.47170172  0.31516173
   0.42564742  0.41580802  0.69951361
   0.47831762  0.36345831  0.52114554
   0.49772540  0.50201954  0.73354658
   0.46761235  0.47913145  0.51328276
   0.47336364  0.57606145  0.30283234
   0.42233149  0.65082554  0.36997024
   0.43352635  0.50017084  0.38802072
   0.37120807  0.69461173  0.46628433
   0.39330653  0.63700604  0.56752000
   0.39908477  0.41270297  0.58820214
   0.41737757  0.52280241  0.64759987
   0.44548042  0.38454994  0.35507255
   0.40330674  0.57688195  0.46033919
   0.38368978  0.42506574  0.46358880
   0.41679529  0.47219830  0.27288962
   0.35178656  0.55580354  0.32487402
   0.30642128  0.62799332  0.39634674
   0.35721576  0.51574592  0.54867051
   0.29552647  0.60685569  0.51032680
   0.33723267  0.43865632  0.35411550
   0.30359969  0.51428339  0.43342130
Direct configuration=     7
   0.68973535  0.37315501  0.54559429
   0.66457007  0.60009191  0.56909965
   0.68402725  0.55549992  0.68058437
   0.68566074  0.47754589  0.48281677
   0.64777737  0.58585002  0.41212002
   0.61385245  0.65234604  0.66936101
   0.59703845  0.66602180  0.47716314
   0.66794126  0.47692601  0.59808880
   0.64272646  0.36885060  0.43830274
   0.61194662  0.47830280  0.39469243
   0.60752677  0.37708443  0.63286771
   0.61739473  0.46463320  0.71409507
   0.58795116  0.31021954  0.53701970
   0.55134581  0.65879973  0.57892758
   0.58586290  0.54063024  0.50945913
   0.58871145  0.56615264  0.31434315
   0.58435544  0.57293951  0.74875448
   0.58123354  0.42842589  0.52686054
   0.54449331  0.66348862  0.36849993
   0.57593878  0.54265379  0.62842067
   0.52019046  0.56216521  0.41974662
   0.53468024  0.31169637  0.43342040
   0.49194974  0.60991188  0.67581021
   0.57372411  0.37476119  0.34303873
   0.53525570  0.38651486  0.72653414
   0.51061252  0.45037703  0.61986024
   0.48219503  0.57322669  0.56204587
   0.48168495  0.66451948  0.47692699
   0.49235132  0.33392682  0.62975060
   0.51819793  0.42764621  0.42893968
   0.52515836  0.47148101  0.31428711
   0.42467214  0.41526068  0.70051183
   0.47830631  0.36132133  0.52048683
   0.49687801  0.50181069  0.73349904
   0.46762573  0.48116214  0.51448476
   0.47353012  0.57599552  0.30164752
   0.42246141  0.65179812  0.37040386
   0.43264102  0.49826718  0.38685219
   0.37090178  0.69634146  0.46667279
   0.39230831  0.63794953  0.56921567
   0.39807731  0.41280188  0.58772731
   0.41667693  0.52352832  0.64743384
   0.44557039  0.38326199  0.35433601
   0.40331951  0.57815107  0.46189642
   0.38190404  0.42341955  0.46357873
   0.41672033  0.47207461  0.27165376
   0.35234823  0.55554803  0.32345625
   0.30496420  0.62915842  0.39595301
   0.35683025  0.51519436  0.54869039
   0.29415114  0.60664702  0.51088186
   0.33640794  0.43751950  0.35379757
   0.30364710  0.51421875  0.43437600
Direct configuration=     8
   0.69007298  0.37301313  0.54570449
   0.66478172  0.60033917  0.56897580
   0.68433000  0.55555720  0.68074175
   0.68588982  0.47780038  0.48277516
   0.64821003  0.58581199  0.41226565
   0.61411565  0.65263800  0.66950730
   0.59754843  0.66624719  0.47665784
   0.66808835  0.47684884  0.59819211
   0.64276122  0.36893283  0.43836093
   0.61202057  0.47807245  0.39440788
   0.60759710  0.37689153  0.63295163
   0.61770060  0.46465456  0.71395724
   0.58783711  0.31006200  0.53734632
   0.55129276  0.65953236  0.57953376
   0.58589063  0.54063278  0.50938410
   0.58884607  0.56622090  0.31402603
   0.58437319  0.57317654  0.74912673
   0.58125491  0.42835622  0.52704566
   0.54434013  0.66362246  0.36845142
   0.57618839  0.54297037  0.62858715
   0.52014908  0.56229302  0.41981597
   0.53442421  0.31140695  0.43322763
   0.49181725  0.61014176  0.67590198
   0.57377745  0.37456425  0.34275264
   0.53524038  0.38620827  0.72686645
   0.51042154  0.45007757  0.61979192
   0.48195235  0.57283808  0.56208068
   0.48161628  0.66463518  0.47692959
   0.49228362  0.33366437  0.62969511
   0.51846317  0.42747091  0.42828084
   0.52517674  0.47143169  0.31409169
   0.42445424  0.41513839  0.70073487
   0.47830378  0.36084386  0.52033966
   0.49668867  0.50176403  0.73348842
   0.46762872  0.48161585  0.51475332
   0.47356732  0.57598079  0.30138280
   0.42249044  0.65201542  0.37050075
   0.43244321  0.49784184  0.38659111
   0.37083334  0.69672794  0.46675959
   0.39208527  0.63816033  0.56959453
   0.39785221  0.41282398  0.58762122
   0.41652038  0.52369052  0.64739674
   0.44559049  0.38297423  0.35417145
   0.40332236  0.57843463  0.46224435
   0.38150505  0.42305174  0.46357648
   0.41670358  0.47204697  0.27137763
   0.35247373  0.55549094  0.32313947
   0.30463864  0.62941874  0.39586504
   0.35674411  0.51507113  0.54869483
   0.29384384  0.60660040  0.51100588
   0.33622367  0.43726550  0.35372654
   0.30365769  0.51420430  0.43458931
Direct configuration=     9
   0.69029388  0.37294567  0.54577950
   0.66486449  0.60082006  0.56871794
   0.68455808  0.55594523  0.68105026
   0.68609639  0.47829155  0.48283371
   0.64865042  0.58568925  0.41280567
   0.61490474  0.65271108  0.67011046
   0.59826002  0.66611311  0.47623494
   0.66839244  0.47665684  0.59831275
   0.64241173  0.36916546  0.43882434
   0.61265801  0.47802587  0.39367694
   0.60767289  0.37647801  0.63327123
   0.61795641  0.46473947  0.71359216
   0.58751869  0.31002060  0.53775212
   0.55083086  0.66058873  0.57958682
   0.58621654  0.54094799  0.50943201
   0.58916325  0.56657389  0.31383287
   0.58446063  0.57353917  0.74928267
   0.58163683  0.42784664  0.52722302
   0.54397969  0.66346993  0.36842137
   0.57674937  0.54377415  0.62920144
   0.52003106  0.56267698  0.41953425
   0.53417378  0.31096262  0.43272344
   0.49172582  0.61060465  0.67609404
   0.57394570  0.37379571  0.34217328
   0.53507388  0.38591790  0.72709876
   0.50999235  0.44949510  0.62022865
   0.48209236  0.57425089  0.56287027
   0.48192055  0.66492333  0.47723130
   0.49220136  0.33340068  0.62981535
   0.51846442  0.42706331  0.42806905
   0.52505863  0.47138062  0.31347364
   0.42443530  0.41492514  0.70081582
   0.47795946  0.36043128  0.51995886
   0.49657522  0.50163134  0.73318686
   0.46754231  0.48044905  0.51352860
   0.47354274  0.57605831  0.30106832
   0.42246363  0.65222981  0.37068960
   0.43167451  0.49700001  0.38618547
   0.37045529  0.69703843  0.46695484
   0.39175834  0.63831912  0.57028331
   0.39783550  0.41260549  0.58741374
   0.41623718  0.52385378  0.64756138
   0.44555951  0.38239071  0.35370625
   0.40300535  0.57908730  0.46282872
   0.38111342  0.42244573  0.46375294
   0.41665845  0.47185086  0.27109513
   0.35266975  0.55560827  0.32292876
   0.30448048  0.62965344  0.39597305
   0.35634566  0.51504961  0.54841849
   0.29362867  0.60652854  0.51092727
   0.33613214  0.43695484  0.35355366
   0.30400429  0.51434892  0.43490211
Direct configuration=    10
   0.69074277  0.37280858  0.54593193
   0.66503268  0.60179727  0.56819395
   0.68502156  0.55673373  0.68167718
   0.68651616  0.47928966  0.48295268
   0.64954532  0.58543983  0.41390301
   0.61650822  0.65285959  0.67133613
   0.59970602  0.66584065  0.47537557
   0.66901039  0.47626669  0.59855791
   0.64170153  0.36963820  0.43976602
   0.61395334  0.47793122  0.39219161
   0.60782692  0.37563769  0.63392070
   0.61847624  0.46491201  0.71285028
   0.58687164  0.30993647  0.53857673
   0.54989223  0.66273534  0.57969464
   0.58687880  0.54158854  0.50952938
   0.58980779  0.56729118  0.31344036
   0.58463833  0.57427605  0.74959957
   0.58241292  0.42681116  0.52758341
   0.54324724  0.66315998  0.36836029
   0.57788932  0.54540749  0.63044972
   0.51979124  0.56345721  0.41896179
   0.53366487  0.31005971  0.43169891
   0.49154004  0.61154528  0.67648434
   0.57428760  0.37223398  0.34099597
   0.53473555  0.38532786  0.72757083
   0.50912022  0.44831148  0.62111612
   0.48237685  0.57712183  0.56447477
   0.48253887  0.66550888  0.47784438
   0.49203420  0.33286486  0.63005968
   0.51846698  0.42623505  0.42763869
   0.52481862  0.47127683  0.31221771
   0.42439683  0.41449179  0.70098033
   0.47725978  0.35959289  0.51918505
   0.49634469  0.50136171  0.73257408
   0.46736672  0.47807802  0.51103989
   0.47349279  0.57621583  0.30042928
   0.42240916  0.65266545  0.37107338
   0.43011247  0.49528933  0.38536118
   0.36968705  0.69766938  0.46735159
   0.39109398  0.63864177  0.57168295
   0.39780154  0.41216151  0.58699211
   0.41566169  0.52418553  0.64789592
   0.44549655  0.38120496  0.35276093
   0.40236115  0.58041357  0.46401619
   0.38031762  0.42121428  0.46411151
   0.41656675  0.47145234  0.27052107
   0.35306807  0.55584670  0.32250058
   0.30415907  0.63013038  0.39619255
   0.35553598  0.51500590  0.54785696
   0.29319143  0.60638252  0.51076754
   0.33594614  0.43632356  0.35320236
   0.30470858  0.51464278  0.43553773
Direct configuration=    11
   0.69067957  0.37284051  0.54600474
   0.66497515  0.60243325  0.56796672
   0.68522679  0.55723457  0.68191059
   0.68646463  0.47985024  0.48308924
   0.64994656  0.58490964  0.41446954
   0.61726626  0.65294231  0.67161766
   0.60001293  0.66553180  0.47570466
   0.66924867  0.47625601  0.59881155
   0.64082469  0.36996496  0.44033259
   0.61452505  0.47785789  0.39113101
   0.60787068  0.37520318  0.63443897
   0.61836392  0.46496451  0.71237464
   0.58628112  0.30992134  0.53874637
   0.55009052  0.66424969  0.57947936
   0.58692353  0.54180979  0.50983471
   0.59011790  0.56770250  0.31368293
   0.58456180  0.57439186  0.74951126
   0.58273859  0.42653150  0.52776475
   0.54280541  0.66296130  0.36827728
   0.57821821  0.54601649  0.63099106
   0.51924152  0.56334902  0.41849582
   0.53359383  0.30957179  0.43110900
   0.49155040  0.61207142  0.67693322
   0.57431078  0.37155852  0.34049551
   0.53465966  0.38533521  0.72757397
   0.50899748  0.44832079  0.62154622
   0.48256370  0.57673863  0.56429759
   0.48304044  0.66594902  0.47824899
   0.49197965  0.33262204  0.63012887
   0.51903169  0.42556126  0.42709876
   0.52493875  0.47110742  0.31174079
   0.42448360  0.41423163  0.70078893
   0.47680044  0.35913436  0.51881701
   0.49662621  0.50139404  0.73201462
   0.46753538  0.47878843  0.51063991
   0.47338636  0.57633211  0.30037860
   0.42231435  0.65270135  0.37135819
   0.42954865  0.49490267  0.38560669
   0.36926361  0.69766363  0.46767625
   0.39040299  0.63875618  0.57248552
   0.39802411  0.41186093  0.58679155
   0.41540312  0.52431703  0.64798066
   0.44555267  0.38044695  0.35211344
   0.40226378  0.58097598  0.46430138
   0.37974195  0.42037962  0.46423963
   0.41641817  0.47113107  0.27025146
   0.35319741  0.55626433  0.32260670
   0.30440460  0.63013878  0.39636038
   0.35531242  0.51484978  0.54761169
   0.29309693  0.60648190  0.51059999
   0.33579046  0.43602080  0.35300326
   0.30541537  0.51474445  0.43555318
Direct configuration=    12
   0.69053918  0.37291144  0.54616650
   0.66484734  0.60384614  0.56746191
   0.68568271  0.55834722  0.68242911
   0.68635014  0.48109559  0.48339263
   0.65083792  0.58373180  0.41572810
   0.61895030  0.65312608  0.67224312
   0.60069475  0.66484567  0.47643575
   0.66977802  0.47623229  0.59937503
   0.63887675  0.37069089  0.44159126
   0.61579513  0.47769500  0.38877482
   0.60796791  0.37423790  0.63559033
   0.61811440  0.46508116  0.71131799
   0.58496923  0.30988771  0.53912325
   0.55053106  0.66761390  0.57900113
   0.58702290  0.54230130  0.51051303
   0.59080684  0.56861625  0.31422181
   0.58439180  0.57464913  0.74931507
   0.58346209  0.42591021  0.52816760
   0.54182388  0.66251992  0.36809289
   0.57894887  0.54736941  0.63219365
   0.51802030  0.56310865  0.41746066
   0.53343603  0.30848787  0.42979848
   0.49157342  0.61324027  0.67793045
   0.57436227  0.37005797  0.33938372
   0.53449105  0.38535156  0.72758094
   0.50872481  0.44834147  0.62250172
   0.48297879  0.57588735  0.56390400
   0.48415472  0.66692681  0.47914784
   0.49185848  0.33208261  0.63028260
   0.52028624  0.42406438  0.42589928
   0.52520562  0.47073104  0.31068128
   0.42467636  0.41365368  0.70036372
   0.47577999  0.35811573  0.51799937
   0.49725161  0.50146587  0.73077173
   0.46791008  0.48036664  0.50975134
   0.47314990  0.57659042  0.30026601
   0.42210372  0.65278112  0.37199091
   0.42829610  0.49404368  0.38615210
   0.36832292  0.69765086  0.46839749
   0.38886791  0.63901035  0.57426847
   0.39851855  0.41119317  0.58634598
   0.41482871  0.52460917  0.64816892
   0.44567736  0.37876300  0.35067500
   0.40204745  0.58222541  0.46493496
   0.37846308  0.41852539  0.46452424
   0.41608810  0.47041736  0.26965250
   0.35348474  0.55719211  0.32284246
   0.30495005  0.63015743  0.39673323
   0.35481578  0.51450296  0.54706683
   0.29288700  0.60670268  0.51022776
   0.33544460  0.43534821  0.35256095
   0.30698553  0.51497031  0.43558751
Direct configuration=    13
   0.69017862  0.37303633  0.54641066
   0.66472804  0.60445802  0.56743987
   0.68600862  0.55851212  0.68246322
   0.68582390  0.48153102  0.48349045
   0.65120607  0.58297700  0.41628747
   0.61916794  0.65373434  0.67173483
   0.60072732  0.66445911  0.47690810
   0.66976915  0.47656605  0.59980348
   0.63765763  0.37097964  0.44164403
   0.61600654  0.47726876  0.38766094
   0.60801955  0.37387254  0.63578498
   0.61780763  0.46517427  0.71093893
   0.58412152  0.30983393  0.53908804
   0.55069972  0.66811866  0.57951048
   0.58635759  0.54215159  0.51078416
   0.59079954  0.56881772  0.31483411
   0.58428428  0.57463391  0.74927660
   0.58293647  0.42655273  0.52875219
   0.54149713  0.66260576  0.36814395
   0.57872158  0.54767399  0.63207388
   0.51741314  0.56222588  0.41743190
   0.53333427  0.30782299  0.42945915
   0.49165810  0.61356472  0.67783476
   0.57427386  0.36973044  0.33881395
   0.53457674  0.38557967  0.72753968
   0.50924804  0.44904693  0.62219208
   0.48336321  0.57625641  0.56400918
   0.48416912  0.66722538  0.47931231
   0.49188519  0.33204951  0.62996328
   0.52073833  0.42392777  0.42576908
   0.52536409  0.47065896  0.31068738
   0.42468388  0.41344529  0.70001417
   0.47554151  0.35805710  0.51746852
   0.49770563  0.50167375  0.73015926
   0.46824205  0.48073009  0.50899829
   0.47308657  0.57639938  0.30056230
   0.42205489  0.65278034  0.37234401
   0.42846044  0.49371767  0.38693755
   0.36829769  0.69743780  0.46897808
   0.38876019  0.63834422  0.57493376
   0.39891216  0.41115789  0.58607289
   0.41474099  0.52486602  0.64795933
   0.44599764  0.37838741  0.35015330
   0.40259097  0.58259257  0.46510777
   0.37840511  0.41798034  0.46473982
   0.41593298  0.47029331  0.26988477
   0.35375754  0.55745392  0.32298487
   0.30529266  0.63007440  0.39676178
   0.35506296  0.51408046  0.54711167
   0.29279431  0.60690101  0.51032353
   0.33533133  0.43509070  0.35238568
   0.30783803  0.51476468  0.43506297
Direct configuration=    14
   0.68909693  0.37341101  0.54714314
   0.66437011  0.60629368  0.56737373
   0.68698635  0.55900684  0.68256553
   0.68424520  0.48283732  0.48378390
   0.65231052  0.58071259  0.41796559
   0.61982088  0.65555911  0.67020996
   0.60082505  0.66329942  0.47832516
   0.66974255  0.47756732  0.60108882
   0.63400027  0.37184591  0.44180234
   0.61664079  0.47599006  0.38431929
   0.60817449  0.37277644  0.63636895
   0.61688732  0.46545362  0.70980175
   0.58157838  0.30967257  0.53898242
   0.55120572  0.66963295  0.58103856
   0.58436167  0.54170248  0.51159755
   0.59077764  0.56942214  0.31667102
   0.58396173  0.57458823  0.74916122
   0.58135963  0.42848030  0.53050594
   0.54051689  0.66286329  0.36829713
   0.57803969  0.54858774  0.63171454
   0.51559167  0.55957754  0.41734562
   0.53302901  0.30582834  0.42844116
   0.49191214  0.61453807  0.67754768
   0.57400863  0.36874785  0.33710464
   0.53483379  0.38626400  0.72741590
   0.51081773  0.45116331  0.62126315
   0.48451644  0.57736361  0.56432472
   0.48421233  0.66812108  0.47980574
   0.49196530  0.33195021  0.62900535
   0.52209460  0.42351792  0.42537850
   0.52583951  0.47044271  0.31070566
   0.42470641  0.41282012  0.69896552
   0.47482608  0.35788121  0.51587596
   0.49906770  0.50229741  0.72832185
   0.46923798  0.48182043  0.50673914
   0.47289658  0.57582628  0.30145117
   0.42190841  0.65277801  0.37340331
   0.42895346  0.49273966  0.38929389
   0.36822200  0.69679862  0.47071983
   0.38843703  0.63634584  0.57692962
   0.40009302  0.41105207  0.58525360
   0.41447784  0.52563654  0.64733054
   0.44695850  0.37726064  0.34858820
   0.40422152  0.58369408  0.46562621
   0.37823121  0.41634521  0.46538657
   0.41546760  0.46992116  0.27058157
   0.35457594  0.55823934  0.32341210
   0.30632048  0.62982531  0.39684744
   0.35580450  0.51281297  0.54724622
   0.29251623  0.60749600  0.51061082
   0.33499149  0.43431817  0.35185989
   0.31039553  0.51414778  0.43348935
Direct configuration=    15
   0.68821392  0.37373591  0.54728730
   0.66410307  0.60663337  0.56732324
   0.68697123  0.55930039  0.68253388
   0.68332713  0.48304326  0.48392417
   0.65254446  0.57994006  0.41871022
   0.62012210  0.65588777  0.66998843
   0.60074980  0.66271776  0.47859377
   0.66966085  0.47785651  0.60127130
   0.63273510  0.37217658  0.44209396
   0.61722183  0.47547568  0.38329216
   0.60821369  0.37239167  0.63627106
   0.61673813  0.46574317  0.70948533
   0.58075454  0.30994853  0.53891053
   0.55105510  0.66996688  0.58144325
   0.58379090  0.54196581  0.51174372
   0.59062045  0.56961962  0.31747576
   0.58429064  0.57505555  0.74887203
   0.58096032  0.42874133  0.53117666
   0.54013459  0.66269745  0.36885983
   0.57821716  0.54914371  0.63168301
   0.51576873  0.55924949  0.41741774
   0.53276319  0.30518570  0.42802495
   0.49189868  0.61490226  0.67732422
   0.57369413  0.36838166  0.33651421
   0.53475184  0.38643534  0.72723886
   0.51096776  0.45180126  0.62090666
   0.48463822  0.57787352  0.56433807
   0.48439767  0.66845842  0.47993965
   0.49207702  0.33238634  0.62845563
   0.52249432  0.42314691  0.42511574
   0.52565945  0.47044550  0.31068577
   0.42496911  0.41281527  0.69839248
   0.47469885  0.35789042  0.51511233
   0.49911840  0.50235750  0.72765262
   0.46937639  0.48217759  0.50624887
   0.47286244  0.57552664  0.30192696
   0.42196535  0.65296193  0.37358082
   0.42847236  0.49175692  0.38959424
   0.36832305  0.69655293  0.47150629
   0.38838902  0.63518663  0.57773640
   0.40069936  0.41108726  0.58508632
   0.41462023  0.52596971  0.64711280
   0.44748699  0.37718026  0.34816664
   0.40455214  0.58362246  0.46623079
   0.37834526  0.41593770  0.46555975