20
Energy = -207.88862733 Dir = /p/work1/plile1/GA_structures/W/20/all_candidates/3056/
W 8.378410994817374 9.491603612584319 4.906173085284069
W 7.944034199735695 6.749355465501819 5.092759306579985
W 6.174433159058801 8.361056109302401 5.103386425289613
W 10.091495051928296 7.895879658586311 5.00551078642057
W 9.530431190829177 9.477505458417687 7.240793656687867
W 7.058775094530837 8.82483439393607 7.370572541129038
W 6.099834754979513 6.375930557974293 7.177407400923341
W 8.995851409993065 6.6855728442450495 7.424437205435138
W 11.346241872821734 7.6929570511730105 7.406900137999547
W 8.97774737515978 10.378137917794824 11.08975001075696
W 7.708352924144211 4.571526194064227 7.496560176569982
W 5.703110991534607 10.425858447194054 8.869794628367918
W 10.778537385342373 9.505305626132213 9.483135574405669
W 5.413433817802463 5.311051414579614 9.259033252982077
W 10.666305459429186 7.0880264953604 9.59871094969688
W 8.130019821193338 11.020576314595887 8.98698853123269
W 5.91874545821465 7.823009572653357 9.620282158401553
W 7.726953710697696 5.6277181281577215 9.668136636830734
W 6.498230964210149 9.943876906548715 10.997298702790738
W 8.387846007744757 8.279009475365367 9.731160476383446
