3
Energy = -24.52361529 eV
W 8.742843482586501 9.061472077094782 7.404261011606309
W 8.039651497182028 6.988703645612393 7.816479239512506
W 7.839866266943565 8.593449457067443 9.383978794378727
