4
Energy = -34.52403827 eV
W 8.026340210468371 8.379844477780363 6.147516932123181
W 7.642634560302981 6.564237415469953 7.441455133580979
W 7.641895843947215 9.11628693368703 8.244034687113121
W 8.054494052791908 7.304995840573256 9.532357914692934
