4
Energy = -30.39473642 eV
W 10.156386331700002 12.796049556187704 13.29735965381525
W 13.72095176265624 9.03214130344486 6.688148357494845
W 9.429836542606683 13.985746631099058 14.539171713109797
W 13.160158553696002 10.212341711169861 8.019719989395663
