4
Energy = -34.52147008 eV
W 9.552154454790774 10.117069604895336 9.599016417140449
W 10.069073829866296 7.955817758084085 10.001300715458001
W 7.702278090198361 9.969300694563401 8.323838335164226
W 8.787114598317391 7.993610780115872 8.146497748560684
