    5    5 1000    2
  0.1101300E+04  0.1765869E-08  0.1765869E-08  0.1765869E-08  0.1000000E-15
  1.000000000000000E-004
  CAR 
 unknown system                          
     55      1     36
 
  0.0000000E+00  0.0000000E+00  0.0000000E+00  0.1000000E+01
    1       -8.942673     -8.922901
    2       -8.635503     -8.605254
    3       -8.387823     -8.359564
    4       -8.220275     -8.170126
    5       -8.085522     -8.042766
    6       -7.989106     -7.952257
    7       -7.824430     -7.777412
    8       -7.808718     -7.764859
    9       -7.757119     -7.703963
   10       -7.441872     -7.416548
   11       -7.426578     -7.377485
   12       -7.397393     -7.365018
   13       -7.320227     -7.310815
   14       -7.302156     -7.278620
   15       -7.257879     -7.217275
   16       -7.212002     -7.138814
   17       -7.048573     -6.984919
   18       -6.888034     -6.833133
   19       -6.776299     -6.716863
   20       -6.755250     -6.698255
   21       -6.619443     -6.564795
   22       -6.599965     -6.561063
   23       -6.442305     -6.369697
   24       -6.387584     -6.334199
   25       -6.314911     -6.272207
   26       -6.094756     -6.009620
   27       -4.819812     -4.672472
   28       -3.746808     -3.447716
   29       -3.520893     -3.422131
   30       -2.350199     -2.138051
   31       -1.647955     -1.541415
   32       -1.130623     -0.917207
   33       -1.066241     -0.897024
   34       -0.771717     -0.619859
   35       -0.381022     -0.176736
   36       -0.227614     -0.107093
