<?xml version="1.0" encoding="ISO-8859-1"?>
<modeling>
 <generator>
  <i name="program" type="string">vasp </i>
  <i name="version" type="string">5.3.5  </i>
  <i name="subversion" type="string">31Mar14 (build Feb 01 2018 12:10:03) gamma-only                       parallel </i>
  <i name="platform" type="string">LinuxIFC </i>
  <i name="date" type="string">2019 03 25 </i>
  <i name="time" type="string">12:16:57 </i>
 </generator>
 <incar>
  <i type="string" name="PREC">normal</i>
  <i type="int" name="ISPIN">     2</i>
  <i type="int" name="IBRION">     2</i>
  <i type="int" name="NSW">  1000</i>
  <i type="int" name="ISIF">     2</i>
  <i name="POTIM">      0.10000000</i>
  <i type="logical" name="LPLANE"> T  </i>
  <i type="int" name="ISMEAR">     0</i>
  <i name="SIGMA">      0.00010000</i>
  <i type="logical" name="LWAVE"> F  </i>
  <i type="logical" name="LCHARG"> F  </i>
  <i type="logical" name="LVTOT"> F  </i>
  <i type="string" name="GGA"> PE</i>
 </incar>
 <kpoints>
  <varray name="kpointlist" >
   <v>       0.00000000       0.00000000       0.00000000 </v>
  </varray>
  <varray name="weights" >
   <v>       1.00000000 </v>
  </varray>
 </kpoints>
 <parameters>
  <separator name="general" >
   <i type="string" name="SYSTEM">unknown system</i>
   <i type="logical" name="LCOMPAT"> F  </i>
  </separator>
  <separator name="electronic" >
   <i type="string" name="PREC">normal</i>
   <i name="ENMAX">    249.84400000</i>
   <i name="ENAUG">    412.49600000</i>
   <i name="EDIFF">      0.00010000</i>
   <i type="int" name="IALGO">    38</i>
   <i type="int" name="IWAVPR">    11</i>
   <i type="int" name="NBANDS">   392</i>
   <i name="NELECT">    605.00000000</i>
   <i type="int" name="TURBO">     0</i>
   <i type="int" name="IRESTART">     0</i>
   <i type="int" name="NREBOOT">     0</i>
   <i type="int" name="NMIN">     0</i>
   <i name="EREF">      0.00000000</i>
   <separator name="electronic smearing" >
    <i type="int" name="ISMEAR">     0</i>
    <i name="SIGMA">      0.00010000</i>
    <i name="KSPACING">      0.50000000</i>
    <i type="logical" name="KGAMMA"> T  </i>
   </separator>
   <separator name="electronic projectors" >
    <i type="logical" name="LREAL"> F  </i>
    <v name="ROPT">      0.00000000</v>
    <i type="int" name="LMAXPAW">  -100</i>
    <i type="int" name="LMAXMIX">     2</i>
    <i type="logical" name="NLSPLINE"> F  </i>
   </separator>
   <separator name="electronic startup" >
    <i type="int" name="ISTART">     0</i>
    <i type="int" name="ICHARG">     2</i>
    <i type="int" name="INIWAV">     1</i>
   </separator>
   <separator name="electronic spin" >
    <i type="int" name="ISPIN">     2</i>
    <i type="logical" name="LNONCOLLINEAR"> F  </i>
    <v name="MAGMOM">      1.00000000      1.00000000      1.00000000      1.00000000      1.00000000      1.00000000      1.00000000      1.00000000      1.00000000      1.00000000      1.00000000      1.00000000      1.00000000      1.00000000      1.00000000      1.00000000      1.00000000      1.00000000      1.00000000      1.00000000
      1.00000000      1.00000000      1.00000000      1.00000000      1.00000000      1.00000000      1.00000000      1.00000000      1.00000000      1.00000000      1.00000000      1.00000000      1.00000000      1.00000000      1.00000000      1.00000000      1.00000000      1.00000000      1.00000000      1.00000000
      1.00000000      1.00000000      1.00000000      1.00000000      1.00000000      1.00000000      1.00000000      1.00000000      1.00000000      1.00000000      1.00000000      1.00000000      1.00000000      1.00000000      1.00000000</v>
    <i name="NUPDOWN">     -1.00000000</i>
    <i type="logical" name="LSORBIT"> F  </i>
    <v name="SAXIS">      0.00000000      0.00000000      1.00000000</v>
    <i type="logical" name="LSPIRAL"> F  </i>
    <v name="QSPIRAL">      0.00000000      0.00000000      0.00000000</v>
    <i type="logical" name="LZEROZ"> F  </i>
   </separator>
   <separator name="electronic exchange-correlation" >
    <i type="logical" name="LASPH"> F  </i>
    <i type="logical" name="LMETAGGA"> F  </i>
   </separator>
   <separator name="electronic convergence" >
    <i type="int" name="NELM">    60</i>
    <i type="int" name="NELMDL">    -5</i>
    <i type="int" name="NELMIN">     2</i>
    <i name="ENINI">    249.84400000</i>
    <separator name="electronic convergence detail" >
     <i type="logical" name="LDIAG"> T  </i>
     <i type="logical" name="LSUBROT"> F  </i>
     <i name="WEIMIN">      0.00100000</i>
     <i name="EBREAK">      0.00000006</i>
     <i name="DEPER">      0.30000000</i>
     <i type="int" name="NRMM">     4</i>
     <i name="TIME">      0.40000000</i>
    </separator>
   </separator>
   <separator name="electronic mixer" >
    <i name="AMIX">      0.40000000</i>
    <i name="BMIX">      1.00000000</i>
    <i name="AMIN">      0.10000000</i>
    <i name="AMIX_MAG">      1.60000000</i>
    <i name="BMIX_MAG">      1.00000000</i>
    <separator name="electronic mixer details" >
     <i type="int" name="IMIX">     4</i>
     <i type="int" name="MAXMIX">   -45</i>
     <i name="WC">    100.00000000</i>
     <i type="int" name="INIMIX">     1</i>
     <i type="int" name="MIXPRE">     1</i>
     <i type="int" name="MREMOVE">     5</i>
    </separator>
   </separator>
   <separator name="electronic dipolcorrection" >
    <i type="logical" name="LDIPOL"> F  </i>
    <i type="logical" name="LMONO"> F  </i>
    <i type="int" name="IDIPOL">     0</i>
    <i name="EPSILON">      1.00000000</i>
    <v name="DIPOL">   -100.00000000   -100.00000000   -100.00000000</v>
    <i name="EFIELD">      0.00000000</i>
   </separator>
  </separator>
  <separator name="grids" >
   <i type="int" name="NGX">    90</i>
   <i type="int" name="NGY">    90</i>
   <i type="int" name="NGZ">    90</i>
   <i type="int" name="NGXF">   180</i>
   <i type="int" name="NGYF">   180</i>
   <i type="int" name="NGZF">   180</i>
   <i type="logical" name="ADDGRID"> F  </i>
  </separator>
  <separator name="ionic" >
   <i type="int" name="NSW">  1000</i>
   <i type="int" name="IBRION">     2</i>
   <i type="int" name="ISIF">     2</i>
   <i name="PSTRESS">      0.00000000</i>
   <i name="EDIFFG">      0.00100000</i>
   <i type="int" name="NFREE">     1</i>
   <i name="POTIM">      0.10000000</i>
   <i name="SMASS">     -3.00000000</i>
   <i name="SCALEE">      1.00000000</i>
  </separator>
  <separator name="ionic md" >
   <i name="TEBEG">      0.00010000</i>
   <i name="TEEND">      0.00010000</i>
   <i type="int" name="NBLOCK">     1</i>
   <i type="int" name="KBLOCK">  1000</i>
   <i type="int" name="NPACO">   256</i>
   <i name="APACO">     16.00000000</i>
  </separator>
  <separator name="symmetry" >
   <i type="int" name="ISYM">     2</i>
   <i name="SYMPREC">      0.00001000</i>
  </separator>
  <separator name="dos" >
   <i type="logical" name="LORBIT"> F  </i>
   <v name="RWIGS">     -1.00000000</v>
   <i type="int" name="NEDOS">   301</i>
   <i name="EMIN">     10.00000000</i>
   <i name="EMAX">    -10.00000000</i>
   <i name="EFERMI">      0.00000000</i>
  </separator>
  <separator name="writing" >
   <i type="int" name="NWRITE">     2</i>
   <i type="logical" name="LWAVE"> F  </i>
   <i type="logical" name="LCHARG"> F  </i>
   <i type="logical" name="LPARD"> F  </i>
   <i type="logical" name="LVTOT"> F  </i>
   <i type="logical" name="LVHAR"> F  </i>
   <i type="logical" name="LELF"> F  </i>
   <i type="logical" name="LOPTICS"> F  </i>
   <v name="STM">      0.00000000      0.00000000      0.00000000      0.00000000      0.00000000      0.00000000      0.00000000</v>
  </separator>
  <separator name="performance" >
   <i type="int" name="NPAR">     4</i>
   <i type="int" name="NSIM">     4</i>
   <i type="int" name="NBLK">    -1</i>
   <i type="logical" name="LPLANE"> T  </i>
   <i type="logical" name="LSCALAPACK"> T  </i>
   <i type="logical" name="LSCAAWARE"> F  </i>
   <i type="logical" name="LSCALU"> F  </i>
   <i type="logical" name="LASYNC"> F  </i>
   <i type="logical" name="LORBITALREAL"> F  </i>
  </separator>
  <separator name="miscellaneous" >
   <i type="int" name="IDIOT">     3</i>
   <i type="logical" name="LMUSIC"> F  </i>
   <v name="POMASS">    107.86800000</v>
   <v name="DARWINR">      0.00000000</v>
   <v name="DARWINV">      1.00000000</v>
   <i type="logical" name="LCORR"> T  </i>
  </separator>
  <i type="logical" name="GGA_COMPAT"> T  </i>
  <i type="logical" name="LBERRY"> F  </i>
  <i type="int" name="ICORELEVEL">     0</i>
  <i type="logical" name="LDAU"> F  </i>
  <i type="int" name="I_CONSTRAINED_M">     0</i>
  <separator name="electronic exchange-correlation" >
   <i type="string" name="GGA">PE</i>
   <i type="int" name="VOSKOWN">     0</i>
   <i type="logical" name="LHFCALC"> F  </i>
   <i type="string" name="PRECFOCK"></i>
   <i type="logical" name="LSYMGRAD"> F  </i>
   <i type="logical" name="LHFONE"> F  </i>
   <i type="logical" name="LRHFCALC"> F  </i>
   <i type="logical" name="LTHOMAS"> F  </i>
   <i type="logical" name="LMODELHF"> F  </i>
   <i name="ENCUT4O">     -1.00000000</i>
   <i type="int" name="EXXOEP">     0</i>
   <i type="int" name="FOURORBIT">     0</i>
   <i name="AEXX">      0.00000000</i>
   <i name="HFALPHA">      0.00000000</i>
   <i name="MCALPHA">      0.00000000</i>
   <i name="ALDAX">      1.00000000</i>
   <i name="AGGAX">      1.00000000</i>
   <i name="ALDAC">      1.00000000</i>
   <i name="AGGAC">      1.00000000</i>
   <i type="int" name="NKREDX">     1</i>
   <i type="int" name="NKREDY">     1</i>
   <i type="int" name="NKREDZ">     1</i>
   <i type="logical" name="SHIFTRED"> F  </i>
   <i type="logical" name="ODDONLY"> F  </i>
   <i type="logical" name="EVENONLY"> F  </i>
   <i type="int" name="LMAXFOCK">     0</i>
   <i type="int" name="NMAXFOCKAE">     0</i>
   <i type="logical" name="LFOCKAEDFT"> F  </i>
   <i name="HFSCREEN">      0.00000000</i>
   <i name="HFSCREENC">      0.00000000</i>
   <i type="int" name="NBANDSGWLOW">     0</i>
  </separator>
  <separator name="vdW DFT" >
   <i type="logical" name="LUSE_VDW"> F  </i>
   <i name="Zab_VDW">     -0.84910000</i>
   <i name="PARAM1">      0.12340000</i>
   <i name="PARAM2">      1.00000000</i>
   <i name="PARAM3">      0.00000000</i>
  </separator>
  <separator name="model GW" >
   <i type="int" name="MODEL_GW">     0</i>
   <i name="MODEL_EPS0">    132.02270221</i>
   <i name="MODEL_ALPHA">      1.00000000</i>
  </separator>
  <separator name="linear response parameters" >
   <i type="logical" name="LEPSILON"> F  </i>
   <i type="logical" name="LRPA"> F  </i>
   <i type="logical" name="LNABLA"> F  </i>
   <i type="logical" name="LVEL"> F  </i>
   <i type="int" name="KINTER">     0</i>
   <i name="CSHIFT">      0.10000000</i>
   <i name="OMEGAMAX">     -1.00000000</i>
   <i name="DEG_THRESHOLD">      0.00200000</i>
  </separator>
  <separator name="orbital magnetization" >
   <i type="logical" name="NUCIND"> F  </i>
   <v name="MAGPOS">      0.00000000      0.00000000      0.00000000</v>
   <i type="logical" name="LNICSALL"> T  </i>
   <i type="logical" name="ORBITALMAG"> F  </i>
   <i type="logical" name="LMAGBLOCH"> F  </i>
   <i type="logical" name="LCHIMAG"> F  </i>
   <i type="logical" name="LGAUGE"> T  </i>
   <i type="int" name="MAGATOM">     0</i>
   <v name="MAGDIPOL">      0.00000000      0.00000000      0.00000000</v>
   <v name="AVECCONST">      0.00000000      0.00000000      0.00000000</v>
  </separator>
  <separator name="response functions" >
   <i type="logical" name="LADDER"> F  </i>
   <i type="logical" name="LFXC"> F  </i>
   <i type="logical" name="LHARTREE"> T  </i>
   <i type="int" name="IBSE">     0</i>
   <i type="logical" name="LTCTE"> F  </i>
   <i type="logical" name="LTETE"> F  </i>
   <i type="logical" name="LTRIPLET"> F  </i>
   <i type="logical" name="LFXCEPS"> F  </i>
   <i type="logical" name="LFXHEG"> F  </i>
   <i type="logical" name="L2ORDER"> F  </i>
   <i type="logical" name="LUSEW"> F  </i>
   <i name="ENCUTGW">     -2.00000000</i>
   <i name="ENCUTGWSOFT">     -2.00000000</i>
   <i name="ENCUTLF">     -1.00000000</i>
   <i type="int" name="LMAXMP2">    -1</i>
   <i name="SCISSOR">      0.00000000</i>
   <i type="int" name="NOMEGA">     0</i>
   <i type="int" name="NOMEGAR">     0</i>
   <i type="int" name="NBANDSGW">    -1</i>
   <i type="int" name="NBANDSO">    -1</i>
   <i type="int" name="NBANDSV">    -1</i>
   <i type="int" name="NELM">     1</i>
   <i type="int" name="DIM">     3</i>
   <i type="int" name="ANTIRES">     0</i>
   <i name="OMEGAMAX">    -30.00000000</i>
   <i name="OMEGAMIN">    -30.00000000</i>
   <i name="OMEGATL">   -200.00000000</i>
   <i type="int" name="OMEGAGRID">     0</i>
   <i name="CSHIFT">     -0.10000000</i>
   <i type="logical" name="SELFENERGY"> F  </i>
   <i type="logical" name="LSPECTRAL"> F  </i>
   <i type="logical" name="ODDONLYGW"> F  </i>
   <i type="logical" name="EVENONLYGW"> F  </i>
   <i type="int" name="NKREDLFX">     1</i>
   <i type="int" name="NKREDLFY">     1</i>
   <i type="int" name="NKREDLFZ">     1</i>
   <i type="int" name="MAXMEM">  1800</i>
   <i type="int" name="TELESCOPE">     0</i>
   <i type="int" name="TAUPAR">     1</i>
  </separator>
  <separator name="External order field" >
   <i name="OFIELD_KAPPA">      0.00000000</i>
   <v name="OFIELD_K">      0.00000000      0.00000000      0.00000000</v>
   <i name="OFIELD_Q6_NEAR">      0.00000000</i>
   <i name="OFIELD_Q6_FAR">      0.00000000</i>
   <i name="OFIELD_A">      0.00000000</i>
  </separator>
 </parameters>
 <atominfo>
  <atoms>      55 </atoms>
  <types>       1 </types>
  <array name="atoms" >
   <dimension dim="1">ion</dimension>
   <field type="string">element</field>
   <field type="int">atomtype</field>
   <set>
    <rc><c>Ag</c><c>   1</c></rc>
    <rc><c>Ag</c><c>   1</c></rc>
    <rc><c>Ag</c><c>   1</c></rc>
    <rc><c>Ag</c><c>   1</c></rc>
    <rc><c>Ag</c><c>   1</c></rc>
    <rc><c>Ag</c><c>   1</c></rc>
    <rc><c>Ag</c><c>   1</c></rc>
    <rc><c>Ag</c><c>   1</c></rc>
    <rc><c>Ag</c><c>   1</c></rc>
    <rc><c>Ag</c><c>   1</c></rc>
    <rc><c>Ag</c><c>   1</c></rc>
    <rc><c>Ag</c><c>   1</c></rc>
    <rc><c>Ag</c><c>   1</c></rc>
    <rc><c>Ag</c><c>   1</c></rc>
    <rc><c>Ag</c><c>   1</c></rc>
    <rc><c>Ag</c><c>   1</c></rc>
    <rc><c>Ag</c><c>   1</c></rc>
    <rc><c>Ag</c><c>   1</c></rc>
    <rc><c>Ag</c><c>   1</c></rc>
    <rc><c>Ag</c><c>   1</c></rc>
    <rc><c>Ag</c><c>   1</c></rc>
    <rc><c>Ag</c><c>   1</c></rc>
    <rc><c>Ag</c><c>   1</c></rc>
    <rc><c>Ag</c><c>   1</c></rc>
    <rc><c>Ag</c><c>   1</c></rc>
    <rc><c>Ag</c><c>   1</c></rc>
    <rc><c>Ag</c><c>   1</c></rc>
    <rc><c>Ag</c><c>   1</c></rc>
    <rc><c>Ag</c><c>   1</c></rc>
    <rc><c>Ag</c><c>   1</c></rc>
    <rc><c>Ag</c><c>   1</c></rc>
    <rc><c>Ag</c><c>   1</c></rc>
    <rc><c>Ag</c><c>   1</c></rc>
    <rc><c>Ag</c><c>   1</c></rc>
    <rc><c>Ag</c><c>   1</c></rc>
    <rc><c>Ag</c><c>   1</c></rc>
    <rc><c>Ag</c><c>   1</c></rc>
    <rc><c>Ag</c><c>   1</c></rc>
    <rc><c>Ag</c><c>   1</c></rc>
    <rc><c>Ag</c><c>   1</c></rc>
    <rc><c>Ag</c><c>   1</c></rc>
    <rc><c>Ag</c><c>   1</c></rc>
    <rc><c>Ag</c><c>   1</c></rc>
    <rc><c>Ag</c><c>   1</c></rc>
    <rc><c>Ag</c><c>   1</c></rc>
    <rc><c>Ag</c><c>   1</c></rc>
    <rc><c>Ag</c><c>   1</c></rc>
    <rc><c>Ag</c><c>   1</c></rc>
    <rc><c>Ag</c><c>   1</c></rc>
    <rc><c>Ag</c><c>   1</c></rc>
    <rc><c>Ag</c><c>   1</c></rc>
    <rc><c>Ag</c><c>   1</c></rc>
    <rc><c>Ag</c><c>   1</c></rc>
    <rc><c>Ag</c><c>   1</c></rc>
    <rc><c>Ag</c><c>   1</c></rc>
   </set>
  </array>
  <array name="atomtypes" >
   <dimension dim="1">type</dimension>
   <field type="int">atomspertype</field>
   <field type="string">element</field>
   <field>mass</field>
   <field>valence</field>
   <field type="string">pseudopotential</field>
   <set>
    <rc><c>  55</c><c>Ag</c><c>    107.86800000</c><c>     11.00000000</c><c>  PAW_PBE Ag 02Apr2005                  </c></rc>
   </set>
  </array>
 </atominfo>
 <structure name="initialpos" >
  <crystal>
   <varray name="basis" >
    <v>      22.95902031       0.00000000       0.00000000 </v>
    <v>       0.00000000      22.95902031       0.00000000 </v>
    <v>       0.00000000       0.00000000      22.95902031 </v>
   </varray>
   <i name="volume">  12102.08103600 </i>
   <varray name="rec_basis" >
    <v>       0.04355587       0.00000000       0.00000000 </v>
    <v>       0.00000000       0.04355587       0.00000000 </v>
    <v>       0.00000000       0.00000000       0.04355587 </v>
   </varray>
  </crystal>
  <varray name="positions" >
   <v>       0.34146462       0.46886100       0.61862383 </v>
   <v>       0.46403296       0.44781390       0.58614895 </v>
   <v>       0.65992584       0.36881653       0.46004708 </v>
   <v>       0.55393575       0.41131664       0.50362464 </v>
   <v>       0.37310706       0.37424106       0.54157153 </v>
   <v>       0.74054188       0.45750851       0.44952206 </v>
   <v>       0.66584795       0.43714298       0.68194161 </v>
   <v>       0.70412729       0.40986983       0.56332671 </v>
   <v>       0.64347315       0.49880518       0.49822725 </v>
   <v>       0.36699145       0.50256924       0.38219006 </v>
   <v>       0.72472190       0.59419785       0.51374713 </v>
   <v>       0.58321648       0.59943580       0.45291007 </v>
   <v>       0.59643537       0.56398271       0.32686389 </v>
   <v>       0.51258697       0.64729766       0.36571072 </v>
   <v>       0.40035165       0.61324309       0.36292890 </v>
   <v>       0.33717127       0.59650424       0.45972305 </v>
   <v>       0.54472684       0.72348075       0.45972953 </v>
   <v>       0.58949378       0.47383661       0.60678894 </v>
   <v>       0.35443976       0.38830707       0.42308458 </v>
   <v>       0.52312569       0.39579278       0.67877230 </v>
   <v>       0.65311694       0.45031596       0.36746052 </v>
   <v>       0.43234184       0.48156843       0.70482389 </v>
   <v>       0.56736362       0.64463765       0.69130617 </v>
   <v>       0.42440740       0.68758480       0.44841011 </v>
   <v>       0.65287226       0.68933441       0.50876157 </v>
   <v>       0.56443282       0.71883241       0.59202145 </v>
   <v>       0.44094387       0.46005156       0.46506388 </v>
   <v>       0.55942262       0.36246069       0.38719274 </v>
   <v>       0.46646110       0.59468391       0.73747568 </v>
   <v>       0.56746128       0.29585144       0.49202089 </v>
   <v>       0.69327697       0.56310537       0.40295475 </v>
   <v>       0.47393673       0.53377960       0.32227391 </v>
   <v>       0.45532733       0.67935789       0.64790122 </v>
   <v>       0.66834083       0.67479184       0.63229479 </v>
   <v>       0.29464553       0.56909144       0.57037443 </v>
   <v>       0.54488443       0.49012953       0.40839064 </v>
   <v>       0.50095401       0.56199769       0.62955402 </v>
   <v>       0.71837925       0.51899414       0.60399881 </v>
   <v>       0.41038331       0.55024937       0.54189922 </v>
   <v>       0.31651770       0.47700775       0.49530527 </v>
   <v>       0.40374575       0.37273740       0.65860513 </v>
   <v>       0.45823666       0.33540508       0.45606781 </v>
   <v>       0.45063226       0.41276687       0.35213465 </v>
   <v>       0.52465873       0.52594634       0.51780812 </v>
   <v>       0.37522954       0.58358663       0.65895443 </v>
   <v>       0.45734826       0.74909710       0.54705385 </v>
   <v>       0.48392982       0.32549385       0.57809598 </v>
   <v>       0.63314926       0.67264345       0.38356026 </v>
   <v>       0.61116899       0.59138238       0.57525813 </v>
   <v>       0.60486719       0.35025508       0.59874242 </v>
   <v>       0.36816951       0.66574992       0.55958993 </v>
   <v>       0.65524584       0.56296141       0.69125936 </v>
   <v>       0.49513449       0.63817306       0.53123861 </v>
   <v>       0.55440079       0.50547665       0.72433586 </v>
   <v>       0.55522524       0.44780530       0.29865849 </v>
  </varray>
 </structure>
 <calculation>
  <scstep>
   <time name="dav">    6.87    6.88</time>
   <time name="total">    7.10    7.14</time>
   <energy>
    <i name="alphaZ">    212.60795156 </i>
    <i name="ewald"> 174822.37004444 </i>
    <i name="hartreedc">-229789.37154354 </i>
    <i name="XCdc">   -593.83299911 </i>
    <i name="pawpsdc">  55185.46979383 </i>
    <i name="pawaedc"> -52649.55348834 </i>
    <i name="eentropy">      0.00000000 </i>
    <i name="bandstr">    605.56743148 </i>
    <i name="atom">  57045.92465475 </i>
    <i name="e_fr_energy">   4839.18184506 </i>
    <i name="e_wo_entrp">   4839.18184506 </i>
    <i name="e_0_energy">   4839.18184506 </i>
   </energy>
  </scstep>
  <scstep>
   <time name="dav">    9.66    9.67</time>
   <time name="total">    9.66    9.67</time>
   <energy>
    <i name="e_fr_energy">    612.51374627 </i>
    <i name="e_wo_entrp">    612.51374627 </i>
    <i name="e_0_energy">    612.51374627 </i>
   </energy>
  </scstep>
  <scstep>
   <time name="dav">    7.94    7.95</time>
   <time name="total">    7.95    7.96</time>
   <energy>
    <i name="e_fr_energy">   -101.77594893 </i>
    <i name="e_wo_entrp">   -101.77594893 </i>
    <i name="e_0_energy">   -101.77594893 </i>
   </energy>
  </scstep>
  <scstep>
   <time name="dav">    7.32    7.32</time>
   <time name="total">    7.32   11.21</time>
   <energy>
    <i name="e_fr_energy">   -124.62864326 </i>
    <i name="e_wo_entrp">   -124.62864326 </i>
    <i name="e_0_energy">   -124.62864326 </i>
   </energy>
  </scstep>
  <scstep>
   <time name="dav">    7.51    7.52</time>
   <time name="total">    7.67    7.69</time>
   <energy>
    <i name="e_fr_energy">   -124.98205050 </i>
    <i name="e_wo_entrp">   -124.98205050 </i>
    <i name="e_0_energy">   -124.98205050 </i>
   </energy>
  </scstep>
  <scstep>
   <time name="dav">    6.92    6.93</time>
   <time name="total">    7.30    7.36</time>
   <energy>
    <i name="e_fr_energy">    -62.53047258 </i>
    <i name="e_wo_entrp">    -62.53047258 </i>
    <i name="e_0_energy">    -62.53047258 </i>
   </energy>
  </scstep>
  <scstep>
   <time name="dav">    7.15    7.16</time>
   <time name="total">    7.52    7.53</time>
   <energy>
    <i name="e_fr_energy">    -47.42460959 </i>
    <i name="e_wo_entrp">    -47.42460959 </i>
    <i name="e_0_energy">    -47.42460959 </i>
   </energy>
  </scstep>
  <scstep>
   <time name="dav">    7.21    7.22</time>
   <time name="total">    7.58    8.90</time>
   <energy>
    <i name="e_fr_energy">    -38.71862554 </i>
    <i name="e_wo_entrp">    -38.71862554 </i>
    <i name="e_0_energy">    -38.71862554 </i>
   </energy>
  </scstep>
  <scstep>
   <time name="dav">    7.11    7.12</time>
   <time name="total">    7.50    7.50</time>
   <energy>
    <i name="e_fr_energy">    -44.42993175 </i>
    <i name="e_wo_entrp">    -44.42993175 </i>
    <i name="e_0_energy">    -44.42993175 </i>
   </energy>
  </scstep>
  <scstep>
   <time name="dav">    6.90    6.91</time>
   <time name="total">    7.28    8.32</time>
   <energy>
    <i name="e_fr_energy">    -63.12973580 </i>
    <i name="e_wo_entrp">    -63.12973580 </i>
    <i name="e_0_energy">    -63.12973580 </i>
   </energy>
  </scstep>
  <scstep>
   <time name="dav">    7.04    7.05</time>
   <time name="total">    7.42    8.24</time>
   <energy>
    <i name="e_fr_energy">    -79.66265490 </i>
    <i name="e_wo_entrp">    -79.66265490 </i>
    <i name="e_0_energy">    -79.66265490 </i>
   </energy>
  </scstep>
  <scstep>
   <time name="dav">    7.04    7.05</time>
   <time name="total">    7.42    7.43</time>
   <energy>
    <i name="e_fr_energy">    -90.90055412 </i>
    <i name="e_wo_entrp">    -90.90055412 </i>
    <i name="e_0_energy">    -90.90055412 </i>
   </energy>
  </scstep>
  <scstep>
   <time name="dav">    7.12    7.12</time>
   <time name="total">    7.50    7.75</time>
   <energy>
    <i name="e_fr_energy">   -101.59536168 </i>
    <i name="e_wo_entrp">   -101.59536168 </i>
    <i name="e_0_energy">   -101.59536168 </i>
   </energy>
  </scstep>
  <scstep>
   <time name="dav">    7.16    7.17</time>
   <time name="total">    7.54    7.57</time>
   <energy>
    <i name="e_fr_energy">   -109.97813867 </i>
    <i name="e_wo_entrp">   -109.97813867 </i>
    <i name="e_0_energy">   -109.97813867 </i>
   </energy>
  </scstep>
  <scstep>
   <time name="dav">    6.93    6.94</time>
   <time name="total">    7.32    7.32</time>
   <energy>
    <i name="e_fr_energy">   -116.58647635 </i>
    <i name="e_wo_entrp">   -116.58647635 </i>
    <i name="e_0_energy">   -116.58647635 </i>
   </energy>
  </scstep>
  <scstep>
   <time name="dav">    7.11    7.11</time>
   <time name="total">    7.48    7.50</time>
   <energy>
    <i name="e_fr_energy">   -119.15537545 </i>
    <i name="e_wo_entrp">   -119.15537545 </i>
    <i name="e_0_energy">   -119.15537545 </i>
   </energy>
  </scstep>
  <scstep>
   <time name="dav">    7.06    7.07</time>
   <time name="total">    7.44    7.46</time>
   <energy>
    <i name="e_fr_energy">   -121.02739933 </i>
    <i name="e_wo_entrp">   -121.02739933 </i>
    <i name="e_0_energy">   -121.02739933 </i>
   </energy>
  </scstep>
  <scstep>
   <time name="dav">    7.06    7.06</time>
   <time name="total">    7.44    7.45</time>
   <energy>
    <i name="e_fr_energy">   -121.85633496 </i>
    <i name="e_wo_entrp">   -121.85633496 </i>
    <i name="e_0_energy">   -121.85633496 </i>
   </energy>
  </scstep>
  <scstep>
   <time name="dav">    7.12    7.12</time>
   <time name="total">    7.50    7.53</time>
   <energy>
    <i name="e_fr_energy">   -122.09494675 </i>
    <i name="e_wo_entrp">   -122.09494675 </i>
    <i name="e_0_energy">   -122.09494675 </i>
   </energy>
  </scstep>
  <scstep>
   <time name="dav">    7.12    7.13</time>
   <time name="total">    7.50   10.57</time>
   <energy>
    <i name="e_fr_energy">   -122.22459229 </i>
    <i name="e_wo_entrp">   -122.22459229 </i>
    <i name="e_0_energy">   -122.22459229 </i>
   </energy>
  </scstep>
  <scstep>
   <time name="dav">    5.89    5.89</time>
   <time name="total">    6.27    6.29</time>
   <energy>
    <i name="e_fr_energy">   -122.27818745 </i>
    <i name="e_wo_entrp">   -122.27818745 </i>
    <i name="e_0_energy">   -122.27818745 </i>
   </energy>
  </scstep>
  <scstep>
   <time name="dav">    5.41    5.42</time>
   <time name="total">    5.80    7.28</time>
   <energy>
    <i name="e_fr_energy">   -122.29747509 </i>
    <i name="e_wo_entrp">   -122.29747509 </i>
    <i name="e_0_energy">   -122.29747509 </i>
   </energy>
  </scstep>
  <scstep>
   <time name="dav">    5.41    5.42</time>
   <time name="total">    5.79    5.80</time>
   <energy>
    <i name="e_fr_energy">   -122.31095062 </i>
    <i name="e_wo_entrp">   -122.31095062 </i>
    <i name="e_0_energy">   -122.31095062 </i>
   </energy>
  </scstep>
  <scstep>
   <time name="dav">    5.34    5.35</time>
   <time name="total">    5.72    5.75</time>
   <energy>
    <i name="e_fr_energy">   -122.31794558 </i>
    <i name="e_wo_entrp">   -122.31794558 </i>
    <i name="e_0_energy">   -122.31794558 </i>
   </energy>
  </scstep>
  <scstep>
   <time name="dav">    5.14    5.14</time>
   <time name="total">    5.52    5.53</time>
   <energy>
    <i name="e_fr_energy">   -122.32283877 </i>
    <i name="e_wo_entrp">   -122.32283877 </i>
    <i name="e_0_energy">   -122.32283877 </i>
   </energy>
  </scstep>
  <scstep>
   <time name="dav">    5.20    5.20</time>
   <time name="total">    5.58    5.61</time>
   <energy>
    <i name="e_fr_energy">   -122.32523923 </i>
    <i name="e_wo_entrp">   -122.32523923 </i>
    <i name="e_0_energy">   -122.32523923 </i>
   </energy>
  </scstep>
  <scstep>
   <time name="dav">    5.08    5.09</time>
   <time name="total">    5.47    5.90</time>
   <energy>
    <i name="e_fr_energy">   -122.32556412 </i>
    <i name="e_wo_entrp">   -122.32556412 </i>
    <i name="e_0_energy">   -122.32556412 </i>
   </energy>
  </scstep>
  <scstep>
   <time name="dav">    5.17    5.18</time>
   <time name="total">    5.56    6.54</time>
   <energy>
    <i name="e_fr_energy">   -122.32568287 </i>
    <i name="e_wo_entrp">   -122.32568287 </i>
    <i name="e_0_energy">   -122.32568287 </i>
   </energy>
  </scstep>
  <scstep>
   <time name="dav">    4.92    4.93</time>
   <time name="total">    5.31    5.35</time>
   <energy>
    <i name="e_fr_energy">   -122.32581116 </i>
    <i name="e_wo_entrp">   -122.32581116 </i>
    <i name="e_0_energy">   -122.32581116 </i>
   </energy>
  </scstep>
  <scstep>
   <time name="dav">    5.01    5.02</time>
   <time name="total">    5.40    5.92</time>
   <energy>
    <i name="e_fr_energy">   -122.32593673 </i>
    <i name="e_wo_entrp">   -122.32593673 </i>
    <i name="e_0_energy">   -122.32593673 </i>
   </energy>
  </scstep>
  <scstep>
   <time name="dav">    4.97    4.98</time>
   <time name="total">    5.20    7.11</time>
   <energy>
    <i name="alphaZ">    212.60795156 </i>
    <i name="ewald"> 174822.37004444 </i>
    <i name="hartreedc">-229685.47296634 </i>
    <i name="XCdc">   -616.77869895 </i>
    <i name="pawpsdc">  60213.40190060 </i>
    <i name="pawaedc"> -57792.08979599 </i>
    <i name="eentropy">      0.00000000 </i>
    <i name="bandstr">  -4322.28912624 </i>
    <i name="atom">  57045.92465475 </i>
    <i name="e_fr_energy">   -122.32603616 </i>
    <i name="e_wo_entrp">   -122.32603616 </i>
    <i name="e_0_energy">   -122.32603616 </i>
   </energy>
  </scstep>
  <structure>
   <crystal>
    <varray name="basis" >
     <v>      22.95902031       0.00000000       0.00000000 </v>
     <v>       0.00000000      22.95902031       0.00000000 </v>
     <v>       0.00000000       0.00000000      22.95902031 </v>
    </varray>
    <i name="volume">  12102.08103600 </i>
    <varray name="rec_basis" >
     <v>       0.04355587       0.00000000       0.00000000 </v>
     <v>       0.00000000       0.04355587       0.00000000 </v>
     <v>       0.00000000       0.00000000       0.04355587 </v>
    </varray>
   </crystal>
   <varray name="positions" >
    <v>       0.34146462       0.46886100       0.61862383 </v>
    <v>       0.46403296       0.44781390       0.58614895 </v>
    <v>       0.65992584       0.36881653       0.46004708 </v>
    <v>       0.55393575       0.41131664       0.50362464 </v>
    <v>       0.37310706       0.37424106       0.54157153 </v>
    <v>       0.74054188       0.45750851       0.44952206 </v>
    <v>       0.66584795       0.43714298       0.68194161 </v>
    <v>       0.70412729       0.40986983       0.56332671 </v>
    <v>       0.64347315       0.49880518       0.49822725 </v>
    <v>       0.36699145       0.50256924       0.38219006 </v>
    <v>       0.72472190       0.59419785       0.51374713 </v>
    <v>       0.58321648       0.59943580       0.45291007 </v>
    <v>       0.59643537       0.56398271       0.32686389 </v>
    <v>       0.51258697       0.64729766       0.36571072 </v>
    <v>       0.40035165       0.61324309       0.36292890 </v>
    <v>       0.33717127       0.59650424       0.45972305 </v>
    <v>       0.54472684       0.72348075       0.45972953 </v>
    <v>       0.58949378       0.47383661       0.60678894 </v>
    <v>       0.35443976       0.38830707       0.42308458 </v>
    <v>       0.52312569       0.39579278       0.67877230 </v>
    <v>       0.65311694       0.45031596       0.36746052 </v>
    <v>       0.43234184       0.48156843       0.70482389 </v>
    <v>       0.56736362       0.64463765       0.69130617 </v>
    <v>       0.42440740       0.68758480       0.44841011 </v>
    <v>       0.65287226       0.68933441       0.50876157 </v>
    <v>       0.56443282       0.71883241       0.59202145 </v>
    <v>       0.44094387       0.46005156       0.46506388 </v>
    <v>       0.55942262       0.36246069       0.38719274 </v>
    <v>       0.46646110       0.59468391       0.73747568 </v>
    <v>       0.56746128       0.29585144       0.49202089 </v>
    <v>       0.69327697       0.56310537       0.40295475 </v>
    <v>       0.47393673       0.53377960       0.32227391 </v>
    <v>       0.45532733       0.67935789       0.64790122 </v>
    <v>       0.66834083       0.67479184       0.63229479 </v>
    <v>       0.29464553       0.56909144       0.57037443 </v>
    <v>       0.54488443       0.49012953       0.40839064 </v>
    <v>       0.50095401       0.56199769       0.62955402 </v>
    <v>       0.71837925       0.51899414       0.60399881 </v>
    <v>       0.41038331       0.55024937       0.54189922 </v>
    <v>       0.31651770       0.47700775       0.49530527 </v>
    <v>       0.40374575       0.37273740       0.65860513 </v>
    <v>       0.45823666       0.33540508       0.45606781 </v>
    <v>       0.45063226       0.41276687       0.35213465 </v>
    <v>       0.52465873       0.52594634       0.51780812 </v>
    <v>       0.37522954       0.58358663       0.65895443 </v>
    <v>       0.45734826       0.74909710       0.54705385 </v>
    <v>       0.48392982       0.32549385       0.57809598 </v>
    <v>       0.63314926       0.67264345       0.38356026 </v>
    <v>       0.61116899       0.59138238       0.57525813 </v>
    <v>       0.60486719       0.35025508       0.59874242 </v>
    <v>       0.36816951       0.66574992       0.55958993 </v>
    <v>       0.65524584       0.56296141       0.69125936 </v>
    <v>       0.49513449       0.63817306       0.53123861 </v>
    <v>       0.55440079       0.50547665       0.72433586 </v>
    <v>       0.55522524       0.44780530       0.29865849 </v>
   </varray>
  </structure>
  <varray name="forces" >
   <v>       0.04779933       0.03988441       0.04871925 </v>
   <v>      -0.06157972      -0.07258357       0.20991381 </v>
   <v>      -0.03824388      -0.12523865      -0.11749692 </v>
   <v>      -0.22196637      -0.21256863       0.04416817 </v>
   <v>       0.02948476      -0.02928721      -0.09086717 </v>
   <v>       0.51002275       0.11617825       0.14666340 </v>
   <v>       0.12087668      -0.31257612       0.35248898 </v>
   <v>       0.01271759      -0.11581923       0.08630701 </v>
   <v>       0.08473547      -0.10734232      -0.14010940 </v>
   <v>      -0.19894985      -0.05598111      -0.27067739 </v>
   <v>       0.00619836       0.00338715      -0.00591931 </v>
   <v>       0.17815205       0.14766368      -0.09298904 </v>
   <v>       0.10559941       0.06519567      -0.01833446 </v>
   <v>       0.09171072       0.06558940      -0.03233218 </v>
   <v>      -0.40581046       0.29491303      -0.52538857 </v>
   <v>      -0.27040687       0.16218513      -0.10125284 </v>
   <v>       0.09161437       0.02234497      -0.04993964 </v>
   <v>      -0.09608917       0.02837553       0.09278987 </v>
   <v>      -0.28451074      -0.30333556      -0.24708054 </v>
   <v>       0.16022948      -0.08212635       0.14730614 </v>
   <v>       0.10320971      -0.00434612      -0.01181296 </v>
   <v>       0.07744765       0.00336615       0.04725692 </v>
   <v>      -0.08058715       0.06694983       0.03978797 </v>
   <v>      -0.17075623       0.16297751      -0.07908082 </v>
   <v>      -0.10574333       0.19564525      -0.09508920 </v>
   <v>       0.05600703       0.08647438      -0.00937877 </v>
   <v>      -0.17240348      -0.24008783       0.08258044 </v>
   <v>      -0.00156440       0.04098054      -0.00258556 </v>
   <v>      -0.01748192       0.08094272       0.43614727 </v>
   <v>       0.09257188      -0.44584278       0.01995230 </v>
   <v>      -0.03280741       0.04855352      -0.25961277 </v>
   <v>      -0.07767396      -0.04785577      -0.19380243 </v>
   <v>       0.05418364      -0.01415844      -0.02025110 </v>
   <v>       0.55098584       0.04712012       0.06526864 </v>
   <v>      -0.42732348       0.11936203       0.09811012 </v>
   <v>       0.09230495      -0.20541623      -0.08025117 </v>
   <v>      -0.19176977      -0.03290071       0.12737468 </v>
   <v>       0.05743869       0.02721831      -0.07354505 </v>
   <v>      -0.27831570      -0.01810336       0.20470594 </v>
   <v>       0.02224574       0.04330132      -0.02268709 </v>
   <v>      -0.07403428      -0.29211767       0.24234175 </v>
   <v>       0.01339391      -0.04209907      -0.12606499 </v>
   <v>       0.09751585      -0.01803294       0.03572140 </v>
   <v>      -0.10346283      -0.24979894       0.32441666 </v>
   <v>      -0.02796086       0.14627792       0.00317652 </v>
   <v>      -0.11452310       0.48668755       0.00864973 </v>
   <v>       0.11045283      -0.05132298       0.01445735 </v>
   <v>       0.36116057       0.46628632      -0.36756026 </v>
   <v>       0.06065493       0.17344152       0.11720856 </v>
   <v>       0.08273078      -0.08299871       0.04767247 </v>
   <v>       0.08249006       0.00406184       0.02315078 </v>
   <v>      -0.02860945       0.05619513       0.15748074 </v>
   <v>      -0.03717766       0.12969107       0.21589041 </v>
   <v>       0.08014620       0.00311986       0.06825537 </v>
   <v>       0.08567084      -0.17242979      -0.47385307 </v>
  </varray>
  <varray name="stress" >
   <v>      -0.65211964      -0.10769979       0.16396792 </v>
   <v>      -0.10769980      -0.34888979      -0.18659501 </v>
   <v>       0.16396792      -0.18659500      -0.26067328 </v>
  </varray>
  <energy>
   <i name="e_fr_energy">   -122.32603616 </i>
   <i name="e_wo_entrp">   -122.32603616 </i>
   <i name="e_0_energy">      0.00000000 </i>
  </energy>
  <time name="totalsc">  227.17  243.29</time>
 </calculation>
 <calculation>
  <scstep>
   <time name="dav">    7.10    7.10</time>
   <time name="total">    7.48    7.50</time>
   <energy>
    <i name="alphaZ">    212.60795156 </i>
    <i name="ewald"> 174650.84410500 </i>
    <i name="hartreedc">-229514.68547828 </i>
    <i name="XCdc">   -616.93537464 </i>
    <i name="pawpsdc">  60213.39837079 </i>
    <i name="pawaedc"> -57792.08620811 </i>
    <i name="eentropy">      0.00000000 </i>
    <i name="bandstr">  -4321.44035643 </i>
    <i name="atom">  57045.92465475 </i>
    <i name="e_fr_energy">   -122.37233536 </i>
    <i name="e_wo_entrp">   -122.37233536 </i>
    <i name="e_0_energy">   -122.37233536 </i>
   </energy>
  </scstep>
  <scstep>
   <time name="dav">    7.15    7.15</time>
   <time name="total">    7.53    8.04</time>
   <energy>
    <i name="e_fr_energy">   -122.37383715 </i>
    <i name="e_wo_entrp">   -122.37383715 </i>
    <i name="e_0_energy">   -122.37383715 </i>
   </energy>
  </scstep>
  <scstep>
   <time name="dav">    5.58    5.58</time>
   <time name="total">    5.80    5.81</time>
   <energy>
    <i name="alphaZ">    212.60795156 </i>
    <i name="ewald"> 174650.84410500 </i>
    <i name="hartreedc">-229515.64640980 </i>
    <i name="XCdc">   -616.91357742 </i>
    <i name="pawpsdc">  60200.74844592 </i>
    <i name="pawaedc"> -57779.23140207 </i>
    <i name="eentropy">     -0.00000000 </i>
    <i name="bandstr">  -4320.70755584 </i>
    <i name="atom">  57045.92465475 </i>
    <i name="e_fr_energy">   -122.37378789 </i>
    <i name="e_wo_entrp">   -122.37378789 </i>
    <i name="e_0_energy">   -122.37378789 </i>
   </energy>
  </scstep>
  <structure>
   <crystal>
    <varray name="basis" >
     <v>      22.95902031       0.00000000       0.00000000 </v>
     <v>       0.00000000      22.95902031       0.00000000 </v>
     <v>       0.00000000       0.00000000      22.95902031 </v>
    </varray>
    <i name="volume">  12102.08103600 </i>
    <varray name="rec_basis" >
     <v>       0.04355587       0.00000000       0.00000000 </v>
     <v>       0.00000000       0.04355587       0.00000000 </v>
     <v>       0.00000000       0.00000000       0.04355587 </v>
    </varray>
   </crystal>
   <varray name="positions" >
    <v>       0.34148471       0.46887777       0.61864431 </v>
    <v>       0.46400708       0.44778340       0.58623716 </v>
    <v>       0.65990976       0.36876390       0.45999771 </v>
    <v>       0.55384247       0.41122731       0.50364320 </v>
    <v>       0.37311945       0.37422875       0.54153334 </v>
    <v>       0.74075622       0.45755734       0.44958369 </v>
    <v>       0.66589874       0.43701162       0.68208974 </v>
    <v>       0.70413263       0.40982115       0.56336298 </v>
    <v>       0.64350876       0.49876007       0.49816837 </v>
    <v>       0.36690784       0.50254571       0.38207630 </v>
    <v>       0.72472451       0.59419928       0.51374464 </v>
    <v>       0.58329135       0.59949786       0.45287099 </v>
    <v>       0.59647975       0.56401011       0.32685619 </v>
    <v>       0.51262551       0.64732522       0.36569713 </v>
    <v>       0.40018111       0.61336703       0.36270811 </v>
    <v>       0.33705763       0.59657240       0.45968050 </v>
    <v>       0.54476534       0.72349014       0.45970855 </v>
    <v>       0.58945340       0.47384853       0.60682794 </v>
    <v>       0.35432020       0.38817959       0.42298074 </v>
    <v>       0.52319303       0.39575826       0.67883420 </v>
    <v>       0.65316031       0.45031414       0.36745556 </v>
    <v>       0.43237439       0.48156984       0.70484375 </v>
    <v>       0.56732975       0.64466578       0.69132289 </v>
    <v>       0.42433564       0.68765329       0.44837688 </v>
    <v>       0.65282782       0.68941663       0.50872160 </v>
    <v>       0.56445636       0.71886875       0.59201751 </v>
    <v>       0.44087142       0.45995067       0.46509858 </v>
    <v>       0.55942196       0.36247791       0.38719165 </v>
    <v>       0.46645375       0.59471793       0.73765897 </v>
    <v>       0.56750019       0.29566408       0.49202928 </v>
    <v>       0.69326318       0.56312578       0.40284565 </v>
    <v>       0.47390408       0.53375949       0.32219246 </v>
    <v>       0.45535010       0.67935194       0.64789271 </v>
    <v>       0.66857238       0.67481164       0.63232222 </v>
    <v>       0.29446594       0.56914160       0.57041566 </v>
    <v>       0.54492322       0.49004321       0.40835691 </v>
    <v>       0.50087342       0.56198386       0.62960755 </v>
    <v>       0.71840339       0.51900558       0.60396791 </v>
    <v>       0.41026635       0.55024176       0.54198525 </v>
    <v>       0.31652705       0.47702595       0.49529574 </v>
    <v>       0.40371463       0.37261464       0.65870697 </v>
    <v>       0.45824229       0.33538738       0.45601484 </v>
    <v>       0.45067324       0.41275929       0.35214967 </v>
    <v>       0.52461525       0.52584136       0.51794446 </v>
    <v>       0.37521779       0.58364810       0.65895576 </v>
    <v>       0.45730013       0.74930163       0.54705749 </v>
    <v>       0.48397624       0.32547228       0.57810205 </v>
    <v>       0.63330104       0.67283941       0.38340579 </v>
    <v>       0.61119448       0.59145527       0.57530739 </v>
    <v>       0.60490195       0.35022020       0.59876246 </v>
    <v>       0.36820417       0.66575163       0.55959966 </v>
    <v>       0.65523382       0.56298503       0.69132555 </v>
    <v>       0.49511887       0.63822756       0.53132934 </v>
    <v>       0.55443448       0.50547796       0.72436454 </v>
    <v>       0.55526125       0.44773284       0.29845935 </v>
   </varray>
  </structure>
  <varray name="forces" >
   <v>       0.04754920       0.03713658       0.04688555 </v>
   <v>      -0.06637917      -0.07825918       0.20830945 </v>
   <v>      -0.03203929      -0.10945560      -0.10920376 </v>
   <v>      -0.20735433      -0.21483413       0.04272916 </v>
   <v>       0.03124504      -0.02705628      -0.08430160 </v>
   <v>       0.47637078       0.11075990       0.14411378 </v>
   <v>       0.10432347      -0.28979287       0.32536008 </v>
   <v>       0.01046648      -0.10892953       0.08099307 </v>
   <v>       0.07668573      -0.10492113      -0.13333909 </v>
   <v>      -0.18456175      -0.04990356      -0.25584204 </v>
   <v>      -0.00108947       0.00675619      -0.01303223 </v>
   <v>       0.16513249       0.13415757      -0.08319724 </v>
   <v>       0.09503849       0.05969234      -0.01726652 </v>
   <v>       0.07771784       0.05775962      -0.03003962 </v>
   <v>      -0.38502177       0.28122525      -0.50439316 </v>
   <v>      -0.25284549       0.15353857      -0.09964873 </v>
   <v>       0.08131193       0.01926953      -0.04729462 </v>
   <v>      -0.07064584       0.02043287       0.10222358 </v>
   <v>      -0.26909672      -0.28544482      -0.23538374 </v>
   <v>       0.15193840      -0.08100949       0.14202630 </v>
   <v>       0.10216302      -0.00421822      -0.00765841 </v>
   <v>       0.07413647       0.00205425       0.04635247 </v>
   <v>      -0.06919882       0.06574068       0.03131257 </v>
   <v>      -0.15907062       0.14917017      -0.07615872 </v>
   <v>      -0.09532447       0.18518250      -0.08896617 </v>
   <v>       0.05966709       0.08084920      -0.00550582 </v>
   <v>      -0.17191536      -0.22620092       0.07669528 </v>
   <v>       0.00063250       0.03879553      -0.00265247 </v>
   <v>      -0.01647421       0.07648141       0.41450487 </v>
   <v>       0.08755596      -0.42130145       0.01789284 </v>
   <v>      -0.02758046       0.04728123      -0.24249845 </v>
   <v>      -0.07446059      -0.04256735      -0.17878397 </v>
   <v>       0.05334456      -0.01118639      -0.01994680 </v>
   <v>       0.51855134       0.04109134       0.05919003 </v>
   <v>      -0.40752668       0.11329517       0.09212737 </v>
   <v>       0.08261527      -0.19128448      -0.07334899 </v>
   <v>      -0.18538706      -0.02649207       0.13363460 </v>
   <v>       0.04566176       0.02061401      -0.06254536 </v>
   <v>      -0.26789382      -0.01821407       0.18911118 </v>
   <v>       0.02358098       0.04211656      -0.02486630 </v>
   <v>      -0.06718568      -0.27843210       0.22636856 </v>
   <v>       0.01371203      -0.04357209      -0.12085440 </v>
   <v>       0.09376891      -0.01453819       0.03500860 </v>
   <v>      -0.08621467      -0.21120964       0.28039566 </v>
   <v>      -0.02604236       0.14240158       0.00672983 </v>
   <v>      -0.10460552       0.45991919       0.00555472 </v>
   <v>       0.10545478      -0.04800075       0.01388271 </v>
   <v>       0.33666936       0.43759700      -0.34617944 </v>
   <v>       0.05525697       0.16348128       0.10951591 </v>
   <v>       0.07988045      -0.08041378       0.04451572 </v>
   <v>       0.07909971       0.00417880       0.02007409 </v>
   <v>      -0.02306216       0.04981204       0.14552294 </v>
   <v>      -0.03801427       0.12197680       0.19938483 </v>
   <v>       0.07595393       0.00406350       0.06687282 </v>
   <v>       0.08350566      -0.15959253      -0.44438091 </v>
  </varray>
  <varray name="stress" >
   <v>      -0.74870477      -0.11073167       0.16756204 </v>
   <v>      -0.11073165      -0.45210362      -0.18558226 </v>
   <v>       0.16756206      -0.18558226      -0.36213449 </v>
  </varray>
  <energy>
   <i name="e_fr_energy">   -122.37378789 </i>
   <i name="e_wo_entrp">   -122.37378789 </i>
   <i name="e_0_energy">     -0.00000000 </i>
  </energy>
  <time name="totalsc">   34.86   35.45</time>
 </calculation>
 <calculation>
  <scstep>
   <time name="dav">    6.87    6.88</time>
   <time name="total">    7.25    7.27</time>
   <energy>
    <i name="alphaZ">    212.60795156 </i>
    <i name="ewald"> 174137.33731313 </i>
    <i name="hartreedc">-229004.77626543 </i>
    <i name="XCdc">   -617.37464247 </i>
    <i name="pawpsdc">  60192.12764660 </i>
    <i name="pawaedc"> -57770.47015750 </i>
    <i name="eentropy">      0.00000000 </i>
    <i name="bandstr">  -4317.86737522 </i>
    <i name="atom">  57045.92465475 </i>
    <i name="e_fr_energy">   -122.49087458 </i>
    <i name="e_wo_entrp">   -122.49087458 </i>
    <i name="e_0_energy">   -122.49087458 </i>
   </energy>
  </scstep>
  <scstep>
   <time name="dav">    7.11    7.11</time>
   <time name="total">    7.49    7.50</time>
   <energy>
    <i name="e_fr_energy">   -122.50442534 </i>
    <i name="e_wo_entrp">   -122.50442534 </i>
    <i name="e_0_energy">   -122.50442534 </i>
   </energy>
  </scstep>
  <scstep>
   <time name="dav">    7.20    7.21</time>
   <time name="total">    7.58    7.97</time>
   <energy>
    <i name="e_fr_energy">   -122.50407293 </i>
    <i name="e_wo_entrp">   -122.50407293 </i>
    <i name="e_0_energy">   -122.50407293 </i>
   </energy>
  </scstep>
  <scstep>
   <time name="dav">    7.13    7.14</time>
   <time name="total">    7.52    7.63</time>
   <energy>
    <i name="e_fr_energy">   -122.50367181 </i>
    <i name="e_wo_entrp">   -122.50367181 </i>
    <i name="e_0_energy">   -122.50367181 </i>
   </energy>
  </scstep>
  <scstep>
   <time name="dav">    4.96    4.97</time>
   <time name="total">    5.18    5.71</time>
   <energy>
    <i name="alphaZ">    212.60795156 </i>
    <i name="ewald"> 174137.33731313 </i>
    <i name="hartreedc">-229008.76922061 </i>
    <i name="XCdc">   -617.29057077 </i>
    <i name="pawpsdc">  60124.69205592 </i>
    <i name="pawaedc"> -57701.92949181 </i>
    <i name="eentropy">      0.00000000 </i>
    <i name="bandstr">  -4315.07635636 </i>
    <i name="atom">  57045.92465475 </i>
    <i name="e_fr_energy">   -122.50366418 </i>
    <i name="e_wo_entrp">   -122.50366418 </i>
    <i name="e_0_energy">   -122.50366418 </i>
   </energy>
  </scstep>
  <structure>
   <crystal>
    <varray name="basis" >
     <v>      22.95902031       0.00000000       0.00000000 </v>
     <v>       0.00000000      22.95902031       0.00000000 </v>
     <v>       0.00000000       0.00000000      22.95902031 </v>
    </varray>
    <i name="volume">  12102.08103600 </i>
    <varray name="rec_basis" >
     <v>       0.04355587       0.00000000       0.00000000 </v>
     <v>       0.00000000       0.04355587       0.00000000 </v>
     <v>       0.00000000       0.00000000       0.04355587 </v>
    </varray>
   </crystal>
   <varray name="positions" >
    <v>       0.34154497       0.46892805       0.61870573 </v>
    <v>       0.46392944       0.44769189       0.58650181 </v>
    <v>       0.65986155       0.36860600       0.45984957 </v>
    <v>       0.55356263       0.41095931       0.50369889 </v>
    <v>       0.37315663       0.37419183       0.54141878 </v>
    <v>       0.74139923       0.45770381       0.44976860 </v>
    <v>       0.66605114       0.43661753       0.68253414 </v>
    <v>       0.70414867       0.40967514       0.56347179 </v>
    <v>       0.64361559       0.49862474       0.49799172 </v>
    <v>       0.36665702       0.50247513       0.38173505 </v>
    <v>       0.72473232       0.59420355       0.51373718 </v>
    <v>       0.58351595       0.59968402       0.45275375 </v>
    <v>       0.59661288       0.56409230       0.32683307 </v>
    <v>       0.51274113       0.64740791       0.36565637 </v>
    <v>       0.39966948       0.61373884       0.36204572 </v>
    <v>       0.33671671       0.59677688       0.45955285 </v>
    <v>       0.54488084       0.72351831       0.45964558 </v>
    <v>       0.58933225       0.47388431       0.60694492 </v>
    <v>       0.35396150       0.38779716       0.42266923 </v>
    <v>       0.52339504       0.39565472       0.67901992 </v>
    <v>       0.65329044       0.45030866       0.36744067 </v>
    <v>       0.43247203       0.48157409       0.70490333 </v>
    <v>       0.56722815       0.64475019       0.69137305 </v>
    <v>       0.42412036       0.68785876       0.44827718 </v>
    <v>       0.65269450       0.68966329       0.50860172 </v>
    <v>       0.56452697       0.71897777       0.59200569 </v>
    <v>       0.44065406       0.45964798       0.46520269 </v>
    <v>       0.55941999       0.36252958       0.38718839 </v>
    <v>       0.46643171       0.59481998       0.73820885 </v>
    <v>       0.56761690       0.29510198       0.49205443 </v>
    <v>       0.69322182       0.56318699       0.40251834 </v>
    <v>       0.47380616       0.53369915       0.32194812 </v>
    <v>       0.45541841       0.67933409       0.64786718 </v>
    <v>       0.66926704       0.67487105       0.63240451 </v>
    <v>       0.29392720       0.56929208       0.57053935 </v>
    <v>       0.54503959       0.48978423       0.40825573 </v>
    <v>       0.50063165       0.56194239       0.62976814 </v>
    <v>       0.71847581       0.51903989       0.60387519 </v>
    <v>       0.40991546       0.55021894       0.54224334 </v>
    <v>       0.31655510       0.47708054       0.49526713 </v>
    <v>       0.40362129       0.37224635       0.65901250 </v>
    <v>       0.45825917       0.33533431       0.45585590 </v>
    <v>       0.45079618       0.41273656       0.35219470 </v>
    <v>       0.52448481       0.52552643       0.51835347 </v>
    <v>       0.37518254       0.58383252       0.65895977 </v>
    <v>       0.45715575       0.74991522       0.54706839 </v>
    <v>       0.48411549       0.32540758       0.57812028 </v>
    <v>       0.63375637       0.67342728       0.38294239 </v>
    <v>       0.61127095       0.59167394       0.57545516 </v>
    <v>       0.60500626       0.35011555       0.59882256 </v>
    <v>       0.36830817       0.66575675       0.55962885 </v>
    <v>       0.65519775       0.56305588       0.69152409 </v>
    <v>       0.49507200       0.63839107       0.53160152 </v>
    <v>       0.55453552       0.50548189       0.72445060 </v>
    <v>       0.55536926       0.44751545       0.29786194 </v>
   </varray>
  </structure>
  <varray name="forces" >
   <v>       0.04907387       0.03220331       0.04473136 </v>
   <v>      -0.08367132      -0.09850845       0.21559779 </v>
   <v>      -0.01809214      -0.07329812      -0.09272631 </v>
   <v>      -0.18044114      -0.23448136       0.04118811 </v>
   <v>       0.03753014      -0.02281498      -0.07183734 </v>
   <v>       0.40679231       0.10243038       0.14627890 </v>
   <v>       0.06246483      -0.24271411       0.26904841 </v>
   <v>       0.00573342      -0.09579117       0.07100287 </v>
   <v>       0.06077826      -0.10483521      -0.12378160 </v>
   <v>      -0.15500488      -0.03557371      -0.22878302 </v>
   <v>      -0.02058127       0.01647838      -0.03284028 </v>
   <v>       0.14106039       0.10662516      -0.06233058 </v>
   <v>       0.07219983       0.04848554      -0.01601700 </v>
   <v>       0.04335783       0.04116741      -0.02692930 </v>
   <v>      -0.34122438       0.25334350      -0.47505019 </v>
   <v>      -0.21807075       0.13855361      -0.10033868 </v>
   <v>       0.05824540       0.01304916      -0.04314275 </v>
   <v>      -0.00563299      -0.00002184       0.13478591 </v>
   <v>      -0.23856751      -0.24954209      -0.21456937 </v>
   <v>       0.13833905      -0.08377652       0.13521183 </v>
   <v>       0.10386123      -0.00311362       0.00270874 </v>
   <v>       0.06929862      -0.00131448       0.04727829 </v>
   <v>      -0.04316938       0.06579392       0.01108399 </v>
   <v>      -0.13647967       0.12004686      -0.07237193 </v>
   <v>      -0.07182181       0.16718582      -0.07653549 </v>
   <v>       0.07162864       0.07032948       0.00396802 </v>
   <v>      -0.18271218      -0.20372396       0.06533395 </v>
   <v>       0.00656163       0.03522921      -0.00370988 </v>
   <v>      -0.01419774       0.06852682       0.38012213 </v>
   <v>       0.07824956      -0.38216302       0.01345692 </v>
   <v>      -0.01506227       0.04656354      -0.20891637 </v>
   <v>      -0.07108646      -0.03035694      -0.14778747 </v>
   <v>       0.05364876      -0.00339423      -0.02035024 </v>
   <v>       0.45518619       0.02614988       0.04523598 </v>
   <v>      -0.37389936       0.10239577       0.08045894 </v>
   <v>       0.06145336      -0.16503699      -0.05976497 </v>
   <v>      -0.18005360      -0.01031232       0.15970789 </v>
   <v>       0.01721312       0.00460961      -0.03686145 </v>
   <v>      -0.25472386      -0.01973230       0.15816346 </v>
   <v>       0.02809132       0.04160825      -0.03272409 </v>
   <v>      -0.05117248      -0.26143755       0.19424081 </v>
   <v>       0.01503964      -0.04931993      -0.11394224 </v>
   <v>       0.08858828      -0.00607658       0.03448705 </v>
   <v>      -0.04070265      -0.11090868       0.16681491 </v>
   <v>      -0.02280165       0.14253096       0.01618952 </v>
   <v>      -0.08278612       0.41266216      -0.00269408 </v>
   <v>       0.09822358      -0.04189196       0.01346340 </v>
   <v>       0.28656905       0.37870459      -0.30512254 </v>
   <v>       0.04444126       0.14770845       0.09603145 </v>
   <v>       0.07717903      -0.07831025       0.03890465 </v>
   <v>       0.07347402       0.00522533       0.01296801 </v>
   <v>      -0.00894434       0.03640585       0.12050213 </v>
   <v>      -0.04303133       0.10970344       0.16698694 </v>
   <v>       0.06894677       0.00700250       0.06741434 </v>
   <v>       0.08070193      -0.13226857      -0.38423950 </v>
  </varray>
  <varray name="stress" >
   <v>      -0.98048472      -0.11750617       0.17617857 </v>
   <v>      -0.11750617      -0.70060233      -0.18181258 </v>
   <v>       0.17617858      -0.18181258      -0.60785053 </v>
  </varray>
  <energy>
   <i name="e_fr_energy">   -122.50366418 </i>
   <i name="e_wo_entrp">   -122.50366418 </i>
   <i name="e_0_energy">      0.00000000 </i>
  </energy>
  <time name="totalsc">   49.04   50.64</time>
 </calculation>
 <calculation>
  <scstep>
   <time name="dav">    6.88    6.88</time>
   <time name="total">    7.26    7.28</time>
   <energy>
    <i name="alphaZ">    212.60795156 </i>
    <i name="ewald"> 173115.13832246 </i>
    <i name="hartreedc">-227990.72597255 </i>
    <i name="XCdc">   -618.19877353 </i>
    <i name="pawpsdc">  60125.50674994 </i>
    <i name="pawaedc"> -57702.75563976 </i>
    <i name="eentropy">      0.00000000 </i>
    <i name="bandstr">  -4310.15322933 </i>
    <i name="atom">  57045.92465475 </i>
    <i name="e_fr_energy">   -122.65593645 </i>
    <i name="e_wo_entrp">   -122.65593645 </i>
    <i name="e_0_energy">   -122.65593645 </i>
   </energy>
  </scstep>
  <scstep>
   <time name="dav">    7.05    7.06</time>
   <time name="total">    7.44    7.45</time>
   <energy>
    <i name="e_fr_energy">   -122.70966670 </i>
    <i name="e_wo_entrp">   -122.70966670 </i>
    <i name="e_0_energy">   -122.70966670 </i>
   </energy>
  </scstep>
  <scstep>
   <time name="dav">    7.03    7.04</time>
   <time name="total">    7.42    7.84</time>
   <energy>
    <i name="e_fr_energy">   -122.70852517 </i>
    <i name="e_wo_entrp">   -122.70852517 </i>
    <i name="e_0_energy">   -122.70852517 </i>
   </energy>
  </scstep>
  <scstep>
   <time name="dav">    7.15    7.16</time>
   <time name="total">    7.53    7.56</time>
   <energy>
    <i name="e_fr_energy">   -122.70677704 </i>
    <i name="e_wo_entrp">   -122.70677704 </i>
    <i name="e_0_energy">   -122.70677704 </i>
   </energy>
  </scstep>
  <scstep>
   <time name="dav">    5.41    5.42</time>
   <time name="total">    5.64    5.68</time>
   <energy>
    <i name="alphaZ">    212.60795156 </i>
    <i name="ewald"> 173115.13832246 </i>
    <i name="hartreedc">-227998.88178210 </i>
    <i name="XCdc">   -618.03506604 </i>
    <i name="pawpsdc">  59998.90840458 </i>
    <i name="pawaedc"> -57574.05253648 </i>
    <i name="eentropy">      0.00000000 </i>
    <i name="bandstr">  -4304.31674038 </i>
    <i name="atom">  57045.92465475 </i>
    <i name="e_fr_energy">   -122.70679167 </i>
    <i name="e_wo_entrp">   -122.70679167 </i>
    <i name="e_0_energy">   -122.70679167 </i>
   </energy>
  </scstep>
  <structure>
   <crystal>
    <varray name="basis" >
     <v>      22.95902031       0.00000000       0.00000000 </v>
     <v>       0.00000000      22.95902031       0.00000000 </v>
     <v>       0.00000000       0.00000000      22.95902031 </v>
    </varray>
    <i name="volume">  12102.08103600 </i>
    <varray name="rec_basis" >
     <v>       0.04355587       0.00000000       0.00000000 </v>
     <v>       0.00000000       0.04355587       0.00000000 </v>
     <v>       0.00000000       0.00000000       0.04355587 </v>
    </varray>
   </crystal>
   <varray name="positions" >
    <v>       0.34166550       0.46902862       0.61882858 </v>
    <v>       0.46377417       0.44750887       0.58703111 </v>
    <v>       0.65976512       0.36829021       0.45955330 </v>
    <v>       0.55300294       0.41042332       0.50381026 </v>
    <v>       0.37323097       0.37411798       0.54118966 </v>
    <v>       0.74268525       0.45799675       0.45013841 </v>
    <v>       0.66635593       0.43582937       0.68342294 </v>
    <v>       0.70418073       0.40938310       0.56368941 </v>
    <v>       0.64382925       0.49835407       0.49763844 </v>
    <v>       0.36615536       0.50233398       0.38105253 </v>
    <v>       0.72474795       0.59421209       0.51372225 </v>
    <v>       0.58396516       0.60005636       0.45251928 </v>
    <v>       0.59687915       0.56425670       0.32678684 </v>
    <v>       0.51297238       0.64757330       0.36557484 </v>
    <v>       0.39864623       0.61448246       0.36072096 </v>
    <v>       0.33603488       0.59718583       0.45929754 </v>
    <v>       0.54511185       0.72357465       0.45951966 </v>
    <v>       0.58908997       0.47395586       0.60717889 </v>
    <v>       0.35324411       0.38703230       0.42204622 </v>
    <v>       0.52379905       0.39544764       0.67939135 </v>
    <v>       0.65355068       0.45029770       0.36741088 </v>
    <v>       0.43266732       0.48158257       0.70502248 </v>
    <v>       0.56702495       0.64491900       0.69147338 </v>
    <v>       0.42368980       0.68826971       0.44807778 </v>
    <v>       0.65242787       0.69015661       0.50836195 </v>
    <v>       0.56466819       0.71919582       0.59198204 </v>
    <v>       0.44021934       0.45904260       0.46541092 </v>
    <v>       0.55941605       0.36263291       0.38718187 </v>
    <v>       0.46638763       0.59502407       0.73930859 </v>
    <v>       0.56785032       0.29397779       0.49210474 </v>
    <v>       0.69313909       0.56330942       0.40186373 </v>
    <v>       0.47361030       0.53357849       0.32145945 </v>
    <v>       0.45555503       0.67929839       0.64781612 </v>
    <v>       0.67065635       0.67498986       0.63256909 </v>
    <v>       0.29284970       0.56959305       0.57078673 </v>
    <v>       0.54527234       0.48926627       0.40805338 </v>
    <v>       0.50014810       0.56185943       0.63008931 </v>
    <v>       0.71862064       0.51910852       0.60368974 </v>
    <v>       0.40921369       0.55017329       0.54275950 </v>
    <v>       0.31661119       0.47718972       0.49520993 </v>
    <v>       0.40343462       0.37150978       0.65962357 </v>
    <v>       0.45829295       0.33522816       0.45553803 </v>
    <v>       0.45104207       0.41269109       0.35228477 </v>
    <v>       0.52422392       0.52489656       0.51917148 </v>
    <v>       0.37511203       0.58420136       0.65896778 </v>
    <v>       0.45686698       0.75114241       0.54709021 </v>
    <v>       0.48439400       0.32527817       0.57815673 </v>
    <v>       0.63466704       0.67460302       0.38201559 </v>
    <v>       0.61142389       0.59211127       0.57575070 </v>
    <v>       0.60521486       0.34990627       0.59894277 </v>
    <v>       0.36851617       0.66576699       0.55968722 </v>
    <v>       0.65512561       0.56319757       0.69192118 </v>
    <v>       0.49497825       0.63871808       0.53214589 </v>
    <v>       0.55473761       0.50548976       0.72462270 </v>
    <v>       0.55558528       0.44708066       0.29666712 </v>
   </varray>
  </structure>
  <varray name="forces" >
   <v>       0.04957110       0.02073651       0.03895088 </v>
   <v>      -0.11684249      -0.13858971       0.22382903 </v>
   <v>       0.00746145      -0.00215709      -0.05443979 </v>
   <v>      -0.11841595      -0.26470673       0.03612355 </v>
   <v>       0.04803436      -0.01429651      -0.04508654 </v>
   <v>       0.24981037       0.08186132       0.15716434 </v>
   <v>      -0.01809487      -0.14490069       0.15483538 </v>
   <v>      -0.00361078      -0.06508908       0.04776770 </v>
   <v>       0.02908782      -0.10062434      -0.10147318 </v>
   <v>      -0.09318544      -0.00573788      -0.16400732 </v>
   <v>      -0.05936043       0.03578819      -0.07241180 </v>
   <v>       0.09368995       0.05285175      -0.02208618 </v>
   <v>       0.02068580       0.02429147      -0.01463920 </v>
   <v>      -0.02454273       0.00801547      -0.02048012 </v>
   <v>      -0.24763603       0.19545866      -0.41235245 </v>
   <v>      -0.14004335       0.10260993      -0.09749501 </v>
   <v>       0.00799636       0.00046307      -0.03473301 </v>
   <v>       0.12268816      -0.04075230       0.19252164 </v>
   <v>      -0.17184728      -0.17059509      -0.16834249 </v>
   <v>       0.10673079      -0.08529666       0.11653607 </v>
   <v>       0.10334692      -0.00146309       0.02068784 </v>
   <v>       0.05701401      -0.00780377       0.04843581 </v>
   <v>       0.00697953       0.06179049      -0.02766904 </v>
   <v>      -0.08765423       0.05984337      -0.06266846 </v>
   <v>      -0.02028012       0.12504519      -0.04914613 </v>
   <v>       0.09044749       0.04861962       0.02148755 </v>
   <v>      -0.19483522      -0.14747534       0.03945194 </v>
   <v>       0.01914058       0.02591220      -0.00739936 </v>
   <v>      -0.00867877       0.05003982       0.29909603 </v>
   <v>       0.05617163      -0.29405041       0.00378693 </v>
   <v>       0.01287127       0.04326402      -0.13323577 </v>
   <v>      -0.06135795      -0.00552334      -0.08219660 </v>
   <v>       0.05177876       0.01387601      -0.02002409 </v>
   <v>       0.32681392      -0.00713328       0.01332717 </v>
   <v>      -0.29057825       0.07806641       0.05636985 </v>
   <v>       0.01741079      -0.10782792      -0.03231770 </v>
   <v>      -0.16312598       0.02317835       0.20570406 </v>
   <v>      -0.03998911      -0.02714212       0.01449602 </v>
   <v>      -0.21525664      -0.02230921       0.08713718 </v>
   <v>       0.03527316       0.03978505      -0.04748309 </v>
   <v>      -0.01670048      -0.20488877       0.12612759 </v>
   <v>       0.01598310      -0.06092776      -0.09664474 </v>
   <v>       0.07408973       0.01236050       0.03132964 </v>
   <v>       0.03987278       0.08314940      -0.06183991 </v>
   <v>      -0.01735443       0.13086694       0.03639975 </v>
   <v>      -0.03904589       0.30198473      -0.01856061 </v>
   <v>       0.07918707      -0.02818524       0.01196528 </v>
   <v>       0.18207523       0.24486379      -0.20693285 </v>
   <v>       0.02240217       0.11376206       0.06716795 </v>
   <v>       0.06894513      -0.07074938       0.02545535 </v>
   <v>       0.05948164       0.00834577      -0.00339733 </v>
   <v>       0.01955316       0.00885137       0.06617291 </v>
   <v>      -0.05038665       0.08164780       0.09380120 </v>
   <v>       0.05227358       0.01264757       0.06758282 </v>
   <v>       0.07195525      -0.07175113      -0.24664875 </v>
  </varray>
  <varray name="stress" >
   <v>      -1.44710528      -0.12826386       0.19293638 </v>
   <v>      -0.12826387      -1.19758792      -0.17861467 </v>
   <v>       0.19293639      -0.17861467      -1.09776479 </v>
  </varray>
  <energy>
   <i name="e_fr_energy">   -122.70679167 </i>
   <i name="e_wo_entrp">   -122.70679167 </i>
   <i name="e_0_energy">      0.00000000 </i>
  </energy>
  <time name="totalsc">   49.35   49.98</time>
 </calculation>
 <calculation>
  <scstep>
   <time name="dav">    6.90    6.91</time>
   <time name="total">    7.32    7.48</time>
   <energy>
    <i name="alphaZ">    212.60795156 </i>
    <i name="ewald"> 171089.95690061 </i>
    <i name="hartreedc">-225981.43622794 </i>
    <i name="XCdc">   -619.76818718 </i>
    <i name="pawpsdc">  60000.14171891 </i>
    <i name="pawaedc"> -57575.30048753 </i>
    <i name="eentropy">      0.00000000 </i>
    <i name="bandstr">  -4294.82040341 </i>
    <i name="atom">  57045.92465475 </i>
    <i name="e_fr_energy">   -122.69408023 </i>
    <i name="e_wo_entrp">   -122.69408023 </i>
    <i name="e_0_energy">   -122.69408023 </i>
   </energy>
  </scstep>
  <scstep>
   <time name="dav">    7.10    7.11</time>
   <time name="total">    7.48    7.49</time>
   <energy>
    <i name="e_fr_energy">   -122.90897090 </i>
    <i name="e_wo_entrp">   -122.90897090 </i>
    <i name="e_0_energy">   -122.90897090 </i>
   </energy>
  </scstep>
  <scstep>
   <time name="dav">    7.02    7.02</time>
   <time name="total">    7.40    7.41</time>
   <energy>
    <i name="e_fr_energy">   -122.90600472 </i>
    <i name="e_wo_entrp">   -122.90600472 </i>
    <i name="e_0_energy">   -122.90600472 </i>
   </energy>
  </scstep>
  <scstep>
   <time name="dav">    7.17    7.18</time>
   <time name="total">    7.55    7.56</time>
   <energy>
    <i name="e_fr_energy">   -122.89839756 </i>
    <i name="e_wo_entrp">   -122.89839756 </i>
    <i name="e_0_energy">   -122.89839756 </i>
   </energy>
  </scstep>
  <scstep>
   <time name="dav">    7.04    7.05</time>
   <time name="total">    7.42    7.48</time>
   <energy>
    <i name="e_fr_energy">   -122.89841224 </i>
    <i name="e_wo_entrp">   -122.89841224 </i>
    <i name="e_0_energy">   -122.89841224 </i>
   </energy>
  </scstep>
  <scstep>
   <time name="dav">    6.78    6.79</time>
   <time name="total">    7.16    7.20</time>
   <energy>
    <i name="e_fr_energy">   -122.89830106 </i>
    <i name="e_wo_entrp">   -122.89830106 </i>
    <i name="e_0_energy">   -122.89830106 </i>
   </energy>
  </scstep>
  <scstep>
   <time name="dav">    5.25    5.25</time>
   <time name="total">    5.47    6.02</time>
   <energy>
    <i name="alphaZ">    212.60795156 </i>
    <i name="ewald"> 171089.95690061 </i>
    <i name="hartreedc">-225997.07542795 </i>
    <i name="XCdc">   -619.44218106 </i>
    <i name="pawpsdc">  59770.36329163 </i>
    <i name="pawaedc"> -57341.57126542 </i>
    <i name="eentropy">     -0.00000000 </i>
    <i name="bandstr">  -4283.66228303 </i>
    <i name="atom">  57045.92465475 </i>
    <i name="e_fr_energy">   -122.89835892 </i>
    <i name="e_wo_entrp">   -122.89835892 </i>
    <i name="e_0_energy">   -122.89835892 </i>
   </energy>
  </scstep>
  <structure>
   <crystal>
    <varray name="basis" >
     <v>      22.95902031       0.00000000       0.00000000 </v>
     <v>       0.00000000      22.95902031       0.00000000 </v>
     <v>       0.00000000       0.00000000      22.95902031 </v>
    </varray>
    <i name="volume">  12102.08103600 </i>
    <varray name="rec_basis" >
     <v>       0.04355587       0.00000000       0.00000000 </v>
     <v>       0.00000000       0.04355587       0.00000000 </v>
     <v>       0.00000000       0.00000000       0.04355587 </v>
    </varray>
   </crystal>
   <varray name="positions" >
    <v>       0.34190655       0.46922976       0.61907427 </v>
    <v>       0.46346362       0.44714283       0.58808970 </v>
    <v>       0.65957225       0.36765863       0.45896077 </v>
    <v>       0.55188356       0.40935134       0.50403300 </v>
    <v>       0.37337966       0.37397029       0.54073141 </v>
    <v>       0.74525730       0.45858264       0.45087803 </v>
    <v>       0.66696551       0.43425305       0.68520054 </v>
    <v>       0.70424487       0.40879902       0.56412466 </v>
    <v>       0.64425657       0.49781275       0.49693187 </v>
    <v>       0.36515206       0.50205166       0.37968751 </v>
    <v>       0.72477921       0.59422917       0.51369240 </v>
    <v>       0.58486358       0.60080103       0.45205034 </v>
    <v>       0.59741169       0.56458548       0.32669438 </v>
    <v>       0.51343488       0.64790406       0.36541179 </v>
    <v>       0.39659973       0.61596971       0.35807142 </v>
    <v>       0.33467122       0.59800373       0.45878692 </v>
    <v>       0.54557386       0.72368734       0.45926782 </v>
    <v>       0.58860539       0.47409895       0.60764683 </v>
    <v>       0.35180932       0.38550258       0.42080019 </v>
    <v>       0.52460709       0.39503348       0.68013422 </v>
    <v>       0.65407117       0.45027578       0.36735131 </v>
    <v>       0.43305788       0.48159955       0.70526080 </v>
    <v>       0.56661855       0.64525663       0.69167403 </v>
    <v>       0.42282868       0.68909161       0.44767897 </v>
    <v>       0.65189461       0.69114325       0.50788242 </v>
    <v>       0.56495064       0.71963191       0.59193474 </v>
    <v>       0.43934991       0.45783183       0.46582737 </v>
    <v>       0.55940816       0.36283957       0.38716883 </v>
    <v>       0.46629947       0.59543227       0.74150808 </v>
    <v>       0.56831716       0.29172940       0.49220536 </v>
    <v>       0.69297365       0.56355427       0.40055450 </v>
    <v>       0.47321859       0.53333715       0.32048211 </v>
    <v>       0.45582828       0.67922699       0.64771399 </v>
    <v>       0.67343497       0.67522749       0.63289824 </v>
    <v>       0.29069471       0.57019500       0.57128150 </v>
    <v>       0.54573783       0.48823036       0.40764867 </v>
    <v>       0.49918100       0.56169351       0.63073166 </v>
    <v>       0.71891030       0.51924579       0.60331885 </v>
    <v>       0.40781014       0.55008200       0.54379183 </v>
    <v>       0.31672338       0.47740809       0.49509552 </v>
    <v>       0.40306126       0.37003663       0.66084570 </v>
    <v>       0.45836049       0.33501585       0.45490228 </v>
    <v>       0.45153384       0.41260015       0.35246492 </v>
    <v>       0.52370216       0.52363682       0.52080752 </v>
    <v>       0.37497103       0.58493904       0.65898380 </v>
    <v>       0.45628944       0.75359677       0.54713383 </v>
    <v>       0.48495101       0.32501934       0.57822964 </v>
    <v>       0.63648837       0.67695450       0.38016198 </v>
    <v>       0.61172977       0.59298594       0.57634178 </v>
    <v>       0.60563207       0.34948771       0.59918318 </v>
    <v>       0.36893217       0.66578747       0.55980397 </v>
    <v>       0.65498133       0.56348096       0.69271535 </v>
    <v>       0.49479077       0.63937212       0.53323463 </v>
    <v>       0.55514179       0.50550549       0.72496691 </v>
    <v>       0.55601731       0.44621110       0.29427748 </v>
   </varray>
  </structure>
  <varray name="forces" >
   <v>       0.04068025      -0.00351650       0.02957733 </v>
   <v>      -0.18371263      -0.22365616       0.24410365 </v>
   <v>       0.04407839       0.11560711       0.02554046 </v>
   <v>       0.00097447      -0.31000513       0.02621466 </v>
   <v>       0.06203363      -0.00248613       0.00289774 </v>
   <v>      -0.01570660       0.05804959       0.16679842 </v>
   <v>      -0.15984121       0.03694548      -0.05729255 </v>
   <v>      -0.01937406      -0.00189859      -0.00001207 </v>
   <v>      -0.02194627      -0.08817225      -0.06048056 </v>
   <v>       0.01978090       0.04400990      -0.03547359 </v>
   <v>      -0.13248212       0.07260984      -0.14789846 </v>
   <v>       0.01911337      -0.03563298       0.04203757 </v>
   <v>      -0.08733854      -0.02084415      -0.01982579 </v>
   <v>      -0.14683365      -0.04730726      -0.01281839 </v>
   <v>      -0.06815956       0.09405600      -0.22377612 </v>
   <v>       0.00300412       0.03307772      -0.08875105 </v>
   <v>      -0.09511230      -0.01950599      -0.02341239 </v>
   <v>       0.35607961      -0.11831101       0.29339545 </v>
   <v>      -0.03412189      -0.01797127      -0.07836142 </v>
   <v>       0.04526694      -0.08597981       0.08038598 </v>
   <v>       0.09472031       0.00003298       0.04618832 </v>
   <v>       0.03017793      -0.02004119       0.05600876 </v>
   <v>       0.08828491       0.04495555      -0.09003349 </v>
   <v>      -0.00221240      -0.04705434      -0.04587920 </v>
   <v>       0.08337377       0.04074132       0.00362642 </v>
   <v>       0.11184929       0.01233465       0.04939747 </v>
   <v>      -0.21249391      -0.03859143      -0.01140108 </v>
   <v>       0.04431136       0.00342747      -0.02087609 </v>
   <v>       0.00282125       0.01388485       0.10133159 </v>
   <v>       0.01084036      -0.09578091      -0.01249739 </v>
   <v>       0.07360147       0.03984501       0.00867582 </v>
   <v>      -0.04549655       0.03976535       0.03934025 </v>
   <v>       0.04198099       0.05266051      -0.01337892 </v>
   <v>       0.13342227      -0.07461770      -0.05067501 </v>
   <v>      -0.09722042       0.03177858       0.01595363 </v>
   <v>      -0.06707990       0.00183972       0.01336873 </v>
   <v>      -0.12787551       0.08710749       0.28851394 </v>
   <v>      -0.14445624      -0.08478725       0.10637916 </v>
   <v>      -0.13836849      -0.02607860      -0.04510041 </v>
   <v>       0.04167003       0.03721505      -0.07628016 </v>
   <v>       0.04640869      -0.07161152       0.02182469 </v>
   <v>       0.01165306      -0.08793672      -0.06381230 </v>
   <v>       0.03977468       0.04949866       0.02027769 </v>
   <v>       0.16064814       0.41818209      -0.47503689 </v>
   <v>      -0.01472002       0.09879740       0.07916100 </v>
   <v>       0.03811896       0.04046054      -0.04599182 </v>
   <v>       0.03755744      -0.00404296       0.01001968 </v>
   <v>      -0.01079352      -0.01204588      -0.00050100 </v>
   <v>      -0.01502825       0.05978286       0.01914016 </v>
   <v>       0.05348325      -0.05452202      -0.00041680 </v>
   <v>       0.02705153       0.01952286      -0.03847730 </v>
   <v>       0.07176559      -0.03843207      -0.03708122 </v>
   <v>      -0.06185295       0.03039069      -0.04360522 </v>
   <v>       0.01691537       0.02206785       0.06884125 </v>
   <v>       0.05078466       0.03218271      -0.03985309 </v>
  </varray>
  <varray name="stress" >
   <v>      -2.26677627      -0.13962512       0.22246642 </v>
   <v>      -0.13962513      -2.08410517      -0.18081174 </v>
   <v>       0.22246642      -0.18081174      -1.95890635 </v>
  </varray>
  <energy>
   <i name="e_fr_energy">   -122.89835892 </i>
   <i name="e_wo_entrp">   -122.89835892 </i>
   <i name="e_0_energy">     -0.00000000 </i>
  </energy>
  <time name="totalsc">   63.86   70.18</time>
 </calculation>
 <calculation>
  <scstep>
   <time name="dav">    6.89    6.90</time>
   <time name="total">    7.27    7.32</time>
   <energy>
    <i name="alphaZ">    212.60795156 </i>
    <i name="ewald"> 170715.02091482 </i>
    <i name="hartreedc">-225623.72147496 </i>
    <i name="XCdc">   -619.75731678 </i>
    <i name="pawpsdc">  59771.32423923 </i>
    <i name="pawaedc"> -57342.54016365 </i>
    <i name="eentropy">      0.00000000 </i>
    <i name="bandstr">  -4281.75596787 </i>
    <i name="atom">  57045.92465475 </i>
    <i name="e_fr_energy">   -122.89716291 </i>
    <i name="e_wo_entrp">   -122.89716291 </i>
    <i name="e_0_energy">   -122.89716291 </i>
   </energy>
  </scstep>
  <scstep>
   <time name="dav">    7.08    7.09</time>
   <time name="total">    7.48    7.49</time>
   <energy>
    <i name="e_fr_energy">   -122.90458928 </i>
    <i name="e_wo_entrp">   -122.90458928 </i>
    <i name="e_0_energy">   -122.90458928 </i>
   </energy>
  </scstep>
  <scstep>
   <time name="dav">    7.03    7.04</time>
   <time name="total">    7.42    9.21</time>
[...]
       <r>     1.6078     0.0000   381.0000 </r>
       <r>     1.6510     0.0000   386.0000 </r>
       <r>     1.6942     0.0000   387.0000 </r>
       <r>     1.7374     0.0000   388.0000 </r>
       <r>     1.7806     0.0000   389.0000 </r>
       <r>     1.8238     0.0000   391.0000 </r>
       <r>     1.8670     0.0000   392.0000 </r>
       <r>     1.9101     0.0000   392.0000 </r>
       <r>     1.9533     0.0000   392.0000 </r>
       <r>     1.9965     0.0000   392.0000 </r>
       <r>     2.0397     0.0000   392.0000 </r>
       <r>     2.0829     0.0000   392.0000 </r>
       <r>     2.1261     0.0000   392.0000 </r>
       <r>     2.1693     0.0000   392.0000 </r>
       <r>     2.2125     0.0000   392.0000 </r>
       <r>     2.2557     0.0000   392.0000 </r>
       <r>     2.2988     0.0000   392.0000 </r>
       <r>     2.3420     0.0000   392.0000 </r>
       <r>     2.3852     0.0000   392.0000 </r>
       <r>     2.4284     0.0000   392.0000 </r>
       <r>     2.4716     0.0000   392.0000 </r>
      </set>
      <set comment="spin 2">
       <r>   -10.4850     0.0000     0.0000 </r>
       <r>   -10.4418     0.0000     0.0000 </r>
       <r>   -10.3986     0.0000     0.0000 </r>
       <r>   -10.3555     0.0000     0.0000 </r>
       <r>   -10.3123     0.0000     0.0000 </r>
       <r>   -10.2691     0.0000     0.0000 </r>
       <r>   -10.2259     0.0000     0.0000 </r>
       <r>   -10.1827     0.0000     0.0000 </r>
       <r>   -10.1395     0.0000     0.0000 </r>
       <r>   -10.0963     0.0000     0.0000 </r>
       <r>   -10.0531     0.0000     0.0000 </r>
       <r>   -10.0099     0.0000     0.0000 </r>
       <r>    -9.9668     0.0000     0.0000 </r>
       <r>    -9.9236     0.0000     0.0000 </r>
       <r>    -9.8804     0.0000     1.0000 </r>
       <r>    -9.8372     0.0000     1.0000 </r>
       <r>    -9.7940     0.0000     1.0000 </r>
       <r>    -9.7508     0.0000     1.0000 </r>
       <r>    -9.7076     0.0000     1.0000 </r>
       <r>    -9.6644     0.0000     1.0000 </r>
       <r>    -9.6213     0.0000     1.0000 </r>
       <r>    -9.5781     0.0000     1.0000 </r>
       <r>    -9.5349     0.0000     1.0000 </r>
       <r>    -9.4917     0.0000     1.0000 </r>
       <r>    -9.4485     0.0000     1.0000 </r>
       <r>    -9.4053     0.0000     1.0000 </r>
       <r>    -9.3621     0.0000     1.0000 </r>
       <r>    -9.3189     0.0000     1.0000 </r>
       <r>    -9.2757     0.0000     1.0000 </r>
       <r>    -9.2326     0.0000     3.0000 </r>
       <r>    -9.1894     0.0000     3.0000 </r>
       <r>    -9.1462     0.0000     5.0000 </r>
       <r>    -9.1030     0.0000     6.0000 </r>
       <r>    -9.0598     0.0000     6.0000 </r>
       <r>    -9.0166     0.0000     9.0000 </r>
       <r>    -8.9734     0.0000     9.0000 </r>
       <r>    -8.9302     0.0000     9.0000 </r>
       <r>    -8.8870     0.0000    10.0000 </r>
       <r>    -8.8439     0.0000    10.0000 </r>
       <r>    -8.8007     0.0000    11.0000 </r>
       <r>    -8.7575     0.0000    12.0000 </r>
       <r>    -8.7143     0.0000    14.0000 </r>
       <r>    -8.6711     0.0000    15.0000 </r>
       <r>    -8.6279     0.0000    17.0000 </r>
       <r>    -8.5847     0.0000    18.0000 </r>
       <r>    -8.5415    23.1542    24.0000 </r>
       <r>    -8.4983     0.0000    26.0000 </r>
       <r>    -8.4552     0.0000    31.0000 </r>
       <r>    -8.4120     0.0000    34.0000 </r>
       <r>    -8.3688     0.0000    38.0000 </r>
       <r>    -8.3256    12.8784    42.5562 </r>
       <r>    -8.2824     0.0000    45.0000 </r>
       <r>    -8.2392    20.2812    48.8759 </r>
       <r>    -8.1960     0.0000    52.0000 </r>
       <r>    -8.1528     0.0000    53.0000 </r>
       <r>    -8.1096     0.0000    57.0000 </r>
       <r>    -8.0665     0.0000    61.0000 </r>
       <r>    -8.0233     0.0000    63.0000 </r>
       <r>    -7.9801     0.0000    67.0000 </r>
       <r>    -7.9369     0.0000    71.0000 </r>
       <r>    -7.8937     0.0000    74.0000 </r>
       <r>    -7.8505     0.0000    78.0000 </r>
       <r>    -7.8073     0.0000    83.0000 </r>
       <r>    -7.7641     0.0000    86.0000 </r>
       <r>    -7.7209     0.0000    89.0000 </r>
       <r>    -7.6778     0.0000    93.0000 </r>
       <r>    -7.6346     0.0000    99.0000 </r>
       <r>    -7.5914     0.0000   104.0000 </r>
       <r>    -7.5482     0.0000   107.0000 </r>
       <r>    -7.5050     0.0000   110.0000 </r>
       <r>    -7.4618     0.0000   113.0000 </r>
       <r>    -7.4186     0.0000   116.0000 </r>
       <r>    -7.3754     0.0000   118.0000 </r>
       <r>    -7.3322     2.0662   122.0892 </r>
       <r>    -7.2891     0.0000   125.0000 </r>
       <r>    -7.2459     0.0000   129.0000 </r>
       <r>    -7.2027    17.7442   134.7663 </r>
       <r>    -7.1595     0.0000   139.0000 </r>
       <r>    -7.1163     0.0000   144.0000 </r>
       <r>    -7.0731     0.0000   147.0000 </r>
       <r>    -7.0299     0.0000   149.0000 </r>
       <r>    -6.9867     0.0000   152.0000 </r>
       <r>    -6.9435     0.0000   155.0000 </r>
       <r>    -6.9004     0.0000   161.0000 </r>
       <r>    -6.8572     0.0000   165.0000 </r>
       <r>    -6.8140     0.0000   172.0000 </r>
       <r>    -6.7708     0.0000   177.0000 </r>
       <r>    -6.7276     0.0000   183.0000 </r>
       <r>    -6.6844     0.0000   186.0000 </r>
       <r>    -6.6412     0.0000   190.0000 </r>
       <r>    -6.5980     0.0000   193.0000 </r>
       <r>    -6.5548     0.0000   198.0000 </r>
       <r>    -6.5117     0.0000   202.0000 </r>
       <r>    -6.4685     0.0000   208.0000 </r>
       <r>    -6.4253     0.0000   216.0000 </r>
       <r>    -6.3821     0.0000   222.0000 </r>
       <r>    -6.3389     0.9770   227.0422 </r>
       <r>    -6.2957     0.0000   235.0000 </r>
       <r>    -6.2525     0.0000   239.0000 </r>
       <r>    -6.2093     0.0000   244.0000 </r>
       <r>    -6.1661     0.0000   252.0000 </r>
       <r>    -6.1230     0.0000   258.0000 </r>
       <r>    -6.0798     0.0000   262.0000 </r>
       <r>    -6.0366     0.0000   267.0000 </r>
       <r>    -5.9934     0.0000   271.0000 </r>
       <r>    -5.9502     0.0000   275.0000 </r>
       <r>    -5.9070     0.0000   279.0000 </r>
       <r>    -5.8638     0.0000   281.0000 </r>
       <r>    -5.8206     0.0000   284.0000 </r>
       <r>    -5.7775     0.0000   284.0000 </r>
       <r>    -5.7343     0.0000   284.0000 </r>
       <r>    -5.6911     0.0000   284.0000 </r>
       <r>    -5.6479     0.0000   284.0000 </r>
       <r>    -5.6047     0.0000   285.0000 </r>
       <r>    -5.5615     0.0000   285.0000 </r>
       <r>    -5.5183     0.0000   285.0000 </r>
       <r>    -5.4751     0.0000   285.0000 </r>
       <r>    -5.4319     0.0000   285.0000 </r>
       <r>    -5.3888     0.0000   285.0000 </r>
       <r>    -5.3456     0.0000   285.0000 </r>
       <r>    -5.3024     0.0000   285.0000 </r>
       <r>    -5.2592     0.0000   285.0000 </r>
       <r>    -5.2160     0.0000   286.0000 </r>
       <r>    -5.1728     0.0000   287.0000 </r>
       <r>    -5.1296     0.0000   287.0000 </r>
       <r>    -5.0864     0.0000   288.0000 </r>
       <r>    -5.0432     0.0000   288.0000 </r>
       <r>    -5.0001     0.0000   288.0000 </r>
       <r>    -4.9569     0.0000   288.0000 </r>
       <r>    -4.9137     0.0000   288.0000 </r>
       <r>    -4.8705     0.0000   288.0000 </r>
       <r>    -4.8273     0.0000   289.0000 </r>
       <r>    -4.7841     0.0000   290.0000 </r>
       <r>    -4.7409     0.0000   291.0000 </r>
       <r>    -4.6977     0.0000   292.0000 </r>
       <r>    -4.6545     0.0000   292.0000 </r>
       <r>    -4.6114     0.0000   292.0000 </r>
       <r>    -4.5682     0.0000   292.0000 </r>
       <r>    -4.5250     0.0000   292.0000 </r>
       <r>    -4.4818     0.0000   292.0000 </r>
       <r>    -4.4386     0.0000   292.0000 </r>
       <r>    -4.3954     0.0000   292.0000 </r>
       <r>    -4.3522     0.0000   292.0000 </r>
       <r>    -4.3090     0.0000   292.0000 </r>
       <r>    -4.2658     0.0000   292.0000 </r>
       <r>    -4.2227     0.0000   292.0000 </r>
       <r>    -4.1795     0.0000   292.0000 </r>
       <r>    -4.1363     0.0000   292.0000 </r>
       <r>    -4.0931     0.0000   294.0000 </r>
       <r>    -4.0499     0.0000   294.0000 </r>
       <r>    -4.0067     0.0000   294.0000 </r>
       <r>    -3.9635     0.0000   294.0000 </r>
       <r>    -3.9203     0.0000   294.0000 </r>
       <r>    -3.8771     0.0000   294.0000 </r>
       <r>    -3.8340     0.0000   295.0000 </r>
       <r>    -3.7908     0.0000   295.0000 </r>
       <r>    -3.7476     0.0000   296.0000 </r>
       <r>    -3.7044     0.0000   299.0000 </r>
       <r>    -3.6612     0.0000   299.0000 </r>
       <r>    -3.6180     0.0000   300.0000 </r>
       <r>    -3.5748     0.0000   300.0000 </r>
       <r>    -3.5316     0.0000   300.0000 </r>
       <r>    -3.4884     0.0000   300.0000 </r>
       <r>    -3.4453     0.0000   300.0000 </r>
       <r>    -3.4021     0.0000   300.0000 </r>
       <r>    -3.3589     0.0000   300.0000 </r>
       <r>    -3.3157     0.0000   301.0000 </r>
       <r>    -3.2725     0.0000   301.0000 </r>
       <r>    -3.2293     0.0000   303.0000 </r>
       <r>    -3.1861     0.0000   304.0000 </r>
       <r>    -3.1429     0.0000   304.0000 </r>
       <r>    -3.0997     0.0000   304.0000 </r>
       <r>    -3.0566     0.0000   304.0000 </r>
       <r>    -3.0134     0.0000   304.0000 </r>
       <r>    -2.9702     0.0000   304.0000 </r>
       <r>    -2.9270     0.0000   304.0000 </r>
       <r>    -2.8838     0.0000   304.0000 </r>
       <r>    -2.8406     0.0000   304.0000 </r>
       <r>    -2.7974     0.0000   304.0000 </r>
       <r>    -2.7542     0.0000   304.0000 </r>
       <r>    -2.7110     0.0000   304.0000 </r>
       <r>    -2.6679     0.0000   304.0000 </r>
       <r>    -2.6247     0.0000   304.0000 </r>
       <r>    -2.5815     0.0000   304.0000 </r>
       <r>    -2.5383     0.0000   304.0000 </r>
       <r>    -2.4951     0.0000   304.0000 </r>
       <r>    -2.4519     0.0000   304.0000 </r>
       <r>    -2.4087     0.0000   304.0000 </r>
       <r>    -2.3655     0.0000   304.0000 </r>
       <r>    -2.3223     0.0000   305.0000 </r>
       <r>    -2.2792     0.0000   307.0000 </r>
       <r>    -2.2360     0.0000   309.0000 </r>
       <r>    -2.1928     0.0000   311.0000 </r>
       <r>    -2.1496     0.0000   312.0000 </r>
       <r>    -2.1064     0.0000   312.0000 </r>
       <r>    -2.0632     0.0000   312.0000 </r>
       <r>    -2.0200     0.0000   312.0000 </r>
       <r>    -1.9768     0.0000   312.0000 </r>
       <r>    -1.9337     0.0000   312.0000 </r>
       <r>    -1.8905     0.0000   313.0000 </r>
       <r>    -1.8473     0.0000   314.0000 </r>
       <r>    -1.8041     0.0000   316.0000 </r>
       <r>    -1.7609     0.0000   318.0000 </r>
       <r>    -1.7177     0.0000   318.0000 </r>
       <r>    -1.6745     0.0000   320.0000 </r>
       <r>    -1.6313     0.0000   320.0000 </r>
       <r>    -1.5881     0.0000   321.0000 </r>
       <r>    -1.5450     0.0000   321.0000 </r>
       <r>    -1.5018     0.0000   321.0000 </r>
       <r>    -1.4586     0.0000   321.0000 </r>
       <r>    -1.4154     0.0000   321.0000 </r>
       <r>    -1.3722     0.0000   321.0000 </r>
       <r>    -1.3290     0.0000   321.0000 </r>
       <r>    -1.2858     0.0000   321.0000 </r>
       <r>    -1.2426     0.0000   321.0000 </r>
       <r>    -1.1994     0.0000   321.0000 </r>
       <r>    -1.1563    23.1333   322.9991 </r>
       <r>    -1.1131     0.0000   323.0000 </r>
       <r>    -1.0699     0.0000   323.0000 </r>
       <r>    -1.0267     0.0000   323.0000 </r>
       <r>    -0.9835     0.0000   323.0000 </r>
       <r>    -0.9403     0.0000   325.0000 </r>
       <r>    -0.8971     0.0000   327.0000 </r>
       <r>    -0.8539     0.0000   329.0000 </r>
       <r>    -0.8107     0.0000   329.0000 </r>
       <r>    -0.7676     0.0000   329.0000 </r>
       <r>    -0.7244     0.0000   329.0000 </r>
       <r>    -0.6812     0.0000   331.0000 </r>
       <r>    -0.6380     0.0000   333.0000 </r>
       <r>    -0.5948     0.0000   333.0000 </r>
       <r>    -0.5516     0.0000   333.0000 </r>
       <r>    -0.5084    21.0430   333.9088 </r>
       <r>    -0.4652     0.0000   334.0000 </r>
       <r>    -0.4220     0.0000   334.0000 </r>
       <r>    -0.3789     0.0000   334.0000 </r>
       <r>    -0.3357     0.0000   334.0000 </r>
       <r>    -0.2925     0.0000   334.0000 </r>
       <r>    -0.2493     0.0000   334.0000 </r>
       <r>    -0.2061     0.0000   336.0000 </r>
       <r>    -0.1629     0.0000   336.0000 </r>
       <r>    -0.1197     0.0000   338.0000 </r>
       <r>    -0.0765     0.0000   338.0000 </r>
       <r>    -0.0333     0.0000   340.0000 </r>
       <r>     0.0098     0.0000   342.0000 </r>
       <r>     0.0530     0.0000   343.0000 </r>
       <r>     0.0962     0.0000   344.0000 </r>
       <r>     0.1394     0.0000   344.0000 </r>
       <r>     0.1826     0.0000   344.0000 </r>
       <r>     0.2258     0.0000   344.0000 </r>
       <r>     0.2690     0.0000   344.0000 </r>
       <r>     0.3122     0.0000   344.0000 </r>
       <r>     0.3554     0.0000   344.0000 </r>
       <r>     0.3985     0.0000   345.0000 </r>
       <r>     0.4417     0.0000   345.0000 </r>
       <r>     0.4849     0.0000   346.0000 </r>
       <r>     0.5281     0.0000   348.0000 </r>
       <r>     0.5713     0.0000   349.0000 </r>
       <r>     0.6145     0.0000   349.0000 </r>
       <r>     0.6577     0.0000   349.0000 </r>
       <r>     0.7009     0.0000   349.0000 </r>
       <r>     0.7441     0.0000   350.0000 </r>
       <r>     0.7872     0.0000   350.0000 </r>
       <r>     0.8304     0.0000   350.0000 </r>
       <r>     0.8736     0.0000   350.0000 </r>
       <r>     0.9168     0.0000   351.0000 </r>
       <r>     0.9600     0.0000   352.0000 </r>
       <r>     1.0032     0.0000   352.0000 </r>
       <r>     1.0464     0.0000   353.0000 </r>
       <r>     1.0896     0.0000   355.0000 </r>
       <r>     1.1328     0.0000   357.0000 </r>
       <r>     1.1759     0.0000   359.0000 </r>
       <r>     1.2191     0.0000   363.0000 </r>
       <r>     1.2623     0.0000   365.0000 </r>
       <r>     1.3055     0.0000   369.0000 </r>
       <r>     1.3487     0.0000   370.0000 </r>
       <r>     1.3919     0.0000   372.0000 </r>
       <r>     1.4351     0.0000   372.0000 </r>
       <r>     1.4783     0.0000   374.0000 </r>
       <r>     1.5215     1.7737   376.0766 </r>
       <r>     1.5646     0.0000   377.0000 </r>
       <r>     1.6078     0.0000   380.0000 </r>
       <r>     1.6510    14.0617   383.6073 </r>
       <r>     1.6942     0.0000   386.0000 </r>
       <r>     1.7374     0.0000   386.0000 </r>
       <r>     1.7806     0.0000   388.0000 </r>
       <r>     1.8238     0.0000   390.0000 </r>
       <r>     1.8670     0.0000   391.0000 </r>
       <r>     1.9101     0.0000   392.0000 </r>
       <r>     1.9533     0.0000   392.0000 </r>
       <r>     1.9965     0.0000   392.0000 </r>
       <r>     2.0397     0.0000   392.0000 </r>
       <r>     2.0829     0.0000   392.0000 </r>
       <r>     2.1261     0.0000   392.0000 </r>
       <r>     2.1693     0.0000   392.0000 </r>
       <r>     2.2125     0.0000   392.0000 </r>
       <r>     2.2557     0.0000   392.0000 </r>
       <r>     2.2988     0.0000   392.0000 </r>
       <r>     2.3420     0.0000   392.0000 </r>
       <r>     2.3852     0.0000   392.0000 </r>
       <r>     2.4284     0.0000   392.0000 </r>
       <r>     2.4716     0.0000   392.0000 </r>
      </set>
     </set>
    </array>
   </total>
  </dos>
 </calculation>
 <structure name="finalpos" >
  <crystal>
   <varray name="basis" >
    <v>      22.95902031       0.00000000       0.00000000 </v>
    <v>       0.00000000      22.95902031       0.00000000 </v>
    <v>       0.00000000       0.00000000      22.95902031 </v>
   </varray>
   <i name="volume">  12102.08103600 </i>
   <varray name="rec_basis" >
    <v>       0.04355587       0.00000000       0.00000000 </v>
    <v>       0.00000000       0.04355587       0.00000000 </v>
    <v>       0.00000000       0.00000000       0.04355587 </v>
   </varray>
  </crystal>
  <varray name="positions" >
   <v>       0.34417795       0.46839031       0.61999601 </v>
   <v>       0.46412184       0.44555132       0.59251269 </v>
   <v>       0.66284894       0.37433828       0.46990473 </v>
   <v>       0.54787821       0.40630093       0.50641274 </v>
   <v>       0.37633924       0.37197056       0.54154937 </v>
   <v>       0.74739933       0.47506783       0.47003010 </v>
   <v>       0.66182914       0.43419760       0.68985736 </v>
   <v>       0.71006294       0.40949786       0.57438074 </v>
   <v>       0.63736400       0.49768187       0.49604904 </v>
   <v>       0.36640719       0.50192039       0.37903506 </v>
   <v>       0.72126817       0.59706551       0.51263507 </v>
   <v>       0.58036123       0.60143374       0.44900712 </v>
   <v>       0.59397915       0.56446196       0.32634563 </v>
   <v>       0.50656903       0.64603784       0.36156397 </v>
   <v>       0.38860602       0.61824683       0.34789889 </v>
   <v>       0.33453568       0.59712506       0.45532816 </v>
   <v>       0.54127224       0.72243679       0.45482175 </v>
   <v>       0.58940551       0.47455319       0.60870149 </v>
   <v>       0.35283331       0.38234123       0.41916019 </v>
   <v>       0.53051986       0.39252502       0.68223355 </v>
   <v>       0.65760809       0.45354637       0.37644503 </v>
   <v>       0.43530433       0.48095332       0.70868537 </v>
   <v>       0.57082868       0.64539423       0.68636987 </v>
   <v>       0.42047750       0.68651872       0.44324808 </v>
   <v>       0.65141242       0.69294330       0.49961864 </v>
   <v>       0.56938219       0.71820486       0.58753382 </v>
   <v>       0.43623825       0.45411763       0.46793660 </v>
   <v>       0.56611698       0.36420466       0.38992622 </v>
   <v>       0.46850480       0.59794031       0.74235556 </v>
   <v>       0.57125272       0.28993470       0.49148130 </v>
   <v>       0.69138039       0.56845103       0.40047757 </v>
   <v>       0.47096640       0.53337629       0.31995330 </v>
   <v>       0.45844204       0.68074159       0.64567976 </v>
   <v>       0.68580352       0.66193888       0.62080989 </v>
   <v>       0.28973618       0.56967410       0.57027678 </v>
   <v>       0.54243974       0.48707028       0.40791808 </v>
   <v>       0.49599079       0.56153016       0.63229158 </v>
   <v>       0.71138933       0.52261375       0.60261397 </v>
   <v>       0.40463883       0.54794756       0.54373848 </v>
   <v>       0.31635508       0.47625852       0.49271282 </v>
   <v>       0.40776980       0.36792215       0.66403491 </v>
   <v>       0.46026337       0.33136106       0.45334631 </v>
   <v>       0.45483922       0.41284830       0.35370811 </v>
   <v>       0.52022962       0.52445851       0.51902181 </v>
   <v>       0.37537573       0.58660082       0.65948812 </v>
   <v>       0.45772436       0.75398433       0.54390042 </v>
   <v>       0.48839703       0.32329800       0.57972927 </v>
   <v>       0.63081572       0.67704498       0.37486063 </v>
   <v>       0.60474847       0.59448028       0.57387966 </v>
   <v>       0.60938396       0.34828014       0.59772765 </v>
   <v>       0.36931926       0.66518670       0.55703697 </v>
   <v>       0.65707197       0.56354075       0.69754419 </v>
   <v>       0.49101726       0.63953206       0.53160036 </v>
   <v>       0.55551874       0.50637573       0.72631773 </v>
   <v>       0.56180810       0.44691161       0.29663732 </v>
  </varray>
 </structure>
</modeling>
