unknown system                          
           1
    22.959020    0.000000    0.000000
     0.000000   22.959020    0.000000
     0.000000    0.000000   22.959020
   Ag
  55
Direct configuration=     1
   0.34146462  0.46886100  0.61862383
   0.46403296  0.44781390  0.58614895
   0.65992584  0.36881653  0.46004708
   0.55393575  0.41131664  0.50362464
   0.37310706  0.37424106  0.54157153
   0.74054188  0.45750851  0.44952206
   0.66584795  0.43714298  0.68194161
   0.70412729  0.40986983  0.56332671
   0.64347315  0.49880518  0.49822725
   0.36699145  0.50256924  0.38219006
   0.72472190  0.59419785  0.51374713
   0.58321648  0.59943580  0.45291007
   0.59643537  0.56398271  0.32686389
   0.51258697  0.64729766  0.36571072
   0.40035165  0.61324309  0.36292890
   0.33717127  0.59650424  0.45972305
   0.54472684  0.72348075  0.45972953
   0.58949378  0.47383661  0.60678894
   0.35443976  0.38830707  0.42308458
   0.52312569  0.39579278  0.67877230
   0.65311694  0.45031596  0.36746052
   0.43234184  0.48156843  0.70482389
   0.56736362  0.64463765  0.69130617
   0.42440740  0.68758480  0.44841011
   0.65287226  0.68933441  0.50876157
   0.56443282  0.71883241  0.59202145
   0.44094387  0.46005156  0.46506388
   0.55942262  0.36246069  0.38719274
   0.46646110  0.59468391  0.73747568
   0.56746128  0.29585144  0.49202089
   0.69327697  0.56310537  0.40295475
   0.47393673  0.53377960  0.32227391
   0.45532733  0.67935789  0.64790122
   0.66834083  0.67479184  0.63229479
   0.29464553  0.56909144  0.57037443
   0.54488443  0.49012953  0.40839064
   0.50095401  0.56199769  0.62955402
   0.71837925  0.51899414  0.60399881
   0.41038331  0.55024937  0.54189922
   0.31651770  0.47700775  0.49530527
   0.40374575  0.37273740  0.65860513
   0.45823666  0.33540508  0.45606781
   0.45063226  0.41276687  0.35213465
   0.52465873  0.52594634  0.51780812
   0.37522954  0.58358663  0.65895443
   0.45734826  0.74909710  0.54705385
   0.48392982  0.32549385  0.57809598
   0.63314926  0.67264345  0.38356026
   0.61116899  0.59138238  0.57525813
   0.60486719  0.35025508  0.59874242
   0.36816951  0.66574992  0.55958993
   0.65524584  0.56296141  0.69125936
   0.49513449  0.63817306  0.53123861
   0.55440079  0.50547665  0.72433586
   0.55522524  0.44780530  0.29865849
Direct configuration=     2
   0.34148471  0.46887777  0.61864431
   0.46400708  0.44778340  0.58623716
   0.65990976  0.36876390  0.45999771
   0.55384247  0.41122731  0.50364320
   0.37311945  0.37422875  0.54153334
   0.74075622  0.45755734  0.44958369
   0.66589874  0.43701162  0.68208974
   0.70413263  0.40982115  0.56336298
   0.64350876  0.49876007  0.49816837
   0.36690784  0.50254571  0.38207630
   0.72472451  0.59419928  0.51374464
   0.58329135  0.59949786  0.45287099
   0.59647975  0.56401011  0.32685619
   0.51262551  0.64732522  0.36569713
   0.40018111  0.61336703  0.36270811
   0.33705763  0.59657240  0.45968050
   0.54476534  0.72349014  0.45970855
   0.58945340  0.47384853  0.60682794
   0.35432020  0.38817959  0.42298074
   0.52319303  0.39575826  0.67883420
   0.65316031  0.45031414  0.36745556
   0.43237439  0.48156984  0.70484375
   0.56732975  0.64466578  0.69132289
   0.42433564  0.68765329  0.44837688
   0.65282782  0.68941663  0.50872160
   0.56445636  0.71886875  0.59201751
   0.44087142  0.45995067  0.46509858
   0.55942196  0.36247791  0.38719165
   0.46645375  0.59471793  0.73765897
   0.56750019  0.29566408  0.49202928
   0.69326318  0.56312578  0.40284565
   0.47390408  0.53375949  0.32219246
   0.45535010  0.67935194  0.64789271
   0.66857238  0.67481164  0.63232222
   0.29446594  0.56914160  0.57041566
   0.54492322  0.49004321  0.40835691
   0.50087342  0.56198386  0.62960755
   0.71840339  0.51900558  0.60396791
   0.41026635  0.55024176  0.54198525
   0.31652705  0.47702595  0.49529574
   0.40371463  0.37261464  0.65870697
   0.45824229  0.33538738  0.45601484
   0.45067324  0.41275929  0.35214967
   0.52461525  0.52584136  0.51794446
   0.37521779  0.58364810  0.65895576
   0.45730013  0.74930163  0.54705749
   0.48397624  0.32547228  0.57810205
   0.63330104  0.67283941  0.38340579
   0.61119448  0.59145527  0.57530739
   0.60490195  0.35022020  0.59876246
   0.36820417  0.66575163  0.55959966
   0.65523382  0.56298503  0.69132555
   0.49511887  0.63822756  0.53132934
   0.55443448  0.50547796  0.72436454
   0.55526125  0.44773284  0.29845935
Direct configuration=     3
   0.34154497  0.46892805  0.61870573
   0.46392944  0.44769189  0.58650181
   0.65986155  0.36860600  0.45984957
   0.55356263  0.41095931  0.50369889
   0.37315663  0.37419183  0.54141878
   0.74139923  0.45770381  0.44976860
   0.66605114  0.43661753  0.68253414
   0.70414867  0.40967514  0.56347179
   0.64361559  0.49862474  0.49799172
   0.36665702  0.50247513  0.38173505
   0.72473232  0.59420355  0.51373718
   0.58351595  0.59968402  0.45275375
   0.59661288  0.56409230  0.32683307
   0.51274113  0.64740791  0.36565637
   0.39966948  0.61373884  0.36204572
   0.33671671  0.59677688  0.45955285
   0.54488084  0.72351831  0.45964558
   0.58933225  0.47388431  0.60694492
   0.35396150  0.38779716  0.42266923
   0.52339504  0.39565472  0.67901992
   0.65329044  0.45030866  0.36744067
   0.43247203  0.48157409  0.70490333
   0.56722815  0.64475019  0.69137305
   0.42412036  0.68785876  0.44827718
   0.65269450  0.68966329  0.50860172
   0.56452697  0.71897777  0.59200569
   0.44065406  0.45964798  0.46520269
   0.55941999  0.36252958  0.38718839
   0.46643171  0.59481998  0.73820885
   0.56761690  0.29510198  0.49205443
   0.69322182  0.56318699  0.40251834
   0.47380616  0.53369915  0.32194812
   0.45541841  0.67933409  0.64786718
   0.66926704  0.67487105  0.63240451
   0.29392720  0.56929208  0.57053935
   0.54503959  0.48978423  0.40825573
   0.50063165  0.56194239  0.62976814
   0.71847581  0.51903989  0.60387519
   0.40991546  0.55021894  0.54224334
   0.31655510  0.47708054  0.49526713
   0.40362129  0.37224635  0.65901250
   0.45825917  0.33533431  0.45585590
   0.45079618  0.41273656  0.35219470
   0.52448481  0.52552643  0.51835347
   0.37518254  0.58383252  0.65895977
   0.45715575  0.74991522  0.54706839
   0.48411549  0.32540758  0.57812028
   0.63375637  0.67342728  0.38294239
   0.61127095  0.59167394  0.57545516
   0.60500626  0.35011555  0.59882256
   0.36830817  0.66575675  0.55962885
   0.65519775  0.56305588  0.69152409
   0.49507200  0.63839107  0.53160152
   0.55453552  0.50548189  0.72445060
   0.55536926  0.44751545  0.29786194
Direct configuration=     4
   0.34166550  0.46902862  0.61882858
   0.46377417  0.44750887  0.58703111
   0.65976512  0.36829021  0.45955330
   0.55300294  0.41042332  0.50381026
   0.37323097  0.37411798  0.54118966
   0.74268525  0.45799675  0.45013841
   0.66635593  0.43582937  0.68342294
   0.70418073  0.40938310  0.56368941
   0.64382925  0.49835407  0.49763844
   0.36615536  0.50233398  0.38105253
   0.72474795  0.59421209  0.51372225
   0.58396516  0.60005636  0.45251928
   0.59687915  0.56425670  0.32678684
   0.51297238  0.64757330  0.36557484
   0.39864623  0.61448246  0.36072096
   0.33603488  0.59718583  0.45929754
   0.54511185  0.72357465  0.45951966
   0.58908997  0.47395586  0.60717889
   0.35324411  0.38703230  0.42204622
   0.52379905  0.39544764  0.67939135
   0.65355068  0.45029770  0.36741088
   0.43266732  0.48158257  0.70502248
   0.56702495  0.64491900  0.69147338
   0.42368980  0.68826971  0.44807778
   0.65242787  0.69015661  0.50836195
   0.56466819  0.71919582  0.59198204
   0.44021934  0.45904260  0.46541092
   0.55941605  0.36263291  0.38718187
   0.46638763  0.59502407  0.73930859
   0.56785032  0.29397779  0.49210474
   0.69313909  0.56330942  0.40186373
   0.47361030  0.53357849  0.32145945
   0.45555503  0.67929839  0.64781612
   0.67065635  0.67498986  0.63256909
   0.29284970  0.56959305  0.57078673
   0.54527234  0.48926627  0.40805338
   0.50014810  0.56185943  0.63008931
   0.71862064  0.51910852  0.60368974
   0.40921369  0.55017329  0.54275950
   0.31661119  0.47718972  0.49520993
   0.40343462  0.37150978  0.65962357
   0.45829295  0.33522816  0.45553803
   0.45104207  0.41269109  0.35228477
   0.52422392  0.52489656  0.51917148
   0.37511203  0.58420136  0.65896778
   0.45686698  0.75114241  0.54709021
   0.48439400  0.32527817  0.57815673
   0.63466704  0.67460302  0.38201559
   0.61142389  0.59211127  0.57575070
   0.60521486  0.34990627  0.59894277
   0.36851617  0.66576699  0.55968722
   0.65512561  0.56319757  0.69192118
   0.49497825  0.63871808  0.53214589
   0.55473761  0.50548976  0.72462270
   0.55558528  0.44708066  0.29666712
Direct configuration=     5
   0.34190655  0.46922976  0.61907427
   0.46346362  0.44714283  0.58808970
   0.65957225  0.36765863  0.45896077
   0.55188356  0.40935134  0.50403300
   0.37337966  0.37397029  0.54073141
   0.74525730  0.45858264  0.45087803
   0.66696551  0.43425305  0.68520054
   0.70424487  0.40879902  0.56412466
   0.64425657  0.49781275  0.49693187
   0.36515206  0.50205166  0.37968751
   0.72477921  0.59422917  0.51369240
   0.58486358  0.60080103  0.45205034
   0.59741169  0.56458548  0.32669438
   0.51343488  0.64790406  0.36541179
   0.39659973  0.61596971  0.35807142
   0.33467122  0.59800373  0.45878692
   0.54557386  0.72368734  0.45926782
   0.58860539  0.47409895  0.60764683
   0.35180932  0.38550258  0.42080019
   0.52460709  0.39503348  0.68013422
   0.65407117  0.45027578  0.36735131
   0.43305788  0.48159955  0.70526080
   0.56661855  0.64525663  0.69167403
   0.42282868  0.68909161  0.44767897
   0.65189461  0.69114325  0.50788242
   0.56495064  0.71963191  0.59193474
   0.43934991  0.45783183  0.46582737
   0.55940816  0.36283957  0.38716883
   0.46629947  0.59543227  0.74150808
   0.56831716  0.29172940  0.49220536
   0.69297365  0.56355427  0.40055450
   0.47321859  0.53333715  0.32048211
   0.45582828  0.67922699  0.64771399
   0.67343497  0.67522749  0.63289824
   0.29069471  0.57019500  0.57128150
   0.54573783  0.48823036  0.40764867
   0.49918100  0.56169351  0.63073166
   0.71891030  0.51924579  0.60331885
   0.40781014  0.55008200  0.54379183
   0.31672338  0.47740809  0.49509552
   0.40306126  0.37003663  0.66084570
   0.45836049  0.33501585  0.45490228
   0.45153384  0.41260015  0.35246492
   0.52370216  0.52363682  0.52080752
   0.37497103  0.58493904  0.65898380
   0.45628944  0.75359677  0.54713383
   0.48495101  0.32501934  0.57822964
   0.63648837  0.67695450  0.38016198
   0.61172977  0.59298594  0.57634178
   0.60563207  0.34948771  0.59918318
   0.36893217  0.66578747  0.55980397
   0.65498133  0.56348096  0.69271535
   0.49479077  0.63937212  0.53323463
   0.55514179  0.50550549  0.72496691
   0.55601731  0.44621110  0.29427748
Direct configuration=     6
   0.34195151  0.46926727  0.61912010
   0.46340570  0.44707455  0.58828717
   0.65953628  0.36754082  0.45885024
   0.55167476  0.40915137  0.50407455
   0.37340740  0.37394274  0.54064593
   0.74573707  0.45869193  0.45101600
   0.66707922  0.43395901  0.68553213
   0.70425683  0.40869007  0.56420585
   0.64433628  0.49771177  0.49680007
   0.36496491  0.50199900  0.37943288
   0.72478504  0.59423236  0.51368683
   0.58503117  0.60093993  0.45196286
   0.59751102  0.56464681  0.32667713
   0.51352115  0.64796576  0.36538138
   0.39621799  0.61624713  0.35757719
   0.33441685  0.59815629  0.45869167
   0.54566004  0.72370836  0.45922084
   0.58851500  0.47412565  0.60773412
   0.35154168  0.38521723  0.42056777
   0.52475782  0.39495622  0.68027279
   0.65416825  0.45027169  0.36734020
   0.43313074  0.48160272  0.70530526
   0.56654274  0.64531961  0.69171146
   0.42266805  0.68924492  0.44760458
   0.65179514  0.69132729  0.50779297
   0.56500332  0.71971325  0.59192592
   0.43918773  0.45760598  0.46590506
   0.55940669  0.36287812  0.38716640
   0.46628302  0.59550841  0.74191836
   0.56840424  0.29131000  0.49222413
   0.69294279  0.56359995  0.40031028
   0.47314553  0.53329213  0.32029980
   0.45587925  0.67921367  0.64769494
   0.67395328  0.67527182  0.63295963
   0.29029273  0.57030728  0.57137379
   0.54582466  0.48803712  0.40757318
   0.49900061  0.56166256  0.63085148
   0.71896433  0.51927139  0.60324967
   0.40754833  0.55006497  0.54398440
   0.31674430  0.47744882  0.49507417
   0.40299162  0.36976183  0.66107367
   0.45837309  0.33497625  0.45478369
   0.45162557  0.41258318  0.35249852
   0.52360483  0.52340184  0.52111269
   0.37494473  0.58507664  0.65898678
   0.45618171  0.75405460  0.54714196
   0.48505491  0.32497107  0.57824324
   0.63682811  0.67739313  0.37981622
   0.61178683  0.59314909  0.57645204
   0.60570990  0.34940963  0.59922802
   0.36900977  0.66579130  0.55982575
   0.65495442  0.56353383  0.69286349
   0.49475579  0.63949412  0.53343771
   0.55521718  0.50550842  0.72503112
   0.55609790  0.44604890  0.29383173
Direct configuration=     7
   0.34208411  0.46928187  0.61922906
   0.46288780  0.44644152  0.58905886
   0.65962104  0.36775017  0.45884472
   0.55153693  0.40821875  0.50417004
   0.37358524  0.37391464  0.54059425
   0.74603178  0.45892331  0.45154108
   0.66675000  0.43384514  0.68561045
   0.70421683  0.40861287  0.56425945
   0.64433947  0.49741616  0.49655258
   0.36488648  0.50207364  0.37916644
   0.72444597  0.59442279  0.51329855
   0.58520482  0.60094832  0.45200691
   0.59734685  0.56463469  0.32660934
   0.51320422  0.64788866  0.36532479
   0.39577106  0.61668869  0.35668215
   0.33424536  0.59834608  0.45839873
   0.54546784  0.72367350  0.45912556
   0.58937442  0.47383579  0.60855150
   0.35127181  0.38497303  0.42020895
   0.52497821  0.39468037  0.68057297
   0.65447812  0.45026714  0.36744791
   0.43325845  0.48155234  0.70548428
   0.56671431  0.64547382  0.69150961
   0.42254835  0.68923254  0.44743332
   0.65194935  0.69155501  0.50774293
   0.56532346  0.71980352  0.59204562
   0.43853034  0.45735268  0.46592934
   0.55952289  0.36291059  0.38710733
   0.46628170  0.59559368  0.74244468
   0.56849157  0.29079118  0.49220710
   0.69312000  0.56373531  0.40016551
   0.47297813  0.53336281  0.32027325
   0.45602169  0.67934418  0.64765109
   0.67464766  0.67510300  0.63286790
   0.28977478  0.57046896  0.57147945
   0.54571129  0.48791087  0.40755394
   0.49855007  0.56186766  0.63167951
   0.71862945  0.51906965  0.60347556
   0.40701322  0.54998517  0.54400084
   0.31686468  0.47757355  0.49486126
   0.40306663  0.36940345  0.66129420
   0.45840952  0.33471695  0.45453670
   0.45178768  0.41270154  0.35257192
   0.52393794  0.52430781  0.52010095
   0.37488524  0.58542097  0.65919728
   0.45620586  0.75446127  0.54702911
   0.48522067  0.32492616  0.57827959
   0.63704155  0.67767067  0.37958344
   0.61178982  0.59342043  0.57657965
   0.60590213  0.34921567  0.59925746
   0.36913173  0.66584660  0.55973806
   0.65512319  0.56347343  0.69286908
   0.49457475  0.63965494  0.53346378
   0.55531160  0.50556660  0.72525367
   0.55628176  0.44601968  0.29340813
Direct configuration=     8
   0.34223449  0.46929841  0.61935263
   0.46230046  0.44572361  0.58993402
   0.65971716  0.36798758  0.45883846
   0.55138061  0.40716107  0.50427834
   0.37378694  0.37388278  0.54053564
   0.74636599  0.45918571  0.45213657
   0.66637663  0.43371600  0.68569928
   0.70417146  0.40852533  0.56432023
   0.64434308  0.49708091  0.49627192
   0.36479754  0.50215830  0.37886427
   0.72406145  0.59463877  0.51285821
   0.58540174  0.60095783  0.45205686
   0.59716066  0.56462096  0.32653246
   0.51284480  0.64780121  0.36526061
   0.39526421  0.61718945  0.35566710
   0.33405089  0.59856132  0.45806651
   0.54524986  0.72363396  0.45901751
   0.59034908  0.47350707  0.60947849
   0.35096575  0.38469609  0.41980201
   0.52522816  0.39436753  0.68091341
   0.65482953  0.45026197  0.36757006
   0.43340329  0.48149521  0.70568732
   0.56690889  0.64564871  0.69128069
   0.42241260  0.68921851  0.44723909
   0.65212425  0.69181325  0.50768618
   0.56568653  0.71990589  0.59218137
   0.43778480  0.45706541  0.46595689
   0.55965468  0.36294740  0.38704033
   0.46628021  0.59569038  0.74304156
   0.56859061  0.29020280  0.49218780
   0.69332097  0.56388882  0.40000132
   0.47278828  0.53344296  0.32024314
   0.45618322  0.67949220  0.64760136
   0.67543514  0.67491154  0.63276387
   0.28918738  0.57065232  0.57159927
   0.54558271  0.48776769  0.40753212
   0.49803913  0.56210027  0.63261855
   0.71824967  0.51884087  0.60373173
   0.40640636  0.54989468  0.54401948
   0.31700121  0.47771499  0.49461980
   0.40315171  0.36899701  0.66154430
   0.45845084  0.33442289  0.45425660
   0.45197151  0.41283576  0.35265517
   0.52431572  0.52533526  0.51895354
   0.37481777  0.58581146  0.65943601
   0.45623325  0.75492247  0.54690112
   0.48540866  0.32487523  0.57832081
   0.63728361  0.67798542  0.37931945
   0.61179321  0.59372815  0.57672437
   0.60612014  0.34899571  0.59929083
   0.36927005  0.66590931  0.55963861
   0.65531459  0.56340493  0.69287541
   0.49436943  0.63983732  0.53349335
   0.55541868  0.50563257  0.72550607
   0.55649027  0.44598654  0.29292774
Direct configuration=     9
   0.34231170  0.46935585  0.61946417
   0.46244703  0.44587963  0.59006931
   0.65986792  0.36836649  0.45896297
   0.55109185  0.40693825  0.50462327
   0.37398387  0.37381209  0.54046444
   0.74637364  0.45946209  0.45284977
   0.66618131  0.43352432  0.68602211
   0.70414024  0.40849227  0.56431734
   0.64404502  0.49673686  0.49618629
   0.36489086  0.50240810  0.37871132
   0.72350467  0.59474728  0.51253810
   0.58583557  0.60131526  0.45176946
   0.59683234  0.56453990  0.32652648
   0.51235800  0.64757569  0.36526709
   0.39486673  0.61763581  0.35490166
   0.33412206  0.59867794  0.45770054
   0.54494374  0.72350944  0.45891310
   0.59063303  0.47371953  0.60935529
   0.35085565  0.38462720  0.41953079
   0.52546989  0.39398770  0.68124575
   0.65508226  0.45033788  0.36772492
   0.43349051  0.48140469  0.70605788
   0.56731004  0.64577507  0.69097761
   0.42237206  0.68898134  0.44699486
   0.65236397  0.69204749  0.50764192
   0.56605889  0.71993288  0.59225868
   0.43740539  0.45703074  0.46627088
   0.55989571  0.36296673  0.38691614
   0.46631839  0.59582648  0.74345858
   0.56868681  0.28977060  0.49208368
   0.69357735  0.56403006  0.39991526
   0.47262514  0.53358660  0.32040985
   0.45635989  0.67977789  0.64755856
   0.67592311  0.67457568  0.63251217
   0.28898831  0.57075939  0.57164511
   0.54533959  0.48753944  0.40736520
   0.49778520  0.56198545  0.63271993
   0.71776156  0.51869609  0.60378943
   0.40631637  0.54966585  0.54396155
   0.31706532  0.47787005  0.49430563
   0.40324438  0.36865117  0.66181630
   0.45845228  0.33408319  0.45398242
   0.45214115  0.41304367  0.35271032
   0.52416902  0.52530765  0.51893000
   0.37470568  0.58615095  0.65969445
   0.45648287  0.75493059  0.54670044
   0.48557115  0.32473406  0.57835380
   0.63709877  0.67778985  0.37946069
   0.61158423  0.59378291  0.57681893
   0.60632738  0.34868384  0.59932442
   0.36934801  0.66595748  0.55944719
   0.65550151  0.56336560  0.69284284
   0.49404811  0.64006308  0.53348811
   0.55547508  0.50570978  0.72583266
   0.55669922  0.44620389  0.29294017
Direct configuration=    10
   0.34247292  0.46947577  0.61969709
   0.46275307  0.44620540  0.59035178
   0.66018272  0.36915767  0.45922297
   0.55048891  0.40647297  0.50534351
   0.37439508  0.37366448  0.54031577
   0.74638960  0.46003918  0.45433896
   0.66577349  0.43312409  0.68669619
   0.70407504  0.40842324  0.56431129
   0.64342268  0.49601848  0.49600751
   0.36508571  0.50292971  0.37839196
   0.72234211  0.59497387  0.51186970
   0.58674143  0.60206158  0.45116936
   0.59614677  0.56437065  0.32651400
   0.51134154  0.64710478  0.36528060
   0.39403677  0.61856783  0.35330339
   0.33427067  0.59892146  0.45693637
   0.54430455  0.72324946  0.45869508
   0.59122594  0.47416315  0.60909805
   0.35062576  0.38448336  0.41896447
   0.52597462  0.39319461  0.68193968
   0.65560998  0.45049637  0.36804827
   0.43367264  0.48121569  0.70683162
   0.56814765  0.64603890  0.69034477
   0.42228740  0.68848613  0.44648490
   0.65286451  0.69253660  0.50754951
   0.56683637  0.71998921  0.59242010
   0.43661315  0.45695834  0.46692649
   0.56039899  0.36300708  0.38665680
   0.46639812  0.59611066  0.74432933
   0.56888770  0.28886816  0.49186629
   0.69411268  0.56432495  0.39973558
   0.47228450  0.53388654  0.32075793
   0.45672879  0.68037441  0.64746918
   0.67694201  0.67387437  0.63198660
   0.28857266  0.57098295  0.57174082
   0.54483194  0.48706284  0.40701668
   0.49725501  0.56174570  0.63293161
   0.71674236  0.51839380  0.60390993
   0.40612848  0.54918804  0.54384059
   0.31719920  0.47819382  0.49364964
   0.40343787  0.36792905  0.66238427
   0.45845530  0.33337388  0.45340994
   0.45249534  0.41347778  0.35282547
   0.52386270  0.52524999  0.51888083
   0.37447163  0.58685983  0.66023408
   0.45700407  0.75494755  0.54628143
   0.48591044  0.32443930  0.57842267
   0.63671281  0.67738150  0.37975561
   0.61114788  0.59389725  0.57701637
   0.60676010  0.34803266  0.59939454
   0.36951080  0.66605805  0.55904750
   0.65589178  0.56328347  0.69277481
   0.49337717  0.64053448  0.53347716
   0.55559286  0.50587101  0.72651461
   0.55713553  0.44665771  0.29296612
Direct configuration=    11
   0.34268728  0.46954866  0.61978563
   0.46334088  0.44641607  0.59064762
   0.66004677  0.36937156  0.45944081
   0.55007577  0.40651502  0.50563676
   0.37469712  0.37362556  0.54031601
   0.74644228  0.46059674  0.45523313
   0.66544473  0.43281912  0.68717012
   0.70413620  0.40830797  0.56457309
   0.64253044  0.49595400  0.49584495
   0.36534221  0.50326550  0.37835472
   0.72160437  0.59471724  0.51201425
   0.58664675  0.60156047  0.45164072
   0.59591348  0.56431910  0.32668486
   0.51087995  0.64674317  0.36537235
   0.39327218  0.61908806  0.35242481
   0.33455981  0.59891958  0.45670064
   0.54414853  0.72305628  0.45854800
   0.59085512  0.47442209  0.60869949
   0.35080715  0.38462982  0.41878647
   0.52632251  0.39297438  0.68204185
   0.65576153  0.45083640  0.36823607
   0.43380841  0.48104244  0.70731326
   0.56841358  0.64589006  0.69006823
   0.42219246  0.68813092  0.44612650
   0.65285980  0.69304167  0.50747627
   0.56719293  0.71998732  0.59221021
   0.43669428  0.45674958  0.46709946
   0.56084242  0.36300136  0.38673001
   0.46667893  0.59632464  0.74422211
   0.56900764  0.28888693  0.49161738
   0.69435110  0.56427222  0.39932998
   0.47201835  0.53413158  0.32095499
   0.45701826  0.68058152  0.64753515
   0.67745713  0.67334416  0.63147868
   0.28896904  0.57102776  0.57163109
   0.54455457  0.48682236  0.40732254
   0.49716114  0.56164435  0.63279077
   0.71623958  0.51844732  0.60335559
   0.40603307  0.54928641  0.54398270
   0.31704077  0.47839847  0.49328136
   0.40378668  0.36798211  0.66246483
   0.45851465  0.33312851  0.45310163
   0.45260993  0.41372241  0.35302234
   0.52376792  0.52515204  0.51911168
   0.37447472  0.58711638  0.66040570
   0.45741618  0.75484049  0.54600208
   0.48605031  0.32431093  0.57850350
   0.63651806  0.67743339  0.37954750
   0.61053293  0.59385746  0.57679114
   0.60690622  0.34770630  0.59946143
   0.36953609  0.66591657  0.55876137
   0.65590697  0.56330220  0.69305569
   0.49324669  0.64020465  0.53355095
   0.55559937  0.50592247  0.72666299
   0.55741457  0.44703605  0.29320836
Direct configuration=    12
   0.34302049  0.46966196  0.61992326
   0.46425458  0.44674353  0.59110748
   0.65983544  0.36970404  0.45977941
   0.54943357  0.40658038  0.50609261
   0.37516661  0.37356506  0.54031638
   0.74652416  0.46146341  0.45662304
   0.66493372  0.43234508  0.68790680
   0.70423127  0.40812879  0.56498003
   0.64114353  0.49585376  0.49559226
   0.36574090  0.50378747  0.37829682
   0.72045761  0.59431833  0.51223894
   0.58649957  0.60078154  0.45237341
   0.59555085  0.56423898  0.32695044
   0.51016243  0.64618106  0.36551498
   0.39208368  0.61989671  0.35105912
   0.33500925  0.59891666  0.45633423
   0.54390600  0.72275601  0.45831938
   0.59027872  0.47482459  0.60807994
   0.35108912  0.38485750  0.41850978
   0.52686327  0.39263205  0.68220066
   0.65599709  0.45136496  0.36852800
   0.43401945  0.48077312  0.70806193
   0.56882694  0.64565871  0.68963837
   0.42204490  0.68757876  0.44556939
   0.65285249  0.69382677  0.50736241
   0.56774718  0.71998439  0.59188394
   0.43682040  0.45642507  0.46736834
   0.56153169  0.36299247  0.38684381
   0.46711544  0.59665727  0.74405543
   0.56919409  0.28891610  0.49123047
   0.69472172  0.56419026  0.39869952
   0.47160463  0.53451249  0.32126130
   0.45746820  0.68090345  0.64763769
   0.67825785  0.67251997  0.63068916
   0.28958518  0.57109741  0.57146053
   0.54412342  0.48644856  0.40779797
   0.49701524  0.56148680  0.63257185
   0.71545803  0.51853051  0.60249392
   0.40588478  0.54943932  0.54420359
   0.31679449  0.47871658  0.49270890
   0.40432888  0.36806458  0.66259006
   0.45860689  0.33274710  0.45262239
   0.45278805  0.41410266  0.35332836
   0.52362058  0.52499977  0.51947050
   0.37447953  0.58751516  0.66067248
   0.45805678  0.75467406  0.54556785
   0.48626774  0.32411139  0.57862913
   0.63621534  0.67751405  0.37922402
   0.60957704  0.59379562  0.57644104
   0.60713335  0.34719899  0.59956541
   0.36957541  0.66569665  0.55831660
   0.65593057  0.56333130  0.69349229
   0.49304387  0.63969195  0.53366564
   0.55560949  0.50600247  0.72689365
   0.55784831  0.44762416  0.29358491
Direct configuration=    13
   0.34341746  0.46967838  0.61991738
   0.46447350  0.44662276  0.59163507
   0.65965957  0.36987647  0.46012619
   0.54910331  0.40629455  0.50621797
   0.37552424  0.37369905  0.54037445
   0.74630663  0.46237610  0.45759754
   0.66418071  0.43232374  0.68786119
   0.70428035  0.40797997  0.56537454
   0.64074945  0.49569660  0.49520766
   0.36600735  0.50405496  0.37841157
   0.71969742  0.59412355  0.51223288
   0.58642331  0.60066443  0.45239314
   0.59543488  0.56430372  0.32729911
   0.50996534  0.64579375  0.36575988
   0.39119800  0.62028992  0.35017512
   0.33528447  0.59880249  0.45617180
   0.54389555  0.72241103  0.45810611
   0.59026146  0.47447848  0.60855106
   0.35141670  0.38514844  0.41848484
   0.52732278  0.39262463  0.68220992
   0.65606722  0.45177586  0.36879404
   0.43422599  0.48068208  0.70841851
   0.56894197  0.64543407  0.68939011
   0.42205722  0.68730648  0.44538364
   0.65274257  0.69427052  0.50710410
   0.56792738  0.71993012  0.59156415
   0.43692154  0.45623825  0.46754775
   0.56196920  0.36304267  0.38695043
   0.46747703  0.59682359  0.74359431
   0.56924174  0.28928213  0.49102176
   0.69486862  0.56421119  0.39836075
   0.47139910  0.53473046  0.32142626
   0.45772648  0.68098874  0.64760866
   0.67862919  0.67172515  0.63001369
   0.29007612  0.57108299  0.57128312
   0.54390805  0.48633585  0.40807503
   0.49689054  0.56155717  0.63278907
   0.71475769  0.51856055  0.60215513
   0.40588034  0.54940708  0.54433135
   0.31667893  0.47882705  0.49243780
   0.40478523  0.36840417  0.66248442
   0.45872737  0.33259791  0.45241320
   0.45296347  0.41426007  0.35343945
   0.52302061  0.52491216  0.51942545
   0.37466410  0.58760459  0.66080078
   0.45839260  0.75438711  0.54529292
   0.48639799  0.32401916  0.57868034
   0.63573222  0.67726238  0.37922894
   0.60912987  0.59405501  0.57639054
   0.60717542  0.34704278  0.59957143
   0.36970859  0.66572277  0.55810211
   0.65603507  0.56316160  0.69371047
   0.49300196  0.63950917  0.53367312
   0.55558261  0.50596722  0.72681382
   0.55802333  0.44796874  0.29394575
Direct configuration=    14
   0.34391575  0.46969899  0.61991001
   0.46474830  0.44647117  0.59229734
   0.65943880  0.37009291  0.46056150
   0.54868875  0.40593575  0.50637533
   0.37597315  0.37386724  0.54044733
   0.74603357  0.46352177  0.45882079
   0.66323550  0.43229695  0.68780395
   0.70434195  0.40779316  0.56586974
   0.64025478  0.49549932  0.49472490
   0.36634182  0.50439072  0.37855560
   0.71874319  0.59387905  0.51222526
   0.58632757  0.60051742  0.45241791
   0.59528930  0.56438499  0.32773677
   0.50971794  0.64530757  0.36606730
   0.39008624  0.62078351  0.34906546
   0.33562994  0.59865918  0.45596791
   0.54388244  0.72197799  0.45783840
   0.59023980  0.47404401  0.60914243
   0.35182790  0.38551364  0.41845354
   0.52789958  0.39261532  0.68222154
   0.65615524  0.45229164  0.36912799
   0.43448526  0.48056781  0.70886611
   0.56908635  0.64515208  0.68907847
   0.42207270  0.68696470  0.44515048
   0.65260458  0.69482755  0.50677985
   0.56815358  0.71986200  0.59116272
   0.43704849  0.45600373  0.46777295
   0.56251839  0.36310567  0.38708427
   0.46793092  0.59703237  0.74301547
   0.56930155  0.28974159  0.49075978
   0.69505302  0.56423747  0.39793552
   0.47114111  0.53500407  0.32163333
   0.45805068  0.68109580  0.64757221
   0.67909532  0.67072745  0.62916580
   0.29069239  0.57106489  0.57106042
   0.54363771  0.48619438  0.40842281
   0.49673400  0.56164549  0.63306174
   0.71387857  0.51859825  0.60172987
   0.40587477  0.54936660  0.54449172
   0.31653386  0.47896573  0.49209749
   0.40535807  0.36883043  0.66235183
   0.45887861  0.33241065  0.45215062
   0.45318366  0.41445765  0.35357891
   0.52226749  0.52480218  0.51936889
   0.37489577  0.58771683  0.66096182
   0.45881413  0.75402691  0.54494782
   0.48656149  0.32390337  0.57874462
   0.63512579  0.67694646  0.37923511
   0.60856856  0.59438062  0.57632714
   0.60722824  0.34684670  0.59957899
   0.36987576  0.66575555  0.55783287
   0.65616624  0.56294858  0.69398433
   0.49294936  0.63927973  0.53368250
   0.55554886  0.50592297  0.72671362
   0.55824302  0.44840128  0.29439869
Direct configuration=    15
   0.34417537  0.46971269  0.61982143
   0.46461654  0.44639867  0.59243525
   0.65961432  0.37030523  0.46096787