  49  49   0   0
  0.2423092E+03  0.2281333E-08  0.2281333E-08  0.2281333E-08  0.1000000E-15
  1.000000000000000E-004
  CAR 
 unknown system                          
      2.14962356    -10.39094790  301     -3.23237169      1.00000000
    -10.391  0.0000E+00  0.0000E+00  0.0000E+00  0.0000E+00
    -10.349  0.0000E+00  0.0000E+00  0.0000E+00  0.0000E+00
    -10.307  0.0000E+00  0.0000E+00  0.0000E+00  0.0000E+00
    -10.266  0.0000E+00  0.0000E+00  0.0000E+00  0.0000E+00
    -10.224  0.0000E+00  0.0000E+00  0.0000E+00  0.0000E+00
    -10.182  0.0000E+00  0.0000E+00  0.0000E+00  0.0000E+00
    -10.140  0.0000E+00  0.0000E+00  0.0000E+00  0.0000E+00
    -10.098  0.0000E+00  0.0000E+00  0.0000E+00  0.0000E+00
    -10.057  0.0000E+00  0.0000E+00  0.0000E+00  0.0000E+00
    -10.015  0.0000E+00  0.0000E+00  0.0000E+00  0.0000E+00
     -9.973  0.0000E+00  0.0000E+00  0.0000E+00  0.0000E+00
     -9.931  0.0000E+00  0.0000E+00  0.0000E+00  0.0000E+00
     -9.889  0.0000E+00  0.0000E+00  0.0000E+00  0.0000E+00
     -9.848  0.0000E+00  0.0000E+00  0.0000E+00  0.0000E+00
     -9.806  0.0000E+00  0.0000E+00  0.1000E-02  0.1000E-02
     -9.764  0.0000E+00  0.0000E+00  0.1000E-02  0.1000E-02
     -9.722  0.0000E+00  0.0000E+00  0.1000E-02  0.1000E-02
     -9.680  0.0000E+00  0.0000E+00  0.1000E-02  0.1000E-02
     -9.639  0.0000E+00  0.0000E+00  0.1000E-02  0.1000E-02
     -9.597  0.0000E+00  0.0000E+00  0.1000E-02  0.1000E-02
     -9.555  0.0000E+00  0.0000E+00  0.1000E-02  0.1000E-02
     -9.513  0.0000E+00  0.0000E+00  0.1000E-02  0.1000E-02
     -9.471  0.0000E+00  0.0000E+00  0.1000E-02  0.1000E-02
     -9.430  0.0000E+00  0.0000E+00  0.1000E-02  0.1000E-02
     -9.388  0.0000E+00  0.0000E+00  0.1000E-02  0.1000E-02
     -9.346  0.0000E+00  0.0000E+00  0.1000E-02  0.1000E-02
     -9.304  0.0000E+00  0.0000E+00  0.1000E-02  0.1000E-02
     -9.262  0.0000E+00  0.0000E+00  0.1000E-02  0.1000E-02
     -9.220  0.0000E+00  0.0000E+00  0.2000E-02  0.1000E-02
     -9.179  0.0000E+00  0.0000E+00  0.3000E-02  0.3000E-02
     -9.137  0.0000E+00  0.0000E+00  0.4000E-02  0.4000E-02
     -9.095  0.0000E+00  0.0000E+00  0.5000E-02  0.5000E-02
     -9.053  0.0000E+00  0.0000E+00  0.6000E-02  0.6000E-02
     -9.011  0.0000E+00  0.0000E+00  0.7000E-02  0.7000E-02
     -8.970  0.0000E+00  0.0000E+00  0.8000E-02  0.8000E-02
     -8.928  0.0000E+00  0.0000E+00  0.9000E-02  0.9000E-02
     -8.886  0.0000E+00  0.0000E+00  0.9000E-02  0.9000E-02
     -8.844  0.0000E+00  0.0000E+00  0.1100E-01  0.1100E-01
     -8.802  0.0000E+00  0.0000E+00  0.1200E-01  0.1200E-01
     -8.761  0.0000E+00  0.0000E+00  0.1300E-01  0.1300E-01
     -8.719  0.0000E+00  0.0000E+00  0.1500E-01  0.1500E-01
     -8.677  0.0000E+00  0.0000E+00  0.1700E-01  0.1700E-01
     -8.635  0.0000E+00  0.0000E+00  0.2000E-01  0.1900E-01
     -8.593  0.0000E+00  0.0000E+00  0.2300E-01  0.2200E-01
     -8.552  0.0000E+00  0.0000E+00  0.2400E-01  0.2400E-01
     -8.510  0.0000E+00  0.0000E+00  0.3000E-01  0.2900E-01
     -8.468  0.0000E+00  0.0000E+00  0.3200E-01  0.3200E-01
     -8.426  0.0000E+00  0.0000E+00  0.3400E-01  0.3400E-01
     -8.384  0.0000E+00  0.0000E+00  0.3800E-01  0.3700E-01
     -8.343  0.0000E+00  0.0000E+00  0.4200E-01  0.4100E-01
     -8.301  0.2392E-01  0.0000E+00  0.4500E-01  0.4400E-01
     -8.259  0.0000E+00  0.0000E+00  0.4800E-01  0.4700E-01
     -8.217  0.0000E+00  0.1117E-01  0.5100E-01  0.5047E-01
     -8.175  0.0000E+00  0.0000E+00  0.5400E-01  0.5400E-01
     -8.134  0.0000E+00  0.0000E+00  0.5800E-01  0.5700E-01
     -8.092  0.0000E+00  0.0000E+00  0.6100E-01  0.6000E-01
     -8.050  0.0000E+00  0.0000E+00  0.6400E-01  0.6400E-01
     -8.008  0.0000E+00  0.0000E+00  0.6700E-01  0.6700E-01
     -7.966  0.0000E+00  0.0000E+00  0.7100E-01  0.7000E-01
     -7.925  0.0000E+00  0.0000E+00  0.7300E-01  0.7300E-01
     -7.883  0.0000E+00  0.0000E+00  0.7700E-01  0.7700E-01
     -7.841  0.0000E+00  0.0000E+00  0.8000E-01  0.8000E-01
     -7.799  0.0000E+00  0.0000E+00  0.8300E-01  0.8200E-01
     -7.757  0.0000E+00  0.5738E-04  0.8600E-01  0.8500E-01
     -7.716  0.0000E+00  0.0000E+00  0.8900E-01  0.8800E-01
     -7.674  0.0000E+00  0.0000E+00  0.9200E-01  0.9200E-01
     -7.632  0.0000E+00  0.0000E+00  0.9600E-01  0.9500E-01
     -7.590  0.0000E+00  0.0000E+00  0.9800E-01  0.9800E-01
     -7.548  0.0000E+00  0.0000E+00  0.1020E+00  0.1020E+00
     -7.507  0.0000E+00  0.0000E+00  0.1050E+00  0.1050E+00
     -7.465  0.0000E+00  0.0000E+00  0.1080E+00  0.1080E+00
     -7.423  0.2392E-01  0.0000E+00  0.1120E+00  0.1110E+00
     -7.381  0.0000E+00  0.0000E+00  0.1150E+00  0.1150E+00
     -7.339  0.5483E-14  0.0000E+00  0.1180E+00  0.1180E+00
     -7.298  0.0000E+00  0.0000E+00  0.1220E+00  0.1220E+00
     -7.256  0.0000E+00  0.0000E+00  0.1260E+00  0.1260E+00
     -7.214  0.0000E+00  0.2392E-01  0.1300E+00  0.1300E+00
     -7.172  0.2392E-01  0.2392E-01  0.1340E+00  0.1330E+00
     -7.130  0.0000E+00  0.0000E+00  0.1360E+00  0.1350E+00
     -7.089  0.0000E+00  0.0000E+00  0.1390E+00  0.1390E+00
     -7.047  0.0000E+00  0.0000E+00  0.1410E+00  0.1410E+00
     -7.005  0.0000E+00  0.2392E-01  0.1450E+00  0.1450E+00
     -6.963  0.0000E+00  0.0000E+00  0.1480E+00  0.1480E+00
     -6.921  0.0000E+00  0.0000E+00  0.1520E+00  0.1510E+00
     -6.880  0.0000E+00  0.0000E+00  0.1550E+00  0.1540E+00
     -6.838  0.0000E+00  0.0000E+00  0.1580E+00  0.1560E+00
     -6.796  0.0000E+00  0.0000E+00  0.1620E+00  0.1620E+00
     -6.754  0.0000E+00  0.0000E+00  0.1660E+00  0.1660E+00
     -6.712  0.2392E-01  0.0000E+00  0.1710E+00  0.1700E+00
     -6.671  0.0000E+00  0.0000E+00  0.1750E+00  0.1750E+00
     -6.629  0.7057E-03  0.0000E+00  0.1800E+00  0.1800E+00
     -6.587  0.0000E+00  0.0000E+00  0.1860E+00  0.1850E+00
     -6.545  0.0000E+00  0.2392E-01  0.1920E+00  0.1920E+00
     -6.503  0.0000E+00  0.0000E+00  0.1970E+00  0.1970E+00
     -6.462  0.0000E+00  0.0000E+00  0.2030E+00  0.2020E+00
     -6.420  0.0000E+00  0.0000E+00  0.2080E+00  0.2070E+00
     -6.378  0.3205E-02  0.0000E+00  0.2131E+00  0.2130E+00
     -6.336  0.0000E+00  0.0000E+00  0.2190E+00  0.2180E+00
     -6.294  0.0000E+00  0.0000E+00  0.2240E+00  0.2230E+00
     -6.253  0.0000E+00  0.0000E+00  0.2280E+00  0.2270E+00
     -6.211  0.0000E+00  0.0000E+00  0.2320E+00  0.2310E+00
     -6.169  0.0000E+00  0.0000E+00  0.2380E+00  0.2360E+00
     -6.127  0.2392E-01  0.0000E+00  0.2410E+00  0.2400E+00
     -6.085  0.0000E+00  0.8830E-05  0.2450E+00  0.2440E+00
     -6.044  0.0000E+00  0.0000E+00  0.2470E+00  0.2470E+00
     -6.002  0.0000E+00  0.0000E+00  0.2490E+00  0.2490E+00
     -5.960  0.0000E+00  0.0000E+00  0.2510E+00  0.2500E+00
     -5.918  0.0000E+00  0.0000E+00  0.2520E+00  0.2520E+00
     -5.876  0.0000E+00  0.0000E+00  0.2520E+00  0.2520E+00
     -5.835  0.0000E+00  0.0000E+00  0.2520E+00  0.2520E+00
     -5.793  0.0000E+00  0.0000E+00  0.2540E+00  0.2530E+00
     -5.751  0.0000E+00  0.0000E+00  0.2540E+00  0.2540E+00
     -5.709  0.0000E+00  0.0000E+00  0.2540E+00  0.2540E+00
     -5.667  0.0000E+00  0.0000E+00  0.2540E+00  0.2540E+00
     -5.626  0.0000E+00  0.0000E+00  0.2540E+00  0.2540E+00
     -5.584  0.0000E+00  0.0000E+00  0.2540E+00  0.2540E+00
     -5.542  0.0000E+00  0.0000E+00  0.2540E+00  0.2540E+00
     -5.500  0.0000E+00  0.0000E+00  0.2540E+00  0.2540E+00
     -5.458  0.0000E+00  0.0000E+00  0.2540E+00  0.2540E+00
     -5.417  0.0000E+00  0.0000E+00  0.2540E+00  0.2540E+00
     -5.375  0.0000E+00  0.0000E+00  0.2550E+00  0.2550E+00
     -5.333  0.0000E+00  0.0000E+00  0.2550E+00  0.2550E+00
     -5.291  0.0000E+00  0.0000E+00  0.2550E+00  0.2550E+00
     -5.249  0.0000E+00  0.0000E+00  0.2550E+00  0.2550E+00
     -5.208  0.0000E+00  0.0000E+00  0.2560E+00  0.2560E+00
     -5.166  0.0000E+00  0.0000E+00  0.2560E+00  0.2560E+00
     -5.124  0.0000E+00  0.0000E+00  0.2560E+00  0.2560E+00
     -5.082  0.2392E-01  0.0000E+00  0.2570E+00  0.2560E+00
     -5.040  0.0000E+00  0.0000E+00  0.2570E+00  0.2570E+00
     -4.999  0.0000E+00  0.0000E+00  0.2570E+00  0.2570E+00
     -4.957  0.0000E+00  0.0000E+00  0.2580E+00  0.2580E+00
     -4.915  0.0000E+00  0.0000E+00  0.2580E+00  0.2580E+00
     -4.873  0.0000E+00  0.0000E+00  0.2580E+00  0.2580E+00
     -4.831  0.0000E+00  0.0000E+00  0.2580E+00  0.2580E+00
     -4.789  0.0000E+00  0.0000E+00  0.2580E+00  0.2580E+00
     -4.748  0.0000E+00  0.0000E+00  0.2590E+00  0.2590E+00
     -4.706  0.0000E+00  0.0000E+00  0.2600E+00  0.2590E+00
     -4.664  0.0000E+00  0.0000E+00  0.2600E+00  0.2600E+00
     -4.622  0.0000E+00  0.0000E+00  0.2600E+00  0.2600E+00
     -4.580  0.0000E+00  0.0000E+00  0.2600E+00  0.2600E+00
     -4.539  0.0000E+00  0.0000E+00  0.2600E+00  0.2600E+00
     -4.497  0.0000E+00  0.0000E+00  0.2600E+00  0.2600E+00
     -4.455  0.0000E+00  0.0000E+00  0.2600E+00  0.2600E+00
     -4.413  0.0000E+00  0.0000E+00  0.2600E+00  0.2600E+00
     -4.371  0.0000E+00  0.0000E+00  0.2610E+00  0.2610E+00
     -4.330  0.0000E+00  0.0000E+00  0.2610E+00  0.2610E+00
     -4.288  0.0000E+00  0.0000E+00  0.2620E+00  0.2620E+00
     -4.246  0.0000E+00  0.0000E+00  0.2620E+00  0.2620E+00
     -4.204  0.0000E+00  0.0000E+00  0.2620E+00  0.2620E+00
     -4.162  0.0000E+00  0.0000E+00  0.2630E+00  0.2630E+00
     -4.121  0.0000E+00  0.0000E+00  0.2630E+00  0.2630E+00
     -4.079  0.0000E+00  0.0000E+00  0.2630E+00  0.2630E+00
     -4.037  0.0000E+00  0.0000E+00  0.2630E+00  0.2630E+00
     -3.995  0.0000E+00  0.0000E+00  0.2630E+00  0.2630E+00
     -3.953  0.0000E+00  0.0000E+00  0.2630E+00  0.2630E+00
     -3.912  0.0000E+00  0.0000E+00  0.2640E+00  0.2630E+00
     -3.870  0.0000E+00  0.0000E+00  0.2650E+00  0.2640E+00
     -3.828  0.0000E+00  0.0000E+00  0.2650E+00  0.2650E+00
     -3.786  0.0000E+00  0.0000E+00  0.2650E+00  0.2650E+00
     -3.744  0.0000E+00  0.0000E+00  0.2650E+00  0.2650E+00
     -3.703  0.0000E+00  0.0000E+00  0.2660E+00  0.2660E+00
     -3.661  0.0000E+00  0.0000E+00  0.2660E+00  0.2660E+00
     -3.619  0.0000E+00  0.0000E+00  0.2660E+00  0.2660E+00
     -3.577  0.0000E+00  0.0000E+00  0.2670E+00  0.2670E+00
     -3.535  0.0000E+00  0.0000E+00  0.2670E+00  0.2670E+00
     -3.494  0.0000E+00  0.0000E+00  0.2680E+00  0.2670E+00
     -3.452  0.0000E+00  0.0000E+00  0.2680E+00  0.2680E+00
     -3.410  0.0000E+00  0.0000E+00  0.2680E+00  0.2680E+00
     -3.368  0.0000E+00  0.0000E+00  0.2680E+00  0.2680E+00
     -3.326  0.0000E+00  0.0000E+00  0.2690E+00  0.2680E+00
     -3.285  0.0000E+00  0.0000E+00  0.2690E+00  0.2690E+00
     -3.243  0.0000E+00  0.0000E+00  0.2700E+00  0.2690E+00
     -3.201  0.0000E+00  0.0000E+00  0.2700E+00  0.2690E+00
     -3.159  0.0000E+00  0.0000E+00  0.2700E+00  0.2700E+00
     -3.117  0.0000E+00  0.0000E+00  0.2700E+00  0.2700E+00
     -3.076  0.0000E+00  0.0000E+00  0.2700E+00  0.2700E+00
     -3.034  0.0000E+00  0.0000E+00  0.2700E+00  0.2700E+00
     -2.992  0.0000E+00  0.0000E+00  0.2710E+00  0.2700E+00
     -2.950  0.0000E+00  0.0000E+00  0.2710E+00  0.2710E+00
     -2.908  0.0000E+00  0.0000E+00  0.2710E+00  0.2710E+00
     -2.867  0.0000E+00  0.0000E+00  0.2720E+00  0.2720E+00
     -2.825  0.0000E+00  0.0000E+00  0.2720E+00  0.2720E+00
     -2.783  0.0000E+00  0.0000E+00  0.2720E+00  0.2720E+00
     -2.741  0.0000E+00  0.0000E+00  0.2720E+00  0.2720E+00
     -2.699  0.0000E+00  0.0000E+00  0.2730E+00  0.2720E+00
     -2.658  0.0000E+00  0.0000E+00  0.2730E+00  0.2730E+00
     -2.616  0.0000E+00  0.0000E+00  0.2740E+00  0.2730E+00
     -2.574  0.0000E+00  0.0000E+00  0.2740E+00  0.2740E+00
     -2.532  0.0000E+00  0.0000E+00  0.2740E+00  0.2740E+00
     -2.490  0.0000E+00  0.0000E+00  0.2740E+00  0.2740E+00
     -2.449  0.0000E+00  0.0000E+00  0.2750E+00  0.2740E+00
     -2.407  0.0000E+00  0.0000E+00  0.2760E+00  0.2750E+00
     -2.365  0.0000E+00  0.0000E+00  0.2760E+00  0.2760E+00
     -2.323  0.0000E+00  0.0000E+00  0.2760E+00  0.2760E+00
     -2.281  0.0000E+00  0.0000E+00  0.2770E+00  0.2770E+00
     -2.240  0.0000E+00  0.0000E+00  0.2770E+00  0.2770E+00
     -2.198  0.0000E+00  0.0000E+00  0.2790E+00  0.2780E+00
     -2.156  0.0000E+00  0.0000E+00  0.2790E+00  0.2790E+00
     -2.114  0.0000E+00  0.0000E+00  0.2790E+00  0.2790E+00
     -2.072  0.0000E+00  0.0000E+00  0.2800E+00  0.2790E+00
     -2.031  0.0000E+00  0.0000E+00  0.2810E+00  0.2810E+00
     -1.989  0.0000E+00  0.0000E+00  0.2820E+00  0.2810E+00
     -1.947  0.0000E+00  0.0000E+00  0.2820E+00  0.2820E+00
     -1.905  0.0000E+00  0.0000E+00  0.2830E+00  0.2820E+00
     -1.863  0.0000E+00  0.0000E+00  0.2830E+00  0.2830E+00
     -1.822  0.0000E+00  0.0000E+00  0.2840E+00  0.2840E+00
     -1.780  0.0000E+00  0.0000E+00  0.2840E+00  0.2840E+00
     -1.738  0.0000E+00  0.0000E+00  0.2840E+00  0.2840E+00
     -1.696  0.0000E+00  0.0000E+00  0.2850E+00  0.2850E+00
     -1.654  0.0000E+00  0.0000E+00  0.2850E+00  0.2850E+00
     -1.613  0.0000E+00  0.0000E+00  0.2850E+00  0.2850E+00
     -1.571  0.0000E+00  0.0000E+00  0.2860E+00  0.2850E+00
     -1.529  0.0000E+00  0.0000E+00  0.2860E+00  0.2860E+00
     -1.487  0.0000E+00  0.0000E+00  0.2870E+00  0.2860E+00
     -1.445  0.0000E+00  0.0000E+00  0.2870E+00  0.2870E+00
     -1.404  0.0000E+00  0.0000E+00  0.2880E+00  0.2870E+00
     -1.362  0.0000E+00  0.0000E+00  0.2880E+00  0.2880E+00
     -1.320  0.0000E+00  0.0000E+00  0.2880E+00  0.2880E+00
     -1.278  0.0000E+00  0.0000E+00  0.2880E+00  0.2880E+00
     -1.236  0.0000E+00  0.0000E+00  0.2900E+00  0.2900E+00
     -1.195  0.0000E+00  0.0000E+00  0.2900E+00  0.2900E+00
     -1.153  0.0000E+00  0.0000E+00  0.2900E+00  0.2900E+00
     -1.111  0.0000E+00  0.0000E+00  0.2910E+00  0.2910E+00
     -1.069  0.0000E+00  0.0000E+00  0.2920E+00  0.2910E+00
     -1.027  0.0000E+00  0.0000E+00  0.2920E+00  0.2920E+00
     -0.986  0.0000E+00  0.0000E+00  0.2920E+00  0.2920E+00
     -0.944  0.0000E+00  0.0000E+00  0.2930E+00  0.2930E+00
     -0.902  0.0000E+00  0.0000E+00  0.2930E+00  0.2930E+00
     -0.860  0.0000E+00  0.0000E+00  0.2930E+00  0.2930E+00
     -0.818  0.0000E+00  0.0000E+00  0.2940E+00  0.2930E+00
     -0.777  0.0000E+00  0.0000E+00  0.2950E+00  0.2950E+00
     -0.735  0.0000E+00  0.0000E+00  0.2960E+00  0.2950E+00
     -0.693  0.0000E+00  0.0000E+00  0.2960E+00  0.2960E+00
     -0.651  0.0000E+00  0.0000E+00  0.2970E+00  0.2960E+00
     -0.609  0.0000E+00  0.0000E+00  0.2980E+00  0.2980E+00
     -0.568  0.0000E+00  0.0000E+00  0.2980E+00  0.2980E+00
     -0.526  0.0000E+00  0.0000E+00  0.2990E+00  0.2990E+00
     -0.484  0.0000E+00  0.0000E+00  0.3000E+00  0.2990E+00
     -0.442  0.0000E+00  0.0000E+00  0.3010E+00  0.3010E+00
     -0.400  0.0000E+00  0.0000E+00  0.3010E+00  0.3010E+00
     -0.358  0.0000E+00  0.0000E+00  0.3020E+00  0.3010E+00
     -0.317  0.0000E+00  0.0000E+00  0.3020E+00  0.3020E+00
     -0.275  0.0000E+00  0.0000E+00  0.3030E+00  0.3020E+00
     -0.233  0.0000E+00  0.0000E+00  0.3030E+00  0.3030E+00
     -0.191  0.0000E+00  0.0000E+00  0.3030E+00  0.3030E+00
     -0.149  0.0000E+00  0.0000E+00  0.3040E+00  0.3030E+00
     -0.108  0.0000E+00  0.0000E+00  0.3040E+00  0.3040E+00
     -0.066  0.0000E+00  0.0000E+00  0.3050E+00  0.3040E+00
     -0.024  0.0000E+00  0.0000E+00  0.3050E+00  0.3050E+00
      0.018  0.0000E+00  0.0000E+00  0.3050E+00  0.3050E+00
      0.060  0.0000E+00  0.0000E+00  0.3050E+00  0.3050E+00
      0.101  0.0000E+00  0.2392E-01  0.3060E+00  0.3060E+00
      0.143  0.0000E+00  0.0000E+00  0.3070E+00  0.3070E+00
      0.185  0.0000E+00  0.0000E+00  0.3070E+00  0.3070E+00
      0.227  0.0000E+00  0.0000E+00  0.3070E+00  0.3070E+00
      0.269  0.0000E+00  0.0000E+00  0.3080E+00  0.3070E+00
      0.310  0.0000E+00  0.0000E+00  0.3080E+00  0.3080E+00
      0.352  0.0000E+00  0.0000E+00  0.3090E+00  0.3090E+00
      0.394  0.0000E+00  0.0000E+00  0.3100E+00  0.3090E+00
      0.436  0.0000E+00  0.0000E+00  0.3100E+00  0.3100E+00
      0.478  0.0000E+00  0.0000E+00  0.3110E+00  0.3110E+00
      0.519  0.0000E+00  0.0000E+00  0.3120E+00  0.3120E+00
      0.561  0.0000E+00  0.0000E+00  0.3130E+00  0.3120E+00
      0.603  0.0000E+00  0.0000E+00  0.3130E+00  0.3130E+00
      0.645  0.0000E+00  0.0000E+00  0.3130E+00  0.3130E+00
      0.687  0.0000E+00  0.0000E+00  0.3140E+00  0.3140E+00
      0.728  0.0000E+00  0.0000E+00  0.3140E+00  0.3140E+00
      0.770  0.0000E+00  0.0000E+00  0.3160E+00  0.3150E+00
      0.812  0.0000E+00  0.0000E+00  0.3170E+00  0.3160E+00
      0.854  0.0000E+00  0.0000E+00  0.3170E+00  0.3170E+00
      0.896  0.0000E+00  0.0000E+00  0.3180E+00  0.3180E+00
      0.937  0.0000E+00  0.0000E+00  0.3190E+00  0.3180E+00
      0.979  0.0000E+00  0.0000E+00  0.3210E+00  0.3190E+00
      1.021  0.0000E+00  0.0000E+00  0.3230E+00  0.3230E+00
      1.063  0.0000E+00  0.0000E+00  0.3230E+00  0.3230E+00
      1.105  0.0000E+00  0.2371E-01  0.3250E+00  0.3250E+00
      1.146  0.2348E-01  0.0000E+00  0.3280E+00  0.3270E+00
      1.188  0.0000E+00  0.0000E+00  0.3300E+00  0.3290E+00
      1.230  0.0000E+00  0.0000E+00  0.3320E+00  0.3320E+00
      1.272  0.0000E+00  0.0000E+00  0.3340E+00  0.3340E+00
      1.314  0.0000E+00  0.0000E+00  0.3350E+00  0.3350E+00
      1.355  0.0000E+00  0.0000E+00  0.3370E+00  0.3360E+00
      1.397  0.0000E+00  0.2392E-01  0.3390E+00  0.3390E+00
      1.439  0.0000E+00  0.2390E-01  0.3410E+00  0.3400E+00
      1.481  0.0000E+00  0.0000E+00  0.3430E+00  0.3420E+00
      1.523  0.0000E+00  0.2392E-01  0.3460E+00  0.3450E+00
      1.564  0.9394E-06  0.0000E+00  0.3470E+00  0.3470E+00
      1.606  0.0000E+00  0.0000E+00  0.3480E+00  0.3480E+00
      1.648  0.0000E+00  0.0000E+00  0.3480E+00  0.3480E+00
      1.690  0.0000E+00  0.0000E+00  0.3480E+00  0.3480E+00
      1.732  0.0000E+00  0.0000E+00  0.3480E+00  0.3480E+00
      1.773  0.0000E+00  0.0000E+00  0.3480E+00  0.3480E+00
      1.815  0.0000E+00  0.0000E+00  0.3480E+00  0.3480E+00
      1.857  0.0000E+00  0.0000E+00  0.3480E+00  0.3480E+00
      1.899  0.0000E+00  0.0000E+00  0.3480E+00  0.3480E+00
      1.941  0.0000E+00  0.0000E+00  0.3480E+00  0.3480E+00
      1.982  0.0000E+00  0.0000E+00  0.3480E+00  0.3480E+00
      2.024  0.0000E+00  0.0000E+00  0.3480E+00  0.3480E+00
      2.066  0.0000E+00  0.0000E+00  0.3480E+00  0.3480E+00
      2.108  0.0000E+00  0.0000E+00  0.3480E+00  0.3480E+00
      2.150  0.0000E+00  0.0000E+00  0.3480E+00  0.3480E+00
