unknown system                          
           1
    23.632228    0.000000    0.000000
     0.000000   23.632228    0.000000
     0.000000    0.000000   23.632228
   Ag
  52
Direct configuration=     1
   0.66141221  0.46337369  0.39928847
   0.65075874  0.57766401  0.43090130
   0.72847804  0.51431025  0.47744030
   0.59122904  0.53962333  0.33177501
   0.61365927  0.65861770  0.48831424
   0.56341371  0.42508785  0.33372184
   0.53656090  0.62527358  0.40227069
   0.68858243  0.59739157  0.54411700
   0.69243821  0.41158345  0.49236803
   0.50936373  0.49563720  0.26788910
   0.50105303  0.60061834  0.28954918
   0.62702861  0.50235500  0.53470364
   0.71762368  0.47989742  0.58519446
   0.58584089  0.36935839  0.45864967
   0.53506234  0.56944850  0.50331812
   0.64299432  0.55439940  0.65296218
   0.46959877  0.52915380  0.37321615
   0.50960250  0.33550253  0.37446957
   0.58451930  0.63613080  0.59508308
   0.51071708  0.68512646  0.52717528
   0.56329834  0.48399753  0.43463900
   0.42605994  0.63642412  0.35053905
   0.44594793  0.41622015  0.31895786
   0.40039484  0.53442822  0.29167547
   0.63758176  0.38092529  0.57966221
   0.63273803  0.45073145  0.66003116
   0.40039985  0.34583671  0.39881013
   0.55218452  0.31711352  0.56528526
   0.42943998  0.63203733  0.46724610
   0.53065774  0.42616478  0.54253688
   0.47664218  0.31399842  0.48211991
   0.55143971  0.60862288  0.69990435
   0.39997985  0.69351045  0.56111546
   0.53613047  0.51892330  0.62400767
   0.47074402  0.41961738  0.44137415
   0.45435447  0.59688342  0.58145010
   0.35318873  0.57051205  0.39827772
   0.53787625  0.39435579  0.65471624
   0.47363516  0.67724978  0.65284098
   0.36814057  0.46013328  0.39455164
   0.42308232  0.52102054  0.47437220
   0.54803278  0.50015892  0.72544735
   0.44567329  0.35857040  0.59235982
   0.42686892  0.47987558  0.57293022
   0.37878339  0.39225043  0.50498790
   0.34190946  0.59513275  0.54179502
   0.44563050  0.56788965  0.70075256
   0.36845840  0.63760170  0.64731922
   0.43808853  0.45314624  0.68029657
   0.32123853  0.48634418  0.52735458
   0.34748497  0.52855916  0.64060326
   0.34652396  0.41712785  0.61429473
Direct configuration=     2
   0.66178638  0.46323093  0.39868364
   0.65066058  0.57743595  0.43042996
   0.72907989  0.51446651  0.47723812
   0.59153187  0.53975458  0.33190796
   0.61354729  0.65925713  0.48825412
   0.56371090  0.42492814  0.33375993
   0.53663889  0.62537279  0.40221119
   0.68878161  0.59754225  0.54443767
   0.69267173  0.41118431  0.49215002
   0.50931012  0.49527377  0.26729553
   0.50169155  0.60099467  0.28895234
   0.62635383  0.50229954  0.53461324
   0.71815186  0.47978048  0.58571135
   0.58600871  0.36920855  0.45854630
   0.53501589  0.56935168  0.50344300
   0.64334867  0.55505502  0.65294949
   0.46997617  0.52896789  0.37356610
   0.50985819  0.33512362  0.37423862
   0.58463237  0.63612625  0.59526842
   0.51064069  0.68546279  0.52713048
   0.56296053  0.48421915  0.43481264
   0.42565054  0.63711389  0.35082367
   0.44586644  0.41623018  0.31876903
   0.39991753  0.53430609  0.29133359
   0.63772948  0.38076295  0.57966265
   0.63292543  0.45044508  0.66056011
   0.39985356  0.34551203  0.39868590
   0.55205853  0.31659392  0.56535143
   0.42937332  0.63229277  0.46700928
   0.53063740  0.42656583  0.54249297
   0.47651918  0.31376476  0.48228248
   0.55159768  0.60891330  0.70014636
   0.39989552  0.69420423  0.56074215
   0.53585201  0.51894649  0.62309808
   0.47084370  0.41997525  0.44133641
   0.45442933  0.59636729  0.58134259
   0.35270941  0.57062505  0.39841579
   0.53773686  0.39424656  0.65493623
   0.47393895  0.67770380  0.65303277
   0.36793595  0.45987997  0.39446600
   0.42314338  0.52101806  0.47444851
   0.54802354  0.49974223  0.72627671
   0.44561615  0.35844844  0.59246388
   0.42741345  0.47988984  0.57308526
   0.37871111  0.39199018  0.50480710
   0.34177216  0.59522850  0.54158240
   0.44554377  0.56780481  0.70086111
   0.36794916  0.63760789  0.64788813
   0.43817175  0.45304252  0.68062968
   0.32087377  0.48642935  0.52712587
   0.34734743  0.52851208  0.64077020
   0.34615195  0.41671719  0.61463561
Direct configuration=     3
   0.66290890  0.46280265  0.39686916
   0.65036613  0.57675175  0.42901594
   0.73088546  0.51493529  0.47663160
   0.59244037  0.54014830  0.33230679
   0.61321136  0.66117544  0.48807377
   0.56460249  0.42444903  0.33387418
   0.53687286  0.62567044  0.40203269
   0.68937915  0.59799430  0.54539969
   0.69337230  0.40998689  0.49149599
   0.50914930  0.49418349  0.26551483
   0.50360709  0.60212369  0.28716180
   0.62432950  0.50213316  0.53434206
   0.71973640  0.47942966  0.58726205
   0.58651218  0.36875902  0.45823620
   0.53487652  0.56906123  0.50381761
   0.64441170  0.55702189  0.65291143
   0.47110836  0.52841016  0.37461595
   0.51062527  0.33398690  0.37354578
   0.58497157  0.63611262  0.59582445
   0.51041152  0.68647176  0.52699609
   0.56194709  0.48488402  0.43533354
   0.42442233  0.63918318  0.35167752
   0.44562198  0.41626027  0.31820252
   0.39848560  0.53393969  0.29030794
   0.63817263  0.38027592  0.57966395
   0.63348765  0.44958596  0.66214695
   0.39821470  0.34453799  0.39831322
   0.55168055  0.31503512  0.56554997
   0.42917333  0.63305910  0.46629881
   0.53057639  0.42776898  0.54236125
   0.47615017  0.31306378  0.48277021
   0.55207158  0.60978458  0.70087237
   0.39964253  0.69628556  0.55962222
   0.53501662  0.51901606  0.62036930
   0.47114274  0.42104885  0.44122320
   0.45465392  0.59481889  0.58102005
   0.35127145  0.57096404  0.39883001
   0.53731869  0.39391886  0.65559619
   0.47485035  0.67906585  0.65360817
   0.36732211  0.45912006  0.39420909
   0.42332656  0.52101060  0.47467743
   0.54799580  0.49849216  0.72876478
   0.44544472  0.35808255  0.59277607
   0.42904705  0.47993263  0.57355040
   0.37849426  0.39120943  0.50426469
   0.34136026  0.59551576  0.54094454
   0.44528359  0.56755030  0.70118677
   0.36642143  0.63762645  0.64959487
   0.43842143  0.45273136  0.68162899
   0.31977947  0.48668486  0.52643975
   0.34693480  0.52837084  0.64127100
   0.34503592  0.41548523  0.61565827
Direct configuration=     4
   0.66515394  0.46194609  0.39324021
   0.64977722  0.57538336  0.42618790
   0.73449659  0.51587285  0.47541855
   0.59425737  0.54093575  0.33310445
   0.61253950  0.66501206  0.48771306
   0.56638565  0.42349079  0.33410269
   0.53734081  0.62626573  0.40167569
   0.69057424  0.59889839  0.54732373
   0.69477344  0.40759204  0.49018792
   0.50882765  0.49200293  0.26195342
   0.50743817  0.60438171  0.28358073
   0.62028085  0.50180039  0.53379968
   0.72290548  0.47872801  0.59036345
   0.58751913  0.36785996  0.45761600
   0.53459779  0.56848033  0.50456685
   0.64653776  0.56095562  0.65283529
   0.47337276  0.52729469  0.37671566
   0.51215944  0.33171344  0.37216008
   0.58564997  0.63608536  0.59693651
   0.50995319  0.68848971  0.52672731
   0.55992021  0.48621377  0.43637535
   0.42196592  0.64332177  0.35338522
   0.44513307  0.41632046  0.31706950
   0.39562175  0.53320688  0.28825664
   0.63905895  0.37930186  0.57966656
   0.63461209  0.44786771  0.66532064
   0.39493698  0.34258990  0.39756787
   0.55092459  0.31191751  0.56594704
   0.42877336  0.63459176  0.46487789
   0.53045436  0.43017526  0.54209781
   0.47541216  0.31166183  0.48374567
   0.55301939  0.61152713  0.70232439
   0.39913656  0.70044823  0.55738236
   0.53334585  0.51915520  0.61491175
   0.47174084  0.42319605  0.44099678
   0.45510309  0.59172209  0.58037497
   0.34839553  0.57164202  0.39965845
   0.53648234  0.39326345  0.65691610
   0.47667313  0.68178995  0.65475895
   0.36609442  0.45760023  0.39369527
   0.42369291  0.52099570  0.47513526
   0.54794033  0.49599201  0.73374091
   0.44510187  0.35735078  0.59340043
   0.43231423  0.48001822  0.57448067
   0.37806056  0.38964792  0.50317986
   0.34053648  0.59609027  0.53966883
   0.44476322  0.56704127  0.70183809
   0.36336598  0.63766357  0.65300835
   0.43892079  0.45210904  0.68362761
   0.31759086  0.48719587  0.52506752
   0.34610955  0.52808836  0.64227261
   0.34280386  0.41302130  0.61770358
Direct configuration=     5
   0.66468736  0.46212411  0.39399440
   0.64989961  0.57566775  0.42677564
   0.73374611  0.51567800  0.47567065
   0.59387975  0.54077210  0.33293867
   0.61267913  0.66421471  0.48778803
   0.56601506  0.42368993  0.33405520
   0.53724356  0.62614201  0.40174989
   0.69032587  0.59871050  0.54692386
   0.69448224  0.40808975  0.49045977
   0.50889449  0.49245611  0.26269357
   0.50664197  0.60391243  0.28432496
   0.62112226  0.50186955  0.53391240
   0.72224687  0.47887383  0.58971890
   0.58730986  0.36804681  0.45774489
   0.53465571  0.56860106  0.50441114
   0.64609591  0.56013809  0.65285111
   0.47290216  0.52752651  0.37627929
   0.51184060  0.33218593  0.37244807
   0.58550898  0.63609102  0.59670539
   0.51004844  0.68807033  0.52678317
   0.56034145  0.48593741  0.43615884
   0.42247643  0.64246166  0.35303031
   0.44523468  0.41630795  0.31730497
   0.39621693  0.53335918  0.28868295
   0.63887475  0.37950429  0.57966602
   0.63437840  0.44822481  0.66466107
   0.39561817  0.34299476  0.39772277
   0.55108170  0.31256543  0.56586452
   0.42885648  0.63427323  0.46517319
   0.53047972  0.42967517  0.54215256
   0.47556554  0.31195319  0.48354294
   0.55282241  0.61116498  0.70202262
   0.39924172  0.69958312  0.55784786
   0.53369308  0.51912628  0.61604597
   0.47161654  0.42274981  0.44104383
   0.45500974  0.59236569  0.58050904
   0.34899322  0.57150112  0.39948628
   0.53665616  0.39339966  0.65664179
   0.47629431  0.68122381  0.65451979
   0.36634956  0.45791609  0.39380205
   0.42361677  0.52099879  0.47504011
   0.54795186  0.49651160  0.73270674
   0.44517312  0.35750286  0.59327067
   0.43163523  0.48000043  0.57428733
   0.37815069  0.38997244  0.50340532
   0.34070768  0.59597087  0.53993395
   0.44487137  0.56714705  0.70170273
   0.36400098  0.63765585  0.65229894
   0.43881701  0.45223838  0.68321225
   0.31804571  0.48708967  0.52535271
   0.34628106  0.52814706  0.64206445
   0.34326774  0.41353336  0.61727851
Direct configuration=     6
   0.66508093  0.46190313  0.39321666
   0.64971218  0.57564140  0.42668636
   0.73434281  0.51573645  0.47560490
   0.59399710  0.54077013  0.33272371
   0.61291323  0.66482377  0.48745830
   0.56649813  0.42361516  0.33408859
   0.53731952  0.62634715  0.40154610
   0.69043035  0.59869528  0.54719630
   0.69505118  0.40794661  0.48993105
   0.50888403  0.49227709  0.26196195
   0.50695107  0.60433863  0.28411515
   0.62183590  0.50158132  0.53421697
   0.72230294  0.47882756  0.59006586
   0.58749140  0.36779561  0.45764154
   0.53447668  0.56925360  0.50442999
   0.64670816  0.56025684  0.65300379
   0.47302982  0.52783153  0.37532878
   0.51180993  0.33161569  0.37231107
   0.58548827  0.63641957  0.59663107
   0.50976604  0.68855652  0.52693279
   0.56114735  0.48607335  0.43590725
   0.42257337  0.64305170  0.35263860
   0.44513633  0.41615767  0.31714678
   0.39601223  0.53321787  0.28882325
   0.63884776  0.37930829  0.57972974
   0.63477037  0.44856011  0.66568916
   0.39519973  0.34258720  0.39747108
   0.55103848  0.31197612  0.56610862
   0.42872057  0.63480557  0.46498465
   0.53063059  0.42943169  0.54201394
   0.47516899  0.31184229  0.48342932
   0.55297039  0.61107174  0.70265967
   0.39904885  0.70011484  0.55783768
   0.53412293  0.51907756  0.61647643
   0.47118906  0.42210207  0.44057111
   0.45422955  0.59300846  0.58075162
   0.34825044  0.57150794  0.39975311
   0.53656420  0.39322544  0.65694411
   0.47638520  0.68162769  0.65434097
   0.36594324  0.45768484  0.39366657
   0.42320680  0.52125387  0.47522816
   0.54776196  0.49621192  0.73284316
   0.44500918  0.35737975  0.59342975
   0.43143784  0.47925370  0.57491694
   0.37798428  0.38966241  0.50330856
   0.34070371  0.59644261  0.53969991
   0.44496230  0.56711979  0.70186958
   0.36370643  0.63807912  0.65263912
   0.43885494  0.45197778  0.68392231
   0.31776003  0.48691906  0.52512353
   0.34615269  0.52774742  0.64211871
   0.34296669  0.41320363  0.61752772
Direct configuration=     7
   0.66626161  0.46124020  0.39088345
   0.64914990  0.57556235  0.42641852
   0.73613292  0.51591182  0.47540765
   0.59434915  0.54076423  0.33207882
   0.61361555  0.66665094  0.48646914
   0.56794734  0.42339083  0.33418874
   0.53754738  0.62696258  0.40093473
   0.69074380  0.59864962  0.54801361
   0.69675797  0.40751718  0.48834490
   0.50885264  0.49174004  0.25976710
   0.50787838  0.60561721  0.28348572
   0.62397680  0.50071663  0.53513069
   0.72247117  0.47868874  0.59110674
   0.58803601  0.36704199  0.45733147
   0.53393958  0.57121124  0.50448655
   0.64854490  0.56061309  0.65346182
   0.47341282  0.52874660  0.37247725
   0.51171791  0.32990500  0.37190009
   0.58542614  0.63740520  0.59640812
   0.50891882  0.69001507  0.52738165
   0.56356507  0.48648114  0.43515250
   0.42286420  0.64482183  0.35146347
   0.44484130  0.41570685  0.31667220
   0.39539813  0.53279395  0.28924414
   0.63876681  0.37872028  0.57992091
   0.63594628  0.44956604  0.66877342
   0.39394440  0.34136451  0.39671601
   0.55090883  0.31020819  0.56684092
   0.42831284  0.63640259  0.46441905
   0.53108322  0.42870126  0.54159811
   0.47397933  0.31150959  0.48308847
   0.55341434  0.61079201  0.70457081
   0.39847026  0.70170999  0.55780715
   0.53541249  0.51893142  0.61776782
   0.46990662  0.42015887  0.43915294
   0.45188897  0.59493676  0.58147936
   0.34602209  0.57152840  0.40055360
   0.53628835  0.39270279  0.65785109
   0.47665785  0.68283932  0.65380454
   0.36472426  0.45699108  0.39326014
   0.42197689  0.52201911  0.47579229
   0.54719225  0.49531289  0.73325241
   0.44451736  0.35701043  0.59390699
   0.43084569  0.47701352  0.57680577
   0.37748503  0.38873229  0.50301829
   0.34069181  0.59785783  0.53899779
   0.44523509  0.56703800  0.70237014
   0.36282277  0.63934893  0.65365966
   0.43896873  0.45119598  0.68605251
   0.31690301  0.48640724  0.52443602
   0.34576758  0.52654851  0.64228149
   0.34206354  0.41221444  0.61827535
Direct configuration=     8
   0.66862299  0.45991435  0.38621703
   0.64802533  0.57540424  0.42588285
   0.73971314  0.51626255  0.47501314
   0.59505326  0.54075243  0.33078905
   0.61502019  0.67030527  0.48449080
   0.57084575  0.42294217  0.33438904
   0.53800310  0.62819342  0.39971198
   0.69137069  0.59855831  0.54964824
   0.70017155  0.40665834  0.48517259
   0.50878986  0.49066593  0.25537738
   0.50973299  0.60817438  0.28222684
   0.62825859  0.49898725  0.53695812
   0.72280761  0.47841109  0.59318851
   0.58912524  0.36553476  0.45671134
   0.53286537  0.57512652  0.50459966
   0.65221840  0.56132560  0.65437788
   0.47417881  0.53057673  0.36677419
   0.51153387  0.32648361  0.37107812
   0.58530189  0.63937647  0.59596221
   0.50722437  0.69293218  0.52827937
   0.56840049  0.48729674  0.43364299
   0.42344586  0.64836207  0.34911319
   0.44425123  0.41480519  0.31572305
   0.39416992  0.53194611  0.29008591
   0.63860489  0.37754426  0.58030324
   0.63829810  0.45157789  0.67494194
   0.39143374  0.33891912  0.39520586
   0.55064952  0.30667233  0.56830551
   0.42749738  0.63959661  0.46328783
   0.53198848  0.42724038  0.54076644
   0.47160000  0.31084418  0.48240676
   0.55430223  0.61023256  0.70839309
   0.39731307  0.70490029  0.55774608
   0.53799160  0.51863913  0.62035060
   0.46734175  0.41627247  0.43631659
   0.44720782  0.59879336  0.58293485
   0.34156541  0.57156933  0.40215458
   0.53573663  0.39165748  0.65966505
   0.47720316  0.68526258  0.65273167
   0.36228630  0.45560357  0.39244727
   0.41951705  0.52354958  0.47692056
   0.54605284  0.49351483  0.73407091
   0.44353371  0.35627178  0.59486146
   0.42966138  0.47253314  0.58058343
   0.37648654  0.38687206  0.50243775
   0.34066801  0.60068827  0.53759356
   0.44578068  0.56687442  0.70337125
   0.36105547  0.64188854  0.65570076
   0.43919630  0.44963237  0.69031290
   0.31518896  0.48538359  0.52306098
   0.34499737  0.52415067  0.64260704
   0.34025725  0.41023604  0.61977061
Direct configuration=     9
   0.66740656  0.46059734  0.38862086
   0.64860463  0.57548569  0.42615879
   0.73786885  0.51608187  0.47521636
   0.59469055  0.54075851  0.33145345
   0.61429661  0.66842280  0.48550991
   0.56935268  0.42317329  0.33428586
   0.53776834  0.62755937  0.40034186
   0.69104776  0.59860534  0.54880619
   0.69841310  0.40710076  0.48680675
   0.50882220  0.49121924  0.25763867
   0.50877762  0.60685709  0.28287533
   0.62605290  0.49987811  0.53601675
   0.72263430  0.47855412  0.59211612
   0.58856414  0.36631119  0.45703079
   0.53341873  0.57310963  0.50454139
   0.65032606  0.56095856  0.65390599
   0.47378422  0.52963397  0.36971202
   0.51162867  0.32824608  0.37150154
   0.58536590  0.63836100  0.59619191
   0.50809724  0.69142948  0.52781692
   0.56590960  0.48687660  0.43442059
   0.42314623  0.64653837  0.35032390
   0.44455519  0.41526966  0.31621199
   0.39480261  0.53238286  0.28965228
   0.63868830  0.37815007  0.58010629
   0.63708660  0.45054152  0.67176433
   0.39272706  0.34017882  0.39598379
   0.55078310  0.30849377  0.56755105
   0.42791745  0.63795126  0.46387056
   0.53152215  0.42799292  0.54119486
   0.47282567  0.31118695  0.48275793
   0.55384485  0.61052075  0.70642411
   0.39790917  0.70325686  0.55777754
   0.53666301  0.51878970  0.61902012
   0.46866300  0.41827449  0.43777769
   0.44961924  0.59680670  0.58218508
   0.34386120  0.57154825  0.40132986
   0.53602084  0.39219596  0.65873062
   0.47692225  0.68401428  0.65328434
   0.36354218  0.45631833  0.39286600
   0.42078420  0.52276119  0.47633935
   0.54663979  0.49444107  0.73364928
   0.44404042  0.35665228  0.59436978
   0.43027146  0.47484113  0.57863743
   0.37700090  0.38783033  0.50273681
   0.34068027  0.59923021  0.53831693
   0.44549963  0.56695868  0.70285554
   0.36196587  0.64058030  0.65464932
   0.43907907  0.45043784  0.68811823
   0.31607192  0.48591090  0.52376931
   0.34539413  0.52538588  0.64243934
   0.34118773  0.41125518  0.61900035
Direct configuration=    10
   0.66852782  0.46048752  0.38781517
   0.64871892  0.57550271  0.42700229
   0.73789852  0.51617696  0.47524060
   0.59438669  0.54058659  0.33041149
   0.61444361  0.66882708  0.48525456
   0.56912420  0.42281997  0.33402228
   0.53773512  0.62787742  0.39994997
   0.69089801  0.59850222  0.54869955
   0.69871841  0.40715249  0.48663376
   0.50891513  0.49130882  0.25733929
   0.50891157  0.60691640  0.28285186
   0.62654103  0.49963531  0.53610991
   0.72265695  0.47837712  0.59241117
   0.58859356  0.36608718  0.45694375
   0.53361194  0.57323064  0.50471192
   0.65071721  0.56136371  0.65408403
   0.47400144  0.52968993  0.36959745
   0.51137533  0.32786106  0.37129273
   0.58530989  0.63850456  0.59650618
   0.50824443  0.69204260  0.52807863
   0.56552508  0.48674138  0.43482019
   0.42327448  0.64633330  0.34977006
   0.44481797  0.41513184  0.31615062
   0.39443431  0.53217858  0.29004621
   0.63868216  0.37906209  0.58026512
   0.63736101  0.45027134  0.67254227
   0.39233511  0.33956794  0.39538240
   0.55043015  0.30813811  0.56774383
   0.42764588  0.63859476  0.46331673
   0.53166672  0.42753746  0.54082089
   0.47250434  0.31095403  0.48288286
   0.55409349  0.61021713  0.70662675
   0.39730051  0.70386289  0.55828714
   0.53692523  0.51914220  0.61957991
   0.46933842  0.41897585  0.43690392
   0.44900554  0.59673606  0.58266052
   0.34362988  0.57183276  0.40157031
   0.53664835  0.39220146  0.65878747
   0.47718888  0.68415200  0.65301474
   0.36324270  0.45647808  0.39284656
   0.42091708  0.52250719  0.47632719
   0.54604847  0.49415778  0.73351080
   0.44399788  0.35626332  0.59446752
   0.43021455  0.47473561  0.57845566
   0.37656511  0.38750662  0.50296543
   0.34036950  0.59953706  0.53794704
   0.44555882  0.56707705  0.70272440
   0.36200612  0.64071664  0.65466957
   0.43884174  0.45004714  0.68945670
   0.31621823  0.48586732  0.52367641
   0.34561737  0.52562902  0.64240161
   0.34081127  0.41081229  0.61908467
Direct configuration=    11
   0.67132247  0.46021380  0.38580703
   0.64900379  0.57554513  0.42910465
   0.73797248  0.51641395  0.47530100
   0.59362932  0.54015808  0.32781447
   0.61480997  0.66983471  0.48461812
   0.56855473  0.42193935  0.33336535
   0.53765233  0.62867013  0.39897321
   0.69052479  0.59824520  0.54843377
   0.69947936  0.40728143  0.48620258
   0.50914676  0.49153207  0.25659310
   0.50924543  0.60706420  0.28279337
   0.62775766  0.49903015  0.53634211
   0.72271339  0.47793598  0.59314655
   0.58866689  0.36552884  0.45672680
   0.53409348  0.57353225  0.50513695
   0.65169214  0.56237350  0.65452777
   0.47454285  0.52982942  0.36931187
   0.51074389  0.32690141  0.37077229
   0.58517029  0.63886235  0.59728945
   0.50861129  0.69357077  0.52873092
   0.56456668  0.48640437  0.43581618
   0.42359413  0.64582217  0.34838967
   0.44547292  0.41478832  0.31599765
   0.39351634  0.53166943  0.29102803
   0.63866687  0.38133525  0.58066098
   0.63804498  0.44959795  0.67448124
   0.39135821  0.33804538  0.39388348
   0.54955046  0.30725167  0.56822432
   0.42696900  0.64019863  0.46193636
   0.53202705  0.42640224  0.53988880
   0.47170346  0.31037349  0.48319425
   0.55471321  0.60946036  0.70713181
   0.39578348  0.70537336  0.55955726
   0.53757878  0.52002080  0.62097515
   0.47102185  0.42072394  0.43472612
   0.44747596  0.59656000  0.58384552
   0.34305335  0.57254186  0.40216962
   0.53821238  0.39221519  0.65892915
   0.47785343  0.68449525  0.65234278
   0.36249629  0.45687626  0.39279810
   0.42124828  0.52187412  0.47629690
   0.54457466  0.49345169  0.73316567
   0.44389185  0.35529387  0.59471113
   0.43007271  0.47447259  0.57800261
   0.37547893  0.38669980  0.50353524
   0.33959494  0.60030183  0.53702513
   0.44570634  0.56737207  0.70239752
   0.36210644  0.64105646  0.65472003
   0.43825021  0.44907334  0.69279271
   0.31658289  0.48575869  0.52344487
   0.34617379  0.52623502  0.64230757
   0.33987297  0.40970841  0.61929483
Direct configuration=    12
   0.67062286  0.46028232  0.38630975
   0.64893248  0.57553451  0.42857835
   0.73795397  0.51635462  0.47528588
   0.59381892  0.54026535  0.32846461
   0.61471826  0.66958246  0.48477745
   0.56869729  0.42215980  0.33352981
   0.53767306  0.62847168  0.39921773
   0.69061822  0.59830955  0.54850031
   0.69928886  0.40724915  0.48631052
   0.50908878  0.49147618  0.25677990
   0.50916185  0.60702720  0.28280802
   0.62745309  0.49918165  0.53628398
   0.72269926  0.47804642  0.59296246
   0.58864853  0.36566862  0.45678111
   0.53397293  0.57345674  0.50503055
   0.65144808  0.56212071  0.65441668
   0.47440732  0.52979450  0.36938336
   0.51090196  0.32714165  0.37090258
   0.58520524  0.63877278  0.59709337
   0.50851945  0.69318821  0.52856763
   0.56480660  0.48648874  0.43556684
   0.42351411  0.64595013  0.34873524
   0.44530896  0.41487431  0.31603594
   0.39374615  0.53179689  0.29078224
   0.63867070  0.38076619  0.58056188
   0.63787375  0.44976652  0.67399584
   0.39160277  0.33842654  0.39425872
   0.54977068  0.30747358  0.56810403
   0.42713845  0.63979712  0.46228192
   0.53193684  0.42668643  0.54012214
   0.47190395  0.31051882  0.48311630
   0.55455807  0.60964981  0.70700537
   0.39616325  0.70499523  0.55923930
   0.53741517  0.51980085  0.62062586
   0.47060042  0.42028632  0.43527131
   0.44785888  0.59660408  0.58354887
   0.34319768  0.57236435  0.40201959
   0.53782084  0.39221175  0.65889368
   0.47768707  0.68440932  0.65251100
   0.36268315  0.45677658  0.39281023
   0.42116536  0.52203260  0.47630448
   0.54494361  0.49362845  0.73325207
   0.44391839  0.35553656  0.59465014
   0.43010822  0.47453843  0.57811602
   0.37575084  0.38690178  0.50339259
   0.33978884  0.60011038  0.53725592
   0.44566941  0.56729821  0.70247935
   0.36208133  0.64097139  0.65470740
   0.43839829  0.44931712  0.69195758
   0.31649160  0.48578589  0.52350283
   0.34603449  0.52608331  0.64233111
   0.34010787  0.40998475  0.61924222
Direct configuration=    13
   0.67093981  0.46067580  0.38578862
   0.64847603  0.57496424  0.42901790
   0.73775827  0.51634288  0.47543782
   0.59401025  0.53976811  0.32834205
   0.61445177  0.66985139  0.48486463
   0.56836886  0.42195799  0.33348669
   0.53772778  0.62867960  0.39907568
   0.69022547  0.59830934  0.54815686
   0.69919637  0.40741096  0.48633793
   0.50899697  0.49166875  0.25680934
   0.50914898  0.60687195  0.28256261
   0.62713426  0.49903859  0.53605692
   0.72287827  0.47780598  0.59332741
   0.58859406  0.36544595  0.45656963
   0.53416370  0.57359639  0.50542610
   0.65165163  0.56212490  0.65461141
   0.47468006  0.52972656  0.36980875
   0.51042946  0.32695090  0.37091832
   0.58514749  0.63889427  0.59736427
   0.50836599  0.69334892  0.52887636
   0.56529513  0.48653168  0.43550463
   0.42341240  0.64519376  0.34819516
   0.44554157  0.41483922  0.31600332
   0.39331959  0.53151611  0.29136517
   0.63829174  0.38188118  0.58056342
   0.63824537  0.44981665  0.67467545
   0.39171638  0.33852659  0.39408003
   0.54978669  0.30770830  0.56829835
   0.42705833  0.64042394  0.46236135
   0.53172537  0.42648492  0.54018678
   0.47153384  0.31082462  0.48295377
   0.55478708  0.60936769  0.70694933
   0.39589516  0.70512877  0.55966669
   0.53741131  0.52011933  0.62043041
   0.47048177  0.42025851  0.43455956
   0.44776725  0.59606502  0.58334504
   0.34348640  0.57278133  0.40234913
   0.53820735  0.39241755  0.65856511
   0.47815999  0.68428927  0.65224117
   0.36279171  0.45686956  0.39289082
   0.42171921  0.52214489  0.47592236
   0.54419570  0.49324309  0.73330457
   0.44397629  0.35542586  0.59484218
   0.43042427  0.47425824  0.57864237
   0.37591486  0.38658882  0.50310547
   0.33946316  0.60029125  0.53666923
   0.44571384  0.56737374  0.70227210
   0.36227479  0.64101328  0.65460525
   0.43795939  0.44892564  0.69243958
   0.31698227  0.48590607  0.52357664
   0.34654429  0.52632298  0.64209194
   0.34011815  0.40994524  0.61916637
Direct configuration=    14
   0.67189068  0.46185621  0.38422522
   0.64710671  0.57325341  0.43033656
   0.73717116  0.51630764  0.47589363
   0.59458426  0.53827639  0.32797438
   0.61365229  0.67065817  0.48512619
   0.56738357  0.42135256  0.33335733
   0.53789196  0.62930337  0.39864954
   0.68904720  0.59830871  0.54712650
   0.69891887  0.40789640  0.48642018
   0.50872156  0.49224645  0.25689763
   0.50911037  0.60640622  0.28182639
   0.62617778  0.49860943  0.53537574
   0.72341531  0.47708467  0.59442227
   0.58843063  0.36477795  0.45593519
   0.53473599  0.57401533  0.50661276
   0.65226228  0.56213748  0.65519561
   0.47549828  0.52952273  0.37108490
   0.50901197  0.32637867  0.37096554
   0.58497426  0.63925875  0.59817699
   0.50790560  0.69383105  0.52980256
   0.56676072  0.48666051  0.43531800
   0.42310730  0.64292464  0.34657493
   0.44623939  0.41473395  0.31590543
   0.39203991  0.53067375  0.29311393
   0.63715486  0.38522617  0.58056804
   0.63936021  0.44996702  0.67671428
   0.39205723  0.33882673  0.39354396
   0.54983472  0.30841243  0.56888130
   0.42681798  0.64230441  0.46259964
   0.53109096  0.42588038  0.54038071
   0.47042350  0.31174201  0.48246619
   0.55547413  0.60852132  0.70678120
   0.39509089  0.70552940  0.56094885
   0.53739975  0.52107475  0.61984405
   0.47012581  0.42017508  0.43242433
   0.44749238  0.59444786  0.58273355
   0.34435257  0.57403229  0.40333775
   0.53936689  0.39303494  0.65757940
   0.47957874  0.68392912  0.65143168
   0.36311741  0.45714850  0.39313261
   0.42338077  0.52248177  0.47477601
   0.54195197  0.49208700  0.73346209
   0.44414999  0.35509375  0.59541831
   0.43137245  0.47341768  0.58022140
   0.37640689  0.38564994  0.50224411
   0.33848611  0.60083388  0.53490915
   0.44584713  0.56760030  0.70165036
   0.36285517  0.64113894  0.65429880
   0.43664268  0.44775117  0.69388560
   0.31845426  0.48626662  0.52379805
   0.34807369  0.52704197  0.64137443
   0.34014901  0.40982669  0.61893882
Direct configuration=    15
   0.67206259  0.46220796  0.38381685
   0.64619325  0.57314195  0.43073828
   0.73707181  0.51620408  0.47624990
   0.59481023  0.53788303  0.32803432
   0.61312815  0.67077131  0.48520898
   0.56712996  0.42110750  0.33353893
   0.53790256  0.62943978  0.39866825
   0.68824834  0.59830358  0.54687445
   0.69849081  0.40815426  0.48621880
   0.50842650  0.49242013  0.25704719
   0.50944327  0.60599082  0.28154006
   0.62631205  0.49857395  0.53556667
   0.72312611  0.47696468  0.59453960
   0.58808334  0.36468845  0.45571940
   0.53511427  0.57430463  0.50645745
   0.65253618  0.56198378  0.65513010
   0.47604447  0.52960865  0.37088396
   0.50876390  0.32592433  0.37083146
   0.58520877  0.63952346  0.59841811
   0.50748946  0.69381092  0.53031489
   0.56687977  0.48608326  0.43506957
   0.42282248  0.64180841  0.34637281
   0.44617176  0.41479068  0.31539359
   0.39168691  0.53020738  0.29413637
   0.63663272  0.38640290  0.58065352
   0.63977635  0.45034453  0.67792769
   0.39191325  0.33902652  0.39326383
   0.55002213  0.30888609  0.56876482
   0.42689261  0.64306048  0.46258699
   0.53047055  0.42579171  0.53989198
   0.47038104  0.31212249  0.48266512
   0.55569912  0.60799785  0.70690233
   0.39510182  0.70537928  0.56132691
   0.53760927  0.52120555  0.61964566
   0.47046595  0.42023333  0.43222160
   0.44701882  0.59409253  0.58213684
   0.34462077  0.57443266  0.40403867
   0.53941757  0.39365753  0.65732725
   0.48008469  0.68343151  0.65102905
   0.36321282  0.45740377  0.39322968
   0.42423682  0.52259114  0.47560503
   0.54104955  0.49154090  0.73333768
   0.44408868  0.35506090  0.59568073
   0.43183994  0.47315219  0.58028154
   0.37667079  0.38566533  0.50210080