 running on   64 total cores
 distrk:  each k-point on   64 cores,    1 groups
 distr:  one band on   16 cores,    4 groups
 using from now: INCAR     
 vasp.5.3.5 31Mar14 (build Feb 01 2018 12:10:03) gamma-only                     
  
 POSCAR found type information on POSCAR  Ag
 POSCAR found :  1 types and      33 ions
 scaLAPACK will be used

 ----------------------------------------------------------------------------- 
|                                                                             |
|  ADVICE TO THIS USER RUNNING 'VASP/VAMP'   (HEAR YOUR MASTER'S VOICE ...):  |
|                                                                             |
|      You have a (more or less) 'large supercell' and for larger cells       |
|      it might be more efficient to use real space projection opertators     |
|      So try LREAL= Auto  in the INCAR   file.                               |
|      Mind: At the moment your POTCAR file does not contain real space       |
|       projectors, and has to be modified,  BUT if you                       |
|      want to do an extremely  accurate calculation you might also keep the  |
|      reciprocal projection scheme          (i.e. LREAL=.FALSE.)             |
|                                                                             |
 ----------------------------------------------------------------------------- 

 LDA part: xc-table for Pade appr. of Perdew
 POSCAR, INCAR and KPOINTS ok, starting setup
 WARNING: small aliasing (wrap around) errors must be expected
 FFT: planning ...
 WAVECAR not read
 entering main loop
       N       E                     dE             d eps       ncg     rms          rms(c)
DAV:   1     0.312732062326E+04    0.31273E+04   -0.70289E+04   944   0.603E+02
DAV:   2     0.596453958039E+03   -0.25309E+04   -0.22697E+04  1584   0.154E+02
DAV:   3    -0.413967166767E+02   -0.63785E+03   -0.58326E+03  1224   0.855E+01
DAV:   4    -0.696569335780E+02   -0.28260E+02   -0.28001E+02  1032   0.197E+01
DAV:   5    -0.700676385783E+02   -0.41071E+00   -0.41038E+00  1064   0.281E+00    0.328E+01
DAV:   6    -0.319024291231E+02    0.38165E+02   -0.11682E+02   968   0.157E+01    0.176E+01
DAV:   7    -0.228791701708E+02    0.90233E+01   -0.71728E+00  1000   0.461E+00    0.107E+01
DAV:   8    -0.226780400766E+02    0.20113E+00   -0.20403E+00  1008   0.284E+00    0.589E+00
DAV:   9    -0.266051031118E+02   -0.39271E+01   -0.97498E-01  1024   0.152E+00    0.356E+00
DAV:  10    -0.371198866316E+02   -0.10515E+02   -0.28661E+00   976   0.250E+00    0.332E+00
DAV:  11    -0.426582631690E+02   -0.55384E+01   -0.15177E+00  1024   0.195E+00    0.245E+00
DAV:  12    -0.535360529705E+02   -0.10878E+02   -0.50205E+00   960   0.267E+00    0.224E+00
DAV:  13    -0.566646059402E+02   -0.31286E+01   -0.75742E-01  1000   0.144E+00    0.166E+00
DAV:  14    -0.610057410642E+02   -0.43411E+01   -0.12555E+00   960   0.137E+00    0.116E+00
DAV:  15    -0.644361963598E+02   -0.34305E+01   -0.83403E-01   976   0.968E-01    0.155E+00
DAV:  16    -0.647527304306E+02   -0.31653E+00   -0.28899E-02  1096   0.393E-01    0.134E+00
DAV:  17    -0.657293126151E+02   -0.97658E+00   -0.13201E-01   952   0.748E-01    0.946E-01
DAV:  18    -0.673051001131E+02   -0.15758E+01   -0.25659E-01   952   0.109E+00    0.363E-01
DAV:  19    -0.682405665613E+02   -0.93547E+00   -0.77757E-02  1000   0.447E-01    0.334E-01
DAV:  20    -0.685059666669E+02   -0.26540E+00   -0.79425E-03  1032   0.232E-01    0.216E-01
DAV:  21    -0.689467526254E+02   -0.44079E+00   -0.19154E-02   992   0.174E-01    0.108E-01
DAV:  22    -0.690163581449E+02   -0.69606E-01   -0.10422E-03   816   0.497E-02    0.853E-02
DAV:  23    -0.690543416921E+02   -0.37984E-01   -0.63503E-04   680   0.512E-02    0.441E-02
DAV:  24    -0.690752238652E+02   -0.20882E-01   -0.16458E-03   916   0.622E-02    0.328E-02
DAV:  25    -0.690781369543E+02   -0.29131E-02   -0.99680E-05   696   0.167E-02    0.265E-02
DAV:  26    -0.690821334789E+02   -0.39965E-02   -0.10270E-04   640   0.133E-02    0.158E-02
DAV:  27    -0.690855567426E+02   -0.34233E-02   -0.10726E-04   644   0.193E-02    0.746E-03
DAV:  28    -0.690868366833E+02   -0.12799E-02   -0.20372E-05   640   0.821E-03    0.499E-03
DAV:  29    -0.690879360236E+02   -0.10993E-02   -0.15990E-05   624   0.523E-03    0.319E-03
DAV:  30    -0.690882228067E+02   -0.28678E-03   -0.52643E-06   640   0.365E-03    0.226E-03
DAV:  31    -0.690882475319E+02   -0.24725E-04   -0.13833E-06   616   0.258E-03
   1 F= -.69088248E+02 E0= -.69088248E+02  d E =-.690882E+02  mag=     1.0003
 curvature:   0.00 expect dE= 0.000E+00 dE for cont linesearch  0.000E+00
 trial: gam= 0.00000 g(F)=  0.204E-01 g(S)=  0.000E+00 ort = 0.000E+00 (trialstep = 0.100E+01)
 search vector abs. value=  0.204E-01
 bond charge predicted
       N       E                     dE             d eps       ncg     rms          rms(c)
DAV:   1    -0.691076018363E+02   -0.19379E-01   -0.13729E+00   980   0.207E+00    0.711E-02
DAV:   2    -0.691082658793E+02   -0.66404E-03   -0.64236E-03  1016   0.198E-01    0.563E-02
DAV:   3    -0.691082628542E+02    0.30251E-05   -0.98340E-05   576   0.259E-02
   2 F= -.69108263E+02 E0= -.69108263E+02  d E =-.200153E-01  mag=     1.0001
 ZBRENT: can't locate minimum, use default step
 trial-energy change:   -0.020015  1 .order   -0.019760   -0.020420   -0.019099
 step:   4.0000(harm= 15.4611)  dis= 0.01629  next Energy=   -69.246104 (dE=-0.158E+00)
 bond charge predicted
       N       E                     dE             d eps       ncg     rms          rms(c)
DAV:   1    -0.691571423586E+02   -0.48876E-01   -0.12383E+01   968   0.620E+00    0.213E-01
DAV:   2    -0.691629087058E+02   -0.57663E-02   -0.57764E-02  1008   0.593E-01    0.170E-01
DAV:   3    -0.691627958847E+02    0.11282E-03   -0.97134E-04  1016   0.768E-02    0.112E-01
DAV:   4    -0.691626483903E+02    0.14749E-03   -0.50916E-04   992   0.454E-02    0.293E-02
DAV:   5    -0.691626467516E+02    0.16387E-05   -0.20477E-05   608   0.143E-02
   3 F= -.69162647E+02 E0= -.69162647E+02  d E =-.743992E-01  mag=     1.0001
 curvature:  -2.87 expect dE=-0.413E-01 dE for cont linesearch -0.400E-01
 ZBRENT: increasing intervall
 opt :  10.0000  next Energy=   -69.250429 (dE=-0.162E+00)
 bond charge predicted
       N       E                     dE             d eps       ncg     rms          rms(c)
DAV:   1    -0.692252507707E+02   -0.62602E-01   -0.49479E+01   944   0.124E+01    0.395E-01
DAV:   2    -0.692485412726E+02   -0.23291E-01   -0.23070E-01   980   0.119E+00    0.328E-01
DAV:   3    -0.692481845052E+02    0.35677E-03   -0.37858E-03   992   0.150E-01    0.225E-01
DAV:   4    -0.692475691008E+02    0.61540E-03   -0.19712E-03  1000   0.888E-02    0.698E-02
DAV:   5    -0.692475784907E+02   -0.93899E-05   -0.12587E-04   608   0.318E-02
   4 F= -.69247578E+02 E0= -.69247578E+02  d E =-.159331E+00  mag=     1.0000
 curvature:  -6.30 expect dE=-0.591E-01 dE for cont linesearch -0.426E-01
 ZBRENT: increasing intervall
 opt :  22.0000  next Energy=   -69.327087 (dE=-0.239E+00)
 bond charge predicted
       N       E                     dE             d eps       ncg     rms          rms(c)
DAV:   1    -0.692376077613E+02    0.99613E-02   -0.19875E+02   944   0.249E+01    0.740E-01
DAV:   2    -0.693316169367E+02   -0.94009E-01   -0.92612E-01   980   0.239E+00    0.638E-01
DAV:   3    -0.693305363979E+02    0.10805E-02   -0.14780E-02   980   0.292E-01    0.453E-01
DAV:   4    -0.693280222845E+02    0.25141E-02   -0.70431E-03   988   0.169E-01    0.168E-01
DAV:   5    -0.693280937743E+02   -0.71490E-04   -0.92716E-04   984   0.713E-02
   5 F= -.69328094E+02 E0= -.69328094E+02  d E =-.239846E+00  mag=     1.0000
 curvature: -11.77 expect dE=-0.141E+00 dE for cont linesearch -0.241E-02
 trial: gam= 0.48693 g(F)=  0.120E-01 g(S)=  0.000E+00 ort = 0.204E-02 (trialstep = 0.520E+01)
 search vector abs. value=  0.188E-01
 bond charge predicted
       N       E                     dE             d eps       ncg     rms          rms(c)
DAV:   1    -0.693727557203E+02   -0.44733E-01   -0.34051E+01   944   0.103E+01    0.241E-01
DAV:   2    -0.693888120031E+02   -0.16056E-01   -0.15599E-01   980   0.975E-01    0.214E-01
DAV:   3    -0.693886709539E+02    0.14105E-03   -0.23866E-03  1016   0.118E-01    0.157E-01
DAV:   4    -0.693882502410E+02    0.42071E-03   -0.92826E-04   972   0.588E-02    0.700E-02
DAV:   5    -0.693882785414E+02   -0.28300E-04   -0.34052E-04   832   0.372E-02
   6 F= -.69388279E+02 E0= -.69388279E+02  d E =-.601848E-01  mag=     1.0000
 ZBRENT: can't locate minimum, use default step
 trial-energy change:   -0.060185  1 .order   -0.060643   -0.067508   -0.053778
 step:  20.8000(harm= 25.5673)  dis= 0.08694  next Energy=   -69.494055 (dE=-0.166E+00)
 bond charge predicted
       N       E                     dE             d eps       ncg     rms          rms(c)
DAV:   1    -0.693442670214E+02    0.43983E-01   -0.30905E+02   944   0.311E+01    0.697E-01
DAV:   2    -0.694897081854E+02   -0.14544E+00   -0.14106E+00  1000   0.295E+00    0.645E-01
DAV:   3    -0.694882115405E+02    0.14966E-02   -0.21210E-02  1032   0.347E-01    0.486E-01
DAV:   4    -0.694838868346E+02    0.43247E-02   -0.70879E-03  1000   0.162E-01    0.247E-01
DAV:   5    -0.694835147130E+02    0.37212E-03   -0.41437E-03  1008   0.122E-01    0.825E-02
DAV:   6    -0.694835592901E+02   -0.44577E-04   -0.12543E-04   648   0.219E-02
   7 F= -.69483559E+02 E0= -.69483559E+02  d E =-.155466E+00  mag=     1.0000
 curvature: -17.52 expect dE=-0.845E-01 dE for cont linesearch -0.464E-02
 ZBRENT: extrapolating
 opt :  25.0936  next Energy=   -69.488351 (dE=-0.160E+00)
 bond charge predicted
       N       E                     dE             d eps       ncg     rms          rms(c)
DAV:   1    -0.694774186329E+02    0.60961E-02   -0.23204E+01   968   0.848E+00    0.186E-01
DAV:   2    -0.694883001753E+02   -0.10882E-01   -0.10590E-01  1016   0.803E-01    0.165E-01
DAV:   3    -0.694882166079E+02    0.83567E-04   -0.16072E-03  1048   0.962E-02    0.123E-01
DAV:   4    -0.694879538011E+02    0.26281E-03   -0.58145E-04  1008   0.466E-02    0.571E-02
DAV:   5    -0.694879924713E+02   -0.38670E-04   -0.26290E-04   704   0.323E-02
   8 F= -.69487992E+02 E0= -.69487992E+02  d E =-.159899E+00  mag=     1.0000
 curvature: -18.10 expect dE=-0.121E+00 dE for cont linesearch -0.144E-04
 trial: gam= 0.63612 g(F)=  0.666E-02 g(S)=  0.000E+00 ort = 0.123E-03 (trialstep = 0.918E+01)
 search vector abs. value=  0.144E-01
 bond charge predicted
       N       E                     dE             d eps       ncg     rms          rms(c)
DAV:   1    -0.695031461022E+02   -0.15192E-01   -0.81247E+01   944   0.159E+01    0.310E-01
DAV:   2    -0.695408436575E+02   -0.37698E-01   -0.36560E-01   988   0.150E+00    0.291E-01
DAV:   3    -0.695404472652E+02    0.39639E-03   -0.56106E-03  1040   0.180E-01    0.221E-01
DAV:   4    -0.695393358876E+02    0.11114E-02   -0.15645E-03  1016   0.774E-02    0.123E-01
DAV:   5    -0.695391989589E+02    0.13693E-03   -0.16155E-03  1008   0.743E-02    0.433E-02
DAV:   6    -0.695392128114E+02   -0.13853E-04   -0.35320E-05   640   0.117E-02
   9 F= -.69539213E+02 E0= -.69539213E+02  d E =-.512203E-01  mag=     1.0000
 trial-energy change:   -0.051220  1 .order   -0.051860   -0.061829   -0.041891
 step:  28.4638(harm= 28.4638)  dis= 0.10865  next Energy=   -69.583860 (dE=-0.959E-01)
 bond charge predicted
       N       E                     dE             d eps       ncg     rms          rms(c)
DAV:   1    -0.694188000826E+02    0.12040E+00   -0.36115E+02   944   0.338E+01    0.739E-01
DAV:   2    -0.695869344967E+02   -0.16813E+00   -0.16416E+00  1000   0.319E+00    0.617E-01
DAV:   3    -0.695845733086E+02    0.23612E-02   -0.25393E-02  1016   0.384E-01    0.452E-01
DAV:   4    -0.695796354304E+02    0.49379E-02   -0.75749E-03  1016   0.169E-01    0.233E-01
DAV:   5    -0.695790200275E+02    0.61540E-03   -0.49286E-03  1000   0.131E-01    0.753E-02
DAV:   6    -0.695790317169E+02   -0.11689E-04   -0.13405E-04   664   0.228E-02
  10 F= -.69579032E+02 E0= -.69579032E+02  d E =-.910392E-01  mag=     1.0000
 curvature: -30.49 expect dE=-0.117E+00 dE for cont linesearch -0.558E-04
 trial: gam= 0.41744 g(F)=  0.384E-02 g(S)=  0.000E+00 ort =-0.163E-03 (trialstep = 0.130E+02)
 search vector abs. value=  0.622E-02
 bond charge predicted
       N       E                     dE             d eps       ncg     rms          rms(c)
DAV:   1    -0.695855730171E+02   -0.65530E-02   -0.70685E+01   944   0.149E+01    0.350E-01
DAV:   2    -0.696191195851E+02   -0.33547E-01   -0.32431E-01   988   0.141E+00    0.274E-01
DAV:   3    -0.696187038604E+02    0.41572E-03   -0.51103E-03  1028   0.176E-01    0.200E-01
DAV:   4    -0.696178174660E+02    0.88639E-03   -0.19204E-03  1004   0.838E-02    0.805E-02
DAV:   5    -0.696178333485E+02   -0.15883E-04   -0.61485E-04  1024   0.488E-02
  11 F= -.69617833E+02 E0= -.69617833E+02  d E =-.388016E-01  mag=     1.0000
 trial-energy change:   -0.038802  1 .order   -0.039636   -0.049155   -0.030116
 step:  33.6560(harm= 33.6560)  dis= 0.06691  next Energy=   -69.642487 (dE=-0.635E-01)
 bond charge predicted
       N       E                     dE             d eps       ncg     rms          rms(c)
DAV:   1    -0.695568232756E+02    0.60994E-01   -0.17733E+02   944   0.236E+01    0.612E-01
DAV:   2    -0.696422353108E+02   -0.85412E-01   -0.82310E-01   972   0.224E+00    0.438E-01
DAV:   3    -0.696409224483E+02    0.13129E-02   -0.13151E-02  1024   0.285E-01    0.310E-01
DAV:   4    -0.696387695427E+02    0.21529E-02   -0.49910E-03  1004   0.135E-01    0.115E-01
DAV:   5    -0.696387927361E+02   -0.23193E-04   -0.10728E-03  1032   0.667E-02    0.430E-02
DAV:   6    -0.696388340677E+02   -0.41332E-04   -0.10668E-04   636   0.198E-02
  12 F= -.69638834E+02 E0= -.69638834E+02  d E =-.598024E-01  mag=     1.0000
 curvature: -27.75 expect dE=-0.909E-01 dE for cont linesearch -0.220E-03
 trial: gam= 0.86254 g(F)=  0.328E-02 g(S)=  0.000E+00 ort =-0.222E-03 (trialstep = 0.142E+02)
 search vector abs. value=  0.752E-02
 bond charge predicted
       N       E                     dE             d eps       ncg     rms          rms(c)
DAV:   1    -0.696258845739E+02    0.12908E-01   -0.10126E+02   944   0.177E+01    0.364E-01
DAV:   2    -0.696744086857E+02   -0.48524E-01   -0.46464E-01   980   0.169E+00    0.328E-01
DAV:   3    -0.696738800390E+02    0.52865E-03   -0.72655E-03  1032   0.212E-01    0.243E-01
DAV:   4    -0.696725055567E+02    0.13745E-02   -0.18494E-03   996   0.818E-02    0.134E-01
DAV:   5    -0.696723031770E+02    0.20238E-03   -0.19478E-03  1016   0.820E-02    0.432E-02
DAV:   6    -0.696723578504E+02   -0.54673E-04   -0.41464E-05   624   0.129E-02
  13 F= -.69672358E+02 E0= -.69672358E+02  d E =-.335238E-01  mag=     1.0000
 trial-energy change:   -0.033524  1 .order   -0.033700   -0.043773   -0.023627
 step:  30.8302(harm= 30.8302)  dis= 0.06684  next Energy=   -69.686388 (dE=-0.476E-01)
 bond charge predicted
       N       E                     dE             d eps       ncg     rms          rms(c)
DAV:   1    -0.696186890393E+02    0.53614E-01   -0.13941E+02   944   0.208E+01    0.446E-01
DAV:   2    -0.696855608247E+02   -0.66872E-01   -0.64244E-01   984   0.199E+00    0.389E-01
DAV:   3    -0.696848167738E+02    0.74405E-03   -0.10125E-02  1020   0.251E-01    0.282E-01
DAV:   4    -0.696829248846E+02    0.18919E-02   -0.26719E-03   988   0.982E-02    0.152E-01
DAV:   5    -0.696826552706E+02    0.26961E-03   -0.23773E-03  1016   0.910E-02    0.485E-02
DAV:   6    -0.696827081779E+02   -0.52907E-04   -0.59563E-05   620   0.153E-02
  14 F= -.69682708E+02 E0= -.69682708E+02  d E =-.438741E-01  mag=     1.0000
 curvature: -37.57 expect dE=-0.104E+00 dE for cont linesearch -0.410E-03
 trial: gam= 0.69759 g(F)=  0.276E-02 g(S)=  0.000E+00 ort =-0.286E-03 (trialstep = 0.175E+02)
 search vector abs. value=  0.602E-02
 bond charge predicted
       N       E                     dE             d eps       ncg     rms          rms(c)
DAV:   1    -0.696567047981E+02    0.25950E-01   -0.12363E+02   944   0.196E+01    0.389E-01
DAV:   2    -0.697160373207E+02   -0.59333E-01   -0.56427E-01   988   0.186E+00    0.373E-01
DAV:   3    -0.697155482160E+02    0.48910E-03   -0.87705E-03  1040   0.227E-01    0.284E-01
DAV:   4    -0.697137919621E+02    0.17563E-02   -0.23552E-03   984   0.922E-02    0.161E-01
DAV:   5    -0.697135246649E+02    0.26730E-03   -0.26634E-03  1000   0.954E-02    0.545E-02
DAV:   6    -0.697135583770E+02   -0.33712E-04   -0.50098E-05   640   0.146E-02
  15 F= -.69713558E+02 E0= -.69713558E+02  d E =-.308502E-01  mag=     1.0000
 trial-energy change:   -0.030850  1 .order   -0.032061   -0.044870   -0.019251
 step:  30.6813(harm= 30.6813)  dis= 0.06987  next Energy=   -69.722002 (dE=-0.393E-01)
 bond charge predicted
       N       E                     dE             d eps       ncg     rms          rms(c)
DAV:   1    -0.696880127283E+02    0.25512E-01   -0.69705E+01   944   0.147E+01    0.287E-01
DAV:   2    -0.697218710254E+02   -0.33858E-01   -0.31846E-01   988   0.140E+00    0.276E-01
DAV:   3    -0.697216134895E+02    0.25754E-03   -0.49287E-03  1032   0.170E-01    0.211E-01
DAV:   4    -0.697206234554E+02    0.99003E-03   -0.13077E-03  1012   0.689E-02    0.120E-01
DAV:   5    -0.697204718662E+02    0.15159E-03   -0.15477E-03  1008   0.727E-02    0.412E-02
DAV:   6    -0.697204926940E+02   -0.20828E-04   -0.28380E-05   624   0.109E-02
  16 F= -.69720493E+02 E0= -.69720493E+02  d E =-.377845E-01  mag=     1.0000
 curvature: -36.06 expect dE=-0.681E-01 dE for cont linesearch -0.271E-04
 trial: gam= 0.54174 g(F)=  0.189E-02 g(S)=  0.000E+00 ort = 0.673E-04 (trialstep = 0.202E+02)
 search vector abs. value=  0.373E-02
 bond charge predicted
       N       E                     dE             d eps       ncg     rms          rms(c)
DAV:   1    -0.696990957560E+02    0.21376E-01   -0.10145E+02   944   0.177E+01    0.363E-01
DAV:   2    -0.697483108907E+02   -0.49215E-01   -0.46566E-01   988   0.169E+00    0.358E-01
DAV:   3    -0.697480649081E+02    0.24598E-03   -0.71924E-03  1036   0.206E-01    0.274E-01
DAV:   4    -0.697466482450E+02    0.14167E-02   -0.20207E-03  1000   0.866E-02    0.156E-01
DAV:   5    -0.697464548945E+02    0.19335E-03   -0.21302E-03  1008   0.858E-02    0.542E-02
DAV:   6    -0.697464596025E+02   -0.47080E-05   -0.41256E-05   608   0.131E-02
  17 F= -.69746460E+02 E0= -.69746460E+02  d E =-.259669E-01  mag=     1.0000
 trial-energy change:   -0.025967  1 .order   -0.026691   -0.038813   -0.014569
 step:  38.5802(harm= 32.2592)  dis= 0.07378  next Energy=   -69.752568 (dE=-0.321E-01)
 bond charge predicted
       N       E                     dE             d eps       ncg     rms          rms(c)
DAV:   1    -0.697084883175E+02    0.37967E-01   -0.84811E+01   944   0.162E+01    0.328E-01
DAV:   2    -0.697492164479E+02   -0.40728E-01   -0.38878E-01   980   0.155E+00    0.321E-01
DAV:   3    -0.697489434762E+02    0.27297E-03   -0.60567E-03  1028   0.189E-01    0.245E-01
DAV:   4    -0.697477685290E+02    0.11749E-02   -0.16290E-03  1012   0.773E-02    0.140E-01
DAV:   5    -0.697476014201E+02    0.16711E-03   -0.17724E-03   992   0.780E-02    0.486E-02
DAV:   6    -0.697476064546E+02   -0.50345E-05   -0.35766E-05   600   0.121E-02
  18 F= -.69747606E+02 E0= -.69747606E+02  d E =-.271138E-01  mag=     1.0000
 curvature: -22.72 expect dE=-0.568E-01 dE for cont linesearch -0.165E-02
 ZBRENT: interpolating
 opt :  30.8684  next Energy=   -69.749612 (dE=-0.291E-01)
 bond charge predicted
       N       E                     dE             d eps       ncg     rms          rms(c)
DAV:   1    -0.697431862757E+02    0.44151E-02   -0.14839E+01   944   0.678E+00    0.142E-01
DAV:   2    -0.697502654674E+02   -0.70792E-02   -0.67898E-02  1004   0.644E-01    0.130E-01
DAV:   3    -0.697502003412E+02    0.65126E-04   -0.10471E-03  1028   0.788E-02    0.985E-02
DAV:   4    -0.697500095513E+02    0.19079E-03   -0.34808E-04   860   0.355E-02    0.492E-02
DAV:   5    -0.697500149156E+02   -0.53643E-05   -0.26147E-04   660   0.322E-02
  19 F= -.69750015E+02 E0= -.69750015E+02  d E =-.295222E-01  mag=     1.0000
 curvature: -27.64 expect dE=-0.429E-01 dE for cont linesearch -0.110E-03
 trial: gam= 0.86781 g(F)=  0.155E-02 g(S)=  0.000E+00 ort =-0.122E-03 (trialstep = 0.200E+02)
 search vector abs. value=  0.415E-02
 bond charge predicted
       N       E                     dE             d eps       ncg     rms          rms(c)
DAV:   1    -0.697192079385E+02    0.30802E-01   -0.11138E+02   944   0.186E+01    0.364E-01
DAV:   2    -0.697719608339E+02   -0.52753E-01   -0.50659E-01   980   0.177E+00    0.351E-01
DAV:   3    -0.697715055427E+02    0.45529E-03   -0.80256E-03  1024   0.220E-01    0.261E-01
DAV:   4    -0.697699202017E+02    0.15853E-02   -0.19081E-03   984   0.840E-02    0.156E-01
DAV:   5    -0.697695362437E+02    0.38396E-03   -0.25632E-03  1008   0.928E-02    0.512E-02
DAV:   6    -0.697695446365E+02   -0.83928E-05   -0.40519E-05   616   0.132E-02
  20 F= -.69769545E+02 E0= -.69769545E+02  d E =-.195297E-01  mag=     1.0000
 trial-energy change:   -0.019530  1 .order   -0.019518   -0.028986   -0.010050
 step:  30.6728(harm= 30.6728)  dis= 0.05913  next Energy=   -69.772200 (dE=-0.222E-01)
 bond charge predicted
       N       E                     dE             d eps       ncg     rms          rms(c)
DAV:   1    -0.697567933689E+02    0.12743E-01   -0.31282E+01   944   0.986E+00    0.189E-01
DAV:   2    -0.697715391360E+02   -0.14746E-01   -0.14189E-01   988   0.935E-01    0.186E-01
DAV:   3    -0.697714234290E+02    0.11571E-03   -0.22258E-03  1024   0.116E-01    0.139E-01
DAV:   4    -0.697709946764E+02    0.42875E-03   -0.53113E-04   984   0.445E-02    0.840E-02
DAV:   5    -0.697709124685E+02    0.82208E-04   -0.75157E-04   992   0.503E-02
  21 F= -.69770912E+02 E0= -.69770912E+02  d E =-.208976E-01  mag=     1.0000
 curvature: -43.99 expect dE=-0.640E-01 dE for cont linesearch -0.916E-04
 trial: gam= 0.83228 g(F)=  0.146E-02 g(S)=  0.000E+00 ort =-0.929E-04 (trialstep = 0.220E+02)
 search vector abs. value=  0.417E-02
 bond charge predicted
       N       E                     dE             d eps       ncg     rms          rms(c)
DAV:   1    -0.697251043977E+02    0.45890E-01   -0.13555E+02   944   0.205E+01    0.429E-01
DAV:   2    -0.697912311997E+02   -0.66127E-01   -0.62602E-01   984   0.196E+00    0.360E-01
DAV:   3    -0.697905678500E+02    0.66335E-03   -0.97552E-03  1024   0.244E-01    0.265E-01
DAV:   4    -0.697888320261E+02    0.17358E-02   -0.23672E-03  1000   0.932E-02    0.143E-01
DAV:   5    -0.697885149241E+02    0.31710E-03   -0.23281E-03  1000   0.892E-02    0.438E-02
DAV:   6    -0.697885603074E+02   -0.45383E-04   -0.46952E-05   632   0.142E-02
  22 F= -.69788560E+02 E0= -.69788560E+02  d E =-.176478E-01  mag=     1.0000
 trial-energy change:   -0.017648  1 .order   -0.018896   -0.030357   -0.007434
 step:  38.9169(harm= 29.1734)  dis= 0.08003  next Energy=   -69.790848 (dE=-0.199E-01)
 bond charge predicted
       N       E                     dE             d eps       ncg     rms          rms(c)
DAV:   1    -0.697494139648E+02    0.39101E-01   -0.79510E+01   944   0.157E+01    0.323E-01
DAV:   2    -0.697872284308E+02   -0.37814E-01   -0.36385E-01   976   0.149E+00    0.279E-01
DAV:   3    -0.697868674859E+02    0.36094E-03   -0.56935E-03  1020   0.187E-01    0.207E-01
DAV:   4    -0.697858152273E+02    0.10523E-02   -0.14652E-03  1000   0.730E-02    0.111E-01
DAV:   5    -0.697856701518E+02    0.14508E-03   -0.14269E-03   988   0.699E-02    0.353E-02
DAV:   6    -0.697857182595E+02   -0.48108E-04   -0.28877E-05   624   0.110E-02
  23 F= -.69785718E+02 E0= -.69785718E+02  d E =-.148058E-01  mag=     1.0000
 curvature:  38.01 expect dE= 0.760E-01 dE for cont linesearch  0.273E-02
 ZBRENT: interpolating
 opt :  28.4697  next Energy=   -69.789647 (dE=-0.187E-01)
 bond charge predicted
       N       E                     dE             d eps       ncg     rms          rms(c)
DAV:   1    -0.697755036221E+02    0.10167E-01   -0.30414E+01   944   0.970E+00    0.177E-01
DAV:   2    -0.697899940636E+02   -0.14490E-01   -0.13693E-01  1004   0.915E-01    0.179E-01
DAV:   3    -0.697899142231E+02    0.79840E-04   -0.20989E-03  1048   0.111E-01    0.140E-01
DAV:   4    -0.697895353343E+02    0.37889E-03   -0.46305E-04   976   0.416E-02    0.860E-02
DAV:   5    -0.697894582314E+02    0.77103E-04   -0.87116E-04  1000   0.540E-02
  24 F= -.69789458E+02 E0= -.69789458E+02  d E =-.185458E-01  mag=     1.0000
 curvature: -15.14 expect dE=-0.165E-01 dE for cont linesearch -0.101E-03
 trial: gam= 0.57106 g(F)=  0.109E-02 g(S)=  0.000E+00 ort =-0.167E-03 (trialstep = 0.233E+02)
 search vector abs. value=  0.226E-02
 bond charge predicted
       N       E                     dE             d eps       ncg     rms          rms(c)
DAV:   1    -0.697664354622E+02    0.23100E-01   -0.82287E+01   944   0.159E+01    0.351E-01
DAV:   2    -0.698065969835E+02   -0.40162E-01   -0.38121E-01  1004   0.152E+00    0.309E-01
DAV:   3    -0.698061628188E+02    0.43416E-03   -0.57292E-03  1040   0.184E-01    0.229E-01
DAV:   4    -0.698049630357E+02    0.11998E-02   -0.20619E-03   992   0.859E-02    0.112E-01
DAV:   5    -0.698048405397E+02    0.12250E-03   -0.11302E-03  1016   0.644E-02    0.392E-02
DAV:   6    -0.698048430341E+02   -0.24944E-05   -0.42327E-05   616   0.126E-02
  25 F= -.69804843E+02 E0= -.69804843E+02  d E =-.153848E-01  mag=     1.0000
 trial-energy change:   -0.015385  1 .order   -0.014894   -0.023141   -0.006647
 step:  30.9160(harm= 32.7140)  dis= 0.04176  next Energy=   -69.805943 (dE=-0.165E-01)
 bond charge predicted
       N       E                     dE             d eps       ncg     rms          rms(c)
DAV:   1    -0.698017578937E+02    0.30826E-02   -0.87058E+00   944   0.518E+00    0.113E-01
DAV:   2    -0.698059300675E+02   -0.41722E-02   -0.40083E-02   996   0.492E-01    0.100E-01
DAV:   3    -0.698058923389E+02    0.37729E-04   -0.60219E-04   984   0.592E-02
  26 F= -.69805892E+02 E0= -.69805892E+02  d E =-.164341E-01  mag=     1.0000
 curvature: -35.86 expect dE=-0.439E-01 dE for cont linesearch -0.473E-05
 trial: gam= 1.07836 g(F)=  0.122E-02 g(S)=  0.000E+00 ort =-0.173E-04 (trialstep = 0.147E+02)
 search vector abs. value=  0.381E-02
 bond charge predicted
       N       E                     dE             d eps       ncg     rms          rms(c)
DAV:   1    -0.697937355148E+02    0.12195E-01   -0.55225E+01   944   0.130E+01    0.252E-01
DAV:   2    -0.698201104689E+02   -0.26375E-01   -0.25236E-01  1000   0.123E+00    0.245E-01
DAV:   3    -0.698198231984E+02    0.28727E-03   -0.36361E-03  1028   0.142E-01    0.191E-01
DAV:   4    -0.698189352054E+02    0.88799E-03   -0.12310E-03   976   0.661E-02    0.103E-01
DAV:   5    -0.698188070794E+02    0.12813E-03   -0.11441E-03  1008   0.635E-02    0.364E-02
DAV:   6    -0.698188408475E+02   -0.33768E-04   -0.21779E-05   608   0.975E-03
  27 F= -.69818841E+02 E0= -.69818841E+02  d E =-.129485E-01  mag=     1.0000
 trial-energy change:   -0.012949  1 .order   -0.013481   -0.017738   -0.009225
 step:  30.6477(harm= 30.6477)  dis= 0.07072  next Energy=   -69.824371 (dE=-0.185E-01)
 bond charge predicted
       N       E                     dE             d eps       ncg     rms          rms(c)
DAV:   1    -0.697926200005E+02    0.26187E-01   -0.64792E+01   944   0.141E+01    0.272E-01
DAV:   2    -0.698234028297E+02   -0.30783E-01   -0.29770E-01   992   0.133E+00    0.254E-01
DAV:   3    -0.698230654192E+02    0.33741E-03   -0.44700E-03  1020   0.160E-01    0.194E-01
DAV:   4    -0.698221540888E+02    0.91133E-03   -0.11452E-03   992   0.643E-02    0.110E-01
DAV:   5    -0.698219798778E+02    0.17421E-03   -0.13074E-03   988   0.674E-02    0.363E-02
DAV:   6    -0.698220149459E+02   -0.35068E-04   -0.20604E-05   604   0.964E-03
  28 F= -.69822015E+02 E0= -.69822015E+02  d E =-.161226E-01  mag=     1.0000
 curvature: -48.46 expect dE=-0.674E-01 dE for cont linesearch -0.302E-03
 trial: gam= 0.93379 g(F)=  0.139E-02 g(S)=  0.000E+00 ort =-0.154E-03 (trialstep = 0.154E+02)
 search vector abs. value=  0.443E-02
 bond charge predicted
       N       E                     dE             d eps       ncg     rms          rms(c)
DAV:   1    -0.698043402890E+02    0.17640E-01   -0.70221E+01   944   0.147E+01    0.266E-01
DAV:   2    -0.698370125370E+02   -0.32672E-01   -0.31638E-01   988   0.138E+00    0.267E-01
DAV:   3    -0.698366914144E+02    0.32112E-03   -0.47736E-03  1040   0.165E-01    0.208E-01
DAV:   4    -0.698356830627E+02    0.10084E-02   -0.10862E-03   988   0.638E-02    0.128E-01
DAV:   5    -0.698353987963E+02    0.28427E-03   -0.18051E-03  1004   0.782E-02    0.428E-02
DAV:   6    -0.698354346155E+02   -0.35819E-04   -0.19171E-05   624   0.978E-03
  29 F= -.69835435E+02 E0= -.69835435E+02  d E =-.134197E-01  mag=     1.0000
 trial-energy change:   -0.013420  1 .order   -0.014136   -0.019220   -0.009052
 step:  29.1324(harm= 29.1324)  dis= 0.07392  next Energy=   -69.840180 (dE=-0.182E-01)
 bond charge predicted
       N       E                     dE             d eps       ncg     rms          rms(c)
DAV:   1    -0.698138486259E+02    0.21550E-01   -0.55610E+01   944   0.131E+01    0.235E-01
DAV:   2    -0.698395534443E+02   -0.25705E-01   -0.25031E-01   996   0.123E+00    0.235E-01
DAV:   3    -0.698392915593E+02    0.26189E-03   -0.37672E-03  1040   0.147E-01    0.182E-01
DAV:   4    -0.698384987549E+02    0.79280E-03   -0.85459E-04   980   0.567E-02    0.112E-01
DAV:   5    -0.698382739830E+02    0.22477E-03   -0.14119E-03  1000   0.691E-02    0.378E-02
DAV:   6    -0.698383014100E+02   -0.27427E-04   -0.15046E-05   616   0.865E-03
  30 F= -.69838301E+02 E0= -.69838301E+02  d E =-.162865E-01  mag=     1.0000
 curvature: -51.73 expect dE=-0.520E-01 dE for cont linesearch -0.167E-04
 trial: gam= 0.37294 g(F)=  0.101E-02 g(S)=  0.000E+00 ort =-0.378E-04 (trialstep = 0.182E+02)
 search vector abs. value=  0.159E-02
 bond charge predicted
       N       E                     dE             d eps       ncg     rms          rms(c)
DAV:   1    -0.698343405693E+02    0.39334E-02   -0.35067E+01   944   0.105E+01    0.221E-01
DAV:   2    -0.698504895196E+02   -0.16149E-01   -0.15848E-01   984   0.988E-01    0.205E-01
DAV:   3    -0.698503124073E+02    0.17711E-03   -0.24978E-03  1032   0.122E-01    0.150E-01
DAV:   4    -0.698498124131E+02    0.49999E-03   -0.74853E-04  1008   0.531E-02    0.800E-02
DAV:   5    -0.698497458205E+02    0.66593E-04   -0.59845E-04  1000   0.463E-02
  31 F= -.69849746E+02 E0= -.69849746E+02  d E =-.114444E-01  mag=     1.0000
 trial-energy change:   -0.011444  1 .order   -0.011997   -0.018004   -0.005990
 step:  27.2081(harm= 27.2081)  dis= 0.02251  next Energy=   -69.851791 (dE=-0.135E-01)
 bond charge predicted
       N       E                     dE             d eps       ncg     rms          rms(c)
DAV:   1    -0.698468775843E+02    0.29348E-02   -0.87035E+00   944   0.521E+00    0.115E-01
DAV:   2    -0.698509250061E+02   -0.40474E-02   -0.39727E-02   988   0.493E-01    0.102E-01
DAV:   3    -0.698508920053E+02    0.33001E-04   -0.62821E-04  1016   0.614E-02
  32 F= -.69850892E+02 E0= -.69850892E+02  d E =-.125906E-01  mag=     1.0000
 curvature: -21.86 expect dE=-0.136E-01 dE for cont linesearch -0.471E-04
 trial: gam= 0.66053 g(F)=  0.624E-03 g(S)=  0.000E+00 ort =-0.586E-04 (trialstep = 0.200E+02)
 search vector abs. value=  0.124E-02
 bond charge predicted
       N       E                     dE             d eps       ncg     rms          rms(c)
DAV:   1    -0.698427645076E+02    0.81605E-02   -0.33102E+01   944   0.102E+01    0.216E-01
DAV:   2    -0.698577375623E+02   -0.14973E-01   -0.14697E-01   976   0.952E-01    0.198E-01
DAV:   3    -0.698574833663E+02    0.25420E-03   -0.22747E-03  1024   0.116E-01    0.150E-01
DAV:   4    -0.698569111999E+02    0.57217E-03   -0.95962E-04  1012   0.581E-02    0.696E-02
DAV:   5    -0.698568743369E+02    0.36863E-04   -0.52259E-04  1000   0.434E-02
  33 F= -.69856874E+02 E0= -.69856874E+02  d E =-.598233E-02  mag=     1.0000
 trial-energy change:   -0.005982  1 .order   -0.006594   -0.011689   -0.001498
 step:  25.3745(harm= 22.9012)  dis= 0.02562  next Energy=   -69.857065 (dE=-0.617E-02)
 bond charge predicted
       N       E                     dE             d eps       ncg     rms          rms(c)
DAV:   1    -0.698556337716E+02    0.12774E-02   -0.24193E+00   964   0.275E+00    0.632E-02
DAV:   2    -0.698567777049E+02   -0.11439E-02   -0.11056E-02  1000   0.260E-01    0.498E-02
DAV:   3    -0.698567780868E+02   -0.38189E-06   -0.15329E-04   600   0.326E-02
  34 F= -.69856778E+02 E0= -.69856778E+02  d E =-.588608E-02  mag=     1.0000
 curvature:  -7.04 expect dE=-0.385E-02 dE for cont linesearch -0.312E-03
 trial: gam= 0.00000 g(F)=  0.548E-03 g(S)=  0.000E+00 ort =-0.235E-03 (trialstep = 0.210E+02)
 search vector abs. value=  0.548E-03
 bond charge predicted
       N       E                     dE             d eps       ncg     rms          rms(c)
DAV:   1    -0.698523154858E+02    0.44622E-02   -0.16308E+01   944   0.711E+00    0.230E-01
DAV:   2    -0.698596883022E+02   -0.73728E-02   -0.74657E-02   984   0.661E-01    0.159E-01
DAV:   3    -0.698595719405E+02    0.11636E-03   -0.12709E-03  1040   0.811E-02    0.105E-01
DAV:   4    -0.698595018206E+02    0.70120E-04   -0.54860E-04   988   0.465E-02
  35 F= -.69859502E+02 E0= -.69859502E+02  d E =-.272373E-02  mag=     1.0000
 trial-energy change:   -0.002724  1 .order   -0.003213   -0.011528    0.005101
 step:  13.7493(harm= 14.5911)  dis= 0.00833  next Energy=   -69.860407 (dE=-0.363E-02)
 bond charge predicted
       N       E                     dE             d eps       ncg     rms          rms(c)
DAV:   1    -0.698596581453E+02   -0.86205E-04   -0.19641E+00   976   0.247E+00    0.802E-02
DAV:   2    -0.698605403328E+02   -0.88219E-03   -0.86691E-03  1000   0.227E-01    0.598E-02
DAV:   3    -0.698605236178E+02    0.16715E-04   -0.13665E-04   632   0.274E-02
  36 F= -.69860524E+02 E0= -.69860524E+02  d E =-.374553E-02  mag=     1.0000
 curvature:  -7.17 expect dE=-0.174E-02 dE for cont linesearch -0.889E-04
 trial: gam= 0.29150 g(F)=  0.242E-03 g(S)=  0.000E+00 ort = 0.824E-04 (trialstep = 0.196E+02)
 search vector abs. value=  0.337E-03
 bond charge predicted
       N       E                     dE             d eps       ncg     rms          rms(c)
DAV:   1    -0.698600081734E+02    0.53216E-03   -0.86024E+00   964   0.518E+00    0.998E-02
DAV:   2    -0.698639235587E+02   -0.39154E-02   -0.38520E-02   988   0.486E-01    0.100E-01
DAV:   3    -0.698638801318E+02    0.43427E-04   -0.60174E-04  1024   0.592E-02
  37 F= -.69863880E+02 E0= -.69863880E+02  d E =-.335651E-02  mag=     1.0000
 trial-energy change:   -0.003357  1 .order   -0.003587   -0.005212   -0.001962
 step:  31.4191(harm= 31.4191)  dis= 0.01424  next Energy=   -69.864703 (dE=-0.418E-02)
 bond charge predicted
       N       E                     dE             d eps       ncg     rms          rms(c)
DAV:   1    -0.698630494042E+02    0.87415E-03   -0.31519E+00   944   0.314E+00    0.834E-02
DAV:   2    -0.698643840337E+02   -0.13346E-02   -0.13418E-02  1016   0.288E-01    0.803E-02
DAV:   3    -0.698643396897E+02    0.44344E-04   -0.18334E-04   608   0.332E-02
  38 F= -.69864340E+02 E0= -.69864340E+02  d E =-.381607E-02  mag=     1.0000
 curvature: -19.88 expect dE=-0.387E-02 dE for cont linesearch -0.195E-03
 trial: gam= 0.00000 g(F)=  0.194E-03 g(S)=  0.000E+00 ort =-0.574E-04 (trialstep = 0.220E+02)
 search vector abs. value=  0.194E-03
 bond charge predicted
       N       E                     dE             d eps       ncg     rms          rms(c)
DAV:   1    -0.698633064501E+02    0.10776E-02   -0.62817E+00   952   0.442E+00    0.101E-01
DAV:   2    -0.698662205541E+02   -0.29141E-02   -0.28829E-02   976   0.416E-01    0.832E-02
DAV:   3    -0.698661921478E+02    0.28406E-04   -0.45915E-04   992   0.517E-02
  39 F= -.69866192E+02 E0= -.69866192E+02  d E =-.185246E-02  mag=     1.0000
 trial-energy change:   -0.001852  1 .order   -0.001942   -0.004270    0.000385
 step:  20.1406(harm= 20.1406)  dis= 0.00682  next Energy=   -69.866298 (dE=-0.196E-02)
 bond charge predicted
       N       E                     dE             d eps       ncg     rms          rms(c)
DAV:   1    -0.698661094857E+02    0.11107E-03   -0.41978E-02   980   0.360E-01    0.232E-02
DAV:   2    -0.698661283954E+02   -0.18910E-04   -0.20504E-04   608   0.382E-02
  40 F= -.69866128E+02 E0= -.69866128E+02  d E =-.178871E-02  mag=     1.0000
 curvature: -10.07 expect dE=-0.112E-02 dE for cont linesearch -0.306E-04
 trial: gam= 0.44936 g(F)=  0.112E-03 g(S)=  0.000E+00 ort = 0.243E-04 (trialstep = 0.216E+02)
 search vector abs. value=  0.173E-03
 bond charge predicted
       N       E                     dE             d eps       ncg     rms          rms(c)
DAV:   1    -0.698654540009E+02    0.65548E-03   -0.53755E+00   944   0.410E+00    0.829E-02
DAV:   2    -0.698679832024E+02   -0.25292E-02   -0.24365E-02  1000   0.390E-01    0.803E-02
DAV:   3    -0.698679576665E+02    0.25536E-04   -0.37297E-04   780   0.496E-02
  41 F= -.69867958E+02 E0= -.69867958E+02  d E =-.182927E-02  mag=     1.0000
 trial-energy change:   -0.001829  1 .order   -0.001532   -0.002648   -0.000417
 step:  25.6293(harm= 25.6293)  dis= 0.00807  next Energy=   -69.867700 (dE=-0.157E-02)
 bond charge predicted
       N       E                     dE             d eps       ncg     rms          rms(c)
DAV:   1    -0.698679963230E+02   -0.13121E-04   -0.19159E-01   968   0.776E-01    0.371E-02
DAV:   2    -0.698680591544E+02   -0.62831E-04   -0.74757E-04   968   0.694E-02
  42 F= -.69868059E+02 E0= -.69868059E+02  d E =-.193076E-02  mag=     1.0000
 curvature: -18.06 expect dE=-0.224E-02 dE for cont linesearch -0.112E-04
 trial: gam= 0.85806 g(F)=  0.124E-03 g(S)=  0.000E+00 ort = 0.103E-04 (trialstep = 0.144E+02)
 search vector abs. value=  0.269E-03
 bond charge predicted
       N       E                     dE             d eps       ncg     rms          rms(c)
DAV:   1    -0.698684614621E+02   -0.46514E-03   -0.37164E+00   944   0.341E+00    0.625E-02
DAV:   2    -0.698701920301E+02   -0.17306E-02   -0.16540E-02   980   0.323E-01    0.686E-02
DAV:   3    -0.698701754251E+02    0.16605E-04   -0.23696E-04   620   0.403E-02
  43 F= -.69870175E+02 E0= -.69870175E+02  d E =-.211627E-02  mag=     1.0000
 trial-energy change:   -0.002116  1 .order   -0.001413   -0.001914   -0.000912
 step:  16.6093(harm= 27.4647)  dis= 0.00636  next Energy=   -69.870249 (dE=-0.219E-02)
 bond charge predicted
       N       E                     dE             d eps       ncg     rms          rms(c)
DAV:   1    -0.698703626502E+02   -0.17062E-03   -0.92088E-02   964   0.539E-01    0.314E-02
DAV:   2    -0.698703835783E+02   -0.20928E-04   -0.30852E-04   704   0.468E-02
  44 F= -.69870384E+02 E0= -.69870384E+02  d E =-.232442E-02  mag=     1.0000
 curvature:  -8.66 expect dE=-0.493E-03 dE for cont linesearch -0.308E-03
 trial: gam=-0.02066 g(F)=  0.570E-04 g(S)=  0.000E+00 ort = 0.978E-04 (trialstep = 0.148E+02)
 search vector abs. value=  0.530E-04
 reached required accuracy - stopping structural energy minimisation
Application 90996060 resources: utime ~56155s, stime ~414s, Rss ~73412, inblocks ~739543, outblocks ~689111
