  28  28   0   0
  0.3164207E+03  0.2069225E-08  0.2069225E-08  0.2069225E-08  0.1000000E-15
  1.000000000000000E-004
  CAR 
 unknown system                          
      1.69134254     -9.97358526  301     -3.53843342      1.00000000
     -9.974  0.0000E+00  0.0000E+00  0.0000E+00  0.0000E+00
     -9.935  0.0000E+00  0.0000E+00  0.0000E+00  0.0000E+00
     -9.896  0.0000E+00  0.0000E+00  0.0000E+00  0.0000E+00
     -9.857  0.0000E+00  0.0000E+00  0.0000E+00  0.0000E+00
     -9.818  0.0000E+00  0.0000E+00  0.0000E+00  0.0000E+00
     -9.779  0.0000E+00  0.0000E+00  0.0000E+00  0.0000E+00
     -9.740  0.0000E+00  0.0000E+00  0.0000E+00  0.0000E+00
     -9.701  0.0000E+00  0.0000E+00  0.0000E+00  0.0000E+00
     -9.663  0.0000E+00  0.0000E+00  0.0000E+00  0.0000E+00
     -9.624  0.0000E+00  0.0000E+00  0.0000E+00  0.0000E+00
     -9.585  0.0000E+00  0.0000E+00  0.0000E+00  0.0000E+00
     -9.546  0.0000E+00  0.0000E+00  0.0000E+00  0.0000E+00
     -9.507  0.0000E+00  0.0000E+00  0.0000E+00  0.0000E+00
     -9.468  0.0000E+00  0.0000E+00  0.0000E+00  0.0000E+00
     -9.429  0.0000E+00  0.0000E+00  0.1000E-02  0.1000E-02
     -9.390  0.0000E+00  0.0000E+00  0.1000E-02  0.1000E-02
     -9.351  0.0000E+00  0.0000E+00  0.1000E-02  0.1000E-02
     -9.313  0.0000E+00  0.0000E+00  0.1000E-02  0.1000E-02
     -9.274  0.0000E+00  0.0000E+00  0.1000E-02  0.1000E-02
     -9.235  0.0000E+00  0.0000E+00  0.1000E-02  0.1000E-02
     -9.196  0.0000E+00  0.0000E+00  0.1000E-02  0.1000E-02
     -9.157  0.0000E+00  0.0000E+00  0.1000E-02  0.1000E-02
     -9.118  0.0000E+00  0.0000E+00  0.1000E-02  0.1000E-02
     -9.079  0.0000E+00  0.0000E+00  0.1000E-02  0.1000E-02
     -9.040  0.0000E+00  0.0000E+00  0.1000E-02  0.1000E-02
     -9.002  0.0000E+00  0.0000E+00  0.2000E-02  0.2000E-02
     -8.963  0.0000E+00  0.0000E+00  0.3000E-02  0.3000E-02
     -8.924  0.0000E+00  0.0000E+00  0.6000E-02  0.6000E-02
     -8.885  0.0000E+00  0.0000E+00  0.6000E-02  0.6000E-02
     -8.846  0.0000E+00  0.0000E+00  0.7000E-02  0.7000E-02
     -8.807  0.0000E+00  0.0000E+00  0.9000E-02  0.9000E-02
     -8.768  0.0000E+00  0.0000E+00  0.1000E-01  0.1000E-01
     -8.729  0.0000E+00  0.0000E+00  0.1100E-01  0.1100E-01
     -8.690  0.0000E+00  0.0000E+00  0.1200E-01  0.1200E-01
     -8.652  0.0000E+00  0.0000E+00  0.1400E-01  0.1400E-01
     -8.613  0.0000E+00  0.0000E+00  0.1500E-01  0.1500E-01
     -8.574  0.0000E+00  0.0000E+00  0.1600E-01  0.1600E-01
     -8.535  0.0000E+00  0.0000E+00  0.1900E-01  0.1900E-01
     -8.496  0.1485E-15  0.1485E-15  0.1900E-01  0.1900E-01
     -8.457  0.0000E+00  0.0000E+00  0.2000E-01  0.2000E-01
     -8.418  0.0000E+00  0.0000E+00  0.2200E-01  0.2200E-01
     -8.379  0.0000E+00  0.0000E+00  0.2300E-01  0.2300E-01
     -8.340  0.0000E+00  0.0000E+00  0.2500E-01  0.2500E-01
     -8.302  0.0000E+00  0.0000E+00  0.2700E-01  0.2700E-01
     -8.263  0.0000E+00  0.0000E+00  0.2900E-01  0.2900E-01
     -8.224  0.0000E+00  0.0000E+00  0.3000E-01  0.3000E-01
     -8.185  0.0000E+00  0.0000E+00  0.3100E-01  0.3100E-01
     -8.146  0.0000E+00  0.0000E+00  0.3200E-01  0.3200E-01
     -8.107  0.0000E+00  0.0000E+00  0.3400E-01  0.3400E-01
     -8.068  0.0000E+00  0.0000E+00  0.3600E-01  0.3600E-01
     -8.029  0.0000E+00  0.0000E+00  0.3700E-01  0.3700E-01
     -7.991  0.0000E+00  0.0000E+00  0.4000E-01  0.4000E-01
     -7.952  0.0000E+00  0.0000E+00  0.4100E-01  0.4100E-01
     -7.913  0.0000E+00  0.0000E+00  0.4300E-01  0.4300E-01
     -7.874  0.0000E+00  0.0000E+00  0.4500E-01  0.4500E-01
     -7.835  0.0000E+00  0.0000E+00  0.4700E-01  0.4700E-01
     -7.796  0.0000E+00  0.0000E+00  0.4900E-01  0.4900E-01
     -7.757  0.0000E+00  0.0000E+00  0.5100E-01  0.5100E-01
     -7.718  0.0000E+00  0.0000E+00  0.5200E-01  0.5200E-01
     -7.679  0.0000E+00  0.0000E+00  0.5400E-01  0.5400E-01
     -7.641  0.0000E+00  0.0000E+00  0.5600E-01  0.5600E-01
     -7.602  0.0000E+00  0.0000E+00  0.5700E-01  0.5700E-01
     -7.563  0.0000E+00  0.0000E+00  0.5900E-01  0.5900E-01
     -7.524  0.0000E+00  0.0000E+00  0.6100E-01  0.6100E-01
     -7.485  0.0000E+00  0.0000E+00  0.6300E-01  0.6300E-01
     -7.446  0.0000E+00  0.0000E+00  0.6400E-01  0.6400E-01
     -7.407  0.0000E+00  0.0000E+00  0.6500E-01  0.6500E-01
     -7.368  0.0000E+00  0.0000E+00  0.6600E-01  0.6600E-01
     -7.330  0.0000E+00  0.0000E+00  0.6800E-01  0.6800E-01
     -7.291  0.0000E+00  0.0000E+00  0.7000E-01  0.7000E-01
     -7.252  0.0000E+00  0.0000E+00  0.7200E-01  0.7200E-01
     -7.213  0.0000E+00  0.0000E+00  0.7300E-01  0.7300E-01
     -7.174  0.0000E+00  0.0000E+00  0.7600E-01  0.7600E-01
     -7.135  0.0000E+00  0.0000E+00  0.7800E-01  0.7800E-01
     -7.096  0.2045E-01  0.2045E-01  0.7980E-01  0.7980E-01
     -7.057  0.2572E-01  0.2572E-01  0.8300E-01  0.8300E-01
     -7.018  0.0000E+00  0.0000E+00  0.8500E-01  0.8500E-01
     -6.980  0.0000E+00  0.0000E+00  0.8700E-01  0.8700E-01
     -6.941  0.0000E+00  0.0000E+00  0.9000E-01  0.9000E-01
     -6.902  0.0000E+00  0.0000E+00  0.9200E-01  0.9200E-01
     -6.863  0.0000E+00  0.0000E+00  0.9500E-01  0.9500E-01
     -6.824  0.0000E+00  0.0000E+00  0.9900E-01  0.9900E-01
     -6.785  0.0000E+00  0.0000E+00  0.1030E+00  0.1030E+00
     -6.746  0.0000E+00  0.0000E+00  0.1050E+00  0.1050E+00
     -6.707  0.0000E+00  0.0000E+00  0.1070E+00  0.1070E+00
     -6.669  0.0000E+00  0.0000E+00  0.1110E+00  0.1110E+00
     -6.630  0.0000E+00  0.0000E+00  0.1130E+00  0.1130E+00
     -6.591  0.0000E+00  0.0000E+00  0.1160E+00  0.1160E+00
     -6.552  0.0000E+00  0.0000E+00  0.1180E+00  0.1180E+00
     -6.513  0.0000E+00  0.0000E+00  0.1200E+00  0.1200E+00
     -6.474  0.0000E+00  0.0000E+00  0.1230E+00  0.1230E+00
     -6.435  0.0000E+00  0.0000E+00  0.1240E+00  0.1240E+00
     -6.396  0.0000E+00  0.0000E+00  0.1270E+00  0.1270E+00
     -6.357  0.0000E+00  0.0000E+00  0.1300E+00  0.1300E+00
     -6.319  0.0000E+00  0.0000E+00  0.1320E+00  0.1320E+00
     -6.280  0.0000E+00  0.0000E+00  0.1340E+00  0.1340E+00
     -6.241  0.0000E+00  0.0000E+00  0.1370E+00  0.1370E+00
     -6.202  0.0000E+00  0.0000E+00  0.1390E+00  0.1390E+00
     -6.163  0.0000E+00  0.0000E+00  0.1410E+00  0.1410E+00
     -6.124  0.0000E+00  0.0000E+00  0.1430E+00  0.1430E+00
     -6.085  0.0000E+00  0.0000E+00  0.1440E+00  0.1440E+00
     -6.046  0.0000E+00  0.0000E+00  0.1440E+00  0.1440E+00
     -6.008  0.0000E+00  0.0000E+00  0.1440E+00  0.1440E+00
     -5.969  0.0000E+00  0.0000E+00  0.1440E+00  0.1440E+00
     -5.930  0.0000E+00  0.0000E+00  0.1440E+00  0.1440E+00
     -5.891  0.0000E+00  0.0000E+00  0.1440E+00  0.1440E+00
     -5.852  0.0000E+00  0.0000E+00  0.1440E+00  0.1440E+00
     -5.813  0.0000E+00  0.0000E+00  0.1440E+00  0.1440E+00
     -5.774  0.0000E+00  0.0000E+00  0.1450E+00  0.1450E+00
     -5.735  0.0000E+00  0.0000E+00  0.1450E+00  0.1450E+00
     -5.696  0.0000E+00  0.0000E+00  0.1450E+00  0.1450E+00
     -5.658  0.0000E+00  0.0000E+00  0.1450E+00  0.1450E+00
     -5.619  0.0000E+00  0.0000E+00  0.1450E+00  0.1450E+00
     -5.580  0.0000E+00  0.0000E+00  0.1450E+00  0.1450E+00
     -5.541  0.0000E+00  0.0000E+00  0.1450E+00  0.1450E+00
     -5.502  0.0000E+00  0.0000E+00  0.1450E+00  0.1450E+00
     -5.463  0.0000E+00  0.0000E+00  0.1460E+00  0.1460E+00
     -5.424  0.0000E+00  0.0000E+00  0.1460E+00  0.1460E+00
     -5.385  0.0000E+00  0.0000E+00  0.1460E+00  0.1460E+00
     -5.346  0.0000E+00  0.0000E+00  0.1460E+00  0.1460E+00
     -5.308  0.0000E+00  0.0000E+00  0.1460E+00  0.1460E+00
     -5.269  0.0000E+00  0.0000E+00  0.1460E+00  0.1460E+00
     -5.230  0.0000E+00  0.0000E+00  0.1460E+00  0.1460E+00
     -5.191  0.0000E+00  0.0000E+00  0.1460E+00  0.1460E+00
     -5.152  0.0000E+00  0.0000E+00  0.1460E+00  0.1460E+00
     -5.113  0.0000E+00  0.0000E+00  0.1460E+00  0.1460E+00
     -5.074  0.0000E+00  0.0000E+00  0.1470E+00  0.1470E+00
     -5.035  0.0000E+00  0.0000E+00  0.1470E+00  0.1470E+00
     -4.997  0.0000E+00  0.0000E+00  0.1470E+00  0.1470E+00
     -4.958  0.0000E+00  0.0000E+00  0.1470E+00  0.1470E+00
     -4.919  0.0000E+00  0.0000E+00  0.1480E+00  0.1480E+00
     -4.880  0.0000E+00  0.0000E+00  0.1480E+00  0.1480E+00
     -4.841  0.0000E+00  0.0000E+00  0.1480E+00  0.1480E+00
     -4.802  0.0000E+00  0.0000E+00  0.1480E+00  0.1480E+00
     -4.763  0.0000E+00  0.0000E+00  0.1480E+00  0.1480E+00
     -4.724  0.0000E+00  0.0000E+00  0.1480E+00  0.1480E+00
     -4.685  0.0000E+00  0.0000E+00  0.1480E+00  0.1480E+00
     -4.647  0.0000E+00  0.0000E+00  0.1480E+00  0.1480E+00
     -4.608  0.0000E+00  0.0000E+00  0.1480E+00  0.1480E+00
     -4.569  0.0000E+00  0.0000E+00  0.1490E+00  0.1490E+00
     -4.530  0.0000E+00  0.0000E+00  0.1490E+00  0.1490E+00
     -4.491  0.0000E+00  0.0000E+00  0.1490E+00  0.1490E+00
     -4.452  0.0000E+00  0.0000E+00  0.1490E+00  0.1490E+00
     -4.413  0.0000E+00  0.0000E+00  0.1490E+00  0.1490E+00
     -4.374  0.0000E+00  0.0000E+00  0.1490E+00  0.1490E+00
     -4.336  0.0000E+00  0.0000E+00  0.1500E+00  0.1500E+00
     -4.297  0.0000E+00  0.0000E+00  0.1500E+00  0.1500E+00
     -4.258  0.0000E+00  0.0000E+00  0.1510E+00  0.1510E+00
     -4.219  0.0000E+00  0.0000E+00  0.1510E+00  0.1510E+00
     -4.180  0.0000E+00  0.0000E+00  0.1510E+00  0.1510E+00
     -4.141  0.0000E+00  0.0000E+00  0.1510E+00  0.1510E+00
     -4.102  0.0000E+00  0.0000E+00  0.1510E+00  0.1510E+00
     -4.063  0.0000E+00  0.0000E+00  0.1520E+00  0.1520E+00
     -4.024  0.0000E+00  0.0000E+00  0.1520E+00  0.1520E+00
     -3.986  0.0000E+00  0.0000E+00  0.1520E+00  0.1520E+00
     -3.947  0.0000E+00  0.0000E+00  0.1520E+00  0.1520E+00
     -3.908  0.0000E+00  0.0000E+00  0.1520E+00  0.1520E+00
     -3.869  0.0000E+00  0.0000E+00  0.1520E+00  0.1520E+00
     -3.830  0.0000E+00  0.0000E+00  0.1520E+00  0.1520E+00
     -3.791  0.0000E+00  0.0000E+00  0.1520E+00  0.1520E+00
     -3.752  0.0000E+00  0.0000E+00  0.1520E+00  0.1520E+00
     -3.713  0.0000E+00  0.0000E+00  0.1520E+00  0.1520E+00
     -3.675  0.0000E+00  0.0000E+00  0.1530E+00  0.1530E+00
     -3.636  0.0000E+00  0.0000E+00  0.1530E+00  0.1530E+00
     -3.597  0.0000E+00  0.0000E+00  0.1530E+00  0.1530E+00
     -3.558  0.0000E+00  0.0000E+00  0.1530E+00  0.1530E+00
     -3.519  0.0000E+00  0.0000E+00  0.1540E+00  0.1540E+00
     -3.480  0.0000E+00  0.0000E+00  0.1540E+00  0.1540E+00
     -3.441  0.0000E+00  0.0000E+00  0.1540E+00  0.1540E+00
     -3.402  0.0000E+00  0.0000E+00  0.1540E+00  0.1540E+00
     -3.363  0.0000E+00  0.0000E+00  0.1540E+00  0.1540E+00
     -3.325  0.0000E+00  0.0000E+00  0.1540E+00  0.1540E+00
     -3.286  0.0000E+00  0.0000E+00  0.1540E+00  0.1540E+00
     -3.247  0.0000E+00  0.0000E+00  0.1540E+00  0.1540E+00
     -3.208  0.0000E+00  0.0000E+00  0.1540E+00  0.1540E+00
     -3.169  0.0000E+00  0.0000E+00  0.1540E+00  0.1540E+00
     -3.130  0.0000E+00  0.0000E+00  0.1540E+00  0.1540E+00
     -3.091  0.0000E+00  0.0000E+00  0.1540E+00  0.1540E+00
     -3.052  0.0000E+00  0.0000E+00  0.1540E+00  0.1540E+00
     -3.014  0.0000E+00  0.0000E+00  0.1540E+00  0.1540E+00
     -2.975  0.0000E+00  0.0000E+00  0.1540E+00  0.1540E+00
     -2.936  0.0000E+00  0.0000E+00  0.1540E+00  0.1540E+00
     -2.897  0.0000E+00  0.0000E+00  0.1540E+00  0.1540E+00
     -2.858  0.0000E+00  0.0000E+00  0.1550E+00  0.1550E+00
     -2.819  0.0000E+00  0.0000E+00  0.1560E+00  0.1560E+00
     -2.780  0.0000E+00  0.0000E+00  0.1560E+00  0.1560E+00
     -2.741  0.0000E+00  0.0000E+00  0.1560E+00  0.1560E+00
     -2.702  0.0000E+00  0.0000E+00  0.1570E+00  0.1570E+00
     -2.664  0.0000E+00  0.0000E+00  0.1570E+00  0.1570E+00
     -2.625  0.0000E+00  0.0000E+00  0.1580E+00  0.1580E+00
     -2.586  0.0000E+00  0.0000E+00  0.1580E+00  0.1580E+00
     -2.547  0.0000E+00  0.0000E+00  0.1580E+00  0.1580E+00
     -2.508  0.0000E+00  0.0000E+00  0.1580E+00  0.1580E+00
     -2.469  0.0000E+00  0.0000E+00  0.1590E+00  0.1590E+00
     -2.430  0.0000E+00  0.0000E+00  0.1590E+00  0.1590E+00
     -2.391  0.0000E+00  0.0000E+00  0.1590E+00  0.1590E+00
     -2.352  0.0000E+00  0.0000E+00  0.1600E+00  0.1600E+00
     -2.314  0.0000E+00  0.0000E+00  0.1600E+00  0.1600E+00
     -2.275  0.0000E+00  0.0000E+00  0.1610E+00  0.1610E+00
     -2.236  0.0000E+00  0.0000E+00  0.1610E+00  0.1610E+00
     -2.197  0.0000E+00  0.0000E+00  0.1610E+00  0.1610E+00
     -2.158  0.0000E+00  0.0000E+00  0.1610E+00  0.1610E+00
     -2.119  0.0000E+00  0.0000E+00  0.1610E+00  0.1610E+00
     -2.080  0.0000E+00  0.0000E+00  0.1610E+00  0.1610E+00
     -2.041  0.0000E+00  0.0000E+00  0.1620E+00  0.1620E+00
     -2.003  0.0000E+00  0.0000E+00  0.1620E+00  0.1620E+00
     -1.964  0.0000E+00  0.0000E+00  0.1620E+00  0.1620E+00
     -1.925  0.0000E+00  0.0000E+00  0.1620E+00  0.1620E+00
     -1.886  0.0000E+00  0.0000E+00  0.1630E+00  0.1630E+00
     -1.847  0.0000E+00  0.0000E+00  0.1630E+00  0.1630E+00
     -1.808  0.0000E+00  0.0000E+00  0.1640E+00  0.1640E+00
     -1.769  0.0000E+00  0.0000E+00  0.1640E+00  0.1640E+00
     -1.730  0.0000E+00  0.0000E+00  0.1640E+00  0.1640E+00
     -1.691  0.0000E+00  0.0000E+00  0.1640E+00  0.1640E+00
     -1.653  0.0000E+00  0.0000E+00  0.1640E+00  0.1640E+00
     -1.614  0.0000E+00  0.0000E+00  0.1640E+00  0.1640E+00
     -1.575  0.0000E+00  0.0000E+00  0.1650E+00  0.1650E+00
     -1.536  0.0000E+00  0.0000E+00  0.1650E+00  0.1650E+00
     -1.497  0.0000E+00  0.0000E+00  0.1650E+00  0.1650E+00
     -1.458  0.0000E+00  0.0000E+00  0.1650E+00  0.1650E+00
     -1.419  0.0000E+00  0.0000E+00  0.1650E+00  0.1650E+00
     -1.380  0.0000E+00  0.0000E+00  0.1660E+00  0.1660E+00
     -1.342  0.0000E+00  0.0000E+00  0.1660E+00  0.1660E+00
     -1.303  0.0000E+00  0.0000E+00  0.1670E+00  0.1670E+00
     -1.264  0.0000E+00  0.0000E+00  0.1670E+00  0.1670E+00
     -1.225  0.0000E+00  0.0000E+00  0.1670E+00  0.1670E+00
     -1.186  0.0000E+00  0.0000E+00  0.1670E+00  0.1670E+00
     -1.147  0.0000E+00  0.0000E+00  0.1670E+00  0.1670E+00
     -1.108  0.0000E+00  0.0000E+00  0.1670E+00  0.1670E+00
     -1.069  0.0000E+00  0.0000E+00  0.1680E+00  0.1680E+00
     -1.030  0.0000E+00  0.0000E+00  0.1680E+00  0.1680E+00
     -0.992  0.0000E+00  0.0000E+00  0.1680E+00  0.1680E+00
     -0.953  0.0000E+00  0.0000E+00  0.1680E+00  0.1680E+00
     -0.914  0.0000E+00  0.0000E+00  0.1700E+00  0.1700E+00
     -0.875  0.0000E+00  0.0000E+00  0.1700E+00  0.1700E+00
     -0.836  0.0000E+00  0.0000E+00  0.1700E+00  0.1700E+00
     -0.797  0.0000E+00  0.0000E+00  0.1710E+00  0.1710E+00
     -0.758  0.0000E+00  0.0000E+00  0.1710E+00  0.1710E+00
     -0.719  0.0000E+00  0.0000E+00  0.1710E+00  0.1710E+00
     -0.681  0.0000E+00  0.0000E+00  0.1720E+00  0.1720E+00
     -0.642  0.0000E+00  0.0000E+00  0.1730E+00  0.1730E+00
     -0.603  0.0000E+00  0.0000E+00  0.1730E+00  0.1730E+00
     -0.564  0.0000E+00  0.0000E+00  0.1730E+00  0.1730E+00
     -0.525  0.0000E+00  0.0000E+00  0.1730E+00  0.1730E+00
     -0.486  0.0000E+00  0.0000E+00  0.1740E+00  0.1740E+00
     -0.447  0.0000E+00  0.0000E+00  0.1750E+00  0.1750E+00
     -0.408  0.0000E+00  0.0000E+00  0.1750E+00  0.1750E+00
     -0.369  0.0000E+00  0.0000E+00  0.1760E+00  0.1760E+00
     -0.331  0.0000E+00  0.0000E+00  0.1760E+00  0.1760E+00
     -0.292  0.0000E+00  0.0000E+00  0.1760E+00  0.1760E+00
     -0.253  0.0000E+00  0.0000E+00  0.1770E+00  0.1770E+00
     -0.214  0.0000E+00  0.0000E+00  0.1780E+00  0.1780E+00
     -0.175  0.0000E+00  0.0000E+00  0.1790E+00  0.1790E+00
     -0.136  0.0000E+00  0.0000E+00  0.1790E+00  0.1790E+00
     -0.097  0.0000E+00  0.0000E+00  0.1790E+00  0.1790E+00
     -0.058  0.0000E+00  0.0000E+00  0.1790E+00  0.1790E+00
     -0.020  0.0000E+00  0.0000E+00  0.1790E+00  0.1790E+00
      0.019  0.0000E+00  0.0000E+00  0.1790E+00  0.1790E+00
      0.058  0.0000E+00  0.0000E+00  0.1800E+00  0.1800E+00
      0.097  0.0000E+00  0.0000E+00  0.1800E+00  0.1800E+00
      0.136  0.0000E+00  0.0000E+00  0.1810E+00  0.1810E+00
      0.175  0.0000E+00  0.0000E+00  0.1810E+00  0.1810E+00
      0.214  0.0000E+00  0.0000E+00  0.1810E+00  0.1810E+00
      0.253  0.0000E+00  0.0000E+00  0.1810E+00  0.1810E+00
      0.292  0.0000E+00  0.0000E+00  0.1810E+00  0.1810E+00
      0.330  0.0000E+00  0.0000E+00  0.1820E+00  0.1820E+00
      0.369  0.0000E+00  0.0000E+00  0.1820E+00  0.1820E+00
      0.408  0.0000E+00  0.0000E+00  0.1820E+00  0.1820E+00
      0.447  0.0000E+00  0.0000E+00  0.1820E+00  0.1820E+00
      0.486  0.0000E+00  0.0000E+00  0.1820E+00  0.1820E+00
      0.525  0.0000E+00  0.0000E+00  0.1820E+00  0.1820E+00
      0.564  0.0000E+00  0.0000E+00  0.1830E+00  0.1830E+00
      0.603  0.0000E+00  0.0000E+00  0.1830E+00  0.1830E+00
      0.641  0.0000E+00  0.0000E+00  0.1840E+00  0.1840E+00
      0.680  0.0000E+00  0.0000E+00  0.1840E+00  0.1840E+00
      0.719  0.0000E+00  0.0000E+00  0.1840E+00  0.1840E+00
      0.758  0.0000E+00  0.0000E+00  0.1850E+00  0.1850E+00
      0.797  0.0000E+00  0.0000E+00  0.1870E+00  0.1870E+00
      0.836  0.0000E+00  0.0000E+00  0.1890E+00  0.1890E+00
      0.875  0.0000E+00  0.0000E+00  0.1900E+00  0.1900E+00
      0.914  0.0000E+00  0.0000E+00  0.1910E+00  0.1910E+00
      0.953  0.0000E+00  0.0000E+00  0.1910E+00  0.1910E+00
      0.991  0.0000E+00  0.0000E+00  0.1920E+00  0.1920E+00
      1.030  0.0000E+00  0.0000E+00  0.1930E+00  0.1930E+00
      1.069  0.0000E+00  0.0000E+00  0.1940E+00  0.1940E+00
      1.108  0.0000E+00  0.0000E+00  0.1960E+00  0.1960E+00
      1.147  0.0000E+00  0.0000E+00  0.1980E+00  0.1980E+00
      1.186  0.0000E+00  0.0000E+00  0.2000E+00  0.2000E+00
      1.225  0.0000E+00  0.0000E+00  0.2000E+00  0.2000E+00
      1.264  0.0000E+00  0.0000E+00  0.2000E+00  0.2000E+00
      1.303  0.0000E+00  0.0000E+00  0.2000E+00  0.2000E+00
      1.341  0.0000E+00  0.0000E+00  0.2000E+00  0.2000E+00
      1.380  0.0000E+00  0.0000E+00  0.2000E+00  0.2000E+00
      1.419  0.0000E+00  0.0000E+00  0.2000E+00  0.2000E+00
      1.458  0.0000E+00  0.0000E+00  0.2000E+00  0.2000E+00
      1.497  0.0000E+00  0.0000E+00  0.2000E+00  0.2000E+00
      1.536  0.0000E+00  0.0000E+00  0.2000E+00  0.2000E+00
      1.575  0.0000E+00  0.0000E+00  0.2000E+00  0.2000E+00
      1.614  0.0000E+00  0.0000E+00  0.2000E+00  0.2000E+00
      1.652  0.0000E+00  0.0000E+00  0.2000E+00  0.2000E+00
      1.691  0.0000E+00  0.0000E+00  0.2000E+00  0.2000E+00
