unknown system                          
           1
    20.692247    0.000000    0.000000
     0.000000   20.692247    0.000000
     0.000000    0.000000   20.692247
   Ag
  28
Direct configuration=     1
   0.64141135  0.63932523  0.52865012
   0.56151322  0.64561369  0.41860782
   0.69313816  0.65612403  0.40421632
   0.60530171  0.62320926  0.65326154
   0.50540969  0.53737604  0.34964647
   0.63063061  0.57064351  0.32249540
   0.50908256  0.65069783  0.54687405
   0.63619319  0.51110038  0.57935357
   0.43715717  0.62418490  0.43441784
   0.66141156  0.53231066  0.44951985
   0.40344937  0.56782694  0.55501350
   0.47487523  0.64962124  0.67556046
   0.51202689  0.52897720  0.62477565
   0.52655110  0.52615375  0.48863192
   0.61892835  0.44048917  0.35750204
   0.61325476  0.41452176  0.48690951
   0.31278346  0.59630593  0.44877406
   0.40350118  0.54332517  0.70319951
   0.55592214  0.40696542  0.60278131
   0.39651920  0.49557299  0.40959575
   0.46936452  0.42330067  0.70405989
   0.49261588  0.41075896  0.40407313
   0.31191682  0.48257959  0.51237580
   0.58887866  0.31652269  0.39217707
   0.44046201  0.43211359  0.52385101
   0.51572603  0.31894615  0.50414214
   0.44461054  0.32751063  0.61436350
   0.35684070  0.45008402  0.62688134
Direct configuration=     2
   0.64157210  0.63935206  0.52855274
   0.56174204  0.64558298  0.41837696
   0.69320139  0.65613296  0.40422643
   0.60522363  0.62319359  0.65329407
   0.50556248  0.53745358  0.34961800
   0.63061855  0.57070241  0.32248287
   0.50913172  0.65070343  0.54698696
   0.63624368  0.51113288  0.57934533
   0.43714508  0.62418569  0.43436439
   0.66154168  0.53239910  0.44936281
   0.40334559  0.56782133  0.55510072
   0.47480059  0.64966026  0.67556743
   0.51196830  0.52902910  0.62495788
   0.52656195  0.52619100  0.48855665
   0.61893597  0.44061383  0.35733867
   0.61331465  0.41438515  0.48678569
   0.31268079  0.59638119  0.44875193
   0.40343530  0.54339968  0.70331793
   0.55580899  0.40682159  0.60291779
   0.39636424  0.49573600  0.40968219
   0.46928821  0.42337703  0.70402183
   0.49286367  0.41063281  0.40392466
   0.31170462  0.48243652  0.51238114
   0.58886408  0.31648702  0.39214496
   0.44033549  0.43200804  0.52408774
   0.51577847  0.31890400  0.50411317
   0.44452795  0.32757444  0.61442601
   0.35691483  0.44986374  0.62702362
Direct configuration=     3
   0.64205437  0.63943252  0.52826060
   0.56242851  0.64549086  0.41768437
   0.69339108  0.65615975  0.40425676
   0.60498942  0.62314659  0.65339166
   0.50602085  0.53768621  0.34953260
   0.63058240  0.57087912  0.32244527
   0.50927919  0.65072022  0.54732569
   0.63639514  0.51123038  0.57932059
   0.43710881  0.62418806  0.43420404
   0.66193205  0.53266441  0.44889170
   0.40303426  0.56780448  0.55536239
   0.47457668  0.64977731  0.67558836
   0.51179255  0.52918480  0.62550454
   0.52659450  0.52630274  0.48833085
   0.61895883  0.44098781  0.35684856
   0.61349429  0.41397533  0.48641423
   0.31237278  0.59660696  0.44868554
   0.40323765  0.54362320  0.70367318
   0.55546953  0.40639009  0.60332724
   0.39589935  0.49622502  0.40994152
   0.46905929  0.42360613  0.70390765
   0.49360706  0.41025437  0.40347923
   0.31106801  0.48200734  0.51239716
   0.58882031  0.31638002  0.39204863
   0.43995593  0.43169138  0.52479794
   0.51593580  0.31877756  0.50402628
   0.44428018  0.32776588  0.61461353
   0.35713722  0.44920290  0.62745047
Direct configuration=     4
   0.64301891  0.63959345  0.52767630
   0.56380145  0.64530662  0.41629920
   0.69377046  0.65621333  0.40431741
   0.60452099  0.62305259  0.65358685
   0.50693759  0.53815146  0.34936180
   0.63051009  0.57123253  0.32237009
   0.50957413  0.65075381  0.54800315
   0.63669806  0.51142538  0.57927113
   0.43703626  0.62419278  0.43388333
   0.66271280  0.53319504  0.44794947
   0.40241161  0.56777078  0.55588573
   0.47412885  0.65001141  0.67563022
   0.51144105  0.52949619  0.62659787
   0.52665960  0.52652621  0.48787924
   0.61900454  0.44173576  0.35586835
   0.61385358  0.41315569  0.48567130
   0.31175677  0.59705851  0.44855277
   0.40284235  0.54407025  0.70438370
   0.55479061  0.40552709  0.60414614
   0.39496957  0.49720307  0.41046019
   0.46860145  0.42406431  0.70367928
   0.49509385  0.40949748  0.40258837
   0.30979479  0.48114898  0.51242920
   0.58873279  0.31616601  0.39185597
   0.43919682  0.43105806  0.52621834
   0.51625046  0.31852469  0.50385249
   0.44378464  0.32814874  0.61498857
   0.35758200  0.44788123  0.62830415
Direct configuration=     5
   0.64494799  0.63991531  0.52650771
   0.56654733  0.64493814  0.41352886
   0.69452922  0.65632048  0.40443871
   0.60358412  0.62286460  0.65397721
   0.50877107  0.53908196  0.34902019
   0.63036548  0.57193935  0.32221973
   0.51016402  0.65082098  0.54935807
   0.63730391  0.51181537  0.57917219
   0.43689116  0.62420224  0.43324190
   0.66427429  0.53425629  0.44606501
   0.40116630  0.56770339  0.55693241
   0.47323319  0.65047961  0.67571395
   0.51073804  0.53011898  0.62878453
   0.52678980  0.52697316  0.48697602
   0.61909596  0.44323165  0.35390792
   0.61457216  0.41151641  0.48418544
   0.31052473  0.59796160  0.44828723
   0.40205175  0.54496434  0.70580472
   0.55343278  0.40380110  0.60578393
   0.39311002  0.49915917  0.41149751
   0.46768577  0.42498068  0.70322256
   0.49806741  0.40798369  0.40080665
   0.30724836  0.47943225  0.51249327
   0.58855774  0.31573800  0.39147064
   0.43767859  0.42979142  0.52905915
   0.51687976  0.31801894  0.50350491
   0.44279355  0.32891446  0.61573866
   0.35847156  0.44523787  0.63001152
Direct configuration=     6
   0.64399330  0.63975603  0.52708604
   0.56518841  0.64512050  0.41489989
   0.69415372  0.65626745  0.40437867
   0.60404777  0.62295764  0.65378402
   0.50786368  0.53862146  0.34918925
   0.63043705  0.57158954  0.32229414
   0.50987208  0.65078774  0.54868752
   0.63700408  0.51162237  0.57922115
   0.43696297  0.62419756  0.43355934
   0.66350151  0.53373108  0.44699762
   0.40178260  0.56773674  0.55641441
   0.47367645  0.65024790  0.67567251
   0.51108596  0.52981076  0.62770236
   0.52672537  0.52675196  0.48742302
   0.61905071  0.44249134  0.35487813
   0.61421654  0.41232768  0.48492079
   0.31113446  0.59751466  0.44841865
   0.40244302  0.54452186  0.70510146
   0.55410477  0.40465529  0.60497339
   0.39403030  0.49819110  0.41098414
   0.46813894  0.42452717  0.70344859
   0.49659580  0.40873286  0.40168842
   0.30850858  0.48028185  0.51246156
   0.58864437  0.31594982  0.39166134
   0.43842995  0.43041827  0.52765325
   0.51656832  0.31826923  0.50367693
   0.44328403  0.32853551  0.61536744
   0.35803132  0.44654606  0.62916655
Direct configuration=     7
   0.64455927  0.63979347  0.52703942
   0.56530182  0.64504807  0.41431194
   0.69508026  0.65661879  0.40420033
   0.60378579  0.62295879  0.65365336
   0.50795936  0.53861993  0.34934928
   0.63081640  0.57203926  0.32171299
   0.51018732  0.65055000  0.54870419
   0.63672946  0.51150508  0.57886644
   0.43747053  0.62432416  0.43353793
   0.66390558  0.53361297  0.44672348
   0.40133982  0.56755166  0.55666194
   0.47322088  0.65055689  0.67584077
   0.51106999  0.52974941  0.62810734
   0.52654788  0.52662677  0.48735053
   0.61918818  0.44284571  0.35405664
   0.61442849  0.41228874  0.48480833
   0.31072029  0.59770853  0.44855594
   0.40191701  0.54483113  0.70564781
   0.55404979  0.40443544  0.60498326
   0.39432228  0.49830398  0.41145344
   0.46771251  0.42495350  0.70370941
   0.49673735  0.40920830  0.40161725
   0.30787852  0.47966301  0.51289103
   0.58891140  0.31563274  0.39126279
   0.43835678  0.43027060  0.52758541
   0.51663114  0.31814542  0.50378378
   0.44269387  0.32839355  0.61558387
   0.35795410  0.44592554  0.62971171
Direct configuration=     8
   0.64625718  0.63990580  0.52689955
   0.56564207  0.64483078  0.41254807
   0.69785988  0.65767280  0.40366528
   0.60299984  0.62296227  0.65326136
   0.50824640  0.53861536  0.34982937
   0.63195445  0.57338840  0.31996954
   0.51113303  0.64983677  0.54875417
   0.63590559  0.51115324  0.57780232
   0.43899320  0.62470396  0.43347371
   0.66511778  0.53325864  0.44590105
   0.40001151  0.56699641  0.55740452
   0.47185420  0.65148386  0.67634553
   0.51102210  0.52956534  0.62932226
   0.52601543  0.52625120  0.48713305
   0.61960059  0.44390881  0.35159218
   0.61506433  0.41217189  0.48447096
   0.30947776  0.59829012  0.44896783
   0.40033900  0.54575895  0.70728686
   0.55388486  0.40377592  0.60501286
   0.39519820  0.49864261  0.41286132
   0.46643321  0.42623249  0.70449186
   0.49716201  0.41063460  0.40140377
   0.30598832  0.47780646  0.51417945
   0.58971247  0.31468149  0.39006713
   0.43813726  0.42982759  0.52738191
   0.51681959  0.31777398  0.50410433
   0.44092337  0.32796769  0.61623317
   0.35772242  0.44406399  0.63134719
Direct configuration=     9
   0.64965300  0.64013046  0.52661980
   0.56632258  0.64439621  0.40902034
   0.70341913  0.65978083  0.40259518
   0.60142794  0.62296922  0.65247736
   0.50882047  0.53860621  0.35078956
   0.63423056  0.57608669  0.31648264
   0.51302446  0.64841032  0.54885415
   0.63425787  0.51044955  0.57567406
   0.44203856  0.62546355  0.43334525
   0.66754219  0.53254999  0.44425618
   0.39735488  0.56588591  0.55888969
   0.46912082  0.65333782  0.67735505
   0.51092632  0.52919720  0.63175211
   0.52495052  0.52550006  0.48669811
   0.62042542  0.44603503  0.34666325
   0.61633602  0.41193821  0.48379621
   0.30699271  0.59945330  0.44979161
   0.39718296  0.54761459  0.71056497
   0.55355500  0.40245687  0.60507206
   0.39695004  0.49931986  0.41567709
   0.46387461  0.42879047  0.70605676
   0.49801132  0.41348721  0.40097681
   0.30220792  0.47409337  0.51675629
   0.59131463  0.31277900  0.38767583
   0.43769821  0.42894156  0.52697492
   0.51719650  0.31703111  0.50474543
   0.43738237  0.32711595  0.61753175
   0.35725907  0.44034089  0.63461814
Direct configuration=    10
   0.64724099  0.63997089  0.52681850
   0.56583923  0.64470488  0.41152604
   0.69947047  0.65828352  0.40335526
   0.60254444  0.62296428  0.65303422
   0.50841272  0.53861271  0.35010755
   0.63261387  0.57417013  0.31895934
   0.51168100  0.64942351  0.54878314
   0.63542823  0.51094937  0.57718573
   0.43987548  0.62492402  0.43343649
   0.66582017  0.53305333  0.44542451
   0.39924185  0.56667468  0.55783480
   0.47106230  0.65202098  0.67663800
   0.51099435  0.52945868  0.63002622
   0.52570691  0.52603358  0.48700705
   0.61983956  0.44452481  0.35016420
   0.61543275  0.41210419  0.48427548
   0.30875781  0.59862711  0.44920649
   0.39942465  0.54629655  0.70823658
   0.55378930  0.40339377  0.60503001
   0.39570573  0.49883882  0.41367709
   0.46569195  0.42697357  0.70494523
   0.49740806  0.41146104  0.40128007
   0.30489309  0.47673073  0.51492599
   0.59017664  0.31413031  0.38937434
   0.43801006  0.42957090  0.52726400
   0.51692879  0.31755876  0.50429006
   0.43989749  0.32772093  0.61660938
   0.35758818  0.44298536  0.63229482
Direct configuration=    11
   0.64800335  0.63971668  0.52635135
   0.56715091  0.64485688  0.41133520
   0.70042397  0.65843043  0.40314860
   0.60220248  0.62312881  0.65246898
   0.50886970  0.53852507  0.34995418
   0.63361493  0.57502371  0.31802050
   0.51208469  0.64844278  0.54866311
   0.63449570  0.51083629  0.57630769
   0.43944963  0.62503845  0.43412006
   0.66607066  0.53311433  0.44488173
   0.39892032  0.56603928  0.55800349
   0.47034546  0.65220737  0.67652510
   0.51047212  0.52934857  0.63028089
   0.52537898  0.52565452  0.48736828
   0.61995606  0.44465694  0.34944184
   0.61544186  0.41224497  0.48354801
   0.30949076  0.59808277  0.44983576
   0.39860842  0.54666122  0.70878263
   0.55333057  0.40349119  0.60477307
   0.39610235  0.49907646  0.41519372
   0.46536738  0.42721831  0.70553512
   0.49794931  0.41192721  0.40176275
   0.30452187  0.47630258  0.51573306
   0.59020960  0.31481633  0.38904483
   0.43783830  0.42944205  0.52696386
   0.51703951  0.31772815  0.50422767
   0.43916131  0.32768076  0.61676933
   0.35697587  0.44246935  0.63266979
Direct configuration=    12
   0.64964435  0.63916950  0.52534579
   0.56997432  0.64518406  0.41092440
   0.70247639  0.65874664  0.40270375
   0.60146642  0.62348295  0.65125229
   0.50985336  0.53833643  0.34962405
   0.63576971  0.57686105  0.31599964
   0.51295363  0.64633175  0.54840474
   0.63248841  0.51059286  0.57441769
   0.43853299  0.62528475  0.43559146
   0.66660985  0.53324564  0.44371339
   0.39822822  0.56467157  0.55836659
   0.46880245  0.65260857  0.67628208
   0.50934801  0.52911155  0.63082909
   0.52467312  0.52483859  0.48814585
   0.62020684  0.44494136  0.34788693
   0.61546146  0.41254800  0.48198212
   0.31106844  0.59691107  0.45119026
   0.39685148  0.54744616  0.70995803
   0.55234315  0.40370088  0.60422001
   0.39695609  0.49958798  0.41845828
   0.46466874  0.42774511  0.70680486
   0.49911435  0.41293065  0.40280172
   0.30372281  0.47538097  0.51747029
   0.59028054  0.31629299  0.38833554
   0.43746860  0.42916470  0.52631781
   0.51727784  0.31809275  0.50409337
   0.43757665  0.32759429  0.61711364
   0.35565784  0.44135863  0.63347691
Direct configuration=    13
   0.65020270  0.63873491  0.52489091
   0.57023131  0.64479833  0.41158733
   0.70340438  0.65843043  0.40251863
   0.60115295  0.62366685  0.65040449
   0.51103983  0.53908908  0.34979667
   0.63643320  0.57708232  0.31533477
   0.51323484  0.64531892  0.54821119
   0.63153104  0.51087364  0.57373360
   0.43993426  0.62580200  0.43634509
   0.66640135  0.53351910  0.44237803
   0.39839159  0.56392839  0.55880136
   0.46803167  0.65221402  0.67547613
   0.50826540  0.52917648  0.63125821
   0.52440203  0.52468779  0.48810768
   0.62053756  0.44552975  0.34750449
   0.61538659  0.41284552  0.48112059
   0.31159520  0.59605347  0.45224133
   0.39629416  0.54721542  0.70969908
   0.55125369  0.40408818  0.60377823
   0.39767881  0.49953406  0.41969931
   0.46446492  0.42748573  0.70725402
   0.49943728  0.41312994  0.40329323
   0.30343491  0.47539193  0.51808511
   0.59012720  0.31739375  0.38809137
   0.43673813  0.42820716  0.52730760
   0.51724292  0.31849868  0.50402991
   0.43751611  0.32811582  0.61695777
   0.35511206  0.44134973  0.63380445
Direct configuration=    14
   0.65095071  0.63815270  0.52428150
   0.57057561  0.64428158  0.41247545
   0.70464761  0.65800680  0.40227062
   0.60073299  0.62391323  0.64926870
   0.51262933  0.54009741  0.35002793
   0.63732207  0.57737875  0.31444404
   0.51361156  0.64396203  0.54795188
   0.63024844  0.51124979  0.57281712
   0.44181155  0.62649496  0.43735474
   0.66612201  0.53388547  0.44058906
   0.39861045  0.56293276  0.55938381
   0.46699905  0.65168544  0.67439640
   0.50681502  0.52926346  0.63183311
   0.52403884  0.52448577  0.48805655
   0.62098064  0.44631802  0.34699214
   0.61528628  0.41324410  0.47996640
   0.31230090  0.59490454  0.45364946
   0.39554751  0.54690629  0.70935216
   0.54979414  0.40460706  0.60318638
   0.39864703  0.49946182  0.42136193
   0.46419185  0.42713823  0.70785575
   0.49986991  0.41339694  0.40395171
   0.30304922  0.47540662  0.51890878
   0.58992177  0.31886844  0.38776427
   0.43575952  0.42692434  0.52863363
   0.51719614  0.31904251  0.50394489
   0.43743500  0.32881452  0.61674895
   0.35438087  0.44133781  0.63424326
Direct configuration=    15
   0.65075261  0.63830689  0.52444289
   0.57048443  0.64441843  0.41224024
   0.70431836  0.65811899  0.40233630
   0.60084421  0.62384798  0.64956950
   0.51220837  0.53983037  0.34996669
   0.63708667  0.57730024  0.31467994
   0.51351179  0.64432139  0.54802055
   0.63058812  0.51115017  0.57305983
   0.44131437  0.62631144  0.43708735
   0.66619599  0.53378844  0.44106284
   0.39855249  0.56319644  0.55922955
   0.46727253  0.65182543  0.67468235
   0.50719914  0.52924043  0.63168086
   0.52413503  0.52453928  0.48807009
   0.62086330  0.44610926  0.34712783
   0.61531285  0.41313854  0.48027207
   0.31211401  0.59520882  0.45327653
   0.39574525  0.54698816  0.70944404
   0.55018068  0.40446964  0.60334312
   0.39839061  0.49948095  0.42092160
   0.46426417  0.42723026  0.70769639
   0.49975534  0.41332623  0.40377732
   0.30315136  0.47540273  0.51869064
   0.58997617  0.31847789  0.38785090
   0.43601869  0.42726408  0.52828245
   0.51720853  0.31889849  0.50396741
   0.43745648  0.32862948  0.61680425
   0.35457452  0.44134097  0.63412705
Direct configuration=    16
   0.65111847  0.63816975  0.52438452
   0.57111009  0.64427848  0.41276614
   0.70456629  0.65766827  0.40215829
   0.60080243  0.62382895  0.64926292
   0.51272605  0.54018849  0.35034474
   0.63710373  0.57738592  0.31447129
   0.51389969  0.64448420  0.54837886
   0.62987461  0.51140188  0.57299122
   0.44155152  0.62631074  0.43702081
   0.66574925  0.53393710  0.44023215
   0.39869112  0.56310515  0.55944772
   0.46646028  0.65151027  0.67376225
   0.50724112  0.52900446  0.63219043
   0.52374089  0.52365324  0.48784397
   0.62118561  0.44656504  0.34681844
   0.61553511  0.41374487  0.48028676
   0.31264015  0.59510630  0.45384727
   0.39544923  0.54645532  0.70902574
   0.55002849  0.40525578  0.60301269
   0.39936426  0.49956540  0.42141210
   0.46414793  0.42674334  0.70799359
   0.49911547  0.41380626  0.40369210
   0.30283759  0.47557704  0.51883231
   0.59010099  0.31863973  0.38737492
   0.43528266  0.42712706  0.52852554
   0.51715691  0.31893154  0.50373446
   0.43772124  0.32816164  0.61712029
   0.35427486  0.44155523  0.63477907
Direct configuration=    17
   0.65140355  0.63806290  0.52433904
   0.57159760  0.64416944  0.41317591
   0.70475947  0.65731708  0.40201958
   0.60076987  0.62381411  0.64902403
   0.51312942  0.54046754  0.35063931
   0.63711702  0.57745269  0.31430872
   0.51420194  0.64461106  0.54865805
   0.62931867  0.51159800  0.57293776
   0.44173630  0.62631019  0.43696897
   0.66540115  0.53405293  0.43958490
   0.39879914  0.56303402  0.55961771
   0.46582740  0.65126470  0.67304532
   0.50727383  0.52882061  0.63258747
   0.52343379  0.52296286  0.48766779
   0.62143675  0.44692017  0.34657738
   0.61570829  0.41421730  0.48029820
   0.31305011  0.59502641  0.45429198
   0.39521858  0.54604015  0.70869982
   0.54990990  0.40586832  0.60275522
   0.40012290  0.49963120  0.42179429
   0.46405736  0.42636395  0.70822516
   0.49861691  0.41418029  0.40362570
   0.30259311  0.47571285  0.51894269
   0.59019824  0.31876583  0.38700405
   0.43470916  0.42702029  0.52871495
   0.51711669  0.31895730  0.50355295
   0.43792754  0.32779711  0.61736653
   0.35404137  0.44172217  0.63528711
Direct configuration=    18
   0.65174162  0.63817023  0.52459119
   0.57165069  0.64439989  0.41335462
   0.70498928  0.65730284  0.40188081
   0.60101075  0.62380034  0.64958291
   0.51293537  0.54047976  0.35051961
   0.63692170  0.57779047  0.31386657
   0.51428133  0.64457144  0.54782070
   0.62947002  0.51205448  0.57295537
   0.44182929  0.62640865  0.43688823
   0.66522665  0.53407305  0.44031802
   0.39903303  0.56337487  0.55971658
   0.46516745  0.65129751  0.67286648
   0.50761695  0.52886377  0.63303046
   0.52328475  0.52312583  0.48832328
   0.62116857  0.44623653  0.34650951
   0.61559107  0.41379040  0.48000007
   0.31320666  0.59541449  0.45420967
   0.39514602  0.54610282  0.70888845
   0.54987037  0.40560908  0.60251374
   0.39919974  0.50031444  0.42159871
   0.46410671  0.42599752  0.70818946
   0.49944661  0.41304405  0.40305037
   0.30269899  0.47574057  0.51916580
   0.59000884  0.31931899  0.38706442
   0.43441649  0.42665710  0.52898998
   0.51721653  0.31928077  0.50329714
   0.43835854  0.32755177  0.61752856
   0.35388203  0.44138978  0.63498987
Direct configuration=    19
   0.65168834  0.63815331  0.52455145
   0.57164232  0.64436357  0.41332645
   0.70495306  0.65730508  0.40190268
   0.60097279  0.62380251  0.64949483
   0.51296595  0.54047784  0.35053847
   0.63695248  0.57773723  0.31393625
   0.51426882  0.64457768  0.54795266
   0.62944617  0.51198254  0.57295259
   0.44181464  0.62639313  0.43690095
   0.66525415  0.53406988  0.44020248
   0.39899617  0.56332115  0.55970100
   0.46527146  0.65129234  0.67289467
   0.50756287  0.52885697  0.63296065
   0.52330824  0.52310015  0.48821998
   0.62121084  0.44634427  0.34652020
   0.61560954  0.41385768  0.48004706
   0.31318199  0.59535333  0.45422264
   0.39515745  0.54609295  0.70885872
   0.54987660  0.40564993  0.60255179
   0.39934523  0.50020676  0.42162953
   0.46409893  0.42605527  0.70819509
   0.49931585  0.41322311  0.40314104
   0.30268230  0.47573620  0.51913064
   0.59003869  0.31923181  0.38705490
   0.43446262  0.42671434  0.52894663
   0.51720080  0.31922979  0.50333746
   0.43829062  0.32759043  0.61750303
   0.35390714  0.44144216  0.63503671
Direct configuration=    20
   0.65211552  0.63841710  0.52485009
   0.57180799  0.64453225  0.41341407
   0.70509499  0.65713822  0.40179145
   0.60100126  0.62385781  0.64991431
   0.51278250  0.54033460  0.35068391
   0.63665159  0.57788261  0.31383207
   0.51458343  0.64468450  0.54767358
   0.62954066  0.51219652  0.57302582
   0.44190083  0.62652334  0.43662226
   0.66494105  0.53404736  0.44051522
   0.39928775  0.56362239  0.55987857
   0.46470353  0.65129781  0.67236785
   0.50793234  0.52888360  0.63352899
   0.52291943  0.52278510  0.48860344
   0.62113012  0.44624113  0.34634669
   0.61563361  0.41380412  0.48005327
   0.31315785  0.59597451  0.45422029
   0.39505757  0.54589541  0.70898881
   0.54994405  0.40558814  0.60228916
   0.39929161  0.50011113  0.42143264
   0.46405751  0.42577065  0.70807289
   0.49898737  0.41329902  0.40280609
   0.30276127  0.47590848  0.51932003
   0.59022622  0.31912260  0.38684344
   0.43421551  0.42658052  0.52868483
   0.51718740  0.31940079  0.50317574
   0.43873850  0.32718558  0.61771914
   0.35382462  0.44107615  0.63505591
Direct configuration=    21
   0.65271301  0.63878606  0.52526781
   0.57203970  0.64476817  0.41353662
   0.70529350  0.65690482  0.40163587
   0.60104107  0.62393516  0.65050104
   0.51252591  0.54013426  0.35088734
   0.63623073  0.57808595  0.31368635
   0.51502346  0.64483390  0.54728323
   0.62967281  0.51249581  0.57312824
   0.44202140  0.62670547  0.43623245
   0.66450311  0.53401586  0.44095264
   0.39969559  0.56404372  0.56012694
   0.46390917  0.65130545  0.67163098
   0.50844912  0.52892085  0.63432392
   0.52237560  0.52234445  0.48913979
   0.62101723  0.44609686  0.34610399
   0.61566727  0.41372921  0.48006196
   0.31312409  0.59684335  0.45421701
   0.39491788  0.54561912  0.70917077
   0.55003839  0.40550171  0.60192181
   0.39921662  0.49997737  0.42115726
   0.46399958  0.42537256  0.70790197
   0.49852792  0.41340518  0.40233759
   0.30287172  0.47614944  0.51958494
   0.59048852  0.31896984  0.38654766
   0.43386989  0.42639335  0.52831866
   0.51716866  0.31963997  0.50294955
   0.43936494  0.32661932  0.61802143
   0.35370919  0.44056422  0.63508277
Direct configuration=    22
   0.65313333  0.63903532  0.52548358
   0.57217997  0.64477283  0.41364604
   0.70536245  0.65656181  0.40162122
   0.60095597  0.62408997  0.65063339
   0.51257829  0.54018523  0.35114793
   0.63591406  0.57805355  0.31387022
   0.51549594  0.64487734  0.54730455
   0.62962116  0.51260449  0.57322501
   0.44210696  0.62667562  0.43600240
   0.66409820  0.53414675  0.44081540
   0.39999749  0.56419254  0.56027935
   0.46342323  0.65120097  0.67093163
   0.50870222  0.52885202  0.63480272
   0.52209620  0.52204126  0.48940050
   0.62095975  0.44629880  0.34604732
   0.61561592  0.41378908  0.47994629
   0.31340267  0.59712564  0.45432341
   0.39482291  0.54525018  0.70915067
   0.54999036  0.40573347  0.60175613
   0.39893975  0.50019224  0.42113225
   0.46396797  0.42519058  0.70772130
   0.49842368  0.41335452  0.40214766
   0.30302919  0.47662733  0.51970764
   0.59053286  0.31895866  0.38642100
   0.43351193  0.42602752  0.52831456
   0.51713386  0.31968805  0.50265452
   0.43971751  0.32642664  0.61805833
   0.35376226  0.44020901  0.63516559
Direct configuration=    23
   0.65388725  0.63948242  0.52587061
   0.57243155  0.64478119  0.41384231
   0.70548612  0.65594658  0.40159494
   0.60080331  0.62436765  0.65087078
   0.51267225  0.54027664  0.35161534
   0.63534605  0.57799543  0.31420001
   0.51634341  0.64495526  0.54734280
   0.62952851  0.51279943  0.57339858
   0.44226042  0.62662208  0.43558978
   0.66337192  0.53438151  0.44056923
   0.40053899  0.56445947  0.56055272
   0.46255162  0.65101356  0.66967721
   0.50915619  0.52872857  0.63566152
   0.52159504  0.52149745  0.48986812
   0.62085665  0.44666101  0.34594566
   0.61552380  0.41389647  0.47973880
   0.31390235  0.59763199  0.45451426
   0.39465257  0.54458841  0.70911462
   0.54990422  0.40614918  0.60145895
   0.39844314  0.50057765  0.42108738
   0.46391126  0.42486417  0.70739724
   0.49823671  0.41326367  0.40180699
   0.30331165  0.47748452  0.51992774
   0.59061240  0.31893861  0.38619383
   0.43286987  0.42537132  0.52830720
   0.51707145  0.31977430  0.50212533
   0.44034990  0.32608102  0.61812452
   0.35385746  0.43957188  0.63531414
Direct configuration=    24
   0.65437796  0.63953292  0.52600011
   0.57241734  0.64485764  0.41428673
   0.70576718  0.65541598  0.40167632
   0.60080233  0.62468813  0.65080237
   0.51264230  0.54037166  0.35207358
   0.63528429  0.57804850  0.31411052
   0.51685235  0.64472936  0.54699673
   0.62940696  0.51304230  0.57327040
   0.44281072  0.62668086  0.43576633
   0.66279207  0.53459452  0.44059688
   0.40106401  0.56448231  0.56077807
   0.46181898  0.65063769  0.66878326
   0.50921207  0.52879608  0.63599525
   0.52135043  0.52124063  0.49011730
   0.62073259  0.44673038  0.34595305
   0.61539026  0.41411287  0.47945567
   0.31418235  0.59785998  0.45483044
   0.39454302  0.54416138  0.70895109
   0.54968690  0.40653539  0.60114124
   0.39845089  0.50055773  0.42128931
   0.46404999  0.42466572  0.70740829
   0.49815274  0.41330661  0.40186535
   0.30347577  0.47814807  0.52033265
   0.59052488  0.31918502  0.38609367
   0.43232918  0.42490725  0.52812002
   0.51704001  0.31971127  0.50183898
   0.44061792  0.32593178  0.61792112
   0.35370059  0.43922939  0.63525586
Direct configuration=    25
   0.65532398  0.63963027  0.52624977
   0.57238993  0.64500504  0.41514352
   0.70630904  0.65439306  0.40183322
   0.60080044  0.62530597  0.65067048
   0.51258456  0.54055485  0.35295703
   0.63516521  0.57815082  0.31393800
   0.51783351  0.64429385  0.54632955
   0.62917262  0.51351054  0.57302328
   0.44387163  0.62679418  0.43610670
   0.66167419  0.53500518  0.44065018
   0.40207619  0.56452635  0.56121252
   0.46040654  0.64991306  0.66705983
   0.50931980  0.52892622  0.63663865
   0.52087884  0.52074552  0.49059769
   0.62049343  0.44686410  0.34596730
   0.61513282  0.41453006  0.47890984
   0.31472216  0.59829952  0.45544000
   0.39433182  0.54333810  0.70863582
   0.54926793  0.40727995  0.60052873
   0.39846582  0.50051933  0.42167860
   0.46431743  0.42428315  0.70742958
   0.49799087  0.41338940  0.40197787
   0.30379216  0.47942733  0.52111326
   0.59035616  0.31966008  0.38590058
   0.43128679  0.42401256  0.52775916
   0.51697939  0.31958975  0.50128692
   0.44113464  0.32564406  0.61752900
   0.35339817  0.43856912  0.63514350
Direct configuration=    26
   0.65575952  0.63966538  0.52634576
   0.57272936  0.64517203  0.41529468
   0.70661468  0.65401413  0.40187800
   0.60081835  0.62552598  0.65058686
   0.51264607  0.54060344  0.35317415
   0.63514100  0.57827001  0.31383769
   0.51824654  0.64416104  0.54622383
   0.62906930  0.51371252  0.57296127
   0.44392145  0.62682599  0.43633801
   0.66128362  0.53507580  0.44068504
   0.40229523  0.56454164  0.56131337
   0.45984176  0.64975096  0.66629975
   0.50948134  0.52897467  0.63684272
   0.52073125  0.52044813  0.49077776
   0.62040859  0.44690695  0.34587822
   0.61504382  0.41463658  0.47881747
   0.31497799  0.59849249  0.45572908
   0.39415636  0.54295817  0.70856530
   0.54905856  0.40755533  0.60021758
   0.39850749  0.50056768  0.42187572
   0.46439076  0.42413061  0.70745074
   0.49787808  0.41345084  0.40205218
   0.30373379  0.47984843  0.52145548
   0.59030626  0.31983078  0.38578155
   0.43088320  0.42368699  0.52753581
   0.51696630  0.31951294  0.50122852
   0.44124648  0.32555152  0.61734455
   0.35333895  0.43829039  0.63521951
Direct configuration=    27
   0.65706611  0.63977069  0.52663373
   0.57374763  0.64567300  0.41574816
   0.70753160  0.65287733  0.40201235
   0.60087207  0.62618602  0.65033602
   0.51283060  0.54074923  0.35382554
   0.63506836  0.57862759  0.31353678
   0.51948563  0.64376261  0.54590666
   0.62875933  0.51431848  0.57277523
   0.44407090  0.62692143  0.43703195
   0.66011193  0.53528769  0.44078960
   0.40295235  0.56458750  0.56161591
   0.45814741  0.64926466  0.66401951
   0.50996594  0.52911999  0.63745491
   0.52028847  0.51955598  0.49131796
   0.62015406  0.44703552  0.34561097
   0.61477685  0.41495614  0.47854037
   0.31574548  0.59907140  0.45659630
   0.39363001  0.54181839  0.70835375
   0.54843047  0.40838146  0.59928412
   0.39863249  0.50071271  0.42246708
   0.46461073  0.42367300  0.70751419
   0.49753969  0.41363516  0.40227511
   0.30355866  0.48111173  0.52248216
   0.59015658  0.32034288  0.38542445
   0.42967241  0.42271026  0.52686573
   0.51692702  0.31928250  0.50105331
   0.44158200  0.32527389  0.61679121
   0.35316129  0.43745419  0.63544754
Direct configuration=    28
   0.65774357  0.63988097  0.52672004
   0.57411960  0.64591459  0.41550255
   0.70818355  0.65270905  0.40195824
   0.60100297  0.62633307  0.65040583
   0.51309775  0.54091915  0.35387668
   0.63503013  0.57880321  0.31346632
   0.52002321  0.64366950  0.54585809
   0.62876113  0.51448803  0.57287353