  11  11   0   0
  0.6015359E+03  0.1877377E-08  0.1877377E-08  0.1877377E-08  0.1000000E-15
  1.000000000000000E-004
  CAR 
 unknown system                          
      1.03861398     -9.66118386  301     -3.62471458      1.00000000
     -9.661  0.0000E+00  0.0000E+00  0.0000E+00  0.0000E+00
     -9.626  0.0000E+00  0.0000E+00  0.0000E+00  0.0000E+00
     -9.590  0.0000E+00  0.0000E+00  0.0000E+00  0.0000E+00
     -9.554  0.0000E+00  0.0000E+00  0.0000E+00  0.0000E+00
     -9.519  0.0000E+00  0.0000E+00  0.0000E+00  0.0000E+00
     -9.483  0.0000E+00  0.0000E+00  0.0000E+00  0.0000E+00
     -9.447  0.0000E+00  0.0000E+00  0.0000E+00  0.0000E+00
     -9.412  0.0000E+00  0.0000E+00  0.0000E+00  0.0000E+00
     -9.376  0.0000E+00  0.0000E+00  0.0000E+00  0.0000E+00
     -9.340  0.0000E+00  0.0000E+00  0.0000E+00  0.0000E+00
     -9.305  0.0000E+00  0.0000E+00  0.0000E+00  0.0000E+00
     -9.269  0.0000E+00  0.0000E+00  0.0000E+00  0.0000E+00
     -9.233  0.0000E+00  0.0000E+00  0.0000E+00  0.0000E+00
     -9.198  0.0000E+00  0.0000E+00  0.0000E+00  0.0000E+00
     -9.162  0.0000E+00  0.0000E+00  0.1000E-02  0.0000E+00
     -9.126  0.0000E+00  0.0000E+00  0.1000E-02  0.1000E-02
     -9.091  0.0000E+00  0.0000E+00  0.1000E-02  0.1000E-02
     -9.055  0.0000E+00  0.0000E+00  0.2000E-02  0.2000E-02
     -9.019  0.0000E+00  0.0000E+00  0.2000E-02  0.2000E-02
     -8.984  0.0000E+00  0.0000E+00  0.2000E-02  0.2000E-02
     -8.948  0.0000E+00  0.0000E+00  0.2000E-02  0.2000E-02
     -8.912  0.0000E+00  0.0000E+00  0.2000E-02  0.2000E-02
     -8.877  0.0000E+00  0.0000E+00  0.2000E-02  0.2000E-02
     -8.841  0.0000E+00  0.0000E+00  0.2000E-02  0.2000E-02
     -8.805  0.0000E+00  0.0000E+00  0.3000E-02  0.2000E-02
     -8.770  0.0000E+00  0.0000E+00  0.4000E-02  0.2000E-02
     -8.734  0.0000E+00  0.0000E+00  0.4000E-02  0.4000E-02
     -8.698  0.0000E+00  0.0000E+00  0.5000E-02  0.5000E-02
     -8.663  0.0000E+00  0.0000E+00  0.5000E-02  0.5000E-02
     -8.627  0.0000E+00  0.0000E+00  0.6000E-02  0.5000E-02
     -8.591  0.0000E+00  0.0000E+00  0.7000E-02  0.6000E-02
     -8.556  0.0000E+00  0.0000E+00  0.7000E-02  0.7000E-02
     -8.520  0.0000E+00  0.0000E+00  0.7000E-02  0.7000E-02
     -8.484  0.0000E+00  0.0000E+00  0.7000E-02  0.7000E-02
     -8.449  0.0000E+00  0.0000E+00  0.8000E-02  0.8000E-02
     -8.413  0.0000E+00  0.0000E+00  0.8000E-02  0.8000E-02
     -8.377  0.0000E+00  0.0000E+00  0.9000E-02  0.8000E-02
     -8.342  0.0000E+00  0.0000E+00  0.1000E-01  0.9000E-02
     -8.306  0.0000E+00  0.0000E+00  0.1100E-01  0.1100E-01
     -8.270  0.0000E+00  0.0000E+00  0.1100E-01  0.1100E-01
     -8.235  0.0000E+00  0.0000E+00  0.1200E-01  0.1200E-01
     -8.199  0.0000E+00  0.0000E+00  0.1300E-01  0.1300E-01
     -8.163  0.0000E+00  0.0000E+00  0.1300E-01  0.1300E-01
     -8.128  0.0000E+00  0.0000E+00  0.1400E-01  0.1300E-01
     -8.092  0.0000E+00  0.0000E+00  0.1500E-01  0.1400E-01
     -8.056  0.0000E+00  0.0000E+00  0.1500E-01  0.1500E-01
     -8.021  0.0000E+00  0.0000E+00  0.1500E-01  0.1500E-01
     -7.985  0.0000E+00  0.0000E+00  0.1500E-01  0.1500E-01
     -7.949  0.0000E+00  0.0000E+00  0.1500E-01  0.1500E-01
     -7.914  0.0000E+00  0.0000E+00  0.1700E-01  0.1600E-01
     -7.878  0.0000E+00  0.0000E+00  0.1700E-01  0.1700E-01
     -7.842  0.0000E+00  0.0000E+00  0.1800E-01  0.1700E-01
     -7.807  0.0000E+00  0.0000E+00  0.1900E-01  0.1800E-01
     -7.771  0.6367E-09  0.0000E+00  0.1900E-01  0.1900E-01
     -7.735  0.0000E+00  0.0000E+00  0.2100E-01  0.2000E-01
     -7.700  0.0000E+00  0.0000E+00  0.2100E-01  0.2100E-01
     -7.664  0.0000E+00  0.0000E+00  0.2100E-01  0.2100E-01
     -7.628  0.0000E+00  0.0000E+00  0.2100E-01  0.2100E-01
     -7.593  0.0000E+00  0.0000E+00  0.2200E-01  0.2100E-01
     -7.557  0.0000E+00  0.0000E+00  0.2300E-01  0.2200E-01
     -7.521  0.0000E+00  0.0000E+00  0.2400E-01  0.2400E-01
     -7.486  0.0000E+00  0.0000E+00  0.2400E-01  0.2400E-01
     -7.450  0.0000E+00  0.0000E+00  0.2500E-01  0.2400E-01
     -7.414  0.0000E+00  0.0000E+00  0.2500E-01  0.2500E-01
     -7.379  0.0000E+00  0.0000E+00  0.2700E-01  0.2600E-01
     -7.343  0.0000E+00  0.0000E+00  0.2900E-01  0.2800E-01
     -7.307  0.0000E+00  0.0000E+00  0.3000E-01  0.2900E-01
     -7.272  0.0000E+00  0.0000E+00  0.3100E-01  0.3100E-01
     -7.236  0.0000E+00  0.0000E+00  0.3200E-01  0.3200E-01
     -7.200  0.0000E+00  0.0000E+00  0.3300E-01  0.3300E-01
     -7.165  0.0000E+00  0.0000E+00  0.3400E-01  0.3400E-01
     -7.129  0.0000E+00  0.0000E+00  0.3700E-01  0.3500E-01
     -7.093  0.0000E+00  0.0000E+00  0.3700E-01  0.3700E-01
     -7.058  0.0000E+00  0.0000E+00  0.3700E-01  0.3700E-01
     -7.022  0.0000E+00  0.2785E-01  0.3900E-01  0.3799E-01
     -6.986  0.0000E+00  0.0000E+00  0.3900E-01  0.3900E-01
     -6.951  0.0000E+00  0.0000E+00  0.4100E-01  0.3900E-01
     -6.915  0.0000E+00  0.0000E+00  0.4200E-01  0.4100E-01
     -6.879  0.0000E+00  0.0000E+00  0.4300E-01  0.4200E-01
     -6.844  0.0000E+00  0.0000E+00  0.4400E-01  0.4300E-01
     -6.808  0.0000E+00  0.0000E+00  0.4600E-01  0.4500E-01
     -6.772  0.0000E+00  0.0000E+00  0.4700E-01  0.4600E-01
     -6.737  0.0000E+00  0.0000E+00  0.4800E-01  0.4700E-01
     -6.701  0.0000E+00  0.0000E+00  0.4800E-01  0.4800E-01
     -6.665  0.0000E+00  0.0000E+00  0.5000E-01  0.4900E-01
     -6.630  0.0000E+00  0.0000E+00  0.5000E-01  0.5000E-01
     -6.594  0.0000E+00  0.0000E+00  0.5100E-01  0.5000E-01
     -6.558  0.0000E+00  0.0000E+00  0.5100E-01  0.5100E-01
     -6.523  0.0000E+00  0.0000E+00  0.5100E-01  0.5100E-01
     -6.487  0.0000E+00  0.0000E+00  0.5200E-01  0.5100E-01
     -6.451  0.0000E+00  0.0000E+00  0.5300E-01  0.5200E-01
     -6.416  0.0000E+00  0.0000E+00  0.5400E-01  0.5400E-01
     -6.380  0.0000E+00  0.0000E+00  0.5500E-01  0.5400E-01
     -6.344  0.0000E+00  0.0000E+00  0.5600E-01  0.5600E-01
     -6.309  0.0000E+00  0.0000E+00  0.5600E-01  0.5600E-01
     -6.273  0.0000E+00  0.0000E+00  0.5600E-01  0.5600E-01
     -6.237  0.0000E+00  0.0000E+00  0.5600E-01  0.5600E-01
     -6.202  0.0000E+00  0.0000E+00  0.5600E-01  0.5600E-01
     -6.166  0.0000E+00  0.0000E+00  0.5600E-01  0.5600E-01
     -6.130  0.0000E+00  0.0000E+00  0.5600E-01  0.5600E-01
     -6.095  0.0000E+00  0.0000E+00  0.5600E-01  0.5600E-01
     -6.059  0.0000E+00  0.0000E+00  0.5600E-01  0.5600E-01
     -6.023  0.0000E+00  0.0000E+00  0.5600E-01  0.5600E-01
     -5.988  0.0000E+00  0.0000E+00  0.5600E-01  0.5600E-01
     -5.952  0.0000E+00  0.0000E+00  0.5600E-01  0.5600E-01
     -5.916  0.0000E+00  0.0000E+00  0.5600E-01  0.5600E-01
     -5.881  0.0000E+00  0.0000E+00  0.5700E-01  0.5600E-01
     -5.845  0.0000E+00  0.0000E+00  0.5700E-01  0.5700E-01
     -5.809  0.0000E+00  0.0000E+00  0.5700E-01  0.5700E-01
     -5.774  0.0000E+00  0.0000E+00  0.5700E-01  0.5700E-01
     -5.738  0.0000E+00  0.0000E+00  0.5700E-01  0.5700E-01
     -5.702  0.0000E+00  0.0000E+00  0.5700E-01  0.5700E-01
     -5.667  0.0000E+00  0.0000E+00  0.5700E-01  0.5700E-01
     -5.631  0.0000E+00  0.0000E+00  0.5700E-01  0.5700E-01
     -5.595  0.0000E+00  0.0000E+00  0.5700E-01  0.5700E-01
     -5.560  0.0000E+00  0.0000E+00  0.5800E-01  0.5700E-01
     -5.524  0.0000E+00  0.0000E+00  0.5800E-01  0.5800E-01
     -5.488  0.0000E+00  0.0000E+00  0.5800E-01  0.5800E-01
     -5.453  0.0000E+00  0.0000E+00  0.5800E-01  0.5800E-01
     -5.417  0.0000E+00  0.0000E+00  0.5800E-01  0.5800E-01
     -5.381  0.0000E+00  0.0000E+00  0.5800E-01  0.5800E-01
     -5.346  0.0000E+00  0.0000E+00  0.5800E-01  0.5800E-01
     -5.310  0.0000E+00  0.0000E+00  0.5800E-01  0.5800E-01
     -5.274  0.0000E+00  0.0000E+00  0.5800E-01  0.5800E-01
     -5.239  0.0000E+00  0.0000E+00  0.5800E-01  0.5800E-01
     -5.203  0.0000E+00  0.0000E+00  0.5800E-01  0.5800E-01
     -5.167  0.0000E+00  0.0000E+00  0.5800E-01  0.5800E-01
     -5.132  0.0000E+00  0.0000E+00  0.5800E-01  0.5800E-01
     -5.096  0.0000E+00  0.0000E+00  0.5800E-01  0.5800E-01
     -5.060  0.0000E+00  0.0000E+00  0.5800E-01  0.5800E-01
     -5.025  0.0000E+00  0.0000E+00  0.5800E-01  0.5800E-01
     -4.989  0.0000E+00  0.0000E+00  0.5800E-01  0.5800E-01
     -4.953  0.0000E+00  0.0000E+00  0.5800E-01  0.5800E-01
     -4.918  0.0000E+00  0.0000E+00  0.5800E-01  0.5800E-01
     -4.882  0.0000E+00  0.0000E+00  0.5800E-01  0.5800E-01
     -4.846  0.0000E+00  0.0000E+00  0.5800E-01  0.5800E-01
     -4.811  0.0000E+00  0.0000E+00  0.5800E-01  0.5800E-01
     -4.775  0.0000E+00  0.0000E+00  0.5800E-01  0.5800E-01
     -4.739  0.0000E+00  0.0000E+00  0.5800E-01  0.5800E-01
     -4.704  0.0000E+00  0.0000E+00  0.5800E-01  0.5800E-01
     -4.668  0.0000E+00  0.0000E+00  0.5800E-01  0.5800E-01
     -4.632  0.0000E+00  0.0000E+00  0.5900E-01  0.5800E-01
     -4.597  0.0000E+00  0.0000E+00  0.5900E-01  0.5800E-01
     -4.561  0.0000E+00  0.0000E+00  0.5900E-01  0.5900E-01
     -4.525  0.0000E+00  0.0000E+00  0.6000E-01  0.5900E-01
     -4.490  0.0000E+00  0.0000E+00  0.6000E-01  0.5900E-01
     -4.454  0.0000E+00  0.0000E+00  0.6000E-01  0.6000E-01
     -4.418  0.0000E+00  0.0000E+00  0.6000E-01  0.6000E-01
     -4.383  0.0000E+00  0.0000E+00  0.6000E-01  0.6000E-01
     -4.347  0.0000E+00  0.0000E+00  0.6000E-01  0.6000E-01
     -4.311  0.0000E+00  0.0000E+00  0.6000E-01  0.6000E-01
     -4.276  0.0000E+00  0.0000E+00  0.6000E-01  0.6000E-01
     -4.240  0.0000E+00  0.0000E+00  0.6000E-01  0.6000E-01
     -4.204  0.0000E+00  0.0000E+00  0.6000E-01  0.6000E-01
     -4.169  0.0000E+00  0.0000E+00  0.6000E-01  0.6000E-01
     -4.133  0.0000E+00  0.0000E+00  0.6000E-01  0.6000E-01
     -4.097  0.0000E+00  0.0000E+00  0.6000E-01  0.6000E-01
     -4.062  0.0000E+00  0.0000E+00  0.6000E-01  0.6000E-01
     -4.026  0.0000E+00  0.0000E+00  0.6000E-01  0.6000E-01
     -3.990  0.0000E+00  0.0000E+00  0.6000E-01  0.6000E-01
     -3.955  0.0000E+00  0.0000E+00  0.6000E-01  0.6000E-01
     -3.919  0.0000E+00  0.0000E+00  0.6000E-01  0.6000E-01
     -3.883  0.0000E+00  0.0000E+00  0.6000E-01  0.6000E-01
     -3.848  0.0000E+00  0.0000E+00  0.6000E-01  0.6000E-01
     -3.812  0.0000E+00  0.0000E+00  0.6000E-01  0.6000E-01
     -3.776  0.0000E+00  0.0000E+00  0.6000E-01  0.6000E-01
     -3.741  0.0000E+00  0.0000E+00  0.6000E-01  0.6000E-01
     -3.705  0.0000E+00  0.0000E+00  0.6000E-01  0.6000E-01
     -3.669  0.0000E+00  0.0000E+00  0.6000E-01  0.6000E-01
     -3.634  0.0000E+00  0.0000E+00  0.6100E-01  0.6000E-01
     -3.598  0.0000E+00  0.0000E+00  0.6100E-01  0.6000E-01
     -3.562  0.0000E+00  0.0000E+00  0.6100E-01  0.6000E-01
     -3.527  0.0000E+00  0.0000E+00  0.6100E-01  0.6000E-01
     -3.491  0.0000E+00  0.0000E+00  0.6100E-01  0.6000E-01
     -3.455  0.0000E+00  0.0000E+00  0.6100E-01  0.6100E-01
     -3.420  0.0000E+00  0.0000E+00  0.6100E-01  0.6100E-01
     -3.384  0.0000E+00  0.0000E+00  0.6100E-01  0.6100E-01
     -3.348  0.0000E+00  0.0000E+00  0.6100E-01  0.6100E-01
     -3.313  0.0000E+00  0.0000E+00  0.6100E-01  0.6100E-01
     -3.277  0.0000E+00  0.0000E+00  0.6100E-01  0.6100E-01
     -3.241  0.0000E+00  0.0000E+00  0.6100E-01  0.6100E-01
     -3.206  0.0000E+00  0.0000E+00  0.6100E-01  0.6100E-01
     -3.170  0.0000E+00  0.0000E+00  0.6100E-01  0.6100E-01
     -3.134  0.0000E+00  0.0000E+00  0.6100E-01  0.6100E-01
     -3.099  0.0000E+00  0.0000E+00  0.6100E-01  0.6100E-01
     -3.063  0.0000E+00  0.0000E+00  0.6100E-01  0.6100E-01
     -3.027  0.0000E+00  0.0000E+00  0.6100E-01  0.6100E-01
     -2.992  0.0000E+00  0.0000E+00  0.6100E-01  0.6100E-01
     -2.956  0.0000E+00  0.0000E+00  0.6100E-01  0.6100E-01
     -2.920  0.0000E+00  0.0000E+00  0.6100E-01  0.6100E-01
     -2.885  0.0000E+00  0.0000E+00  0.6100E-01  0.6100E-01
     -2.849  0.0000E+00  0.0000E+00  0.6200E-01  0.6100E-01
     -2.813  0.0000E+00  0.0000E+00  0.6200E-01  0.6100E-01
     -2.778  0.0000E+00  0.0000E+00  0.6200E-01  0.6200E-01
     -2.742  0.0000E+00  0.0000E+00  0.6200E-01  0.6200E-01
     -2.706  0.0000E+00  0.0000E+00  0.6200E-01  0.6200E-01
     -2.671  0.0000E+00  0.0000E+00  0.6200E-01  0.6200E-01
     -2.635  0.0000E+00  0.0000E+00  0.6200E-01  0.6200E-01
     -2.599  0.0000E+00  0.0000E+00  0.6300E-01  0.6200E-01
     -2.564  0.0000E+00  0.0000E+00  0.6300E-01  0.6200E-01
     -2.528  0.0000E+00  0.0000E+00  0.6400E-01  0.6300E-01
     -2.492  0.0000E+00  0.0000E+00  0.6400E-01  0.6300E-01
     -2.457  0.0000E+00  0.0000E+00  0.6400E-01  0.6400E-01
     -2.421  0.0000E+00  0.0000E+00  0.6400E-01  0.6400E-01
     -2.385  0.0000E+00  0.0000E+00  0.6500E-01  0.6400E-01
     -2.350  0.0000E+00  0.0000E+00  0.6500E-01  0.6400E-01
     -2.314  0.0000E+00  0.0000E+00  0.6500E-01  0.6400E-01
     -2.278  0.0000E+00  0.0000E+00  0.6500E-01  0.6400E-01
     -2.243  0.0000E+00  0.0000E+00  0.6500E-01  0.6500E-01
     -2.207  0.0000E+00  0.0000E+00  0.6500E-01  0.6500E-01
     -2.171  0.0000E+00  0.0000E+00  0.6500E-01  0.6500E-01
     -2.136  0.0000E+00  0.0000E+00  0.6500E-01  0.6500E-01
     -2.100  0.0000E+00  0.0000E+00  0.6500E-01  0.6500E-01
     -2.064  0.0000E+00  0.0000E+00  0.6600E-01  0.6500E-01
     -2.029  0.0000E+00  0.0000E+00  0.6600E-01  0.6500E-01
     -1.993  0.0000E+00  0.0000E+00  0.6600E-01  0.6500E-01
     -1.957  0.0000E+00  0.0000E+00  0.6600E-01  0.6500E-01
     -1.922  0.0000E+00  0.0000E+00  0.6600E-01  0.6600E-01
     -1.886  0.0000E+00  0.0000E+00  0.6600E-01  0.6600E-01
     -1.850  0.0000E+00  0.0000E+00  0.6600E-01  0.6600E-01
     -1.815  0.0000E+00  0.0000E+00  0.6600E-01  0.6600E-01
     -1.779  0.0000E+00  0.0000E+00  0.6600E-01  0.6600E-01
     -1.743  0.0000E+00  0.0000E+00  0.6600E-01  0.6600E-01
     -1.708  0.0000E+00  0.0000E+00  0.6600E-01  0.6600E-01
     -1.672  0.0000E+00  0.0000E+00  0.6600E-01  0.6600E-01
     -1.636  0.0000E+00  0.0000E+00  0.6700E-01  0.6600E-01
     -1.601  0.0000E+00  0.0000E+00  0.6700E-01  0.6600E-01
     -1.565  0.0000E+00  0.0000E+00  0.6700E-01  0.6700E-01
     -1.529  0.0000E+00  0.0000E+00  0.6700E-01  0.6700E-01
     -1.494  0.0000E+00  0.0000E+00  0.6700E-01  0.6700E-01
     -1.458  0.0000E+00  0.0000E+00  0.6700E-01  0.6700E-01
     -1.422  0.0000E+00  0.0000E+00  0.6700E-01  0.6700E-01
     -1.387  0.0000E+00  0.0000E+00  0.6700E-01  0.6700E-01
     -1.351  0.0000E+00  0.0000E+00  0.6700E-01  0.6700E-01
     -1.315  0.0000E+00  0.0000E+00  0.6700E-01  0.6700E-01
     -1.280  0.0000E+00  0.0000E+00  0.6700E-01  0.6700E-01
     -1.244  0.0000E+00  0.0000E+00  0.6700E-01  0.6700E-01
     -1.208  0.0000E+00  0.0000E+00  0.6700E-01  0.6700E-01
     -1.173  0.5886E-02  0.0000E+00  0.6721E-01  0.6700E-01
     -1.137  0.0000E+00  0.0000E+00  0.6800E-01  0.6700E-01
     -1.101  0.0000E+00  0.0000E+00  0.6800E-01  0.6700E-01
     -1.066  0.0000E+00  0.0000E+00  0.6800E-01  0.6800E-01
     -1.030  0.0000E+00  0.0000E+00  0.6800E-01  0.6800E-01
     -0.994  0.0000E+00  0.0000E+00  0.6800E-01  0.6800E-01
     -0.959  0.0000E+00  0.0000E+00  0.6800E-01  0.6800E-01
     -0.923  0.0000E+00  0.0000E+00  0.6800E-01  0.6800E-01
     -0.887  0.0000E+00  0.0000E+00  0.6800E-01  0.6800E-01
     -0.852  0.0000E+00  0.0000E+00  0.6800E-01  0.6800E-01
     -0.816  0.0000E+00  0.0000E+00  0.6900E-01  0.6800E-01
     -0.780  0.0000E+00  0.0000E+00  0.7000E-01  0.6800E-01
     -0.745  0.0000E+00  0.0000E+00  0.7100E-01  0.6800E-01
     -0.709  0.0000E+00  0.0000E+00  0.7100E-01  0.6900E-01
     -0.673  0.0000E+00  0.0000E+00  0.7100E-01  0.7000E-01
     -0.638  0.0000E+00  0.0000E+00  0.7200E-01  0.7000E-01
     -0.602  0.0000E+00  0.0000E+00  0.7200E-01  0.7100E-01
     -0.566  0.0000E+00  0.0000E+00  0.7200E-01  0.7100E-01
     -0.531  0.0000E+00  0.0000E+00  0.7200E-01  0.7200E-01
     -0.495  0.0000E+00  0.0000E+00  0.7200E-01  0.7200E-01
     -0.459  0.0000E+00  0.0000E+00  0.7200E-01  0.7200E-01
     -0.424  0.0000E+00  0.0000E+00  0.7200E-01  0.7200E-01
     -0.388  0.0000E+00  0.0000E+00  0.7200E-01  0.7200E-01
     -0.352  0.0000E+00  0.0000E+00  0.7300E-01  0.7200E-01
     -0.317  0.0000E+00  0.0000E+00  0.7300E-01  0.7200E-01
     -0.281  0.0000E+00  0.0000E+00  0.7300E-01  0.7200E-01
     -0.245  0.0000E+00  0.0000E+00  0.7300E-01  0.7200E-01
     -0.210  0.0000E+00  0.0000E+00  0.7300E-01  0.7300E-01
     -0.174  0.0000E+00  0.0000E+00  0.7300E-01  0.7300E-01
     -0.138  0.0000E+00  0.0000E+00  0.7300E-01  0.7300E-01
     -0.103  0.0000E+00  0.0000E+00  0.7300E-01  0.7300E-01
     -0.067  0.0000E+00  0.0000E+00  0.7400E-01  0.7300E-01
     -0.031  0.0000E+00  0.0000E+00  0.7400E-01  0.7300E-01
      0.004  0.0000E+00  0.0000E+00  0.7400E-01  0.7400E-01
      0.040  0.0000E+00  0.0000E+00  0.7400E-01  0.7400E-01
      0.076  0.0000E+00  0.0000E+00  0.7400E-01  0.7400E-01
      0.111  0.0000E+00  0.0000E+00  0.7400E-01  0.7400E-01
      0.147  0.0000E+00  0.0000E+00  0.7400E-01  0.7400E-01
      0.183  0.0000E+00  0.0000E+00  0.7400E-01  0.7400E-01
      0.218  0.0000E+00  0.0000E+00  0.7400E-01  0.7400E-01
      0.254  0.0000E+00  0.0000E+00  0.7500E-01  0.7400E-01
      0.290  0.0000E+00  0.0000E+00  0.7600E-01  0.7400E-01
      0.325  0.0000E+00  0.0000E+00  0.7700E-01  0.7600E-01
      0.361  0.0000E+00  0.0000E+00  0.7700E-01  0.7600E-01
      0.397  0.0000E+00  0.0000E+00  0.7700E-01  0.7700E-01
      0.432  0.0000E+00  0.0000E+00  0.7900E-01  0.7700E-01
      0.468  0.0000E+00  0.0000E+00  0.7900E-01  0.7700E-01
      0.504  0.0000E+00  0.0000E+00  0.7900E-01  0.7800E-01
      0.539  0.0000E+00  0.0000E+00  0.8000E-01  0.7900E-01
      0.575  0.0000E+00  0.0000E+00  0.8000E-01  0.8000E-01
      0.611  0.0000E+00  0.0000E+00  0.8000E-01  0.8000E-01
      0.646  0.0000E+00  0.0000E+00  0.8000E-01  0.8000E-01
      0.682  0.0000E+00  0.0000E+00  0.8000E-01  0.8000E-01
      0.718  0.0000E+00  0.0000E+00  0.8000E-01  0.8000E-01
      0.753  0.0000E+00  0.0000E+00  0.8000E-01  0.8000E-01
      0.789  0.0000E+00  0.0000E+00  0.8000E-01  0.8000E-01
      0.825  0.0000E+00  0.0000E+00  0.8000E-01  0.8000E-01
      0.860  0.0000E+00  0.0000E+00  0.8000E-01  0.8000E-01
      0.896  0.0000E+00  0.0000E+00  0.8000E-01  0.8000E-01
      0.932  0.0000E+00  0.0000E+00  0.8000E-01  0.8000E-01
      0.967  0.0000E+00  0.0000E+00  0.8000E-01  0.8000E-01
      1.003  0.0000E+00  0.0000E+00  0.8000E-01  0.8000E-01
      1.039  0.0000E+00  0.0000E+00  0.8000E-01  0.8000E-01
