<?xml version="1.0" encoding="ISO-8859-1"?>
<modeling>
 <generator>
  <i name="program" type="string">vasp </i>
  <i name="version" type="string">5.3.5  </i>
  <i name="subversion" type="string">31Mar14 (build Feb 01 2018 12:10:03) gamma-only                       parallel </i>
  <i name="platform" type="string">LinuxIFC </i>
  <i name="date" type="string">2019 03 21 </i>
  <i name="time" type="string">16:43:35 </i>
 </generator>
 <incar>
  <i type="string" name="PREC">normal</i>
  <i type="int" name="ISPIN">     2</i>
  <i type="int" name="IBRION">     2</i>
  <i type="int" name="NSW">  1000</i>
  <i type="int" name="ISIF">     2</i>
  <i name="POTIM">      0.10000000</i>
  <i type="logical" name="LPLANE"> T  </i>
  <i type="int" name="ISMEAR">     0</i>
  <i name="SIGMA">      0.00010000</i>
  <i type="logical" name="LWAVE"> F  </i>
  <i type="logical" name="LCHARG"> F  </i>
  <i type="logical" name="LVTOT"> F  </i>
  <i type="string" name="GGA"> PE</i>
 </incar>
 <kpoints>
  <varray name="kpointlist" >
   <v>       0.00000000       0.00000000       0.00000000 </v>
  </varray>
  <varray name="weights" >
   <v>       1.00000000 </v>
  </varray>
 </kpoints>
 <parameters>
  <separator name="general" >
   <i type="string" name="SYSTEM">unknown system</i>
   <i type="logical" name="LCOMPAT"> F  </i>
  </separator>
  <separator name="electronic" >
   <i type="string" name="PREC">normal</i>
   <i name="ENMAX">    249.84400000</i>
   <i name="ENAUG">    412.49600000</i>
   <i name="EDIFF">      0.00010000</i>
   <i type="int" name="IALGO">    38</i>
   <i type="int" name="IWAVPR">    11</i>
   <i type="int" name="NBANDS">    80</i>
   <i name="NELECT">    121.00000000</i>
   <i type="int" name="TURBO">     0</i>
   <i type="int" name="IRESTART">     0</i>
   <i type="int" name="NREBOOT">     0</i>
   <i type="int" name="NMIN">     0</i>
   <i name="EREF">      0.00000000</i>
   <separator name="electronic smearing" >
    <i type="int" name="ISMEAR">     0</i>
    <i name="SIGMA">      0.00010000</i>
    <i name="KSPACING">      0.50000000</i>
    <i type="logical" name="KGAMMA"> T  </i>
   </separator>
   <separator name="electronic projectors" >
    <i type="logical" name="LREAL"> F  </i>
    <v name="ROPT">      0.00000000</v>
    <i type="int" name="LMAXPAW">  -100</i>
    <i type="int" name="LMAXMIX">     2</i>
    <i type="logical" name="NLSPLINE"> F  </i>
   </separator>
   <separator name="electronic startup" >
    <i type="int" name="ISTART">     0</i>
    <i type="int" name="ICHARG">     2</i>
    <i type="int" name="INIWAV">     1</i>
   </separator>
   <separator name="electronic spin" >
    <i type="int" name="ISPIN">     2</i>
    <i type="logical" name="LNONCOLLINEAR"> F  </i>
    <v name="MAGMOM">      1.00000000      1.00000000      1.00000000      1.00000000      1.00000000      1.00000000      1.00000000      1.00000000      1.00000000      1.00000000      1.00000000</v>
    <i name="NUPDOWN">     -1.00000000</i>
    <i type="logical" name="LSORBIT"> F  </i>
    <v name="SAXIS">      0.00000000      0.00000000      1.00000000</v>
    <i type="logical" name="LSPIRAL"> F  </i>
    <v name="QSPIRAL">      0.00000000      0.00000000      0.00000000</v>
    <i type="logical" name="LZEROZ"> F  </i>
   </separator>
   <separator name="electronic exchange-correlation" >
    <i type="logical" name="LASPH"> F  </i>
    <i type="logical" name="LMETAGGA"> F  </i>
   </separator>
   <separator name="electronic convergence" >
    <i type="int" name="NELM">    60</i>
    <i type="int" name="NELMDL">    -5</i>
    <i type="int" name="NELMIN">     2</i>
    <i name="ENINI">    249.84400000</i>
    <separator name="electronic convergence detail" >
     <i type="logical" name="LDIAG"> T  </i>
     <i type="logical" name="LSUBROT"> F  </i>
     <i name="WEIMIN">      0.00100000</i>
     <i name="EBREAK">      0.00000031</i>
     <i name="DEPER">      0.30000000</i>
     <i type="int" name="NRMM">     4</i>
     <i name="TIME">      0.40000000</i>
    </separator>
   </separator>
   <separator name="electronic mixer" >
    <i name="AMIX">      0.40000000</i>
    <i name="BMIX">      1.00000000</i>
    <i name="AMIN">      0.10000000</i>
    <i name="AMIX_MAG">      1.60000000</i>
    <i name="BMIX_MAG">      1.00000000</i>
    <separator name="electronic mixer details" >
     <i type="int" name="IMIX">     4</i>
     <i type="int" name="MAXMIX">   -45</i>
     <i name="WC">    100.00000000</i>
     <i type="int" name="INIMIX">     1</i>
     <i type="int" name="MIXPRE">     1</i>
     <i type="int" name="MREMOVE">     5</i>
    </separator>
   </separator>
   <separator name="electronic dipolcorrection" >
    <i type="logical" name="LDIPOL"> F  </i>
    <i type="logical" name="LMONO"> F  </i>
    <i type="int" name="IDIPOL">     0</i>
    <i name="EPSILON">      1.00000000</i>
    <v name="DIPOL">   -100.00000000   -100.00000000   -100.00000000</v>
    <i name="EFIELD">      0.00000000</i>
   </separator>
  </separator>
  <separator name="grids" >
   <i type="int" name="NGX">    80</i>
   <i type="int" name="NGY">    80</i>
   <i type="int" name="NGZ">    80</i>
   <i type="int" name="NGXF">   160</i>
   <i type="int" name="NGYF">   160</i>
   <i type="int" name="NGZF">   160</i>
   <i type="logical" name="ADDGRID"> F  </i>
  </separator>
  <separator name="ionic" >
   <i type="int" name="NSW">  1000</i>
   <i type="int" name="IBRION">     2</i>
   <i type="int" name="ISIF">     2</i>
   <i name="PSTRESS">      0.00000000</i>
   <i name="EDIFFG">      0.00100000</i>
   <i type="int" name="NFREE">     1</i>
   <i name="POTIM">      0.10000000</i>
   <i name="SMASS">     -3.00000000</i>
   <i name="SCALEE">      1.00000000</i>
  </separator>
  <separator name="ionic md" >
   <i name="TEBEG">      0.00010000</i>
   <i name="TEEND">      0.00010000</i>
   <i type="int" name="NBLOCK">     1</i>
   <i type="int" name="KBLOCK">  1000</i>
   <i type="int" name="NPACO">   256</i>
   <i name="APACO">     16.00000000</i>
  </separator>
  <separator name="symmetry" >
   <i type="int" name="ISYM">     2</i>
   <i name="SYMPREC">      0.00001000</i>
  </separator>
  <separator name="dos" >
   <i type="logical" name="LORBIT"> F  </i>
   <v name="RWIGS">     -1.00000000</v>
   <i type="int" name="NEDOS">   301</i>
   <i name="EMIN">     10.00000000</i>
   <i name="EMAX">    -10.00000000</i>
   <i name="EFERMI">      0.00000000</i>
  </separator>
  <separator name="writing" >
   <i type="int" name="NWRITE">     2</i>
   <i type="logical" name="LWAVE"> F  </i>
   <i type="logical" name="LCHARG"> F  </i>
   <i type="logical" name="LPARD"> F  </i>
   <i type="logical" name="LVTOT"> F  </i>
   <i type="logical" name="LVHAR"> F  </i>
   <i type="logical" name="LELF"> F  </i>
   <i type="logical" name="LOPTICS"> F  </i>
   <v name="STM">      0.00000000      0.00000000      0.00000000      0.00000000      0.00000000      0.00000000      0.00000000</v>
  </separator>
  <separator name="performance" >
   <i type="int" name="NPAR">     4</i>
   <i type="int" name="NSIM">     4</i>
   <i type="int" name="NBLK">    -1</i>
   <i type="logical" name="LPLANE"> T  </i>
   <i type="logical" name="LSCALAPACK"> T  </i>
   <i type="logical" name="LSCAAWARE"> F  </i>
   <i type="logical" name="LSCALU"> F  </i>
   <i type="logical" name="LASYNC"> F  </i>
   <i type="logical" name="LORBITALREAL"> F  </i>
  </separator>
  <separator name="miscellaneous" >
   <i type="int" name="IDIOT">     3</i>
   <i type="logical" name="LMUSIC"> F  </i>
   <v name="POMASS">    107.86800000</v>
   <v name="DARWINR">      0.00000000</v>
   <v name="DARWINV">      1.00000000</v>
   <i type="logical" name="LCORR"> T  </i>
  </separator>
  <i type="logical" name="GGA_COMPAT"> T  </i>
  <i type="logical" name="LBERRY"> F  </i>
  <i type="int" name="ICORELEVEL">     0</i>
  <i type="logical" name="LDAU"> F  </i>
  <i type="int" name="I_CONSTRAINED_M">     0</i>
  <separator name="electronic exchange-correlation" >
   <i type="string" name="GGA">PE</i>
   <i type="int" name="VOSKOWN">     0</i>
   <i type="logical" name="LHFCALC"> F  </i>
   <i type="string" name="PRECFOCK"></i>
   <i type="logical" name="LSYMGRAD"> F  </i>
   <i type="logical" name="LHFONE"> F  </i>
   <i type="logical" name="LRHFCALC"> F  </i>
   <i type="logical" name="LTHOMAS"> F  </i>
   <i type="logical" name="LMODELHF"> F  </i>
   <i name="ENCUT4O">     -1.00000000</i>
   <i type="int" name="EXXOEP">     0</i>
   <i type="int" name="FOURORBIT">     0</i>
   <i name="AEXX">      0.00000000</i>
   <i name="HFALPHA">      0.00000000</i>
   <i name="MCALPHA">      0.00000000</i>
   <i name="ALDAX">      1.00000000</i>
   <i name="AGGAX">      1.00000000</i>
   <i name="ALDAC">      1.00000000</i>
   <i name="AGGAC">      1.00000000</i>
   <i type="int" name="NKREDX">     1</i>
   <i type="int" name="NKREDY">     1</i>
   <i type="int" name="NKREDZ">     1</i>
   <i type="logical" name="SHIFTRED"> F  </i>
   <i type="logical" name="ODDONLY"> F  </i>
   <i type="logical" name="EVENONLY"> F  </i>
   <i type="int" name="LMAXFOCK">     0</i>
   <i type="int" name="NMAXFOCKAE">     0</i>
   <i type="logical" name="LFOCKAEDFT"> F  </i>
   <i name="HFSCREEN">      0.00000000</i>
   <i name="HFSCREENC">      0.00000000</i>
   <i type="int" name="NBANDSGWLOW">     0</i>
  </separator>
  <separator name="vdW DFT" >
   <i type="logical" name="LUSE_VDW"> F  </i>
   <i name="Zab_VDW">     -0.84910000</i>
   <i name="PARAM1">      0.12340000</i>
   <i name="PARAM2">      1.00000000</i>
   <i name="PARAM3">      0.00000000</i>
  </separator>
  <separator name="model GW" >
   <i type="int" name="MODEL_GW">     0</i>
   <i name="MODEL_EPS0">    360.92152377</i>
   <i name="MODEL_ALPHA">      1.00000000</i>
  </separator>
  <separator name="linear response parameters" >
   <i type="logical" name="LEPSILON"> F  </i>
   <i type="logical" name="LRPA"> F  </i>
   <i type="logical" name="LNABLA"> F  </i>
   <i type="logical" name="LVEL"> F  </i>
   <i type="int" name="KINTER">     0</i>
   <i name="CSHIFT">      0.10000000</i>
   <i name="OMEGAMAX">     -1.00000000</i>
   <i name="DEG_THRESHOLD">      0.00200000</i>
  </separator>
  <separator name="orbital magnetization" >
   <i type="logical" name="NUCIND"> F  </i>
   <v name="MAGPOS">      0.00000000      0.00000000      0.00000000</v>
   <i type="logical" name="LNICSALL"> T  </i>
   <i type="logical" name="ORBITALMAG"> F  </i>
   <i type="logical" name="LMAGBLOCH"> F  </i>
   <i type="logical" name="LCHIMAG"> F  </i>
   <i type="logical" name="LGAUGE"> T  </i>
   <i type="int" name="MAGATOM">     0</i>
   <v name="MAGDIPOL">      0.00000000      0.00000000      0.00000000</v>
   <v name="AVECCONST">      0.00000000      0.00000000      0.00000000</v>
  </separator>
  <separator name="response functions" >
   <i type="logical" name="LADDER"> F  </i>
   <i type="logical" name="LFXC"> F  </i>
   <i type="logical" name="LHARTREE"> T  </i>
   <i type="int" name="IBSE">     0</i>
   <i type="logical" name="LTCTE"> F  </i>
   <i type="logical" name="LTETE"> F  </i>
   <i type="logical" name="LTRIPLET"> F  </i>
   <i type="logical" name="LFXCEPS"> F  </i>
   <i type="logical" name="LFXHEG"> F  </i>
   <i type="logical" name="L2ORDER"> F  </i>
   <i type="logical" name="LUSEW"> F  </i>
   <i name="ENCUTGW">     -2.00000000</i>
   <i name="ENCUTGWSOFT">     -2.00000000</i>
   <i name="ENCUTLF">     -1.00000000</i>
   <i type="int" name="LMAXMP2">    -1</i>
   <i name="SCISSOR">      0.00000000</i>
   <i type="int" name="NOMEGA">     0</i>
   <i type="int" name="NOMEGAR">     0</i>
   <i type="int" name="NBANDSGW">    -1</i>
   <i type="int" name="NBANDSO">    -1</i>
   <i type="int" name="NBANDSV">    -1</i>
   <i type="int" name="NELM">     1</i>
   <i type="int" name="DIM">     3</i>
   <i type="int" name="ANTIRES">     0</i>
   <i name="OMEGAMAX">    -30.00000000</i>
   <i name="OMEGAMIN">    -30.00000000</i>
   <i name="OMEGATL">   -200.00000000</i>
   <i type="int" name="OMEGAGRID">     0</i>
   <i name="CSHIFT">     -0.10000000</i>
   <i type="logical" name="SELFENERGY"> F  </i>
   <i type="logical" name="LSPECTRAL"> F  </i>
   <i type="logical" name="ODDONLYGW"> F  </i>
   <i type="logical" name="EVENONLYGW"> F  </i>
   <i type="int" name="NKREDLFX">     1</i>
   <i type="int" name="NKREDLFY">     1</i>
   <i type="int" name="NKREDLFZ">     1</i>
   <i type="int" name="MAXMEM">  1800</i>
   <i type="int" name="TELESCOPE">     0</i>
   <i type="int" name="TAUPAR">     1</i>
  </separator>
  <separator name="External order field" >
   <i name="OFIELD_KAPPA">      0.00000000</i>
   <v name="OFIELD_K">      0.00000000      0.00000000      0.00000000</v>
   <i name="OFIELD_Q6_NEAR">      0.00000000</i>
   <i name="OFIELD_Q6_FAR">      0.00000000</i>
   <i name="OFIELD_A">      0.00000000</i>
  </separator>
 </parameters>
 <atominfo>
  <atoms>      11 </atoms>
  <types>       1 </types>
  <array name="atoms" >
   <dimension dim="1">ion</dimension>
   <field type="string">element</field>
   <field type="int">atomtype</field>
   <set>
    <rc><c>Ag</c><c>   1</c></rc>
    <rc><c>Ag</c><c>   1</c></rc>
    <rc><c>Ag</c><c>   1</c></rc>
    <rc><c>Ag</c><c>   1</c></rc>
    <rc><c>Ag</c><c>   1</c></rc>
    <rc><c>Ag</c><c>   1</c></rc>
    <rc><c>Ag</c><c>   1</c></rc>
    <rc><c>Ag</c><c>   1</c></rc>
    <rc><c>Ag</c><c>   1</c></rc>
    <rc><c>Ag</c><c>   1</c></rc>
    <rc><c>Ag</c><c>   1</c></rc>
   </set>
  </array>
  <array name="atomtypes" >
   <dimension dim="1">type</dimension>
   <field type="int">atomspertype</field>
   <field type="string">element</field>
   <field>mass</field>
   <field>valence</field>
   <field type="string">pseudopotential</field>
   <set>
    <rc><c>  11</c><c>Ag</c><c>    107.86800000</c><c>     11.00000000</c><c>  PAW_PBE Ag 02Apr2005                  </c></rc>
   </set>
  </array>
 </atominfo>
 <structure name="initialpos" >
  <crystal>
   <varray name="basis" >
    <v>      18.77376623       0.00000000       0.00000000 </v>
    <v>       0.00000000      18.77376623       0.00000000 </v>
    <v>       0.00000000       0.00000000      18.77376623 </v>
   </varray>
   <i name="volume">   6616.89460253 </i>
   <varray name="rec_basis" >
    <v>       0.05326582       0.00000000       0.00000000 </v>
    <v>       0.00000000       0.05326582       0.00000000 </v>
    <v>       0.00000000       0.00000000       0.05326582 </v>
   </varray>
  </crystal>
  <varray name="positions" >
   <v>       0.65599651       0.55002112       0.42799899 </v>
   <v>       0.60709680       0.51165171       0.55504776 </v>
   <v>       0.55433805       0.63028465       0.48609784 </v>
   <v>       0.41725823       0.67341608       0.49470724 </v>
   <v>       0.60797155       0.37092862       0.57508752 </v>
   <v>       0.55320153       0.47247308       0.36239561 </v>
   <v>       0.50986880       0.43095788       0.48977585 </v>
   <v>       0.50149041       0.44263818       0.63426590 </v>
   <v>       0.45326696       0.55072702       0.42516161 </v>
   <v>       0.39297686       0.51349238       0.68374552 </v>
   <v>       0.45381096       0.56362758       0.57250622 </v>
  </varray>
 </structure>
 <calculation>
  <scstep>
   <time name="dav">    0.70    0.70</time>
   <time name="total">    0.94    1.06</time>
   <energy>
    <i name="alphaZ">     15.55411602 </i>
    <i name="ewald">  11317.25089850 </i>
    <i name="hartreedc"> -22224.95525779 </i>
    <i name="XCdc">   -122.70869959 </i>
    <i name="pawpsdc">  11037.09395877 </i>
    <i name="pawaedc"> -10529.91069767 </i>
    <i name="eentropy">      0.00000000 </i>
    <i name="bandstr">    169.14086984 </i>
    <i name="atom">  11409.18493095 </i>
    <i name="e_fr_energy">   1070.65011904 </i>
    <i name="e_wo_entrp">   1070.65011904 </i>
    <i name="e_0_energy">   1070.65011904 </i>
   </energy>
  </scstep>
  <scstep>
   <time name="dav">    1.15    1.15</time>
   <time name="total">    1.15    1.16</time>
   <energy>
    <i name="e_fr_energy">    385.51559118 </i>
    <i name="e_wo_entrp">    385.51559118 </i>
    <i name="e_0_energy">    385.51559118 </i>
   </energy>
  </scstep>
  <scstep>
   <time name="dav">    0.99    0.99</time>
   <time name="total">    0.99    1.00</time>
   <energy>
    <i name="e_fr_energy">     14.74367510 </i>
    <i name="e_wo_entrp">     14.74367510 </i>
    <i name="e_0_energy">     14.74367510 </i>
   </energy>
  </scstep>
  <scstep>
   <time name="dav">    0.83    0.83</time>
   <time name="total">    0.84    0.84</time>
   <energy>
    <i name="e_fr_energy">    -18.52968026 </i>
    <i name="e_wo_entrp">    -18.52968026 </i>
    <i name="e_0_energy">    -18.52968026 </i>
   </energy>
  </scstep>
  <scstep>
   <time name="dav">    0.77    0.77</time>
   <time name="total">    0.83    0.84</time>
   <energy>
    <i name="e_fr_energy">    -19.16809185 </i>
    <i name="e_wo_entrp">    -19.16809185 </i>
    <i name="e_0_energy">    -19.16809185 </i>
   </energy>
  </scstep>
  <scstep>
   <time name="dav">    0.72    0.71</time>
   <time name="total">    1.01    1.02</time>
   <energy>
    <i name="e_fr_energy">     -2.73358158 </i>
    <i name="e_wo_entrp">     -2.73358158 </i>
    <i name="e_0_energy">     -2.73358158 </i>
   </energy>
  </scstep>
  <scstep>
   <time name="dav">    0.77    0.77</time>
   <time name="total">    1.06    1.07</time>
   <energy>
    <i name="e_fr_energy">      2.36759766 </i>
    <i name="e_wo_entrp">      2.36759766 </i>
    <i name="e_0_energy">      2.36759766 </i>
   </energy>
  </scstep>
  <scstep>
   <time name="dav">    0.77    0.77</time>
   <time name="total">    1.06    1.07</time>
   <energy>
    <i name="e_fr_energy">     -2.45943210 </i>
    <i name="e_wo_entrp">     -2.45943210 </i>
    <i name="e_0_energy">     -2.45943210 </i>
   </energy>
  </scstep>
  <scstep>
   <time name="dav">    0.78    0.78</time>
   <time name="total">    1.08    1.08</time>
   <energy>
    <i name="e_fr_energy">     -6.76994128 </i>
    <i name="e_wo_entrp">     -6.76994128 </i>
    <i name="e_0_energy">     -6.76994128 </i>
   </energy>
  </scstep>
  <scstep>
   <time name="dav">    0.77    0.77</time>
   <time name="total">    1.06    1.07</time>
   <energy>
    <i name="e_fr_energy">    -11.82271049 </i>
    <i name="e_wo_entrp">    -11.82271049 </i>
    <i name="e_0_energy">    -11.82271049 </i>
   </energy>
  </scstep>
  <scstep>
   <time name="dav">    0.75    0.75</time>
   <time name="total">    1.05    1.05</time>
   <energy>
    <i name="e_fr_energy">    -14.67202320 </i>
    <i name="e_wo_entrp">    -14.67202320 </i>
    <i name="e_0_energy">    -14.67202320 </i>
   </energy>
  </scstep>
  <scstep>
   <time name="dav">    0.72    0.71</time>
   <time name="total">    1.01    1.01</time>
   <energy>
    <i name="e_fr_energy">    -17.44288851 </i>
    <i name="e_wo_entrp">    -17.44288851 </i>
    <i name="e_0_energy">    -17.44288851 </i>
   </energy>
  </scstep>
  <scstep>
   <time name="dav">    0.74    0.74</time>
   <time name="total">    1.04    1.04</time>
   <energy>
    <i name="e_fr_energy">    -18.26174907 </i>
    <i name="e_wo_entrp">    -18.26174907 </i>
    <i name="e_0_energy">    -18.26174907 </i>
   </energy>
  </scstep>
  <scstep>
   <time name="dav">    0.74    0.74</time>
   <time name="total">    1.04    1.04</time>
   <energy>
    <i name="e_fr_energy">    -18.62664678 </i>
    <i name="e_wo_entrp">    -18.62664678 </i>
    <i name="e_0_energy">    -18.62664678 </i>
   </energy>
  </scstep>
  <scstep>
   <time name="dav">    0.74    0.74</time>
   <time name="total">    1.04    1.04</time>
   <energy>
    <i name="e_fr_energy">    -18.89282248 </i>
    <i name="e_wo_entrp">    -18.89282248 </i>
    <i name="e_0_energy">    -18.89282248 </i>
   </energy>
  </scstep>
  <scstep>
   <time name="dav">    0.70    0.70</time>
   <time name="total">    1.00    1.00</time>
   <energy>
    <i name="e_fr_energy">    -18.96149398 </i>
    <i name="e_wo_entrp">    -18.96149398 </i>
    <i name="e_0_energy">    -18.96149398 </i>
   </energy>
  </scstep>
  <scstep>
   <time name="dav">    0.65    0.65</time>
   <time name="total">    0.95    0.95</time>
   <energy>
    <i name="e_fr_energy">    -18.97612962 </i>
    <i name="e_wo_entrp">    -18.97612962 </i>
    <i name="e_0_energy">    -18.97612962 </i>
   </energy>
  </scstep>
  <scstep>
   <time name="dav">    0.62    0.63</time>
   <time name="total">    0.93    0.93</time>
   <energy>
    <i name="e_fr_energy">    -18.97926651 </i>
    <i name="e_wo_entrp">    -18.97926651 </i>
    <i name="e_0_energy">    -18.97926651 </i>
   </energy>
  </scstep>
  <scstep>
   <time name="dav">    0.62    0.61</time>
   <time name="total">    0.91    0.92</time>
   <energy>
    <i name="e_fr_energy">    -18.98055080 </i>
    <i name="e_wo_entrp">    -18.98055080 </i>
    <i name="e_0_energy">    -18.98055080 </i>
   </energy>
  </scstep>
  <scstep>
   <time name="dav">    0.56    0.56</time>
   <time name="total">    0.86    0.87</time>
   <energy>
    <i name="e_fr_energy">    -18.98271596 </i>
    <i name="e_wo_entrp">    -18.98271596 </i>
    <i name="e_0_energy">    -18.98271596 </i>
   </energy>
  </scstep>
  <scstep>
   <time name="dav">    0.57    0.58</time>
   <time name="total">    0.88    0.88</time>
   <energy>
    <i name="e_fr_energy">    -18.98337669 </i>
    <i name="e_wo_entrp">    -18.98337669 </i>
    <i name="e_0_energy">    -18.98337669 </i>
   </energy>
  </scstep>
  <scstep>
   <time name="dav">    0.56    0.56</time>
   <time name="total">    0.87    0.87</time>
   <energy>
    <i name="e_fr_energy">    -18.98350231 </i>
    <i name="e_wo_entrp">    -18.98350231 </i>
    <i name="e_0_energy">    -18.98350231 </i>
   </energy>
  </scstep>
  <scstep>
   <time name="dav">    0.55    0.55</time>
   <time name="total">    0.79    0.79</time>
   <energy>
    <i name="alphaZ">     15.55411602 </i>
    <i name="ewald">  11317.25089850 </i>
    <i name="hartreedc"> -22224.57138388 </i>
    <i name="XCdc">   -125.88990253 </i>
    <i name="pawpsdc">  11938.54081772 </i>
    <i name="pawaedc"> -11450.72915963 </i>
    <i name="eentropy">      0.00000000 </i>
    <i name="bandstr">   -898.32381015 </i>
    <i name="atom">  11409.18493095 </i>
    <i name="e_fr_energy">    -18.98349300 </i>
    <i name="e_wo_entrp">    -18.98349300 </i>
    <i name="e_0_energy">    -18.98349300 </i>
   </energy>
  </scstep>
  <structure>
   <crystal>
    <varray name="basis" >
     <v>      18.77376623       0.00000000       0.00000000 </v>
     <v>       0.00000000      18.77376623       0.00000000 </v>
     <v>       0.00000000       0.00000000      18.77376623 </v>
    </varray>
    <i name="volume">   6616.89460253 </i>
    <varray name="rec_basis" >
     <v>       0.05326582       0.00000000       0.00000000 </v>
     <v>       0.00000000       0.05326582       0.00000000 </v>
     <v>       0.00000000       0.00000000       0.05326582 </v>
    </varray>
   </crystal>
   <varray name="positions" >
    <v>       0.65599651       0.55002112       0.42799899 </v>
    <v>       0.60709680       0.51165171       0.55504776 </v>
    <v>       0.55433805       0.63028465       0.48609784 </v>
    <v>       0.41725823       0.67341608       0.49470724 </v>
    <v>       0.60797155       0.37092862       0.57508752 </v>
    <v>       0.55320153       0.47247308       0.36239561 </v>
    <v>       0.50986880       0.43095788       0.48977585 </v>
    <v>       0.50149041       0.44263818       0.63426590 </v>
    <v>       0.45326696       0.55072702       0.42516161 </v>
    <v>       0.39297686       0.51349238       0.68374552 </v>
    <v>       0.45381096       0.56362758       0.57250622 </v>
   </varray>
  </structure>
  <varray name="forces" >
   <v>       0.43357689       0.08013052      -0.32430310 </v>
   <v>       0.25568544       0.56446898       0.36756105 </v>
   <v>       0.37953775       0.33715215       0.26594958 </v>
   <v>      -0.36977723       0.66350573      -0.33439840 </v>
   <v>       0.47865683      -0.72647130       0.12258798 </v>
   <v>       0.16293760      -0.12527741      -0.54684881 </v>
   <v>      -0.57529355      -0.20701160      -0.31517876 </v>
   <v>       0.03034681      -0.19588765       0.35645938 </v>
   <v>      -0.48901785      -0.22719433      -0.21067000 </v>
   <v>      -0.64616744      -0.07861120       0.82019147 </v>
   <v>       0.33951474      -0.08480390      -0.20135038 </v>
  </varray>
  <varray name="stress" >
   <v>       0.28574147      -0.13632387      -0.25585356 </v>
   <v>      -0.13632388       0.28538034      -0.21681464 </v>
   <v>      -0.25585356      -0.21681464       0.52534314 </v>
  </varray>
  <energy>
   <i name="e_fr_energy">    -18.98349300 </i>
   <i name="e_wo_entrp">    -18.98349300 </i>
   <i name="e_0_energy">      0.00000000 </i>
  </energy>
  <time name="totalsc">   23.60   23.82</time>
 </calculation>
 <calculation>
  <scstep>
   <time name="dav">    0.74    0.74</time>
   <time name="total">    1.03    1.05</time>
   <energy>
    <i name="alphaZ">     15.55411602 </i>
    <i name="ewald">  11267.37502600 </i>
    <i name="hartreedc"> -22175.24269227 </i>
    <i name="XCdc">   -126.00160938 </i>
    <i name="pawpsdc">  11938.67619119 </i>
    <i name="pawaedc"> -11450.86613672 </i>
    <i name="eentropy">      0.00000000 </i>
    <i name="bandstr">   -897.70931762 </i>
    <i name="atom">  11409.18493095 </i>
    <i name="e_fr_energy">    -19.02949182 </i>
    <i name="e_wo_entrp">    -19.02949182 </i>
    <i name="e_0_energy">    -19.02949182 </i>
   </energy>
  </scstep>
  <scstep>
   <time name="dav">    0.76    0.75</time>
   <time name="total">    1.05    1.06</time>
   <energy>
    <i name="e_fr_energy">    -19.03105975 </i>
    <i name="e_wo_entrp">    -19.03105975 </i>
    <i name="e_0_energy">    -19.03105975 </i>
   </energy>
  </scstep>
  <scstep>
   <time name="dav">    0.71    0.71</time>
   <time name="total">    0.95    0.95</time>
   <energy>
    <i name="alphaZ">     15.55411602 </i>
    <i name="ewald">  11267.37502600 </i>
    <i name="hartreedc"> -22175.85057730 </i>
    <i name="XCdc">   -125.98368437 </i>
    <i name="pawpsdc">  11927.00929780 </i>
    <i name="pawaedc"> -11439.01372483 </i>
    <i name="eentropy">      0.00000000 </i>
    <i name="bandstr">   -897.30644689 </i>
    <i name="atom">  11409.18493095 </i>
    <i name="e_fr_energy">    -19.03106262 </i>
    <i name="e_wo_entrp">    -19.03106262 </i>
    <i name="e_0_energy">    -19.03106262 </i>
   </energy>
  </scstep>
  <structure>
   <crystal>
    <varray name="basis" >
     <v>      18.77376623       0.00000000       0.00000000 </v>
     <v>       0.00000000      18.77376623       0.00000000 </v>
     <v>       0.00000000       0.00000000      18.77376623 </v>
    </varray>
    <i name="volume">   6616.89460253 </i>
    <varray name="rec_basis" >
     <v>       0.05326582       0.00000000       0.00000000 </v>
     <v>       0.00000000       0.05326582       0.00000000 </v>
     <v>       0.00000000       0.00000000       0.05326582 </v>
    </varray>
   </crystal>
   <varray name="positions" >
    <v>       0.65621934       0.55006230       0.42783232 </v>
    <v>       0.60722820       0.51194182       0.55523667 </v>
    <v>       0.55453311       0.63045793       0.48623452 </v>
    <v>       0.41706819       0.67375708       0.49453538 </v>
    <v>       0.60821754       0.37055525       0.57515052 </v>
    <v>       0.55328527       0.47240869       0.36211457 </v>
    <v>       0.50957313       0.43085149       0.48961387 </v>
    <v>       0.50150601       0.44253750       0.63444909 </v>
    <v>       0.45301563       0.55061026       0.42505333 </v>
    <v>       0.39264477       0.51345198       0.68416705 </v>
    <v>       0.45398545       0.56358399       0.57240274 </v>
   </varray>
  </structure>
  <varray name="forces" >
   <v>       0.39682863       0.07360580      -0.30131151 </v>
   <v>       0.21886845       0.48432106       0.33744437 </v>
   <v>       0.33306458       0.31087833       0.24023064 </v>
   <v>      -0.32634473       0.59987135      -0.32021758 </v>
   <v>       0.42099014      -0.63894194       0.10229477 </v>
   <v>       0.15161040      -0.10799352      -0.50566786 </v>
   <v>      -0.50348326      -0.18598290      -0.26199538 </v>
   <v>       0.02935686      -0.17784987       0.32418642 </v>
   <v>      -0.44413044      -0.19740028      -0.18868112 </v>
   <v>      -0.57382706      -0.06955716       0.73140343 </v>
   <v>       0.29706643      -0.09095086      -0.15768617 </v>
  </varray>
  <varray name="stress" >
   <v>       0.15274037      -0.12309735      -0.23650393 </v>
   <v>      -0.12309735       0.15784650      -0.20674216 </v>
   <v>      -0.23650393      -0.20674216       0.39729932 </v>
  </varray>
  <energy>
   <i name="e_fr_energy">    -19.03106262 </i>
   <i name="e_wo_entrp">    -19.03106262 </i>
   <i name="e_0_energy">      0.00000000 </i>
  </energy>
  <time name="totalsc">    4.25    4.28</time>
 </calculation>
 <calculation>
  <scstep>
   <time name="dav">    0.71    0.72</time>
   <time name="total">    1.01    1.02</time>
   <energy>
    <i name="alphaZ">     15.55411602 </i>
    <i name="ewald">  11119.15882984 </i>
    <i name="hartreedc"> -22029.35336172 </i>
    <i name="XCdc">   -126.30647925 </i>
    <i name="pawpsdc">  11921.57647677 </i>
    <i name="pawaedc"> -11433.49118241 </i>
    <i name="eentropy">      0.00000000 </i>
    <i name="bandstr">   -895.45436257 </i>
    <i name="atom">  11409.18493095 </i>
    <i name="e_fr_energy">    -19.13103236 </i>
    <i name="e_wo_entrp">    -19.13103236 </i>
    <i name="e_0_energy">    -19.13103236 </i>
   </energy>
  </scstep>
  <scstep>
   <time name="dav">    0.74    0.74</time>
   <time name="total">    1.04    1.04</time>
   <energy>
    <i name="e_fr_energy">    -19.14454600 </i>
    <i name="e_wo_entrp">    -19.14454600 </i>
    <i name="e_0_energy">    -19.14454600 </i>
   </energy>
  </scstep>
  <scstep>
   <time name="dav">    0.74    0.74</time>
   <time name="total">    1.04    1.04</time>
   <energy>
    <i name="e_fr_energy">    -19.14435180 </i>
    <i name="e_wo_entrp">    -19.14435180 </i>
    <i name="e_0_energy">    -19.14435180 </i>
   </energy>
  </scstep>
  <scstep>
   <time name="dav">    0.73    0.73</time>
   <time name="total">    0.96    0.97</time>
   <energy>
    <i name="alphaZ">     15.55411602 </i>
    <i name="ewald">  11119.15882984 </i>
    <i name="hartreedc"> -22031.74555051 </i>
    <i name="XCdc">   -126.23860366 </i>
    <i name="pawpsdc">  11873.76864903 </i>
    <i name="pawaedc"> -11384.89610541 </i>
    <i name="eentropy">      0.00000000 </i>
    <i name="bandstr">   -893.93052535 </i>
    <i name="atom">  11409.18493095 </i>
    <i name="e_fr_energy">    -19.14425909 </i>
    <i name="e_wo_entrp">    -19.14425909 </i>
    <i name="e_0_energy">    -19.14425909 </i>
   </energy>
  </scstep>
  <structure>
   <crystal>
    <varray name="basis" >
     <v>      18.77376623       0.00000000       0.00000000 </v>
     <v>       0.00000000      18.77376623       0.00000000 </v>
     <v>       0.00000000       0.00000000      18.77376623 </v>
    </varray>
    <i name="volume">   6616.89460253 </i>
    <varray name="rec_basis" >
     <v>       0.05326582       0.00000000       0.00000000 </v>
     <v>       0.00000000       0.05326582       0.00000000 </v>
     <v>       0.00000000       0.00000000       0.05326582 </v>
    </varray>
   </crystal>
   <varray name="positions" >
    <v>       0.65688783       0.55018585       0.42733231 </v>
    <v>       0.60762242       0.51281212       0.55580338 </v>
    <v>       0.55511828       0.63097775       0.48664456 </v>
    <v>       0.41649806       0.67478008       0.49401980 </v>
    <v>       0.60895554       0.36943517       0.57533953 </v>
    <v>       0.55353649       0.47221554       0.36127143 </v>
    <v>       0.50868614       0.43053232       0.48912792 </v>
    <v>       0.50155280       0.44223548       0.63499869 </v>
    <v>       0.45226166       0.55025996       0.42472852 </v>
    <v>       0.39164850       0.51333077       0.68543163 </v>
    <v>       0.45450892       0.56345324       0.57209229 </v>
   </varray>
  </structure>
  <varray name="forces" >
   <v>       0.30215329       0.05674984      -0.24460172 </v>
   <v>       0.12653365       0.28304314       0.26205534 </v>
   <v>       0.21731010       0.24832514       0.17491462 </v>
   <v>      -0.21305663       0.43823752      -0.29077989 </v>
   <v>       0.27119024      -0.41972916       0.05284827 </v>
   <v>       0.12399135      -0.06199212      -0.40005016 </v>
   <v>      -0.32472941      -0.13204419      -0.12928410 </v>
   <v>       0.02661743      -0.13231957       0.24393129 </v>
   <v>      -0.33322801      -0.12081504      -0.13442890 </v>
   <v>      -0.39086272      -0.05117363       0.51545045 </v>
   <v>       0.19408071      -0.10828194      -0.05005519 </v>
  </varray>
  <varray name="stress" >
   <v>      -0.21452132      -0.09072990      -0.19136091 </v>
   <v>      -0.09072990      -0.18953143      -0.18847025 </v>
   <v>      -0.19136090      -0.18847025       0.04764192 </v>
  </varray>
  <energy>
   <i name="e_fr_energy">    -19.14425909 </i>
   <i name="e_wo_entrp">    -19.14425909 </i>
   <i name="e_0_energy">      0.00000000 </i>
  </energy>
  <time name="totalsc">    5.27    5.58</time>
 </calculation>
 <calculation>
  <scstep>
   <time name="dav">    0.71    0.71</time>
   <time name="total">    1.01    1.03</time>
   <energy>
    <i name="alphaZ">     15.55411602 </i>
    <i name="ewald">  10828.91565631 </i>
    <i name="hartreedc"> -21743.98660959 </i>
    <i name="XCdc">   -126.85396090 </i>
    <i name="pawpsdc">  11872.78725164 </i>
    <i name="pawaedc"> -11383.89643155 </i>
    <i name="eentropy">      0.00000000 </i>
    <i name="bandstr">   -890.90935440 </i>
    <i name="atom">  11409.18493095 </i>
    <i name="e_fr_energy">    -19.20440152 </i>
    <i name="e_wo_entrp">    -19.20440152 </i>
    <i name="e_0_energy">    -19.20440152 </i>
   </energy>
  </scstep>
  <scstep>
   <time name="dav">    0.72    0.71</time>
   <time name="total">    1.01    1.01</time>
   <energy>
    <i name="e_fr_energy">    -19.25835007 </i>
    <i name="e_wo_entrp">    -19.25835007 </i>
    <i name="e_0_energy">    -19.25835007 </i>
   </energy>
  </scstep>
  <scstep>
   <time name="dav">    0.75    0.75</time>
   <time name="total">    1.05    1.05</time>
   <energy>
    <i name="e_fr_energy">    -19.25811775 </i>
    <i name="e_wo_entrp">    -19.25811775 </i>
    <i name="e_0_energy">    -19.25811775 </i>
   </energy>
  </scstep>
  <scstep>
   <time name="dav">    0.72    0.73</time>
   <time name="total">    1.02    1.10</time>
   <energy>
    <i name="e_fr_energy">    -19.25750392 </i>
    <i name="e_wo_entrp">    -19.25750392 </i>
    <i name="e_0_energy">    -19.25750392 </i>
   </energy>
  </scstep>
  <scstep>
   <time name="dav">    0.58    0.58</time>
   <time name="total">    0.81    0.84</time>
   <energy>
    <i name="alphaZ">     15.55411602 </i>
    <i name="ewald">  10828.91565631 </i>
    <i name="hartreedc"> -21748.51309951 </i>
    <i name="XCdc">   -126.71852367 </i>
    <i name="pawpsdc">  11786.85481923 </i>
    <i name="pawaedc"> -11296.49379954 </i>
    <i name="eentropy">      0.00000000 </i>
    <i name="bandstr">   -888.04165194 </i>
    <i name="atom">  11409.18493095 </i>
    <i name="e_fr_energy">    -19.25755214 </i>
    <i name="e_wo_entrp">    -19.25755214 </i>
    <i name="e_0_energy">    -19.25755214 </i>
   </energy>
  </scstep>
  <structure>
   <crystal>
    <varray name="basis" >
     <v>      18.77376623       0.00000000       0.00000000 </v>
     <v>       0.00000000      18.77376623       0.00000000 </v>
     <v>       0.00000000       0.00000000      18.77376623 </v>
    </varray>
    <i name="volume">   6616.89460253 </i>
    <varray name="rec_basis" >
     <v>       0.05326582       0.00000000       0.00000000 </v>
     <v>       0.00000000       0.05326582       0.00000000 </v>
     <v>       0.00000000       0.00000000       0.05326582 </v>
    </varray>
   </crystal>
   <varray name="positions" >
    <v>       0.65822482       0.55043294       0.42633228 </v>
    <v>       0.60841086       0.51455273       0.55693679 </v>
    <v>       0.55628863       0.63201740       0.48746465 </v>
    <v>       0.41535781       0.67682608       0.49298865 </v>
    <v>       0.61043154       0.36719501       0.57571754 </v>
    <v>       0.55403892       0.47182923       0.35958515 </v>
    <v>       0.50691215       0.42989397       0.48815603 </v>
    <v>       0.50164638       0.44163144       0.63609787 </v>
    <v>       0.45075371       0.54955938       0.42407889 </v>
    <v>       0.38965597       0.51308837       0.68796079 </v>
    <v>       0.45555586       0.56319174       0.57147140 </v>
   </varray>
  </structure>
  <varray name="forces" >
   <v>       0.12555443       0.02690196      -0.14070447 </v>
   <v>      -0.01571465      -0.04108391       0.13244408 </v>
   <v>       0.02861751       0.14741479       0.05864425 </v>
   <v>      -0.00658165       0.14934624      -0.23807505 </v>
   <v>       0.01363666      -0.05545807      -0.01534126 </v>
   <v>       0.07094628       0.02151964      -0.19853399 </v>
   <v>      -0.03879427      -0.04254079       0.07623148 </v>
   <v>       0.02053393      -0.04763234       0.09497756 </v>
   <v>      -0.14917280       0.00600420      -0.04676425 </v>
   <v>      -0.07334876      -0.03673953       0.16511711 </v>
   <v>       0.02432333      -0.12773221       0.11200454 </v>
  </varray>
  <varray name="stress" >
   <v>      -0.81705048      -0.01290593      -0.08797193 </v>
   <v>      -0.01290593      -0.76799132      -0.16134671 </v>
   <v>      -0.08797193      -0.16134671      -0.53913732 </v>
  </varray>
  <energy>
   <i name="e_fr_energy">    -19.25755214 </i>
   <i name="e_wo_entrp">    -19.25755214 </i>
   <i name="e_0_energy">      0.00000000 </i>
  </energy>
  <time name="totalsc">    6.12    7.86</time>
 </calculation>
 <calculation>
  <scstep>
   <time name="dav">    0.72    0.71</time>
   <time name="total">    1.02    1.02</time>
   <energy>
    <i name="alphaZ">     15.55411602 </i>
    <i name="ewald">  10725.58987618 </i>
    <i name="hartreedc"> -21645.84083058 </i>
    <i name="XCdc">   -126.93184100 </i>
    <i name="pawpsdc">  11787.38053856 </i>
    <i name="pawaedc"> -11297.02443355 </i>
    <i name="eentropy">      0.00000000 </i>
    <i name="bandstr">   -887.17235877 </i>
    <i name="atom">  11409.18493095 </i>
    <i name="e_fr_energy">    -19.26000219 </i>
    <i name="e_wo_entrp">    -19.26000219 </i>
    <i name="e_0_energy">    -19.26000219 </i>
   </energy>
  </scstep>
  <scstep>
   <time name="dav">    0.72    0.73</time>
   <time name="total">    1.02    1.03</time>
   <energy>
    <i name="e_fr_energy">    -19.26716293 </i>
    <i name="e_wo_entrp">    -19.26716293 </i>
    <i name="e_0_energy">    -19.26716293 </i>
   </energy>
  </scstep>
  <scstep>
   <time name="dav">    0.75    0.75</time>
   <time name="total">    1.05    1.05</time>
   <energy>
    <i name="e_fr_energy">    -19.26714668 </i>
    <i name="e_wo_entrp">    -19.26714668 </i>
    <i name="e_0_energy">    -19.26714668 </i>
   </energy>
  </scstep>
  <scstep>
   <time name="dav">    0.75    0.75</time>
   <time name="total">    0.99    0.99</time>
   <energy>
    <i name="alphaZ">     15.55411602 </i>
    <i name="ewald">  10725.58987618 </i>
    <i name="hartreedc"> -21647.57401685 </i>
    <i name="XCdc">   -126.88215249 </i>
    <i name="pawpsdc">  11761.50419015 </i>
    <i name="pawaedc"> -11270.68810123 </i>
    <i name="eentropy">      0.00000000 </i>
    <i name="bandstr">   -885.95598940 </i>
    <i name="atom">  11409.18493095 </i>
    <i name="e_fr_energy">    -19.26714667 </i>
    <i name="e_wo_entrp">    -19.26714667 </i>
    <i name="e_0_energy">    -19.26714667 </i>
   </energy>
  </scstep>
  <structure>
   <crystal>
    <varray name="basis" >
     <v>      18.77376623       0.00000000       0.00000000 </v>
     <v>       0.00000000      18.77376623       0.00000000 </v>
     <v>       0.00000000       0.00000000      18.77376623 </v>
    </varray>
    <i name="volume">   6616.89460253 </i>
    <varray name="rec_basis" >
     <v>       0.05326582       0.00000000       0.00000000 </v>
     <v>       0.00000000       0.05326582       0.00000000 </v>
     <v>       0.00000000       0.00000000       0.05326582 </v>
    </varray>
   </crystal>
   <varray name="positions" >
    <v>       0.65870992       0.55052259       0.42596944 </v>
    <v>       0.60869693       0.51518427       0.55734803 </v>
    <v>       0.55671327       0.63239462       0.48776220 </v>
    <v>       0.41494409       0.67756843       0.49261451 </v>
    <v>       0.61096707       0.36638222       0.57585470 </v>
    <v>       0.55422122       0.47168907       0.35897333 </v>
    <v>       0.50626850       0.42966236       0.48780340 </v>
    <v>       0.50168033       0.44141228       0.63649669 </v>
    <v>       0.45020659       0.54930519       0.42384319 </v>
    <v>       0.38893302       0.51300042       0.68887843 </v>
    <v>       0.45593571       0.56309686       0.57124613 </v>
   </varray>
  </structure>
  <varray name="forces" >
   <v>       0.06356457       0.01642307      -0.10446407 </v>
   <v>      -0.05613203      -0.13875221       0.08925958 </v>
   <v>      -0.02893211       0.11489175       0.01999113 </v>
   <v>       0.05913379       0.05418865      -0.21792184 </v>
   <v>      -0.06462221       0.05594153      -0.03300869 </v>
   <v>       0.05375613       0.04970246      -0.12752190 </v>
   <v>       0.04766093      -0.01385795       0.13472026 </v>
   <v>       0.01815750      -0.01805294       0.04347855 </v>
   <v>      -0.09027055       0.04532516      -0.01982279 </v>
   <v>       0.02437422      -0.03467506       0.05946493 </v>
   <v>      -0.02669024      -0.13113446       0.15582484 </v>
  </varray>
  <varray name="stress" >
   <v>      -1.00556460       0.01796573      -0.04846569 </v>
   <v>       0.01796574      -0.94805866      -0.15475233 </v>
   <v>      -0.04846569      -0.15475233      -0.72462610 </v>
  </varray>
  <energy>
   <i name="e_fr_energy">    -19.26714667 </i>
   <i name="e_wo_entrp">    -19.26714667 </i>
   <i name="e_0_energy">      0.00000000 </i>
  </energy>
  <time name="totalsc">    5.29    5.31</time>
 </calculation>
 <calculation>
  <scstep>
   <time name="dav">    0.73    0.73</time>
   <time name="total">    1.02    1.03</time>
   <energy>
    <i name="alphaZ">     15.55411602 </i>
    <i name="ewald">  10712.24387559 </i>
    <i name="hartreedc"> -21634.34870286 </i>
    <i name="XCdc">   -126.90601941 </i>
    <i name="pawpsdc">  11759.95239144 </i>
    <i name="pawaedc"> -11269.10518830 </i>
    <i name="eentropy">      0.00000000 </i>
    <i name="bandstr">   -885.84808672 </i>
    <i name="atom">  11409.18493095 </i>
    <i name="e_fr_energy">    -19.27268328 </i>
    <i name="e_wo_entrp">    -19.27268328 </i>
    <i name="e_0_energy">    -19.27268328 </i>
   </energy>
  </scstep>
  <scstep>
   <time name="dav">    0.75    0.75</time>
   <time name="total">    1.05    1.05</time>
   <energy>
    <i name="e_fr_energy">    -19.27340495 </i>
    <i name="e_wo_entrp">    -19.27340495 </i>
    <i name="e_0_energy">    -19.27340495 </i>
   </energy>
  </scstep>
  <scstep>
   <time name="dav">    0.56    0.56</time>
   <time name="total">    0.80    0.81</time>
   <energy>
    <i name="alphaZ">     15.55411602 </i>
    <i name="ewald">  10712.24387559 </i>
    <i name="hartreedc"> -21634.49403611 </i>
    <i name="XCdc">   -126.90216435 </i>
    <i name="pawpsdc">  11757.99378224 </i>
    <i name="pawaedc"> -11267.11398337 </i>
    <i name="eentropy">     -0.00000000 </i>
    <i name="bandstr">   -885.73993211 </i>
    <i name="atom">  11409.18493095 </i>
    <i name="e_fr_energy">    -19.27341114 </i>
    <i name="e_wo_entrp">    -19.27341114 </i>
    <i name="e_0_energy">    -19.27341114 </i>
   </energy>
  </scstep>
  <structure>
   <crystal>
    <varray name="basis" >
     <v>      18.77376623       0.00000000       0.00000000 </v>
     <v>       0.00000000      18.77376623       0.00000000 </v>
     <v>       0.00000000       0.00000000      18.77376623 </v>
    </varray>
    <i name="volume">   6616.89460253 </i>
    <varray name="rec_basis" >
     <v>       0.05326582       0.00000000       0.00000000 </v>
     <v>       0.00000000       0.05326582       0.00000000 </v>
     <v>       0.00000000       0.00000000       0.05326582 </v>
    </varray>
   </crystal>
   <varray name="positions" >
    <v>       0.65883072       0.55055269       0.42578444 </v>
    <v>       0.60861250       0.51497323       0.55750926 </v>
    <v>       0.55667839       0.63259741       0.48780471 </v>
    <v>       0.41502953       0.67768166       0.49224050 </v>
    <v>       0.61087630       0.36644992       0.57580409 </v>
    <v>       0.55431629       0.47176734       0.35874222 </v>
    <v>       0.50632770       0.42963210       0.48801643 </v>
    <v>       0.50171158       0.44137543       0.63658141 </v>
    <v>       0.45003945       0.54937264       0.42380289 </v>
    <v>       0.38895103       0.51294002       0.68900590 </v>
    <v>       0.45590317       0.56287585       0.57149821 </v>
   </varray>
  </structure>
  <varray name="forces" >
   <v>       0.03098619       0.01775741      -0.06545073 </v>
   <v>      -0.04300781      -0.08909683       0.04591259 </v>
   <v>      -0.01991553       0.06422957       0.02327423 </v>
   <v>       0.06134016       0.02794284      -0.18318058 </v>
   <v>      -0.05063242       0.03600054      -0.02570556 </v>
   <v>       0.03051024       0.04971810      -0.08089804 </v>
   <v>       0.03915894       0.00895973       0.07865176 </v>
   <v>       0.01070622      -0.02561719       0.05601319 </v>
   <v>      -0.05609084       0.02487027      -0.00436593 </v>
   <v>       0.02020410      -0.03664804       0.06289814 </v>
   <v>      -0.02325926      -0.07811641       0.09285093 </v>
  </varray>
  <varray name="stress" >
   <v>      -1.00084054       0.02955066      -0.03363158 </v>
   <v>       0.02955066      -0.94976288      -0.13804114 </v>
   <v>      -0.03363158      -0.13804114      -0.74886386 </v>
  </varray>
  <energy>
   <i name="e_fr_energy">    -19.27341114 </i>
   <i name="e_wo_entrp">    -19.27341114 </i>
   <i name="e_0_energy">     -0.00000000 </i>
  </energy>
  <time name="totalsc">    4.09    4.12</time>
 </calculation>
 <calculation>
  <scstep>
   <time name="dav">    0.72    0.71</time>
   <time name="total">    1.01    1.02</time>
   <energy>
    <i name="alphaZ">     15.55411602 </i>
    <i name="ewald">  10683.35082219 </i>
    <i name="hartreedc"> -21605.90721405 </i>
    <i name="XCdc">   -126.95323669 </i>
    <i name="pawpsdc">  11756.97469057 </i>
    <i name="pawaedc"> -11266.07630590 </i>
    <i name="eentropy">      0.00000000 </i>
    <i name="bandstr">   -885.40568535 </i>
    <i name="atom">  11409.18493095 </i>
    <i name="e_fr_energy">    -19.27788225 </i>
    <i name="e_wo_entrp">    -19.27788225 </i>
    <i name="e_0_energy">    -19.27788225 </i>
   </energy>
  </scstep>
  <scstep>
   <time name="dav">    0.74    0.74</time>
   <time name="total">    1.04    1.04</time>
   <energy>
    <i name="e_fr_energy">    -19.28124420 </i>
    <i name="e_wo_entrp">    -19.28124420 </i>
    <i name="e_0_energy">    -19.28124420 </i>
   </energy>
  </scstep>
  <scstep>
   <time name="dav">    0.78    0.78</time>
   <time name="total">    1.01    1.02</time>
   <energy>
    <i name="alphaZ">     15.55411602 </i>
    <i name="ewald">  10683.35082219 </i>
    <i name="hartreedc"> -21606.22579681 </i>
    <i name="XCdc">   -126.94550230 </i>
    <i name="pawpsdc">  11752.59357289 </i>
    <i name="pawaedc"> -11261.62046305 </i>
    <i name="eentropy">      0.00000000 </i>
    <i name="bandstr">   -885.17288652 </i>
    <i name="atom">  11409.18493095 </i>
    <i name="e_fr_energy">    -19.28120663 </i>
    <i name="e_wo_entrp">    -19.28120663 </i>
    <i name="e_0_energy">    -19.28120663 </i>
   </energy>
  </scstep>
  <structure>
   <crystal>
    <varray name="basis" >
     <v>      18.77376623       0.00000000       0.00000000 </v>
     <v>       0.00000000      18.77376623       0.00000000 </v>
     <v>       0.00000000       0.00000000      18.77376623 </v>
    </varray>
    <i name="volume">   6616.89460253 </i>
    <varray name="rec_basis" >
     <v>       0.05326582       0.00000000       0.00000000 </v>
     <v>       0.00000000       0.05326582       0.00000000 </v>
     <v>       0.00000000       0.00000000       0.05326582 </v>
    </varray>
   </crystal>
   <varray name="positions" >
    <v>       0.65909473       0.55061848       0.42538013 </v>
    <v>       0.60842800       0.51451202       0.55786162 </v>
    <v>       0.55660216       0.63304059       0.48789761 </v>
    <v>       0.41521625       0.67792911       0.49142313 </v>
    <v>       0.61067793       0.36659786       0.57569347 </v>
    <v>       0.55452404       0.47193841       0.35823717 </v>
    <v>       0.50645707       0.42956598       0.48848198 </v>
    <v>       0.50177987       0.44129491       0.63676655 </v>
    <v>       0.44967417       0.54952004       0.42371481 </v>
    <v>       0.38899038       0.51280803       0.68928446 </v>
    <v>       0.45583204       0.56239287       0.57204912 </v>
   </varray>
  </structure>
  <varray name="forces" >
   <v>      -0.01915732       0.02413567      -0.00807199 </v>
   <v>      -0.02143420      -0.00398762      -0.01952768 </v>
   <v>      -0.00222882      -0.01227463       0.03646172 </v>
   <v>       0.07128373      -0.00693774      -0.15683484 </v>
   <v>      -0.02634930      -0.00560898      -0.01375912 </v>
   <v>      -0.00543452       0.05664513      -0.01578574 </v>
   <v>       0.02037573       0.04934035      -0.01559154 </v>
   <v>      -0.00100082      -0.04798963       0.09551233 </v>
   <v>      -0.00916738      -0.01101816       0.02036420 </v>
   <v>       0.00964723      -0.04736602       0.08728349 </v>
   <v>      -0.01653435       0.00506163      -0.01005083 </v>
  </varray>
  <varray name="stress" >
   <v>      -1.03295529       0.04853171      -0.00766520 </v>
   <v>       0.04853171      -0.99180404      -0.10772372 </v>
   <v>      -0.00766520      -0.10772372      -0.83651953 </v>
  </varray>
  <energy>
   <i name="e_fr_energy">    -19.28120663 </i>
   <i name="e_wo_entrp">    -19.28120663 </i>
   <i name="e_0_energy">      0.00000000 </i>
  </energy>
  <time name="totalsc">    4.27    4.30</time>
 </calculation>
 <calculation>
  <scstep>
   <time name="dav">    0.72    0.73</time>
   <time name="total">    1.02    1.03</time>
   <energy>
    <i name="alphaZ">     15.55411602 </i>
    <i name="ewald">  10682.29967369 </i>
    <i name="hartreedc"> -21605.35068634 </i>
    <i name="XCdc">   -126.94284815 </i>
    <i name="pawpsdc">  11750.07404496 </i>
    <i name="pawaedc"> -11259.05594765 </i>
    <i name="eentropy">      0.00000000 </i>
    <i name="bandstr">   -885.04682397 </i>
    <i name="atom">  11409.18493095 </i>
    <i name="e_fr_energy">    -19.28354050 </i>
    <i name="e_wo_entrp">    -19.28354050 </i>
    <i name="e_0_energy">    -19.28354050 </i>
   </energy>
  </scstep>
  <scstep>
   <time name="dav">    0.75    0.75</time>
   <time name="total">    1.04    1.05</time>
   <energy>
    <i name="e_fr_energy">    -19.28400644 </i>
    <i name="e_wo_entrp">    -19.28400644 </i>
    <i name="e_0_energy">    -19.28400644 </i>
   </energy>
  </scstep>
  <scstep>
   <time name="dav">    0.55    0.55</time>
   <time name="total">    0.79    0.79</time>
   <energy>
    <i name="alphaZ">     15.55411602 </i>
    <i name="ewald">  10682.29967369 </i>
    <i name="hartreedc"> -21605.35425247 </i>
    <i name="XCdc">   -126.94290912 </i>
    <i name="pawpsdc">  11749.83271904 </i>
    <i name="pawaedc"> -11258.80809708 </i>
    <i name="eentropy">      0.00000000 </i>
    <i name="bandstr">   -885.05019385 </i>
    <i name="atom">  11409.18493095 </i>
    <i name="e_fr_energy">    -19.28401282 </i>
    <i name="e_wo_entrp">    -19.28401282 </i>
    <i name="e_0_energy">    -19.28401282 </i>
   </energy>
  </scstep>
  <structure>
   <crystal>
    <varray name="basis" >
     <v>      18.77376623       0.00000000       0.00000000 </v>
     <v>       0.00000000      18.77376623       0.00000000 </v>
     <v>       0.00000000       0.00000000      18.77376623 </v>
    </varray>
    <i name="volume">   6616.89460253 </i>
    <varray name="rec_basis" >
     <v>       0.05326582       0.00000000       0.00000000 </v>
     <v>       0.00000000       0.05326582       0.00000000 </v>
     <v>       0.00000000       0.00000000       0.05326582 </v>
    </varray>
   </crystal>
   <varray name="positions" >
    <v>       0.65905726       0.55067822       0.42534812 </v>
    <v>       0.60837098       0.51448798       0.55782604 </v>
    <v>       0.55659444       0.63302520       0.48798766 </v>
    <v>       0.41539246       0.67792032       0.49102266 </v>
    <v>       0.61060873       0.36658911       0.57565712 </v>
    <v>       0.55451759       0.47207915       0.35818357 </v>
    <v>       0.50650983       0.42968180       0.48845936 </v>
    <v>       0.50177963       0.44117770       0.63700061 </v>
    <v>       0.44964077       0.54949835       0.42376070 </v>
    <v>       0.38901467       0.51269069       0.68950179 </v>
    <v>       0.45579029       0.56238977       0.57204243 </v>
   </varray>
  </structure>
  <varray name="forces" >
   <v>      -0.01470524       0.02271751      -0.00694886 </v>
   <v>      -0.01830961      -0.00652919      -0.00921732 </v>
   <v>       0.00369382      -0.00684578       0.02870115 </v>
   <v>       0.05662846      -0.00003139      -0.13640893 </v>
   <v>      -0.02444484      -0.00510415      -0.01011295 </v>
   <v>      -0.00504595       0.04881731      -0.01739418 </v>
   <v>       0.01578224       0.03760312      -0.00327506 </v>
   <v>      -0.00034183      -0.03122265       0.06765848 </v>
   <v>      -0.01030891      -0.01080572       0.00920357 </v>
   <v>       0.01453440      -0.03936107       0.06956474 </v>
   <v>      -0.01748255      -0.00923799       0.00822937 </v>
  </varray>
  <varray name="stress" >
   <v>      -1.02899778       0.04463476      -0.00450617 </v>
   <v>       0.04463475      -0.98796671      -0.10159908 </v>
   <v>      -0.00450617      -0.10159908      -0.84101095 </v>
  </varray>
  <energy>
   <i name="e_fr_energy">    -19.28401282 </i>
   <i name="e_wo_entrp">    -19.28401282 </i>
   <i name="e_0_energy">      0.00000000 </i>
  </energy>
  <time name="totalsc">    4.07    4.11</time>
 </calculation>
 <calculation>
  <scstep>
   <time name="dav">    0.71    0.71</time>
   <time name="total">    1.01    1.02</time>
   <energy>
    <i name="alphaZ">     15.55411602 </i>
    <i name="ewald">  10679.10296104 </i>
    <i name="hartreedc"> -21602.22239128 </i>
    <i name="XCdc">   -126.94136331 </i>
    <i name="pawpsdc">  11749.65518524 </i>
    <i name="pawaedc"> -11258.62715827 </i>
    <i name="eentropy">      0.00000000 </i>
    <i name="bandstr">   -884.99296234 </i>
    <i name="atom">  11409.18493095 </i>
    <i name="e_fr_energy">    -19.28668194 </i>
    <i name="e_wo_entrp">    -19.28668194 </i>
    <i name="e_0_energy">    -19.28668194 </i>
   </energy>
  </scstep>
  <scstep>
   <time name="dav">    0.74    0.74</time>
   <time name="total">    1.03    1.04</time>
   <energy>
    <i name="e_fr_energy">    -19.29068977 </i>
    <i name="e_wo_entrp">    -19.29068977 </i>
    <i name="e_0_energy">    -19.29068977 </i>
   </energy>
  </scstep>
  <scstep>
   <time name="dav">    0.79    0.79</time>
   <time name="total">    1.03    1.03</time>
   <energy>
    <i name="alphaZ">     15.55411602 </i>
    <i name="ewald">  10679.10296104 </i>
    <i name="hartreedc"> -21602.19988220 </i>
    <i name="XCdc">   -126.94263375 </i>
    <i name="pawpsdc">  11749.98563175 </i>
    <i name="pawaedc"> -11258.95764817 </i>
    <i name="eentropy">      0.00000000 </i>
    <i name="bandstr">   -885.01811667 </i>
    <i name="atom">  11409.18493095 </i>
    <i name="e_fr_energy">    -19.29064102 </i>
    <i name="e_wo_entrp">    -19.29064102 </i>
    <i name="e_0_energy">    -19.29064102 </i>
   </energy>
  </scstep>
  <structure>
   <crystal>
    <varray name="basis" >
     <v>      18.77376623       0.00000000       0.00000000 </v>
     <v>       0.00000000      18.77376623       0.00000000 </v>
     <v>       0.00000000       0.00000000      18.77376623 </v>
    </varray>
    <i name="volume">   6616.89460253 </i>
    <varray name="rec_basis" >
     <v>       0.05326582       0.00000000       0.00000000 </v>
     <v>       0.00000000       0.05326582       0.00000000 </v>
     <v>       0.00000000       0.00000000       0.05326582 </v>
    </varray>
   </crystal>
   <varray name="positions" >
    <v>       0.65894484       0.55085745       0.42525211 </v>
    <v>       0.60819992       0.51441588       0.55771929 </v>
    <v>       0.55657127       0.63297902       0.48825781 </v>
    <v>       0.41592109       0.67789393       0.48982123 </v>
    <v>       0.61040112       0.36656287       0.57554805 </v>
    <v>       0.55449823       0.47250136       0.35802275 </v>
    <v>       0.50666810       0.43002926       0.48839152 </v>
    <v>       0.50177890       0.44082608       0.63770278 </v>
    <v>       0.44954059       0.54943327       0.42389837 </v>
    <v>       0.38908754       0.51233868       0.69015378 </v>
    <v>       0.45566505       0.56238049       0.57202236 </v>
   </varray>
  </structure>
  <varray name="forces" >
   <v>      -0.01034256       0.02823262      -0.00169208 </v>
   <v>      -0.01327385      -0.00894343       0.00857470 </v>
   <v>       0.02286655      -0.00275551       0.02111426 </v>
   <v>       0.03703478       0.01629009      -0.12602749 </v>
   <v>      -0.02664353      -0.00700524      -0.00478610 </v>
   <v>      -0.00947530       0.04531963      -0.02295625 </v>
   <v>       0.00807716       0.02360632       0.01695416 </v>
   <v>       0.00002428      -0.00096262       0.02223102 </v>
   <v>      -0.01194604      -0.01908681      -0.01457396 </v>
   <v>       0.03207447      -0.03293519       0.04922310 </v>
   <v>      -0.02839596      -0.04175986       0.05193865 </v>
  </varray>
  <varray name="stress" >
   <v>      -1.01522870       0.03824384       0.01124736 </v>
   <v>       0.03824384      -0.98099760      -0.07479438 </v>
   <v>       0.01124736      -0.07479439      -0.87042963 </v>
  </varray>
  <energy>
   <i name="e_fr_energy">    -19.29064102 </i>
   <i name="e_wo_entrp">    -19.29064102 </i>
   <i name="e_0_energy">      0.00000000 </i>
  </energy>
  <time name="totalsc">    4.28    4.32</time>
 </calculation>
 <calculation>
  <scstep>
   <time name="dav">    0.71    0.71</time>
   <time name="total">    1.01    1.02</time>
   <energy>
    <i name="alphaZ">     15.55411602 </i>
    <i name="ewald">  10672.50831550 </i>
    <i name="hartreedc"> -21595.70497021 </i>
    <i name="XCdc">   -126.93735430 </i>
    <i name="pawpsdc">  11749.68660198 </i>
    <i name="pawaedc"> -11258.65687066 </i>
    <i name="eentropy">      0.00000000 </i>
    <i name="bandstr">   -884.91480941 </i>
    <i name="atom">  11409.18493095 </i>
    <i name="e_fr_energy">    -19.28004014 </i>
    <i name="e_wo_entrp">    -19.28004014 </i>
    <i name="e_0_energy">    -19.28004014 </i>
   </energy>
  </scstep>
  <scstep>
   <time name="dav">    0.76    0.75</time>
   <time name="total">    1.05    1.05</time>
   <energy>
    <i name="e_fr_energy">    -19.29613586 </i>
    <i name="e_wo_entrp">    -19.29613586 </i>
    <i name="e_0_energy">    -19.29613586 </i>
   </energy>
  </scstep>
  <scstep>
   <time name="dav">    0.76    0.76</time>
   <time name="total">    1.06    1.07</time>
   <energy>
    <i name="e_fr_energy">    -19.29594955 </i>
    <i name="e_wo_entrp">    -19.29594955 </i>
    <i name="e_0_energy">    -19.29594955 </i>
   </energy>
  </scstep>
  <scstep>
   <time name="dav">    0.74    0.74</time>
   <time name="total">    1.04    1.56</time>
   <energy>
    <i name="e_fr_energy">    -19.29578800 </i>
    <i name="e_wo_entrp">    -19.29578800 </i>
    <i name="e_0_energy">    -19.29578800 </i>
   </energy>
  </scstep>
  <scstep>
   <time name="dav">    0.66    0.66</time>
   <time name="total">    0.96    0.96</time>
   <energy>
    <i name="e_fr_energy">    -19.29601383 </i>
    <i name="e_wo_entrp">    -19.29601383 </i>
    <i name="e_0_energy">    -19.29601383 </i>
   </energy>
  </scstep>
  <scstep>
   <time name="dav">    0.59    0.59</time>
   <time name="total">    0.89    0.91</time>
   <energy>
    <i name="e_fr_energy">    -19.29618663 </i>
    <i name="e_wo_entrp">    -19.29618663 </i>
    <i name="e_0_energy">    -19.29618663 </i>
   </energy>
  </scstep>
  <scstep>
   <time name="dav">    0.59    0.59</time>
   <time name="total">    0.88    0.91</time>
   <energy>
    <i name="e_fr_energy">    -19.29638268 </i>
    <i name="e_wo_entrp">    -19.29638268 </i>
    <i name="e_0_energy">    -19.29638268 </i>
   </energy>
  </scstep>
  <scstep>
   <time name="dav">    0.62    0.62</time>
   <time name="total">    0.92    0.92</time>
   <energy>
    <i name="e_fr_energy">    -19.29653899 </i>
    <i name="e_wo_entrp">    -19.29653899 </i>
    <i name="e_0_energy">    -19.29653899 </i>
   </energy>
  </scstep>
  <scstep>
   <time name="dav">    0.58    0.58</time>
   <time name="total">    0.82    0.82</time>
   <energy>
    <i name="alphaZ">     15.55411602 </i>
    <i name="ewald">  10672.50831550 </i>
    <i name="hartreedc"> -21595.63056464 </i>
    <i name="XCdc">   -126.94118916 </i>
    <i name="pawpsdc">  11749.63736095 </i>
    <i name="pawaedc"> -11258.60625751 </i>
    <i name="eentropy">      0.00000000 </i>
    <i name="bandstr">   -885.00333312 </i>
    <i name="atom">  11409.18493095 </i>
    <i name="e_fr_energy">    -19.29662101 </i>
    <i name="e_wo_entrp">    -19.29662101 </i>
    <i name="e_0_energy">    -19.29662101 </i>
   </energy>
  </scstep>
  <structure>
   <crystal>
    <varray name="basis" >
     <v>      18.77376623       0.00000000       0.00000000 </v>
     <v>       0.00000000      18.77376623       0.00000000 </v>
     <v>       0.00000000       0.00000000      18.77376623 </v>
    </varray>
    <i name="volume">   6616.89460253 </i>
    <varray name="rec_basis" >
     <v>       0.05326582       0.00000000       0.00000000 </v>
     <v>       0.00000000       0.05326582       0.00000000 </v>
     <v>       0.00000000       0.00000000       0.05326582 </v>
    </varray>
   </crystal>
   <varray name="positions" >
    <v>       0.65872000       0.55121590       0.42506008 </v>
    <v>       0.60785779       0.51427167       0.55750581 </v>
    <v>       0.55652493       0.63288667       0.48879811 </v>
    <v>       0.41697834       0.67784116       0.48741839 </v>
    <v>       0.60998591       0.36651037       0.57532990 </v>
    <v>       0.55445952       0.47334579       0.35770111 </v>
    <v>       0.50698465       0.43072420       0.48825583 </v>
    <v>       0.50177744       0.44012284       0.63910711 </v>
    <v>       0.44934022       0.54930312       0.42417372 </v>
    <v>       0.38923329       0.51163467       0.69145777 </v>
    <v>       0.45541457       0.56236191       0.57198223 </v>
   </varray>
  </structure>
  <varray name="forces" >
   <v>       0.00022001       0.03447220       0.01067131 </v>
   <v>       0.00364893      -0.00979358       0.04705232 </v>
   <v>       0.06192692       0.00778954       0.00028836 </v>
   <v>      -0.01352030       0.05639352      -0.07600319 </v>
   <v>      -0.02873755      -0.00967720       0.00985293 </v>
   <v>      -0.01902502       0.02878760      -0.02958379 </v>
   <v>      -0.01265966      -0.01630944       0.05216153 </v>
   <v>       0.00172084       0.05911768      -0.07355016 </v>
   <v>      -0.01458079      -0.03622868      -0.06663947 </v>
   <v>       0.06276714      -0.01307330      -0.00576487 </v>
   <v>      -0.04176052      -0.10147834       0.13151503 </v>
  </varray>
  <varray name="stress" >
   <v>      -0.98789104       0.03432783       0.04257897 </v>
   <v>       0.03432782      -0.95790369      -0.03213379 </v>
   <v>       0.04257897      -0.03213379      -0.91233216 </v>
  </varray>
  <energy>
   <i name="e_fr_energy">    -19.29662101 </i>
   <i name="e_wo_entrp">    -19.29662101 </i>
   <i name="e_0_energy">      0.00000000 </i>
  </energy>
  <time name="totalsc">    9.84   11.11</time>
 </calculation>
 <calculation>
  <scstep>
   <time name="dav">    0.71    0.72</time>
   <time name="total">    1.01    1.03</time>
   <energy>
    <i name="alphaZ">     15.55411602 </i>
    <i name="ewald">  10666.37966413 </i>
    <i name="hartreedc"> -21589.57134471 </i>
    <i name="XCdc">   -126.94788990 </i>
    <i name="pawpsdc">  11749.63183296 </i>
    <i name="pawaedc"> -11258.60067954 </i>
    <i name="eentropy">      0.00000000 </i>
    <i name="bandstr">   -884.92903708 </i>
    <i name="atom">  11409.18493095 </i>
    <i name="e_fr_energy">    -19.29840717 </i>
    <i name="e_wo_entrp">    -19.29840717 </i>
    <i name="e_0_energy">    -19.29840717 </i>
   </energy>
  </scstep>
  <scstep>
   <time name="dav">    0.74    0.74</time>
   <time name="total">    1.04    1.04</time>
   <energy>
    <i name="e_fr_energy">    -19.29987435 </i>
    <i name="e_wo_entrp">    -19.29987435 </i>
    <i name="e_0_energy">    -19.29987435 </i>
   </energy>
  </scstep>
  <scstep>
   <time name="dav">    0.65    0.65</time>
   <time name="total">    0.89    0.91</time>
   <energy>
    <i name="alphaZ">     15.55411602 </i>
    <i name="ewald">  10666.37966413 </i>
    <i name="hartreedc"> -21589.61397446 </i>
    <i name="XCdc">   -126.94708086 </i>
    <i name="pawpsdc">  11749.33077526 </i>
    <i name="pawaedc"> -11258.29318369 </i>
    <i name="eentropy">      0.00000000 </i>
    <i name="bandstr">   -884.89509510 </i>
    <i name="atom">  11409.18493095 </i>
    <i name="e_fr_energy">    -19.29984775 </i>
    <i name="e_wo_entrp">    -19.29984775 </i>
    <i name="e_0_energy">    -19.29984775 </i>
   </energy>
  </scstep>
  <structure>
   <crystal>
    <varray name="basis" >
     <v>      18.77376623       0.00000000       0.00000000 </v>
     <v>       0.00000000      18.77376623       0.00000000 </v>
     <v>       0.00000000       0.00000000      18.77376623 </v>
    </varray>
    <i name="volume">   6616.89460253 </i>
    <varray name="rec_basis" >
     <v>       0.05326582       0.00000000       0.00000000 </v>
     <v>       0.00000000       0.05326582       0.00000000 </v>
     <v>       0.00000000       0.00000000       0.05326582 </v>
    </varray>
   </crystal>
   <varray name="positions" >
    <v>       0.65867165       0.55138907       0.42504772 </v>
    <v>       0.60779338       0.51421325       0.55758919 </v>
    <v>       0.55668574       0.63288806       0.48891653 </v>
    <v>       0.41717120       0.67798530       0.48668554 </v>
    <v>       0.60981621       0.36647223       0.57530960 </v>
    <v>       0.55439859       0.47360907       0.35754945 </v>
    <v>       0.50701863       0.43083047       0.48837025 </v>
    <v>       0.50178187       0.44013289       0.63920986 </v>
    <v>       0.44925636       0.54917480       0.42404976 </v>
    <v>       0.38943824       0.51144533       0.69172574 </v>
    <v>       0.45524479       0.56207781       0.57233643 </v>
   </varray>
  </structure>
  <varray name="forces" >
   <v>       0.00375765       0.02356625       0.01330858 </v>
   <v>       0.01378759      -0.00026461       0.04187345 </v>
   <v>       0.02421783      -0.00081786       0.00694290 </v>
   <v>      -0.00309470       0.02648260      -0.04570864 </v>
   <v>      -0.02016455      -0.01525845       0.01431740 </v>
   <v>      -0.01536903       0.01571884      -0.01751221 </v>
   <v>      -0.01683090      -0.01746810       0.02940935 </v>
   <v>       0.01402781       0.03781135      -0.06873372 </v>
   <v>      -0.00916870      -0.01897937      -0.03595061 </v>
   <v>       0.04009798      -0.00777337       0.00895719 </v>
   <v>      -0.03126098      -0.04301728       0.05309631 </v>
  </varray>
  <varray name="stress" >
   <v>      -0.98424374       0.01901166       0.03754928 </v>
   <v>       0.01901166      -0.95924826      -0.02055300 </v>
   <v>       0.03754927      -0.02055299      -0.93334867 </v>
  </varray>
  <energy>
   <i name="e_fr_energy">    -19.29984775 </i>
   <i name="e_wo_entrp">    -19.29984775 </i>
   <i name="e_0_energy">      0.00000000 </i>
  </energy>
  <time name="totalsc">    4.16    4.21</time>
 </calculation>
 <calculation>
  <scstep>
   <time name="dav">    0.73    0.73</time>
   <time name="total">    1.02    1.03</time>
   <energy>
    <i name="alphaZ">     15.55411602 </i>
    <i name="ewald">  10659.47410493 </i>
    <i name="hartreedc"> -21582.79980447 </i>
    <i name="XCdc">   -126.95369714 </i>
    <i name="pawpsdc">  11748.94559230 </i>
    <i name="pawaedc"> -11257.90306421 </i>
    <i name="eentropy">      0.00000000 </i>
    <i name="bandstr">   -884.80205043 </i>
    <i name="atom">  11409.18493095 </i>
    <i name="e_fr_energy">    -19.29987206 </i>
    <i name="e_wo_entrp">    -19.29987206 </i>
    <i name="e_0_energy">    -19.29987206 </i>
   </energy>
  </scstep>
  <scstep>
   <time name="dav">    0.76    0.77</time>
   <time name="total">    1.06    1.06</time>
   <energy>
    <i name="e_fr_energy">    -19.30168158 </i>
    <i name="e_wo_entrp">    -19.30168158 </i>
    <i name="e_0_energy">    -19.30168158 </i>
   </energy>
  </scstep>
  <scstep>
   <time name="dav">    0.69    0.69</time>
   <time name="total">    0.93    0.93</time>
   <energy>
    <i name="alphaZ">     15.55411602 </i>
    <i name="ewald">  10659.47410493 </i>
    <i name="hartreedc"> -21582.84668794 </i>
    <i name="XCdc">   -126.95275489 </i>
    <i name="pawpsdc">  11748.63415686 </i>
    <i name="pawaedc"> -11257.58407819 </i>
    <i name="eentropy">      0.00000000 </i>
    <i name="bandstr">   -884.76542873 </i>
    <i name="atom">  11409.18493095 </i>
    <i name="e_fr_energy">    -19.30164099 </i>
    <i name="e_wo_entrp">    -19.30164099 </i>
    <i name="e_0_energy">    -19.30164099 </i>
   </energy>
  </scstep>
  <structure>
   <crystal>
    <varray name="basis" >
     <v>      18.77376623       0.00000000       0.00000000 </v>
     <v>       0.00000000      18.77376623       0.00000000 </v>
     <v>       0.00000000       0.00000000      18.77376623 </v>
    </varray>
    <i name="volume">   6616.89460253 </i>
    <varray name="rec_basis" >
     <v>       0.05326582       0.00000000       0.00000000 </v>
     <v>       0.00000000       0.05326582       0.00000000 </v>
     <v>       0.00000000       0.00000000       0.05326582 </v>
    </varray>
   </crystal>
   <varray name="positions" >
    <v>       0.65861714       0.55158434       0.42503379 </v>
    <v>       0.60772075       0.51414737       0.55768321 </v>
    <v>       0.55686708       0.63288963       0.48905006 </v>
    <v>       0.41738866       0.67814784       0.48585917 </v>
    <v>       0.60962485       0.36642923       0.57528671 </v>
    <v>       0.55432988       0.47390594       0.35737843 </v>
    <v>       0.50705694       0.43095031       0.48849926 </v>
    <v>       0.50178687       0.44014423       0.63932571 </v>
    <v>       0.44916180       0.54903011       0.42390997 </v>
    <v>       0.38966934       0.51123182       0.69202790 </v>
    <v>       0.45505335       0.56175746       0.57273584 </v>
   </varray>
  </structure>
  <varray name="forces" >
   <v>       0.00671994       0.01529332       0.01547772 </v>
   <v>       0.02330345       0.00911922       0.03795617 </v>
   <v>      -0.01262273      -0.00897102       0.01550113 </v>
   <v>       0.01041602      -0.00224767      -0.02398112 </v>
   <v>      -0.01295461      -0.02211403       0.01871505 </v>
   <v>      -0.01274070       0.00719999      -0.00872297 </v>
   <v>      -0.02141422      -0.01622681       0.00712211 </v>
   <v>       0.02786113       0.01414473      -0.06177723 </v>
   <v>      -0.00588562      -0.00293945      -0.00710564 </v>
   <v>       0.01923472      -0.00599294       0.03034614 </v>
   <v>      -0.02191738       0.01273465      -0.02353136 </v>
  </varray>
  <varray name="stress" >
   <v>      -0.97974935       0.00376713       0.03242098 </v>
   <v>       0.00376712      -0.95772452      -0.00994180 </v>
   <v>       0.03242098      -0.00994180      -0.95323860 </v>
  </varray>
  <energy>
   <i name="e_fr_energy">    -19.30164099 </i>
   <i name="e_wo_entrp">    -19.30164099 </i>
   <i name="e_0_energy">      0.00000000 </i>
  </energy>
  <time name="totalsc">    4.23    4.28</time>
 </calculation>
 <calculation>
  <scstep>
   <time name="dav">    0.74    0.74</time>
   <time name="total">    1.04    1.09</time>
   <energy>
    <i name="alphaZ">     15.55411602 </i>
    <i name="ewald">  10657.81814648 </i>
    <i name="hartreedc"> -21581.23387587 </i>
    <i name="XCdc">   -126.95464174 </i>
    <i name="pawpsdc">  11748.18037135 </i>
    <i name="pawaedc"> -11257.12423186 </i>
    <i name="eentropy">      0.00000000 </i>
    <i name="bandstr">   -884.72708680 </i>
    <i name="atom">  11409.18493095 </i>
    <i name="e_fr_energy">    -19.30227147 </i>
    <i name="e_wo_entrp">    -19.30227147 </i>
    <i name="e_0_energy">    -19.30227147 </i>
   </energy>
  </scstep>
  <scstep>
   <time name="dav">    0.74    0.74</time>
   <time name="total">    1.04    1.04</time>
   <energy>
    <i name="e_fr_energy">    -19.30250021 </i>
    <i name="e_wo_entrp">    -19.30250021 </i>
    <i name="e_0_energy">    -19.30250021 </i>
   </energy>
  </scstep>
  <scstep>
   <time name="dav">    0.56    0.57</time>
   <time name="total">    0.80    0.89</time>
   <energy>
    <i name="alphaZ">     15.55411602 </i>
    <i name="ewald">  10657.81814648 </i>
    <i name="hartreedc"> -21581.24412654 </i>
    <i name="XCdc">   -126.95447766 </i>
    <i name="pawpsdc">  11747.94381895 </i>
    <i name="pawaedc"> -11256.88425927 </i>
    <i name="eentropy">      0.00000000 </i>
    <i name="bandstr">   -884.72066356 </i>
    <i name="atom">  11409.18493095 </i>
    <i name="e_fr_energy">    -19.30251464 </i>
    <i name="e_wo_entrp">    -19.30251464 </i>
    <i name="e_0_energy">    -19.30251464 </i>
   </energy>
  </scstep>
  <structure>
   <crystal>
    <varray name="basis" >
     <v>      18.77376623       0.00000000       0.00000000 </v>
     <v>       0.00000000      18.77376623       0.00000000 </v>
     <v>       0.00000000       0.00000000      18.77376623 </v>
    </varray>
    <i name="volume">   6616.89460253 </i>
    <varray name="rec_basis" >
     <v>       0.05326582       0.00000000       0.00000000 </v>
     <v>       0.00000000       0.05326582       0.00000000 </v>
     <v>       0.00000000       0.00000000       0.05326582 </v>
    </varray>
   </crystal>
   <varray name="positions" >
    <v>       0.65863660       0.55164778       0.42508530 </v>
    <v>       0.60779521       0.51417426       0.55781722 </v>
    <v>       0.55683526       0.63285939       0.48911049 </v>
    <v>       0.41743693       0.67814999       0.48572849 </v>
    <v>       0.60956956       0.36635186       0.57534864 </v>
    <v>       0.55428267       0.47394810       0.35733867 </v>
    <v>       0.50698681       0.43090262       0.48853109 </v>
    <v>       0.50188140       0.44019275       0.63912373 </v>
    <v>       0.44913622       0.54901149       0.42387756 </v>
    <v>       0.38974825       0.51119875       0.69214866 </v>
    <v>       0.45496774       0.56178132       0.57268022 </v>
   </varray>
  </structure>
  <varray name="forces" >
   <v>      -0.00007780       0.01214776       0.01323702 </v>
   <v>       0.01541960       0.00425100       0.02325608 </v>
   <v>      -0.00344442      -0.00902552       0.01297541 </v>
   <v>       0.00707220       0.00312358      -0.02647498 </v>
   <v>      -0.00747995      -0.02005429       0.01051318 </v>
   <v>      -0.00878830       0.01039784      -0.00438202 </v>
   <v>      -0.01050037      -0.00450134       0.00015098 </v>
   <v>       0.00858775       0.01660908      -0.03452724 </v>
   <v>      -0.00585357      -0.00629730      -0.00991665 </v>
   <v>       0.02898440      -0.00938088       0.02258393 </v>
   <v>      -0.02391953       0.00273005      -0.00741570 </v>
  </varray>
  <varray name="stress" >
   <v>      -0.98399282       0.00208972       0.02983253 </v>
   <v>       0.00208972      -0.96170466      -0.00992433 </v>
   <v>       0.02983252      -0.00992433      -0.95303637 </v>
  </varray>
  <energy>
   <i name="e_fr_energy">    -19.30251464 </i>
   <i name="e_wo_entrp">    -19.30251464 </i>
   <i name="e_0_energy">      0.00000000 </i>
  </energy>
  <time name="totalsc">    4.10    4.26</time>
 </calculation>
 <calculation>
  <scstep>
   <time name="dav">    0.74    0.74</time>
   <time name="total">    1.04    1.05</time>
   <energy>
    <i name="alphaZ">     15.55411602 </i>
    <i name="ewald">  10654.03200908 </i>
    <i name="hartreedc"> -21577.49794408 </i>
    <i name="XCdc">   -126.95948265 </i>
    <i name="pawpsdc">  11747.82811365 </i>
    <i name="pawaedc"> -11256.76625797 </i>
    <i name="eentropy">      0.00000000 </i>
    <i name="bandstr">   -884.67823378 </i>
    <i name="atom">  11409.18493095 </i>
    <i name="e_fr_energy">    -19.30274879 </i>
    <i name="e_wo_entrp">    -19.30274879 </i>
    <i name="e_0_energy">    -19.30274879 </i>
   </energy>
  </scstep>
  <scstep>
   <time name="dav">    0.76    0.75</time>
   <time name="total">    1.05    1.05</time>
   <energy>
    <i name="e_fr_energy">    -19.30375784 </i>
    <i name="e_wo_entrp">    -19.30375784 </i>
    <i name="e_0_energy">    -19.30375784 </i>
   </energy>
  </scstep>
  <scstep>
   <time name="dav">    0.56    0.56</time>
   <time name="total">    0.80    0.81</time>
   <energy>
    <i name="alphaZ">     15.55411602 </i>
    <i name="ewald">  10654.03200908 </i>
    <i name="hartreedc"> -21577.52029570 </i>
    <i name="XCdc">   -126.95907252 </i>
    <i name="pawpsdc">  11747.47790506 </i>
    <i name="pawaedc"> -11256.41090270 </i>
    <i name="eentropy">      0.00000000 </i>
    <i name="bandstr">   -884.66243687 </i>
    <i name="atom">  11409.18493095 </i>
    <i name="e_fr_energy">    -19.30374667 </i>
    <i name="e_wo_entrp">    -19.30374667 </i>
    <i name="e_0_energy">    -19.30374667 </i>
   </energy>
  </scstep>
  <structure>
   <crystal>
    <varray name="basis" >
     <v>      18.77376623       0.00000000       0.00000000 </v>
     <v>       0.00000000      18.77376623       0.00000000 </v>
     <v>       0.00000000       0.00000000      18.77376623 </v>
    </varray>
    <i name="volume">   6616.89460253 </i>
    <varray name="rec_basis" >
     <v>       0.05326582       0.00000000       0.00000000 </v>
     <v>       0.00000000       0.05326582       0.00000000 </v>
     <v>       0.00000000       0.00000000       0.05326582 </v>
    </varray>
   </crystal>
   <varray name="positions" >
    <v>       0.65868100       0.55179251       0.42520283 </v>
    <v>       0.60796508       0.51423561       0.55812297 </v>
    <v>       0.55676268       0.63279038       0.48924838 </v>
    <v>       0.41754707       0.67815489       0.48543036 </v>
    <v>       0.60944341       0.36617533       0.57548992 </v>
[...]
       <r>    -1.6720     0.0000    66.0000 </r>
       <r>    -1.6363     0.0000    67.0000 </r>
       <r>    -1.6007     0.0000    67.0000 </r>
       <r>    -1.5650     0.0000    67.0000 </r>
       <r>    -1.5293     0.0000    67.0000 </r>
       <r>    -1.4937     0.0000    67.0000 </r>
       <r>    -1.4580     0.0000    67.0000 </r>
       <r>    -1.4223     0.0000    67.0000 </r>
       <r>    -1.3867     0.0000    67.0000 </r>
       <r>    -1.3510     0.0000    67.0000 </r>
       <r>    -1.3153     0.0000    67.0000 </r>
       <r>    -1.2797     0.0000    67.0000 </r>
       <r>    -1.2440     0.0000    67.0000 </r>
       <r>    -1.2083     0.0000    67.0000 </r>
       <r>    -1.1727     5.8859    67.2099 </r>
       <r>    -1.1370     0.0000    68.0000 </r>
       <r>    -1.1013     0.0000    68.0000 </r>
       <r>    -1.0657     0.0000    68.0000 </r>
       <r>    -1.0300     0.0000    68.0000 </r>
       <r>    -0.9943     0.0000    68.0000 </r>
       <r>    -0.9587     0.0000    68.0000 </r>
       <r>    -0.9230     0.0000    68.0000 </r>
       <r>    -0.8873     0.0000    68.0000 </r>
       <r>    -0.8517     0.0000    68.0000 </r>
       <r>    -0.8160     0.0000    69.0000 </r>
       <r>    -0.7804     0.0000    70.0000 </r>
       <r>    -0.7447     0.0000    71.0000 </r>
       <r>    -0.7090     0.0000    71.0000 </r>
       <r>    -0.6734     0.0000    71.0000 </r>
       <r>    -0.6377     0.0000    72.0000 </r>
       <r>    -0.6020     0.0000    72.0000 </r>
       <r>    -0.5664     0.0000    72.0000 </r>
       <r>    -0.5307     0.0000    72.0000 </r>
       <r>    -0.4950     0.0000    72.0000 </r>
       <r>    -0.4594     0.0000    72.0000 </r>
       <r>    -0.4237     0.0000    72.0000 </r>
       <r>    -0.3880     0.0000    72.0000 </r>
       <r>    -0.3524     0.0000    73.0000 </r>
       <r>    -0.3167     0.0000    73.0000 </r>
       <r>    -0.2810     0.0000    73.0000 </r>
       <r>    -0.2454     0.0000    73.0000 </r>
       <r>    -0.2097     0.0000    73.0000 </r>
       <r>    -0.1740     0.0000    73.0000 </r>
       <r>    -0.1384     0.0000    73.0000 </r>
       <r>    -0.1027     0.0000    73.0000 </r>
       <r>    -0.0670     0.0000    74.0000 </r>
       <r>    -0.0314     0.0000    74.0000 </r>
       <r>     0.0043     0.0000    74.0000 </r>
       <r>     0.0400     0.0000    74.0000 </r>
       <r>     0.0756     0.0000    74.0000 </r>
       <r>     0.1113     0.0000    74.0000 </r>
       <r>     0.1470     0.0000    74.0000 </r>
       <r>     0.1826     0.0000    74.0000 </r>
       <r>     0.2183     0.0000    74.0000 </r>
       <r>     0.2540     0.0000    75.0000 </r>
       <r>     0.2896     0.0000    76.0000 </r>
       <r>     0.3253     0.0000    77.0000 </r>
       <r>     0.3610     0.0000    77.0000 </r>
       <r>     0.3966     0.0000    77.0000 </r>
       <r>     0.4323     0.0000    79.0000 </r>
       <r>     0.4680     0.0000    79.0000 </r>
       <r>     0.5036     0.0000    79.0000 </r>
       <r>     0.5393     0.0000    80.0000 </r>
       <r>     0.5750     0.0000    80.0000 </r>
       <r>     0.6106     0.0000    80.0000 </r>
       <r>     0.6463     0.0000    80.0000 </r>
       <r>     0.6820     0.0000    80.0000 </r>
       <r>     0.7176     0.0000    80.0000 </r>
       <r>     0.7533     0.0000    80.0000 </r>
       <r>     0.7890     0.0000    80.0000 </r>
       <r>     0.8246     0.0000    80.0000 </r>
       <r>     0.8603     0.0000    80.0000 </r>
       <r>     0.8960     0.0000    80.0000 </r>
       <r>     0.9316     0.0000    80.0000 </r>
       <r>     0.9673     0.0000    80.0000 </r>
       <r>     1.0029     0.0000    80.0000 </r>
       <r>     1.0386     0.0000    80.0000 </r>
      </set>
      <set comment="spin 2">
       <r>    -9.6612     0.0000     0.0000 </r>
       <r>    -9.6255     0.0000     0.0000 </r>
       <r>    -9.5899     0.0000     0.0000 </r>
       <r>    -9.5542     0.0000     0.0000 </r>
       <r>    -9.5185     0.0000     0.0000 </r>
       <r>    -9.4829     0.0000     0.0000 </r>
       <r>    -9.4472     0.0000     0.0000 </r>
       <r>    -9.4115     0.0000     0.0000 </r>
       <r>    -9.3759     0.0000     0.0000 </r>
       <r>    -9.3402     0.0000     0.0000 </r>
       <r>    -9.3045     0.0000     0.0000 </r>
       <r>    -9.2689     0.0000     0.0000 </r>
       <r>    -9.2332     0.0000     0.0000 </r>
       <r>    -9.1975     0.0000     0.0000 </r>
       <r>    -9.1619     0.0000     0.0000 </r>
       <r>    -9.1262     0.0000     1.0000 </r>
       <r>    -9.0905     0.0000     1.0000 </r>
       <r>    -9.0549     0.0000     2.0000 </r>
       <r>    -9.0192     0.0000     2.0000 </r>
       <r>    -8.9835     0.0000     2.0000 </r>
       <r>    -8.9479     0.0000     2.0000 </r>
       <r>    -8.9122     0.0000     2.0000 </r>
       <r>    -8.8765     0.0000     2.0000 </r>
       <r>    -8.8409     0.0000     2.0000 </r>
       <r>    -8.8052     0.0000     2.0000 </r>
       <r>    -8.7695     0.0000     2.0000 </r>
       <r>    -8.7339     0.0000     4.0000 </r>
       <r>    -8.6982     0.0000     5.0000 </r>
       <r>    -8.6625     0.0000     5.0000 </r>
       <r>    -8.6269     0.0000     5.0000 </r>
       <r>    -8.5912     0.0000     6.0000 </r>
       <r>    -8.5555     0.0000     7.0000 </r>
       <r>    -8.5199     0.0000     7.0000 </r>
       <r>    -8.4842     0.0000     7.0000 </r>
       <r>    -8.4485     0.0000     8.0000 </r>
       <r>    -8.4129     0.0000     8.0000 </r>
       <r>    -8.3772     0.0000     8.0000 </r>
       <r>    -8.3415     0.0000     9.0000 </r>
       <r>    -8.3059     0.0000    11.0000 </r>
       <r>    -8.2702     0.0000    11.0000 </r>
       <r>    -8.2345     0.0000    12.0000 </r>
       <r>    -8.1989     0.0000    13.0000 </r>
       <r>    -8.1632     0.0000    13.0000 </r>
       <r>    -8.1275     0.0000    13.0000 </r>
       <r>    -8.0919     0.0000    14.0000 </r>
       <r>    -8.0562     0.0000    15.0000 </r>
       <r>    -8.0205     0.0000    15.0000 </r>
       <r>    -7.9849     0.0000    15.0000 </r>
       <r>    -7.9492     0.0000    15.0000 </r>
       <r>    -7.9136     0.0000    16.0000 </r>
       <r>    -7.8779     0.0000    17.0000 </r>
       <r>    -7.8422     0.0000    17.0000 </r>
       <r>    -7.8066     0.0000    18.0000 </r>
       <r>    -7.7709     0.0000    19.0000 </r>
       <r>    -7.7352     0.0000    20.0000 </r>
       <r>    -7.6996     0.0000    21.0000 </r>
       <r>    -7.6639     0.0000    21.0000 </r>
       <r>    -7.6282     0.0000    21.0000 </r>
       <r>    -7.5926     0.0000    21.0000 </r>
       <r>    -7.5569     0.0000    22.0000 </r>
       <r>    -7.5212     0.0000    24.0000 </r>
       <r>    -7.4856     0.0000    24.0000 </r>
       <r>    -7.4499     0.0000    24.0000 </r>
       <r>    -7.4142     0.0000    25.0000 </r>
       <r>    -7.3786     0.0000    26.0000 </r>
       <r>    -7.3429     0.0000    28.0000 </r>
       <r>    -7.3072     0.0000    29.0000 </r>
       <r>    -7.2716     0.0000    31.0000 </r>
       <r>    -7.2359     0.0000    32.0000 </r>
       <r>    -7.2002     0.0000    33.0000 </r>
       <r>    -7.1646     0.0000    34.0000 </r>
       <r>    -7.1289     0.0000    35.0000 </r>
       <r>    -7.0932     0.0000    37.0000 </r>
       <r>    -7.0576     0.0000    37.0000 </r>
       <r>    -7.0219    27.8513    37.9933 </r>
       <r>    -6.9862     0.0000    39.0000 </r>
       <r>    -6.9506     0.0000    39.0000 </r>
       <r>    -6.9149     0.0000    41.0000 </r>
       <r>    -6.8792     0.0000    42.0000 </r>
       <r>    -6.8436     0.0000    43.0000 </r>
       <r>    -6.8079     0.0000    45.0000 </r>
       <r>    -6.7722     0.0000    46.0000 </r>
       <r>    -6.7366     0.0000    47.0000 </r>
       <r>    -6.7009     0.0000    48.0000 </r>
       <r>    -6.6652     0.0000    49.0000 </r>
       <r>    -6.6296     0.0000    50.0000 </r>
       <r>    -6.5939     0.0000    50.0000 </r>
       <r>    -6.5582     0.0000    51.0000 </r>
       <r>    -6.5226     0.0000    51.0000 </r>
       <r>    -6.4869     0.0000    51.0000 </r>
       <r>    -6.4512     0.0000    52.0000 </r>
       <r>    -6.4156     0.0000    54.0000 </r>
       <r>    -6.3799     0.0000    54.0000 </r>
       <r>    -6.3442     0.0000    56.0000 </r>
       <r>    -6.3086     0.0000    56.0000 </r>
       <r>    -6.2729     0.0000    56.0000 </r>
       <r>    -6.2372     0.0000    56.0000 </r>
       <r>    -6.2016     0.0000    56.0000 </r>
       <r>    -6.1659     0.0000    56.0000 </r>
       <r>    -6.1303     0.0000    56.0000 </r>
       <r>    -6.0946     0.0000    56.0000 </r>
       <r>    -6.0589     0.0000    56.0000 </r>
       <r>    -6.0233     0.0000    56.0000 </r>
       <r>    -5.9876     0.0000    56.0000 </r>
       <r>    -5.9519     0.0000    56.0000 </r>
       <r>    -5.9163     0.0000    56.0000 </r>
       <r>    -5.8806     0.0000    56.0000 </r>
       <r>    -5.8449     0.0000    57.0000 </r>
       <r>    -5.8093     0.0000    57.0000 </r>
       <r>    -5.7736     0.0000    57.0000 </r>
       <r>    -5.7379     0.0000    57.0000 </r>
       <r>    -5.7023     0.0000    57.0000 </r>
       <r>    -5.6666     0.0000    57.0000 </r>
       <r>    -5.6309     0.0000    57.0000 </r>
       <r>    -5.5953     0.0000    57.0000 </r>
       <r>    -5.5596     0.0000    57.0000 </r>
       <r>    -5.5239     0.0000    58.0000 </r>
       <r>    -5.4883     0.0000    58.0000 </r>
       <r>    -5.4526     0.0000    58.0000 </r>
       <r>    -5.4169     0.0000    58.0000 </r>
       <r>    -5.3813     0.0000    58.0000 </r>
       <r>    -5.3456     0.0000    58.0000 </r>
       <r>    -5.3099     0.0000    58.0000 </r>
       <r>    -5.2743     0.0000    58.0000 </r>
       <r>    -5.2386     0.0000    58.0000 </r>
       <r>    -5.2029     0.0000    58.0000 </r>
       <r>    -5.1673     0.0000    58.0000 </r>
       <r>    -5.1316     0.0000    58.0000 </r>
       <r>    -5.0959     0.0000    58.0000 </r>
       <r>    -5.0603     0.0000    58.0000 </r>
       <r>    -5.0246     0.0000    58.0000 </r>
       <r>    -4.9889     0.0000    58.0000 </r>
       <r>    -4.9533     0.0000    58.0000 </r>
       <r>    -4.9176     0.0000    58.0000 </r>
       <r>    -4.8819     0.0000    58.0000 </r>
       <r>    -4.8463     0.0000    58.0000 </r>
       <r>    -4.8106     0.0000    58.0000 </r>
       <r>    -4.7749     0.0000    58.0000 </r>
       <r>    -4.7393     0.0000    58.0000 </r>
       <r>    -4.7036     0.0000    58.0000 </r>
       <r>    -4.6679     0.0000    58.0000 </r>
       <r>    -4.6323     0.0000    58.0000 </r>
       <r>    -4.5966     0.0000    58.0000 </r>
       <r>    -4.5609     0.0000    59.0000 </r>
       <r>    -4.5253     0.0000    59.0000 </r>
       <r>    -4.4896     0.0000    59.0000 </r>
       <r>    -4.4539     0.0000    60.0000 </r>
       <r>    -4.4183     0.0000    60.0000 </r>
       <r>    -4.3826     0.0000    60.0000 </r>
       <r>    -4.3470     0.0000    60.0000 </r>
       <r>    -4.3113     0.0000    60.0000 </r>
       <r>    -4.2756     0.0000    60.0000 </r>
       <r>    -4.2400     0.0000    60.0000 </r>
       <r>    -4.2043     0.0000    60.0000 </r>
       <r>    -4.1686     0.0000    60.0000 </r>
       <r>    -4.1330     0.0000    60.0000 </r>
       <r>    -4.0973     0.0000    60.0000 </r>
       <r>    -4.0616     0.0000    60.0000 </r>
       <r>    -4.0260     0.0000    60.0000 </r>
       <r>    -3.9903     0.0000    60.0000 </r>
       <r>    -3.9546     0.0000    60.0000 </r>
       <r>    -3.9190     0.0000    60.0000 </r>
       <r>    -3.8833     0.0000    60.0000 </r>
       <r>    -3.8476     0.0000    60.0000 </r>
       <r>    -3.8120     0.0000    60.0000 </r>
       <r>    -3.7763     0.0000    60.0000 </r>
       <r>    -3.7406     0.0000    60.0000 </r>
       <r>    -3.7050     0.0000    60.0000 </r>
       <r>    -3.6693     0.0000    60.0000 </r>
       <r>    -3.6336     0.0000    60.0000 </r>
       <r>    -3.5980     0.0000    60.0000 </r>
       <r>    -3.5623     0.0000    60.0000 </r>
       <r>    -3.5266     0.0000    60.0000 </r>
       <r>    -3.4910     0.0000    60.0000 </r>
       <r>    -3.4553     0.0000    61.0000 </r>
       <r>    -3.4196     0.0000    61.0000 </r>
       <r>    -3.3840     0.0000    61.0000 </r>
       <r>    -3.3483     0.0000    61.0000 </r>
       <r>    -3.3126     0.0000    61.0000 </r>
       <r>    -3.2770     0.0000    61.0000 </r>
       <r>    -3.2413     0.0000    61.0000 </r>
       <r>    -3.2056     0.0000    61.0000 </r>
       <r>    -3.1700     0.0000    61.0000 </r>
       <r>    -3.1343     0.0000    61.0000 </r>
       <r>    -3.0986     0.0000    61.0000 </r>
       <r>    -3.0630     0.0000    61.0000 </r>
       <r>    -3.0273     0.0000    61.0000 </r>
       <r>    -2.9916     0.0000    61.0000 </r>
       <r>    -2.9560     0.0000    61.0000 </r>
       <r>    -2.9203     0.0000    61.0000 </r>
       <r>    -2.8846     0.0000    61.0000 </r>
       <r>    -2.8490     0.0000    61.0000 </r>
       <r>    -2.8133     0.0000    61.0000 </r>
       <r>    -2.7776     0.0000    62.0000 </r>
       <r>    -2.7420     0.0000    62.0000 </r>
       <r>    -2.7063     0.0000    62.0000 </r>
       <r>    -2.6706     0.0000    62.0000 </r>
       <r>    -2.6350     0.0000    62.0000 </r>
       <r>    -2.5993     0.0000    62.0000 </r>
       <r>    -2.5637     0.0000    62.0000 </r>
       <r>    -2.5280     0.0000    63.0000 </r>
       <r>    -2.4923     0.0000    63.0000 </r>
       <r>    -2.4567     0.0000    64.0000 </r>
       <r>    -2.4210     0.0000    64.0000 </r>
       <r>    -2.3853     0.0000    64.0000 </r>
       <r>    -2.3497     0.0000    64.0000 </r>
       <r>    -2.3140     0.0000    64.0000 </r>
       <r>    -2.2783     0.0000    64.0000 </r>
       <r>    -2.2427     0.0000    65.0000 </r>
       <r>    -2.2070     0.0000    65.0000 </r>
       <r>    -2.1713     0.0000    65.0000 </r>
       <r>    -2.1357     0.0000    65.0000 </r>
       <r>    -2.1000     0.0000    65.0000 </r>
       <r>    -2.0643     0.0000    65.0000 </r>
       <r>    -2.0287     0.0000    65.0000 </r>
       <r>    -1.9930     0.0000    65.0000 </r>
       <r>    -1.9573     0.0000    65.0000 </r>
       <r>    -1.9217     0.0000    66.0000 </r>
       <r>    -1.8860     0.0000    66.0000 </r>
       <r>    -1.8503     0.0000    66.0000 </r>
       <r>    -1.8147     0.0000    66.0000 </r>
       <r>    -1.7790     0.0000    66.0000 </r>
       <r>    -1.7433     0.0000    66.0000 </r>
       <r>    -1.7077     0.0000    66.0000 </r>
       <r>    -1.6720     0.0000    66.0000 </r>
       <r>    -1.6363     0.0000    66.0000 </r>
       <r>    -1.6007     0.0000    66.0000 </r>
       <r>    -1.5650     0.0000    67.0000 </r>
       <r>    -1.5293     0.0000    67.0000 </r>
       <r>    -1.4937     0.0000    67.0000 </r>
       <r>    -1.4580     0.0000    67.0000 </r>
       <r>    -1.4223     0.0000    67.0000 </r>
       <r>    -1.3867     0.0000    67.0000 </r>
       <r>    -1.3510     0.0000    67.0000 </r>
       <r>    -1.3153     0.0000    67.0000 </r>
       <r>    -1.2797     0.0000    67.0000 </r>
       <r>    -1.2440     0.0000    67.0000 </r>
       <r>    -1.2083     0.0000    67.0000 </r>
       <r>    -1.1727     0.0000    67.0000 </r>
       <r>    -1.1370     0.0000    67.0000 </r>
       <r>    -1.1013     0.0000    67.0000 </r>
       <r>    -1.0657     0.0000    68.0000 </r>
       <r>    -1.0300     0.0000    68.0000 </r>
       <r>    -0.9943     0.0000    68.0000 </r>
       <r>    -0.9587     0.0000    68.0000 </r>
       <r>    -0.9230     0.0000    68.0000 </r>
       <r>    -0.8873     0.0000    68.0000 </r>
       <r>    -0.8517     0.0000    68.0000 </r>
       <r>    -0.8160     0.0000    68.0000 </r>
       <r>    -0.7804     0.0000    68.0000 </r>
       <r>    -0.7447     0.0000    68.0000 </r>
       <r>    -0.7090     0.0000    69.0000 </r>
       <r>    -0.6734     0.0000    70.0000 </r>
       <r>    -0.6377     0.0000    70.0000 </r>
       <r>    -0.6020     0.0000    71.0000 </r>
       <r>    -0.5664     0.0000    71.0000 </r>
       <r>    -0.5307     0.0000    72.0000 </r>
       <r>    -0.4950     0.0000    72.0000 </r>
       <r>    -0.4594     0.0000    72.0000 </r>
       <r>    -0.4237     0.0000    72.0000 </r>
       <r>    -0.3880     0.0000    72.0000 </r>
       <r>    -0.3524     0.0000    72.0000 </r>
       <r>    -0.3167     0.0000    72.0000 </r>
       <r>    -0.2810     0.0000    72.0000 </r>
       <r>    -0.2454     0.0000    72.0000 </r>
       <r>    -0.2097     0.0000    73.0000 </r>
       <r>    -0.1740     0.0000    73.0000 </r>
       <r>    -0.1384     0.0000    73.0000 </r>
       <r>    -0.1027     0.0000    73.0000 </r>
       <r>    -0.0670     0.0000    73.0000 </r>
       <r>    -0.0314     0.0000    73.0000 </r>
       <r>     0.0043     0.0000    74.0000 </r>
       <r>     0.0400     0.0000    74.0000 </r>
       <r>     0.0756     0.0000    74.0000 </r>
       <r>     0.1113     0.0000    74.0000 </r>
       <r>     0.1470     0.0000    74.0000 </r>
       <r>     0.1826     0.0000    74.0000 </r>
       <r>     0.2183     0.0000    74.0000 </r>
       <r>     0.2540     0.0000    74.0000 </r>
       <r>     0.2896     0.0000    74.0000 </r>
       <r>     0.3253     0.0000    76.0000 </r>
       <r>     0.3610     0.0000    76.0000 </r>
       <r>     0.3966     0.0000    77.0000 </r>
       <r>     0.4323     0.0000    77.0000 </r>
       <r>     0.4680     0.0000    77.0000 </r>
       <r>     0.5036     0.0000    78.0000 </r>
       <r>     0.5393     0.0000    79.0000 </r>
       <r>     0.5750     0.0000    80.0000 </r>
       <r>     0.6106     0.0000    80.0000 </r>
       <r>     0.6463     0.0000    80.0000 </r>
       <r>     0.6820     0.0000    80.0000 </r>
       <r>     0.7176     0.0000    80.0000 </r>
       <r>     0.7533     0.0000    80.0000 </r>
       <r>     0.7890     0.0000    80.0000 </r>
       <r>     0.8246     0.0000    80.0000 </r>
       <r>     0.8603     0.0000    80.0000 </r>
       <r>     0.8960     0.0000    80.0000 </r>
       <r>     0.9316     0.0000    80.0000 </r>
       <r>     0.9673     0.0000    80.0000 </r>
       <r>     1.0029     0.0000    80.0000 </r>
       <r>     1.0386     0.0000    80.0000 </r>
      </set>
     </set>
    </array>
   </total>
  </dos>
 </calculation>
 <structure name="finalpos" >
  <crystal>
   <varray name="basis" >
    <v>      18.77376623       0.00000000       0.00000000 </v>
    <v>       0.00000000      18.77376623       0.00000000 </v>
    <v>       0.00000000       0.00000000      18.77376623 </v>
   </varray>
   <i name="volume">   6616.89460253 </i>
   <varray name="rec_basis" >
    <v>       0.05326582       0.00000000       0.00000000 </v>
    <v>       0.00000000       0.05326582       0.00000000 </v>
    <v>       0.00000000       0.00000000       0.05326582 </v>
   </varray>
  </crystal>
  <varray name="positions" >
   <v>       0.65853404       0.55199127       0.42563721 </v>
   <v>       0.60829670       0.51403987       0.55846780 </v>
   <v>       0.55659522       0.63240429       0.48973336 </v>
   <v>       0.41769232       0.67837493       0.48442863 </v>
   <v>       0.60926582       0.36563261       0.57560292 </v>
   <v>       0.55415444       0.47442981       0.35723825 </v>
   <v>       0.50699800       0.43094810       0.48837298 </v>
   <v>       0.50211832       0.44067816       0.63818162 </v>
   <v>       0.44882073       0.54881647       0.42357558 </v>
   <v>       0.39101488       0.51091946       0.69319895 </v>
   <v>       0.45378618       0.56198332       0.57235276 </v>
  </varray>
 </structure>
</modeling>
