  11  11   0   0
  0.7786486E+03  0.2046027E-08  0.2046027E-08  0.2046027E-08  0.1000000E-15
  1.000000000000000E-004
  CAR 
 unknown system                          
      0.95779952     -9.67348850  301     -3.78198306      1.00000000
     -9.673  0.0000E+00  0.0000E+00  0.0000E+00  0.0000E+00
     -9.638  0.0000E+00  0.0000E+00  0.0000E+00  0.0000E+00
     -9.603  0.0000E+00  0.0000E+00  0.0000E+00  0.0000E+00
     -9.567  0.0000E+00  0.0000E+00  0.0000E+00  0.0000E+00
     -9.532  0.0000E+00  0.0000E+00  0.0000E+00  0.0000E+00
     -9.496  0.0000E+00  0.0000E+00  0.0000E+00  0.0000E+00
     -9.461  0.0000E+00  0.0000E+00  0.0000E+00  0.0000E+00
     -9.425  0.0000E+00  0.0000E+00  0.0000E+00  0.0000E+00
     -9.390  0.0000E+00  0.0000E+00  0.0000E+00  0.0000E+00
     -9.355  0.0000E+00  0.0000E+00  0.0000E+00  0.0000E+00
     -9.319  0.0000E+00  0.0000E+00  0.0000E+00  0.0000E+00
     -9.284  0.0000E+00  0.0000E+00  0.0000E+00  0.0000E+00
     -9.248  0.0000E+00  0.0000E+00  0.0000E+00  0.0000E+00
     -9.213  0.0000E+00  0.0000E+00  0.0000E+00  0.0000E+00
     -9.177  0.0000E+00  0.0000E+00  0.1000E-02  0.0000E+00
     -9.142  0.0000E+00  0.0000E+00  0.1000E-02  0.1000E-02
     -9.106  0.0000E+00  0.0000E+00  0.1000E-02  0.1000E-02
     -9.071  0.0000E+00  0.0000E+00  0.1000E-02  0.1000E-02
     -9.036  0.0000E+00  0.0000E+00  0.1000E-02  0.1000E-02
     -9.000  0.0000E+00  0.0000E+00  0.2000E-02  0.2000E-02
     -8.965  0.0000E+00  0.0000E+00  0.2000E-02  0.2000E-02
     -8.929  0.0000E+00  0.0000E+00  0.3000E-02  0.3000E-02
     -8.894  0.0000E+00  0.0000E+00  0.4000E-02  0.3000E-02
     -8.858  0.0000E+00  0.0000E+00  0.4000E-02  0.4000E-02
     -8.823  0.0000E+00  0.0000E+00  0.5000E-02  0.5000E-02
     -8.788  0.0000E+00  0.0000E+00  0.6000E-02  0.6000E-02
     -8.752  0.0000E+00  0.0000E+00  0.6000E-02  0.6000E-02
     -8.717  0.0000E+00  0.0000E+00  0.6000E-02  0.6000E-02
     -8.681  0.0000E+00  0.0000E+00  0.7000E-02  0.6000E-02
     -8.646  0.0000E+00  0.0000E+00  0.8000E-02  0.7000E-02
     -8.610  0.0000E+00  0.0000E+00  0.8000E-02  0.8000E-02
     -8.575  0.0000E+00  0.0000E+00  0.8000E-02  0.8000E-02
     -8.539  0.0000E+00  0.0000E+00  0.1000E-01  0.9000E-02
     -8.504  0.0000E+00  0.0000E+00  0.1000E-01  0.1000E-01
     -8.469  0.0000E+00  0.2546E-01  0.1100E-01  0.1090E-01
     -8.433  0.0000E+00  0.0000E+00  0.1300E-01  0.1200E-01
     -8.398  0.0000E+00  0.0000E+00  0.1300E-01  0.1300E-01
     -8.362  0.0000E+00  0.0000E+00  0.1300E-01  0.1300E-01
     -8.327  0.0000E+00  0.0000E+00  0.1400E-01  0.1300E-01
     -8.291  0.0000E+00  0.0000E+00  0.1500E-01  0.1400E-01
     -8.256  0.0000E+00  0.0000E+00  0.1500E-01  0.1500E-01
     -8.221  0.0000E+00  0.0000E+00  0.1600E-01  0.1500E-01
     -8.185  0.0000E+00  0.0000E+00  0.1700E-01  0.1600E-01
     -8.150  0.0000E+00  0.0000E+00  0.1700E-01  0.1700E-01
     -8.114  0.0000E+00  0.0000E+00  0.1700E-01  0.1700E-01
     -8.079  0.0000E+00  0.0000E+00  0.1800E-01  0.1700E-01
     -8.043  0.0000E+00  0.0000E+00  0.1900E-01  0.1900E-01
     -8.008  0.0000E+00  0.0000E+00  0.1900E-01  0.1900E-01
     -7.972  0.0000E+00  0.0000E+00  0.1900E-01  0.1900E-01
     -7.937  0.0000E+00  0.2699E-06  0.2000E-01  0.1900E-01
     -7.902  0.0000E+00  0.0000E+00  0.2100E-01  0.2000E-01
     -7.866  0.0000E+00  0.0000E+00  0.2200E-01  0.2200E-01
     -7.831  0.0000E+00  0.0000E+00  0.2200E-01  0.2200E-01
     -7.795  0.0000E+00  0.0000E+00  0.2200E-01  0.2200E-01
     -7.760  0.5304E-09  0.0000E+00  0.2300E-01  0.2200E-01
     -7.724  0.0000E+00  0.0000E+00  0.2400E-01  0.2400E-01
     -7.689  0.0000E+00  0.0000E+00  0.2400E-01  0.2400E-01
     -7.654  0.0000E+00  0.0000E+00  0.2500E-01  0.2500E-01
     -7.618  0.0000E+00  0.0000E+00  0.2600E-01  0.2500E-01
     -7.583  0.0000E+00  0.0000E+00  0.2600E-01  0.2600E-01
     -7.547  0.0000E+00  0.0000E+00  0.2600E-01  0.2600E-01
     -7.512  0.0000E+00  0.0000E+00  0.2700E-01  0.2700E-01
     -7.476  0.0000E+00  0.0000E+00  0.2800E-01  0.2800E-01
     -7.441  0.2821E-01  0.0000E+00  0.2900E-01  0.2800E-01
     -7.405  0.0000E+00  0.0000E+00  0.3000E-01  0.2900E-01
     -7.370  0.0000E+00  0.0000E+00  0.3000E-01  0.3000E-01
     -7.335  0.0000E+00  0.0000E+00  0.3100E-01  0.3000E-01
     -7.299  0.0000E+00  0.0000E+00  0.3200E-01  0.3100E-01
     -7.264  0.0000E+00  0.0000E+00  0.3200E-01  0.3200E-01
     -7.228  0.0000E+00  0.0000E+00  0.3400E-01  0.3300E-01
     -7.193  0.0000E+00  0.0000E+00  0.3500E-01  0.3400E-01
     -7.157  0.0000E+00  0.0000E+00  0.3700E-01  0.3500E-01
     -7.122  0.0000E+00  0.0000E+00  0.3700E-01  0.3700E-01
     -7.087  0.0000E+00  0.0000E+00  0.3800E-01  0.3800E-01
     -7.051  0.0000E+00  0.0000E+00  0.3900E-01  0.3800E-01
     -7.016  0.0000E+00  0.0000E+00  0.4100E-01  0.4000E-01
     -6.980  0.0000E+00  0.0000E+00  0.4300E-01  0.4200E-01
     -6.945  0.0000E+00  0.0000E+00  0.4400E-01  0.4300E-01
     -6.909  0.0000E+00  0.0000E+00  0.4600E-01  0.4500E-01
     -6.874  0.0000E+00  0.0000E+00  0.4600E-01  0.4600E-01
     -6.838  0.0000E+00  0.0000E+00  0.4700E-01  0.4600E-01
     -6.803  0.0000E+00  0.0000E+00  0.4800E-01  0.4700E-01
     -6.768  0.0000E+00  0.1819E-01  0.4900E-01  0.4864E-01
     -6.732  0.0000E+00  0.0000E+00  0.5100E-01  0.4900E-01
     -6.697  0.0000E+00  0.0000E+00  0.5200E-01  0.5100E-01
     -6.661  0.0000E+00  0.0000E+00  0.5200E-01  0.5200E-01
     -6.626  0.0000E+00  0.0000E+00  0.5300E-01  0.5200E-01
     -6.590  0.0000E+00  0.0000E+00  0.5400E-01  0.5300E-01
     -6.555  0.0000E+00  0.0000E+00  0.5500E-01  0.5400E-01
     -6.520  0.0000E+00  0.0000E+00  0.5500E-01  0.5500E-01
     -6.484  0.0000E+00  0.0000E+00  0.5600E-01  0.5500E-01
     -6.449  0.0000E+00  0.0000E+00  0.5600E-01  0.5600E-01
     -6.413  0.0000E+00  0.0000E+00  0.5600E-01  0.5600E-01
     -6.378  0.0000E+00  0.0000E+00  0.5600E-01  0.5600E-01
     -6.342  0.0000E+00  0.0000E+00  0.5600E-01  0.5600E-01
     -6.307  0.0000E+00  0.0000E+00  0.5600E-01  0.5600E-01
     -6.271  0.0000E+00  0.0000E+00  0.5600E-01  0.5600E-01
     -6.236  0.0000E+00  0.0000E+00  0.5600E-01  0.5600E-01
     -6.201  0.0000E+00  0.0000E+00  0.5600E-01  0.5600E-01
     -6.165  0.0000E+00  0.0000E+00  0.5600E-01  0.5600E-01
     -6.130  0.0000E+00  0.0000E+00  0.5700E-01  0.5600E-01
     -6.094  0.0000E+00  0.0000E+00  0.5700E-01  0.5700E-01
     -6.059  0.0000E+00  0.0000E+00  0.5700E-01  0.5700E-01
     -6.023  0.0000E+00  0.0000E+00  0.5700E-01  0.5700E-01
     -5.988  0.0000E+00  0.0000E+00  0.5700E-01  0.5700E-01
     -5.953  0.0000E+00  0.0000E+00  0.5700E-01  0.5700E-01
     -5.917  0.0000E+00  0.0000E+00  0.5700E-01  0.5700E-01
     -5.882  0.0000E+00  0.0000E+00  0.5700E-01  0.5700E-01
     -5.846  0.0000E+00  0.0000E+00  0.5700E-01  0.5700E-01
     -5.811  0.0000E+00  0.0000E+00  0.5700E-01  0.5700E-01
     -5.775  0.0000E+00  0.0000E+00  0.5700E-01  0.5700E-01
     -5.740  0.0000E+00  0.0000E+00  0.5700E-01  0.5700E-01
     -5.704  0.0000E+00  0.0000E+00  0.5700E-01  0.5700E-01
     -5.669  0.0000E+00  0.0000E+00  0.5700E-01  0.5700E-01
     -5.634  0.0000E+00  0.0000E+00  0.5700E-01  0.5700E-01
     -5.598  0.0000E+00  0.0000E+00  0.5700E-01  0.5700E-01
     -5.563  0.0000E+00  0.0000E+00  0.5700E-01  0.5700E-01
     -5.527  0.0000E+00  0.0000E+00  0.5700E-01  0.5700E-01
     -5.492  0.0000E+00  0.0000E+00  0.5700E-01  0.5700E-01
     -5.456  0.0000E+00  0.0000E+00  0.5700E-01  0.5700E-01
     -5.421  0.0000E+00  0.0000E+00  0.5700E-01  0.5700E-01
     -5.386  0.0000E+00  0.0000E+00  0.5700E-01  0.5700E-01
     -5.350  0.0000E+00  0.0000E+00  0.5700E-01  0.5700E-01
     -5.315  0.0000E+00  0.0000E+00  0.5700E-01  0.5700E-01
     -5.279  0.0000E+00  0.0000E+00  0.5800E-01  0.5700E-01
     -5.244  0.0000E+00  0.0000E+00  0.5800E-01  0.5700E-01
     -5.208  0.0000E+00  0.0000E+00  0.5800E-01  0.5800E-01
     -5.173  0.0000E+00  0.0000E+00  0.5800E-01  0.5800E-01
     -5.137  0.0000E+00  0.0000E+00  0.5800E-01  0.5800E-01
     -5.102  0.0000E+00  0.0000E+00  0.5800E-01  0.5800E-01
     -5.067  0.0000E+00  0.0000E+00  0.5800E-01  0.5800E-01
     -5.031  0.0000E+00  0.0000E+00  0.5800E-01  0.5800E-01
     -4.996  0.0000E+00  0.0000E+00  0.5800E-01  0.5800E-01
     -4.960  0.0000E+00  0.0000E+00  0.5800E-01  0.5800E-01
     -4.925  0.0000E+00  0.0000E+00  0.5800E-01  0.5800E-01
     -4.889  0.0000E+00  0.0000E+00  0.5800E-01  0.5800E-01
     -4.854  0.0000E+00  0.0000E+00  0.5800E-01  0.5800E-01
     -4.819  0.0000E+00  0.0000E+00  0.5800E-01  0.5800E-01
     -4.783  0.0000E+00  0.0000E+00  0.5800E-01  0.5800E-01
     -4.748  0.0000E+00  0.0000E+00  0.5900E-01  0.5800E-01
     -4.712  0.0000E+00  0.0000E+00  0.5900E-01  0.5800E-01
     -4.677  0.0000E+00  0.0000E+00  0.5900E-01  0.5900E-01
     -4.641  0.0000E+00  0.0000E+00  0.5900E-01  0.5900E-01
     -4.606  0.0000E+00  0.0000E+00  0.5900E-01  0.5900E-01
     -4.570  0.0000E+00  0.0000E+00  0.5900E-01  0.5900E-01
     -4.535  0.0000E+00  0.0000E+00  0.5900E-01  0.5900E-01
     -4.500  0.0000E+00  0.0000E+00  0.5900E-01  0.5900E-01
     -4.464  0.0000E+00  0.0000E+00  0.5900E-01  0.5900E-01
     -4.429  0.0000E+00  0.0000E+00  0.5900E-01  0.5900E-01
     -4.393  0.0000E+00  0.0000E+00  0.6000E-01  0.5900E-01
     -4.358  0.0000E+00  0.0000E+00  0.6000E-01  0.6000E-01
     -4.322  0.0000E+00  0.0000E+00  0.6000E-01  0.6000E-01
     -4.287  0.0000E+00  0.0000E+00  0.6000E-01  0.6000E-01
     -4.252  0.0000E+00  0.0000E+00  0.6000E-01  0.6000E-01
     -4.216  0.0000E+00  0.0000E+00  0.6000E-01  0.6000E-01
     -4.181  0.0000E+00  0.0000E+00  0.6000E-01  0.6000E-01
     -4.145  0.0000E+00  0.0000E+00  0.6000E-01  0.6000E-01
     -4.110  0.0000E+00  0.0000E+00  0.6000E-01  0.6000E-01
     -4.074  0.0000E+00  0.0000E+00  0.6000E-01  0.6000E-01
     -4.039  0.0000E+00  0.0000E+00  0.6000E-01  0.6000E-01
     -4.003  0.0000E+00  0.0000E+00  0.6000E-01  0.6000E-01
     -3.968  0.0000E+00  0.0000E+00  0.6000E-01  0.6000E-01
     -3.933  0.0000E+00  0.0000E+00  0.6000E-01  0.6000E-01
     -3.897  0.0000E+00  0.0000E+00  0.6000E-01  0.6000E-01
     -3.862  0.0000E+00  0.0000E+00  0.6000E-01  0.6000E-01
     -3.826  0.0000E+00  0.0000E+00  0.6000E-01  0.6000E-01
     -3.791  0.0000E+00  0.0000E+00  0.6100E-01  0.6000E-01
     -3.755  0.0000E+00  0.0000E+00  0.6100E-01  0.6000E-01
     -3.720  0.0000E+00  0.0000E+00  0.6100E-01  0.6000E-01
     -3.685  0.0000E+00  0.0000E+00  0.6100E-01  0.6000E-01
     -3.649  0.0000E+00  0.0000E+00  0.6100E-01  0.6000E-01
     -3.614  0.0000E+00  0.0000E+00  0.6100E-01  0.6000E-01
     -3.578  0.0000E+00  0.0000E+00  0.6100E-01  0.6000E-01
     -3.543  0.0000E+00  0.0000E+00  0.6100E-01  0.6100E-01
     -3.507  0.0000E+00  0.0000E+00  0.6100E-01  0.6100E-01
     -3.472  0.0000E+00  0.0000E+00  0.6100E-01  0.6100E-01
     -3.436  0.0000E+00  0.0000E+00  0.6100E-01  0.6100E-01
     -3.401  0.0000E+00  0.0000E+00  0.6100E-01  0.6100E-01
     -3.366  0.0000E+00  0.0000E+00  0.6100E-01  0.6100E-01
     -3.330  0.0000E+00  0.0000E+00  0.6100E-01  0.6100E-01
     -3.295  0.0000E+00  0.0000E+00  0.6100E-01  0.6100E-01
     -3.259  0.0000E+00  0.0000E+00  0.6100E-01  0.6100E-01
     -3.224  0.0000E+00  0.0000E+00  0.6100E-01  0.6100E-01
     -3.188  0.0000E+00  0.0000E+00  0.6100E-01  0.6100E-01
     -3.153  0.0000E+00  0.0000E+00  0.6100E-01  0.6100E-01
     -3.118  0.0000E+00  0.0000E+00  0.6100E-01  0.6100E-01
     -3.082  0.0000E+00  0.0000E+00  0.6100E-01  0.6100E-01
     -3.047  0.0000E+00  0.0000E+00  0.6100E-01  0.6100E-01
     -3.011  0.0000E+00  0.0000E+00  0.6100E-01  0.6100E-01
     -2.976  0.0000E+00  0.0000E+00  0.6200E-01  0.6100E-01
     -2.940  0.0000E+00  0.0000E+00  0.6200E-01  0.6100E-01
     -2.905  0.0000E+00  0.0000E+00  0.6200E-01  0.6200E-01
     -2.869  0.0000E+00  0.0000E+00  0.6200E-01  0.6200E-01
     -2.834  0.0000E+00  0.0000E+00  0.6200E-01  0.6200E-01
     -2.799  0.0000E+00  0.0000E+00  0.6200E-01  0.6200E-01
     -2.763  0.0000E+00  0.0000E+00  0.6200E-01  0.6200E-01
     -2.728  0.0000E+00  0.0000E+00  0.6200E-01  0.6200E-01
     -2.692  0.0000E+00  0.0000E+00  0.6200E-01  0.6200E-01
     -2.657  0.0000E+00  0.0000E+00  0.6200E-01  0.6200E-01
     -2.621  0.0000E+00  0.0000E+00  0.6400E-01  0.6200E-01
     -2.586  0.0000E+00  0.0000E+00  0.6400E-01  0.6300E-01
     -2.551  0.0000E+00  0.0000E+00  0.6400E-01  0.6400E-01
     -2.515  0.0000E+00  0.0000E+00  0.6400E-01  0.6400E-01
     -2.480  0.0000E+00  0.0000E+00  0.6400E-01  0.6400E-01
     -2.444  0.0000E+00  0.0000E+00  0.6400E-01  0.6400E-01
     -2.409  0.0000E+00  0.0000E+00  0.6400E-01  0.6400E-01
     -2.373  0.0000E+00  0.0000E+00  0.6400E-01  0.6400E-01
     -2.338  0.0000E+00  0.0000E+00  0.6400E-01  0.6400E-01
     -2.302  0.0000E+00  0.0000E+00  0.6400E-01  0.6400E-01
     -2.267  0.0000E+00  0.0000E+00  0.6500E-01  0.6400E-01
     -2.232  0.0000E+00  0.0000E+00  0.6500E-01  0.6500E-01
     -2.196  0.0000E+00  0.0000E+00  0.6500E-01  0.6500E-01
     -2.161  0.0000E+00  0.0000E+00  0.6500E-01  0.6500E-01
     -2.125  0.0000E+00  0.0000E+00  0.6500E-01  0.6500E-01
     -2.090  0.0000E+00  0.0000E+00  0.6500E-01  0.6500E-01
     -2.054  0.0000E+00  0.0000E+00  0.6500E-01  0.6500E-01
     -2.019  0.0000E+00  0.0000E+00  0.6500E-01  0.6500E-01
     -1.984  0.0000E+00  0.0000E+00  0.6600E-01  0.6500E-01
     -1.948  0.0000E+00  0.0000E+00  0.6600E-01  0.6500E-01
     -1.913  0.0000E+00  0.0000E+00  0.6600E-01  0.6500E-01
     -1.877  0.0000E+00  0.0000E+00  0.6600E-01  0.6500E-01
     -1.842  0.0000E+00  0.0000E+00  0.6600E-01  0.6600E-01
     -1.806  0.0000E+00  0.0000E+00  0.6700E-01  0.6600E-01
     -1.771  0.0000E+00  0.0000E+00  0.6700E-01  0.6600E-01
     -1.735  0.0000E+00  0.0000E+00  0.6700E-01  0.6700E-01
     -1.700  0.0000E+00  0.0000E+00  0.6700E-01  0.6700E-01
     -1.665  0.0000E+00  0.0000E+00  0.6700E-01  0.6700E-01
     -1.629  0.0000E+00  0.0000E+00  0.6700E-01  0.6700E-01
     -1.594  0.0000E+00  0.0000E+00  0.6700E-01  0.6700E-01
     -1.558  0.0000E+00  0.0000E+00  0.6700E-01  0.6700E-01
     -1.523  0.0000E+00  0.0000E+00  0.6700E-01  0.6700E-01
     -1.487  0.0000E+00  0.0000E+00  0.6700E-01  0.6700E-01
     -1.452  0.0000E+00  0.0000E+00  0.6700E-01  0.6700E-01
     -1.417  0.0000E+00  0.0000E+00  0.6700E-01  0.6700E-01
     -1.381  0.0000E+00  0.0000E+00  0.6700E-01  0.6700E-01
     -1.346  0.0000E+00  0.0000E+00  0.6700E-01  0.6700E-01
     -1.310  0.0000E+00  0.0000E+00  0.6700E-01  0.6700E-01
     -1.275  0.0000E+00  0.0000E+00  0.6700E-01  0.6700E-01
     -1.239  0.0000E+00  0.0000E+00  0.6700E-01  0.6700E-01
     -1.204  0.0000E+00  0.0000E+00  0.6700E-01  0.6700E-01
     -1.168  0.0000E+00  0.0000E+00  0.6800E-01  0.6700E-01
     -1.133  0.0000E+00  0.0000E+00  0.6800E-01  0.6700E-01
     -1.098  0.0000E+00  0.0000E+00  0.6900E-01  0.6800E-01
     -1.062  0.0000E+00  0.0000E+00  0.6900E-01  0.6800E-01
     -1.027  0.0000E+00  0.0000E+00  0.6900E-01  0.6800E-01
     -0.991  0.0000E+00  0.0000E+00  0.6900E-01  0.6800E-01
     -0.956  0.0000E+00  0.0000E+00  0.6900E-01  0.6800E-01
     -0.920  0.0000E+00  0.0000E+00  0.6900E-01  0.6900E-01
     -0.885  0.0000E+00  0.0000E+00  0.6900E-01  0.6900E-01
     -0.850  0.0000E+00  0.0000E+00  0.6900E-01  0.6900E-01
     -0.814  0.0000E+00  0.0000E+00  0.7000E-01  0.6900E-01
     -0.779  0.0000E+00  0.0000E+00  0.7000E-01  0.6900E-01
     -0.743  0.0000E+00  0.0000E+00  0.7000E-01  0.6900E-01
     -0.708  0.0000E+00  0.0000E+00  0.7000E-01  0.7000E-01
     -0.672  0.0000E+00  0.0000E+00  0.7100E-01  0.7000E-01
     -0.637  0.0000E+00  0.0000E+00  0.7100E-01  0.7000E-01
     -0.601  0.0000E+00  0.0000E+00  0.7100E-01  0.7100E-01
     -0.566  0.0000E+00  0.0000E+00  0.7100E-01  0.7100E-01
     -0.531  0.0000E+00  0.0000E+00  0.7100E-01  0.7100E-01
     -0.495  0.0000E+00  0.0000E+00  0.7100E-01  0.7100E-01
     -0.460  0.0000E+00  0.0000E+00  0.7100E-01  0.7100E-01
     -0.424  0.0000E+00  0.0000E+00  0.7200E-01  0.7100E-01
     -0.389  0.0000E+00  0.0000E+00  0.7200E-01  0.7100E-01
     -0.353  0.0000E+00  0.0000E+00  0.7300E-01  0.7100E-01
     -0.318  0.0000E+00  0.0000E+00  0.7300E-01  0.7200E-01
     -0.283  0.0000E+00  0.0000E+00  0.7300E-01  0.7200E-01
     -0.247  0.0000E+00  0.0000E+00  0.7400E-01  0.7300E-01
     -0.212  0.0000E+00  0.0000E+00  0.7400E-01  0.7300E-01
     -0.176  0.0000E+00  0.0000E+00  0.7400E-01  0.7400E-01
     -0.141  0.0000E+00  0.0000E+00  0.7400E-01  0.7400E-01
     -0.105  0.0000E+00  0.0000E+00  0.7400E-01  0.7400E-01
     -0.070  0.0000E+00  0.0000E+00  0.7500E-01  0.7400E-01
     -0.034  0.0000E+00  0.0000E+00  0.7500E-01  0.7400E-01
      0.001  0.0000E+00  0.0000E+00  0.7500E-01  0.7500E-01
      0.036  0.0000E+00  0.0000E+00  0.7500E-01  0.7500E-01
      0.072  0.0000E+00  0.0000E+00  0.7500E-01  0.7500E-01
      0.107  0.0000E+00  0.0000E+00  0.7500E-01  0.7500E-01
      0.143  0.0000E+00  0.0000E+00  0.7500E-01  0.7500E-01
      0.178  0.0000E+00  0.0000E+00  0.7600E-01  0.7500E-01
      0.214  0.0000E+00  0.0000E+00  0.7600E-01  0.7600E-01
      0.249  0.0000E+00  0.0000E+00  0.7600E-01  0.7600E-01
      0.284  0.0000E+00  0.0000E+00  0.7600E-01  0.7600E-01
      0.320  0.0000E+00  0.0000E+00  0.7700E-01  0.7600E-01
      0.355  0.0000E+00  0.0000E+00  0.7700E-01  0.7600E-01
      0.391  0.0000E+00  0.0000E+00  0.7700E-01  0.7700E-01
      0.426  0.0000E+00  0.0000E+00  0.7900E-01  0.7800E-01
      0.462  0.0000E+00  0.0000E+00  0.8000E-01  0.7900E-01
      0.497  0.0000E+00  0.0000E+00  0.8000E-01  0.8000E-01
      0.533  0.0000E+00  0.0000E+00  0.8000E-01  0.8000E-01
      0.568  0.0000E+00  0.0000E+00  0.8000E-01  0.8000E-01
      0.603  0.0000E+00  0.0000E+00  0.8000E-01  0.8000E-01
      0.639  0.0000E+00  0.0000E+00  0.8000E-01  0.8000E-01
      0.674  0.0000E+00  0.0000E+00  0.8000E-01  0.8000E-01
      0.710  0.0000E+00  0.0000E+00  0.8000E-01  0.8000E-01
      0.745  0.0000E+00  0.0000E+00  0.8000E-01  0.8000E-01
      0.781  0.0000E+00  0.0000E+00  0.8000E-01  0.8000E-01
      0.816  0.0000E+00  0.0000E+00  0.8000E-01  0.8000E-01
      0.851  0.0000E+00  0.0000E+00  0.8000E-01  0.8000E-01
      0.887  0.0000E+00  0.0000E+00  0.8000E-01  0.8000E-01
      0.922  0.0000E+00  0.0000E+00  0.8000E-01  0.8000E-01
      0.958  0.0000E+00  0.0000E+00  0.8000E-01  0.8000E-01
