12
Energy = -21.52558718 eV
Ag 7.362028125995462 10.45309201999261 11.479106035671549
Ag 9.183386467286427 8.4766800146498 11.182353077203272
Ag 7.613916256607776 11.677287896527172 7.724371749810651
Ag 9.495244478876447 10.949196118028276 9.693067112106997
Ag 11.365704383010327 10.146138462184748 11.67872513198071
Ag 7.189102985209028 9.251248170667154 9.058595420679358
Ag 11.498964584045309 10.857759474438197 7.677715494479951
Ag 11.24742390757531 8.69988343543118 9.291014837994236
Ag 10.890667894401421 6.382413485460019 10.706983160699732
Ag 7.1256059574795225 7.7564116722837975 6.742316012497704
Ag 9.227386346803193 9.466804447976173 7.191470265765232
Ag 8.984962538765625 7.046072500013717 8.725896497323948
