25
Energy = -51.01885760 eV
Ag 12.89809989364243 14.818669381928045 12.890946181244324
Ag 14.203474324493582 9.500046915761368 11.075803326879546
Ag 14.070002439554026 12.20299338284168 11.9503330600127
Ag 9.082700340921598 12.113426442580085 14.845946166431542
Ag 11.757866362192303 10.657390418497759 11.702962238884794
Ag 10.141170528049706 11.272809575545601 9.477488698787921
Ag 7.854056655544494 9.771243639154072 13.612960855703852
Ag 13.717319699477285 14.346124437662478 9.795541418512927
Ag 13.466404355923263 10.209598826328373 13.859119424016956
Ag 11.739491878602474 12.47700145214942 13.916787276218907
Ag 14.074472010598472 16.67253053270516 11.250345214155967
Ag 11.404727519428421 13.368395080841408 11.074318447573757
Ag 9.454820503018318 9.07654471357775 11.313466972430614
Ag 15.846349495262986 12.569104393796538 9.897232249973392
Ag 14.468383897589547 13.031198435849806 14.506716574444845
Ag 10.60305780992922 9.86117831982123 14.19311554165104
Ag 11.787215866339102 8.935755394236809 9.5786520709369
Ag 11.984744484879 8.017362300825141 12.449428164652353
Ag 11.348925653368369 13.593351833125132 8.338182738879462
Ag 9.833056760716289 14.33958095402204 13.1132072921535
Ag 13.093664570345636 11.567058780567953 9.323539905133819
Ag 9.458230355251496 7.433900208947878 13.560481871577975
Ag 9.087771797939372 11.791536024618761 12.097054450495126
Ag 8.914599698636668 13.768836502903515 10.086255223329095
Ag 15.604561467765706 14.499530421181792 11.98528300538799
