   39   39 1000    2
  0.3568954E+03  0.2405481E-08  0.2405481E-08  0.2405481E-08  0.1000000E-15
  1.000000000000000E-004
  CAR 
 unknown system                          
    429      1    280
 
  0.0000000E+00  0.0000000E+00  0.0000000E+00  0.1000000E+01
    1       -9.780699     -9.758548
    2       -9.251032     -9.238662
    3       -9.220033     -9.210309
    4       -9.178926     -9.167737
    5       -9.137534     -9.126203
    6       -9.091813     -9.077813
    7       -9.060042     -9.050282
    8       -9.051930     -9.042498
    9       -9.017530     -9.004622
   10       -9.003599     -8.992839
   11       -8.986056     -8.975238
   12       -8.955562     -8.947586
   13       -8.945776     -8.935617
   14       -8.903651     -8.893049
   15       -8.901147     -8.889754
   16       -8.881367     -8.872240
   17       -8.844580     -8.835684
   18       -8.837160     -8.829492
   19       -8.816342     -8.808746
   20       -8.795648     -8.786989
   21       -8.784117     -8.774424
   22       -8.741203     -8.732663
   23       -8.726823     -8.718453
   24       -8.715922     -8.703295
   25       -8.686434     -8.676903
   26       -8.681540     -8.672862
   27       -8.658620     -8.647445
   28       -8.637891     -8.627198
   29       -8.622969     -8.616459
   30       -8.615297     -8.603670
   31       -8.598698     -8.590799
   32       -8.589629     -8.579509
   33       -8.570284     -8.559529
   34       -8.558806     -8.548331
   35       -8.541197     -8.531626
   36       -8.519129     -8.509552
   37       -8.467921     -8.458658
   38       -8.462215     -8.453247
   39       -8.446251     -8.438153
   40       -8.440057     -8.431024
   41       -8.418901     -8.411492
   42       -8.400882     -8.390124
   43       -8.384784     -8.377001
   44       -8.366883     -8.357986
   45       -8.348540     -8.340553
   46       -8.334942     -8.325418
   47       -8.320427     -8.313961
   48       -8.312039     -8.302049
   49       -8.303436     -8.294988
   50       -8.274295     -8.266691
   51       -8.266300     -8.259005
   52       -8.257046     -8.249707
   53       -8.221197     -8.214440
   54       -8.202929     -8.194188
   55       -8.183472     -8.174286
   56       -8.174207     -8.169051
   57       -8.159330     -8.150920
   58       -8.150112     -8.141431
   59       -8.114374     -8.108107
   60       -8.100641     -8.091369
   61       -8.090757     -8.083616
   62       -8.074683     -8.067019
   63       -8.060911     -8.054721
   64       -8.048756     -8.041036
   65       -8.028435     -8.020818
   66       -8.015496     -8.006527
   67       -8.010182     -8.000509
   68       -7.987157     -7.981078
   69       -7.962759     -7.954291
   70       -7.945204     -7.938114
   71       -7.918100     -7.911270
   72       -7.899596     -7.891084
   73       -7.890596     -7.883914
   74       -7.871917     -7.865945
   75       -7.852981     -7.845484
   76       -7.830017     -7.822124
   77       -7.827182     -7.817522
   78       -7.798450     -7.790192
   79       -7.790571     -7.783938
   80       -7.776381     -7.768452
   81       -7.765200     -7.758689
   82       -7.734452     -7.727219
   83       -7.727413     -7.720367
   84       -7.686111     -7.677613
   85       -7.669787     -7.661396
   86       -7.655744     -7.650576
   87       -7.647071     -7.641016
   88       -7.627443     -7.619353
   89       -7.614225     -7.607775
   90       -7.595796     -7.588259
   91       -7.580711     -7.573787
   92       -7.562703     -7.553188
   93       -7.553546     -7.544382
   94       -7.545133     -7.539175
   95       -7.517503     -7.510289
   96       -7.512991     -7.505583
   97       -7.490452     -7.483397
   98       -7.473986     -7.467540
   99       -7.457503     -7.449628
  100       -7.452963     -7.444006
  101       -7.439019     -7.431265
  102       -7.430341     -7.423570
  103       -7.414237     -7.405976
  104       -7.389987     -7.383789
  105       -7.360698     -7.352997
  106       -7.347398     -7.338069
  107       -7.329753     -7.323142
  108       -7.320396     -7.312644
  109       -7.300056     -7.290672
  110       -7.293204     -7.284458
  111       -7.283093     -7.273374
  112       -7.274710     -7.266812
  113       -7.237355     -7.230246
  114       -7.228804     -7.221888
  115       -7.219565     -7.210919
  116       -7.200559     -7.193209
  117       -7.186190     -7.180517
  118       -7.184724     -7.177353
  119       -7.168145     -7.158977
  120       -7.152032     -7.145316
  121       -7.133184     -7.127830
  122       -7.126994     -7.119157
  123       -7.110765     -7.103041
  124       -7.094170     -7.087634
  125       -7.082098     -7.074705
  126       -7.075096     -7.067971
  127       -7.069509     -7.061382
  128       -7.056367     -7.049429
  129       -7.054451     -7.046315
  130       -7.044328     -7.037080
  131       -7.024312     -7.015690
  132       -7.013378     -7.006122
  133       -7.002792     -6.996063
  134       -6.995196     -6.988359
  135       -6.992029     -6.985865
  136       -6.984196     -6.978819
  137       -6.972456     -6.965926
  138       -6.954132     -6.947746
  139       -6.951967     -6.945839
  140       -6.942794     -6.931809
  141       -6.934033     -6.926999
  142       -6.923918     -6.917351
  143       -6.910320     -6.903938
  144       -6.909272     -6.902858
  145       -6.897507     -6.890818
  146       -6.879036     -6.873416
  147       -6.877000     -6.869444
  148       -6.860930     -6.853862
  149       -6.848923     -6.840438
  150       -6.848187     -6.839977
  151       -6.833674     -6.827818
  152       -6.820952     -6.814055
  153       -6.805471     -6.799590
  154       -6.800886     -6.793752
  155       -6.794816     -6.788177
  156       -6.788407     -6.781641
  157       -6.780587     -6.774692
  158       -6.766342     -6.760009
  159       -6.745305     -6.738405
  160       -6.742638     -6.736154
  161       -6.733301     -6.727358
  162       -6.717562     -6.710400
  163       -6.706881     -6.700428
  164       -6.693405     -6.686902
  165       -6.679157     -6.672067
  166       -6.668751     -6.661697
  167       -6.659699     -6.651427
  168       -6.638117     -6.631420
  169       -6.630630     -6.624178
  170       -6.625796     -6.619332
  171       -6.610928     -6.604125
  172       -6.598966     -6.592515
  173       -6.589009     -6.583442
  174       -6.587196     -6.579926
  175       -6.579832     -6.573019
  176       -6.569517     -6.562392
  177       -6.562556     -6.556186
  178       -6.538277     -6.532164
  179       -6.521100     -6.514605
  180       -6.517594     -6.512075
  181       -6.505585     -6.497217
  182       -6.483420     -6.477096
  183       -6.463517     -6.457371
  184       -6.446960     -6.442159
  185       -6.444442     -6.437450
  186       -6.443387     -6.435091
  187       -6.429611     -6.421980
  188       -6.423626     -6.417899
  189       -6.411550     -6.405066
  190       -6.409462     -6.403914
  191       -6.368688     -6.362557
  192       -6.343776     -6.337425
  193       -6.341611     -6.335384
  194       -6.314523     -6.308664
  195       -6.297406     -6.291664
  196       -6.285023     -6.278887
  197       -6.281098     -6.275143
  198       -6.266486     -6.261490
  199       -6.214927     -6.207990
  200       -6.201029     -6.186170
  201       -6.058682     -6.045007
  202       -5.911534     -5.896251
  203       -5.834251     -5.824113
  204       -5.600890     -5.578461
  205       -5.316066     -5.296632
  206       -5.026082     -5.003486
  207       -4.822564     -4.805564
  208       -4.629102     -4.599381
  209       -4.384015     -4.364596
  210       -4.241931     -4.223580
  211       -4.140987     -4.125870
  212       -4.025129     -4.007315
  213       -3.857279     -3.835961
  214       -3.676227     -3.649814
  215       -3.525556     -3.439870
  216       -3.231678     -3.211131
  217       -3.076586     -3.052918
  218       -2.942431     -2.921697
  219       -2.869155     -2.846579
  220       -2.704566     -2.678418
  221       -2.551993     -2.532024
  222       -2.432299     -2.409533
  223       -2.385541     -2.365242
  224       -2.251592     -2.231006
  225       -2.182410     -2.161112
  226       -2.115833     -2.097927
  227       -1.926336     -1.883665
  228       -1.812473     -1.768849
  229       -1.708777     -1.684397
  230       -1.693254     -1.653158
  231       -1.478195     -1.442610
  232       -1.414654     -1.388346
  233       -1.333684     -1.306878
  234       -1.235776     -1.213045
  235       -1.162857     -1.132761
  236       -1.065311     -1.033944
  237       -0.993004     -0.969620
  238       -0.859338     -0.817549
  239       -0.794440     -0.757790
  240       -0.753261     -0.735488
  241       -0.666358     -0.625403
  242       -0.588836     -0.557031
  243       -0.469196     -0.444373
  244       -0.419901     -0.393377
  245       -0.224584     -0.201848
  246       -0.154408     -0.129291
  247       -0.123234     -0.100530
  248        0.026314      0.053995
  249        0.124909      0.150912
  250        0.202180      0.227090
  251        0.318086      0.343896
  252        0.375193      0.403369
  253        0.450068      0.473918
  254        0.470658      0.483075
  255        0.555241      0.577772
  256        0.562973      0.583423
  257        0.607945      0.625123
  258        0.640940      0.656082
  259        0.676773      0.691587
  260        0.704040      0.713180
  261        0.754917      0.758347
  262        0.793740      0.803292
  263        0.814881      0.818085
  264        0.844524      0.871037
  265        0.856415      0.872717
  266        0.888337      0.894018
  267        0.908140      0.911923
  268        0.918678      0.923797
  269        0.941219      0.927619
  270        0.948701      0.959365
  271        0.961170      0.966998
  272        0.977378      0.999446
  273        0.993624      1.001424
  274        1.043087      1.061854
  275        1.050564      1.070257
  276        1.133713      1.128868
  277        1.146327      1.151212
  278        1.152148      1.156642
  279        1.158626      1.164934
  280        1.174624      1.173449
