unknown system                          
           1
    24.054806    0.000000    0.000000
     0.000000   24.054806    0.000000
     0.000000    0.000000   24.054806
   Ag
  39
Direct configuration=     1
   0.38783049  0.71370370  0.52134489
   0.58757575  0.67978054  0.48416801
   0.53091816  0.65367997  0.38730994
   0.49401158  0.66283043  0.54727106
   0.43623689  0.63449950  0.44731059
   0.66016278  0.59386227  0.48285680
   0.40014992  0.63837071  0.61199478
   0.59291627  0.60830100  0.57750975
   0.59681012  0.56232308  0.37433153
   0.33582522  0.61061297  0.50766100
   0.53783879  0.57248208  0.47632522
   0.49908647  0.58671193  0.63931585
   0.47645911  0.55164254  0.37371589
   0.44129542  0.55355892  0.53879566
   0.73766785  0.50452516  0.49279485
   0.66252591  0.51961088  0.57648543
   0.26816851  0.51866612  0.46890766
   0.58928408  0.52649170  0.66659984
   0.70108296  0.52666949  0.39253571
   0.67722424  0.44544240  0.66269772
   0.37793480  0.53633339  0.43347185
   0.54514016  0.48930129  0.56362895
   0.39378032  0.53028812  0.64925508
   0.73987478  0.42481968  0.57265496
   0.33124369  0.50446042  0.55998018
   0.62073947  0.47930669  0.46781768
   0.48577476  0.46725913  0.66404409
   0.54793574  0.45740094  0.37458505
   0.47843417  0.46641097  0.46878612
   0.57511296  0.40355165  0.66925098
   0.42388712  0.45169895  0.36688425
   0.62702021  0.40275816  0.56016980
   0.42633600  0.43966142  0.56923874
   0.36088510  0.42971560  0.47281879
   0.51462879  0.36833811  0.58209764
   0.56222561  0.38027136  0.47091184
   0.49397997  0.35834101  0.38416658
   0.44840950  0.34990375  0.49364123
   0.38276316  0.34537058  0.39686081
Direct configuration=     2
   0.38792210  0.71363830  0.52137552
   0.58755964  0.67989068  0.48414655
   0.53089385  0.65374821  0.38729412
   0.49391132  0.66292526  0.54729072
   0.43621219  0.63464621  0.44737529
   0.66019948  0.59374840  0.48275071
   0.40003577  0.63844484  0.61189802
   0.59289756  0.60832419  0.57753339
   0.59675803  0.56229365  0.37435504
   0.33576365  0.61067638  0.50777338
   0.53786910  0.57249513  0.47633316
   0.49896677  0.58669897  0.63934486
   0.47655751  0.55167073  0.37369196
   0.44122788  0.55357000  0.53888476
   0.73773758  0.50445163  0.49289521
   0.66263248  0.51953052  0.57649183
   0.26822598  0.51871330  0.46884216
   0.58943508  0.52642474  0.66669456
   0.70107006  0.52666683  0.39240683
   0.67727357  0.44549710  0.66281780
   0.37791164  0.53620685  0.43341720
   0.54511261  0.48931786  0.56358260
   0.39378666  0.53032706  0.64924717
   0.73998819  0.42487425  0.57261946
   0.33125267  0.50445585  0.55991587
   0.62078181  0.47935981  0.46778794
   0.48572938  0.46728366  0.66406579
   0.54799822  0.45742147  0.37455963
   0.47845404  0.46644607  0.46869977
   0.57520729  0.40347971  0.66926315
   0.42382060  0.45157792  0.36688901
   0.62707604  0.40277897  0.56026274
   0.42623411  0.43957823  0.56939446
   0.36081065  0.42969764  0.47276637
   0.51467836  0.36833874  0.58210647
   0.56219449  0.38025099  0.47093686
   0.49393526  0.35826144  0.38413967
   0.44835679  0.34990340  0.49352196
   0.38269839  0.34534165  0.39682476
Direct configuration=     3
   0.38819692  0.71344211  0.52146740
   0.58751132  0.68022108  0.48408218
   0.53082094  0.65395294  0.38724666
   0.49361056  0.66320975  0.54734970
   0.43613810  0.63508633  0.44756940
   0.66030957  0.59340678  0.48243247
   0.39969333  0.63866724  0.61160772
   0.59284142  0.60839376  0.57760431
   0.59660177  0.56220538  0.37442557
   0.33557896  0.61086661  0.50811052
   0.53796002  0.57253428  0.47635701
   0.49860766  0.58666009  0.63943190
   0.47685273  0.55175530  0.37362017
   0.44102525  0.55360323  0.53915205
   0.73794679  0.50423103  0.49319631
   0.66295220  0.51928944  0.57651104
   0.26839839  0.51885484  0.46864567
   0.58988809  0.52622384  0.66697873
   0.70103137  0.52665884  0.39202021
   0.67742157  0.44566120  0.66317806
   0.37784218  0.53582721  0.43325326
   0.54502995  0.48936757  0.56344356
   0.39380568  0.53044391  0.64922346
   0.74032842  0.42503795  0.57251296
   0.33127959  0.50444213  0.55972294
   0.62090885  0.47951915  0.46769872
   0.48559326  0.46735723  0.66413088
   0.54818565  0.45748306  0.37448338
   0.47851363  0.46655138  0.46844071
   0.57549028  0.40326389  0.66929966
   0.42362104  0.45121483  0.36690330
   0.62724353  0.40284141  0.56054158
   0.42592842  0.43932865  0.56986162
   0.36058731  0.42964375  0.47260909
   0.51482706  0.36834065  0.58213298
   0.56210114  0.38018987  0.47101194
   0.49380113  0.35802274  0.38405892
   0.44819864  0.34990237  0.49316413
   0.38250410  0.34525485  0.39671660
Direct configuration=     4
   0.38874657  0.71304972  0.52165117
   0.58741467  0.68088188  0.48395342
   0.53067511  0.65436241  0.38715172
   0.49300904  0.66377873  0.54746765
   0.43598992  0.63596658  0.44795761
   0.66052975  0.59272354  0.48179597
   0.39900845  0.63911202  0.61102713
   0.59272913  0.60853290  0.57774616
   0.59628925  0.56202883  0.37456663
   0.33520958  0.61124706  0.50878479
   0.53814186  0.57261257  0.47640469
   0.49788945  0.58658233  0.63960598
   0.47744317  0.55192443  0.37347661
   0.44062000  0.55366968  0.53968664
   0.73836521  0.50378982  0.49379849
   0.66359163  0.51880726  0.57654944
   0.26874322  0.51913793  0.46825268
   0.59079411  0.52582204  0.66754705
   0.70095399  0.52664287  0.39124697
   0.67771757  0.44598939  0.66389858
   0.37770324  0.53506794  0.43292538
   0.54486464  0.48946698  0.56316548
   0.39384372  0.53067759  0.64917603
   0.74100889  0.42536534  0.57229996
   0.33133343  0.50441468  0.55933710
   0.62116293  0.47983783  0.46752029
   0.48532101  0.46750437  0.66426107
   0.54856050  0.45760625  0.37433088
   0.47863281  0.46676199  0.46792259
   0.57605626  0.40283225  0.66937269
   0.42322192  0.45048865  0.36693187
   0.62757850  0.40296630  0.56109926
   0.42531703  0.43882950  0.57079594
   0.36014063  0.42953597  0.47229454
   0.51512447  0.36834445  0.58218600
   0.56191443  0.38006764  0.47116210
   0.49353286  0.35754534  0.38389743
   0.44788235  0.34990031  0.49244849
   0.38211551  0.34508126  0.39650028
Direct configuration=     5
   0.38984586  0.71226493  0.52201870
   0.58722137  0.68220347  0.48369592
   0.53038344  0.65518133  0.38696186
   0.49180600  0.66491669  0.54770356
   0.43569356  0.63772708  0.44873404
   0.66097012  0.59135707  0.48052298
   0.39763869  0.64000160  0.60986596
   0.59250457  0.60881119  0.57802985
   0.59566422  0.56167573  0.37484874
   0.33447082  0.61200797  0.51013334
   0.53850555  0.57276916  0.47650006
   0.49645303  0.58642682  0.63995414
   0.47862404  0.55226269  0.37318947
   0.43980949  0.55380259  0.54075583
   0.73920203  0.50290742  0.49500287
   0.66487049  0.51784291  0.57662626
   0.26943289  0.51970410  0.46746672
   0.59260615  0.52501845  0.66868370
   0.70079923  0.52661094  0.38970049
   0.67830957  0.44664577  0.66533962
   0.37742538  0.53354941  0.43226962
   0.54453402  0.48966581  0.56260931
   0.39391979  0.53114495  0.64908119
   0.74236983  0.42602013  0.57187396
   0.33144111  0.50435978  0.55856540
   0.62167107  0.48047520  0.46716341
   0.48477652  0.46779865  0.66452146
   0.54931021  0.45785261  0.37402588
   0.47887116  0.46718321  0.46688634
   0.57718822  0.40196897  0.66951874
   0.42242368  0.44903628  0.36698901
   0.62824845  0.40321608  0.56221462
   0.42409427  0.43783120  0.57266458
   0.35924727  0.42932042  0.47166543
   0.51571929  0.36835206  0.58229204
   0.56154102  0.37982318  0.47146241
   0.49299633  0.35659054  0.38357445
   0.44724978  0.34989619  0.49101719
   0.38133833  0.34473406  0.39606765
Direct configuration=     6
   0.38944509  0.71255104  0.52188471
   0.58729184  0.68172166  0.48378980
   0.53048977  0.65488278  0.38703108
   0.49224459  0.66450182  0.54761756
   0.43580160  0.63708525  0.44845098
   0.66080958  0.59185525  0.48098707
   0.39813806  0.63967729  0.61028929
   0.59258644  0.60870973  0.57792642
   0.59589209  0.56180446  0.37474589
   0.33474015  0.61173057  0.50964170
   0.53837296  0.57271207  0.47646529
   0.49697671  0.58648352  0.63982721
   0.47819353  0.55213937  0.37329415
   0.44010498  0.55375413  0.54036604
   0.73889695  0.50322911  0.49456379
   0.66440425  0.51819449  0.57659825
   0.26918146  0.51949769  0.46775326
   0.59194553  0.52531142  0.66826932
   0.70085565  0.52662258  0.39026429
   0.67809375  0.44640647  0.66481426
   0.37752668  0.53410302  0.43250869
   0.54465456  0.48959332  0.56281207
   0.39389206  0.53097456  0.64911576
   0.74187367  0.42578142  0.57202927
   0.33140185  0.50437980  0.55884673
   0.62148582  0.48024284  0.46729352
   0.48497502  0.46769137  0.66442653
   0.54903689  0.45776279  0.37413707
   0.47878427  0.46702965  0.46726412
   0.57677554  0.40228369  0.66946550
   0.42271469  0.44956577  0.36696818
   0.62800421  0.40312502  0.56180800
   0.42454005  0.43819515  0.57198333
   0.35957297  0.42939900  0.47189478
   0.51550244  0.36834929  0.58225338
   0.56167715  0.37991230  0.47135293
   0.49319193  0.35693863  0.38369220
   0.44748039  0.34989769  0.49153900
   0.38162166  0.34486064  0.39622538
Direct configuration=     7
   0.38962032  0.71278807  0.52194803
   0.58721725  0.68185732  0.48385049
   0.53034022  0.65515708  0.38703056
   0.49233284  0.66474971  0.54778603
   0.43571353  0.63716715  0.44845395
   0.66072124  0.59163362  0.48067563
   0.39752693  0.63985558  0.61019927
   0.59249886  0.60857133  0.57792702
   0.59577560  0.56187555  0.37479677
   0.33452713  0.61169219  0.50987304
   0.53830382  0.57301706  0.47668248
   0.49696774  0.58635057  0.64000005
   0.47821770  0.55207488  0.37333345
   0.43996265  0.55366423  0.54041511
   0.73918193  0.50326091  0.49401647
   0.66447926  0.51816246  0.57678398
   0.26931662  0.51977013  0.46739048
   0.59214897  0.52520930  0.66835055
   0.70101696  0.52643646  0.39005892
   0.67866496  0.44656936  0.66526640
   0.37777972  0.53424081  0.43241777
   0.54462187  0.48970473  0.56274815
   0.39363525  0.53121550  0.64904781
   0.74235864  0.42572129  0.57244215
   0.33148332  0.50436299  0.55862453
   0.62160039  0.48021866  0.46725202
   0.48534262  0.46759574  0.66459521
   0.54914061  0.45746106  0.37403957
   0.47868190  0.46724180  0.46717380
   0.57692021  0.40210415  0.66952159
   0.42262409  0.44925472  0.36693414
   0.62820826  0.40329028  0.56206238
   0.42414389  0.43768496  0.57221299
   0.35924860  0.42913877  0.47181775
   0.51552606  0.36841538  0.58203230
   0.56160538  0.38002130  0.47156266
   0.49317125  0.35672882  0.38354459
   0.44737854  0.35011990  0.49135614
   0.38117172  0.34457283  0.39597258
Direct configuration=     8
   0.39014602  0.71349915  0.52213799
   0.58699348  0.68226428  0.48403255
   0.52989157  0.65598001  0.38702900
   0.49259756  0.66549337  0.54829146
   0.43544931  0.63741284  0.44846286
   0.66045622  0.59096874  0.47974130
   0.39569355  0.64039047  0.60992924
   0.59223613  0.60815612  0.57792882
   0.59542615  0.56208882  0.37494939
   0.33388806  0.61157707  0.51056706
   0.53809638  0.57393203  0.47733405
   0.49694085  0.58595172  0.64051855
   0.47829020  0.55188143  0.37345134
   0.43953566  0.55339452  0.54056233
   0.74003685  0.50335629  0.49237452
   0.66470429  0.51806639  0.57734117
   0.26972211  0.52058746  0.46630216
   0.59275927  0.52490295  0.66859425
   0.70150090  0.52587808  0.38944281
   0.68037858  0.44705801  0.66662279
   0.37853886  0.53465419  0.43214500
   0.54452383  0.49003894  0.56255636
   0.39286482  0.53193829  0.64884394
   0.74381354  0.42554091  0.57368079
   0.33172772  0.50431257  0.55795794
   0.62194410  0.48014611  0.46712754
   0.48644540  0.46730887  0.66510123
   0.54945178  0.45655588  0.37374706
   0.47837479  0.46787828  0.46690285
   0.57735422  0.40156552  0.66968988
   0.42235229  0.44832157  0.36683202
   0.62882042  0.40378606  0.56282551
   0.42295538  0.43615440  0.57290195
   0.35827551  0.42835805  0.47158664
   0.51559694  0.36861366  0.58136905
   0.56139005  0.38034830  0.47219187
   0.49310919  0.35609938  0.38310177
   0.44707297  0.35078652  0.49080758
   0.37982190  0.34370940  0.39521419
Direct configuration=     9
   0.39039902  0.71384137  0.52222942
   0.58688579  0.68246015  0.48412017
   0.52967565  0.65637606  0.38702825
   0.49272496  0.66585128  0.54853471
   0.43532215  0.63753108  0.44846714
   0.66032867  0.59064875  0.47929163
   0.39481119  0.64064789  0.60979927
   0.59210968  0.60795628  0.57792968
   0.59525797  0.56219147  0.37502284
   0.33358050  0.61152166  0.51090107
   0.53799655  0.57437238  0.47764763
   0.49692791  0.58575976  0.64076809
   0.47832509  0.55178832  0.37350808
   0.43933017  0.55326471  0.54063318
   0.74044830  0.50340220  0.49158429
   0.66481259  0.51802015  0.57760932
   0.26991726  0.52098082  0.46577838
   0.59305299  0.52475551  0.66871153
   0.70173381  0.52560935  0.38914629
   0.68120330  0.44729319  0.66727559
   0.37890421  0.53485314  0.43201373
   0.54447664  0.49019979  0.56246406
   0.39249404  0.53228615  0.64874583
   0.74451374  0.42545410  0.57427691
   0.33184534  0.50428830  0.55763712
   0.62210952  0.48011120  0.46706763
   0.48697614  0.46717081  0.66534477
   0.54960154  0.45612023  0.37360629
   0.47822698  0.46818460  0.46677244
   0.57756309  0.40130629  0.66977088
   0.42222149  0.44787247  0.36678287
   0.62911503  0.40402466  0.56319279
   0.42238339  0.43541778  0.57323353
   0.35780719  0.42798232  0.47147542
   0.51563105  0.36870909  0.58104985
   0.56128641  0.38050567  0.47249468
   0.49307933  0.35579645  0.38288865
   0.44692591  0.35110734  0.49054357
   0.37917227  0.34329386  0.39484920
Direct configuration=    10
   0.39042928  0.71446802  0.52214004
   0.58691064  0.68230416  0.48434319
   0.52940971  0.65649991  0.38712125
   0.49274855  0.66576800  0.54914356
   0.43524120  0.63736506  0.44856602
   0.65988164  0.59068403  0.47919191
   0.39457323  0.64057839  0.60987095
   0.59212000  0.60756190  0.57787843
   0.59525559  0.56220571  0.37522044
   0.33355606  0.61159836  0.51078983
   0.53763998  0.57489706  0.47777501
   0.49686499  0.58567797  0.64080908
   0.47831209  0.55146854  0.37365453
   0.43938224  0.55324345  0.54071953
   0.74042203  0.50295376  0.49163144
   0.66536294  0.51796520  0.57730114
   0.27015481  0.52138262  0.46518529
   0.59299771  0.52459100  0.66857985
   0.70164783  0.52523157  0.38863890
   0.68169070  0.44732896  0.66772298
   0.37920250  0.53501015  0.43223708
   0.54453508  0.49030604  0.56249808
   0.39258280  0.53216417  0.64866456
   0.74503132  0.42604834  0.57463357
   0.33182226  0.50407855  0.55718644
   0.62213662  0.47985125  0.46714263
   0.48693821  0.46731445  0.66513229
   0.54955336  0.45569016  0.37365547
   0.47797415  0.46849942  0.46688050
   0.57831624  0.40116870  0.66965392
   0.42228442  0.44769561  0.36692251
   0.62949631  0.40444438  0.56339287
   0.42200088  0.43497256  0.57340105
   0.35740042  0.42789433  0.47122890
   0.51570979  0.36902399  0.58088053
   0.56115361  0.38094364  0.47264999
   0.49294833  0.35555548  0.38291725
   0.44673042  0.35159346  0.49026291
   0.37875889  0.34292826  0.39457287
Direct configuration=    11
   0.39051639  0.71627177  0.52188279
   0.58698217  0.68185517  0.48498515
   0.52864421  0.65685641  0.38738895
   0.49281645  0.66552831  0.55089608
   0.43500821  0.63688716  0.44885064
   0.65859490  0.59078559  0.47890487
   0.39388831  0.64037835  0.61007726
   0.59214971  0.60642669  0.57773090
   0.59524873  0.56224672  0.37578922
   0.33348570  0.61181914  0.51046963
   0.53661361  0.57640731  0.47814166
   0.49668390  0.58544255  0.64092707
   0.47827469  0.55054809  0.37407608
   0.43953213  0.55318224  0.54096808
   0.74034642  0.50166298  0.49176714
   0.66694707  0.51780701  0.57641406
   0.27083858  0.52253919  0.46347811
   0.59283859  0.52411746  0.66820079
   0.70140033  0.52414416  0.38717841
   0.68309364  0.44743191  0.66901074
   0.38006111  0.53546210  0.43287999
   0.54470330  0.49061187  0.56259600
   0.39283828  0.53181305  0.64843062
   0.74652114  0.42775880  0.57566019
   0.33175585  0.50347481  0.55588919
   0.62221461  0.47910301  0.46735853
   0.48682903  0.46772792  0.66452069
   0.54941466  0.45445223  0.37379704
   0.47724641  0.46940563  0.46719154
   0.58048413  0.40077266  0.66931728
   0.42246559  0.44718653  0.36732446
   0.63059377  0.40565249  0.56396879
   0.42089986  0.43369104  0.57388326
   0.35622955  0.42764106  0.47051930
   0.51593643  0.36993041  0.58039316
   0.56077136  0.38220431  0.47309703
   0.49257126  0.35486189  0.38299956
   0.44616773  0.35299270  0.48945505
   0.37756901  0.34187592  0.39377745
Direct configuration=    12
   0.39066810  0.71650058  0.52185826
   0.58688013  0.68177780  0.48539416
   0.52839691  0.65673287  0.38747335
   0.49253568  0.66546535  0.55154994
   0.43487404  0.63703623  0.44930004
   0.65827684  0.59048880  0.47872654
   0.39387218  0.64033177  0.60999013
   0.59228822  0.60586420  0.57782323
   0.59506788  0.56209663  0.37615963
   0.33367880  0.61221681  0.51028715
   0.53611695  0.57669421  0.47803155
   0.49662020  0.58546391  0.64100021
   0.47853792  0.55027031  0.37419473
   0.43949899  0.55321867  0.54131732
   0.74005284  0.50128285  0.49116472
   0.66735219  0.51792775  0.57648116
   0.27100320  0.52299484  0.46261655
   0.59294942  0.52379889  0.66781744
   0.70112848  0.52352446  0.38712069
   0.68362775  0.44769132  0.66929994
   0.38019142  0.53531951  0.43325489
   0.54486980  0.49071969  0.56250414
   0.39278775  0.53144711  0.64811779
   0.74725370  0.42843563  0.57628653
   0.33179022  0.50332087  0.55540229
   0.62235220  0.47914304  0.46727589
   0.48702191  0.46749144  0.66410387
   0.54935177  0.45422969  0.37398843
   0.47709421  0.46972298  0.46750368
   0.58104849  0.40081523  0.66905595
   0.42248189  0.44693281  0.36757701
   0.63107082  0.40606596  0.56396663
   0.42039800  0.43344090  0.57395283
   0.35579477  0.42761781  0.47001250
   0.51613852  0.37050285  0.58043926
   0.56053099  0.38265524  0.47322212
   0.49232226  0.35448877  0.38313761
   0.44588249  0.35354753  0.48920422
   0.37736891  0.34168138  0.39358441
Direct configuration=    13
   0.39112323  0.71718701  0.52178466
   0.58657402  0.68154568  0.48662119
   0.52765503  0.65636225  0.38772658
   0.49169337  0.66527646  0.55351152
   0.43447153  0.63748341  0.45064825
   0.65732264  0.58959841  0.47819153
   0.39382382  0.64019205  0.60972873
   0.59270377  0.60417673  0.57810020
   0.59452535  0.56164634  0.37727086
   0.33425809  0.61340981  0.50973973
   0.53462699  0.57755491  0.47770124
   0.49642909  0.58552802  0.64121966
   0.47932759  0.54943698  0.37455068
   0.43939957  0.55332796  0.54236502
   0.73917209  0.50014247  0.48935743
   0.66856752  0.51828998  0.57668248
   0.27149708  0.52436181  0.46003188
   0.59328191  0.52284318  0.66666738
   0.70031292  0.52166536  0.38694754
   0.68523007  0.44846953  0.67016754
   0.38058235  0.53489174  0.43437958
   0.54536929  0.49104314  0.56222856
   0.39263614  0.53034928  0.64717932
   0.74945137  0.43046613  0.57816552
   0.33189333  0.50285904  0.55394161
   0.62276498  0.47926310  0.46702798
   0.48760056  0.46678199  0.66285341
   0.54916307  0.45356205  0.37456258
   0.47663761  0.47067505  0.46844010
   0.58274157  0.40094292  0.66827196
   0.42253077  0.44617163  0.36833464
   0.63250196  0.40730635  0.56396015
   0.41889244  0.43269049  0.57416152
   0.35449040  0.42754805  0.46849211
   0.51674479  0.37222017  0.58057753
   0.55980988  0.38400805  0.47359739
   0.49157526  0.35336938  0.38355177
   0.44502678  0.35521201  0.48845172
   0.37676861  0.34109775  0.39300528
Direct configuration=    14
   0.39132154  0.71703290  0.52205735
   0.58602995  0.68141575  0.48730239
   0.52753879  0.65609997  0.38780715
   0.49195011  0.66545674  0.55354405
   0.43457294  0.63791336  0.45092074
   0.65739289  0.58931560  0.47811884
   0.39368680  0.64011638  0.60988925
   0.59248232  0.60421064  0.57803241
   0.59444192  0.56138411  0.37743809
   0.33430532  0.61369134  0.50959682
   0.53434920  0.57739809  0.47782552
   0.49650976  0.58537796  0.64172459
   0.47912551  0.54939992  0.37454903
   0.43927178  0.55333781  0.54281955
   0.73886515  0.49958723  0.48903535
   0.66912975  0.51855072  0.57716640
   0.27135173  0.52479206  0.45934224
   0.59357619  0.52254820  0.66647299
   0.69971319  0.52101531  0.38672602
   0.68558506  0.44896300  0.67024067
   0.38098219  0.53479545  0.43458642
   0.54575921  0.49117065  0.56161407
   0.39235721  0.52983390  0.64682804
   0.75032202  0.43120107  0.57872481
   0.33150584  0.50335047  0.55311862
   0.62264897  0.47942017  0.46682280
   0.48788788  0.46604198  0.66231365
   0.54901889  0.45342980  0.37487730
   0.47677347  0.47074681  0.46884789
   0.58294645  0.40117689  0.66828158
   0.42258121  0.44602556  0.36862633
   0.63314386  0.40741848  0.56335458
   0.41858833  0.43259046  0.57400016
   0.35395720  0.42740231  0.46791272
   0.51658057  0.37299386  0.58052384
   0.55960071  0.38409627  0.47372018
   0.49163859  0.35299056  0.38359194
   0.44487546  0.35556051  0.48888506
   0.37680887  0.34110433  0.39295734
Direct configuration=    15
   0.39166672  0.71676465  0.52253201
   0.58508290  0.68118959  0.48848815
   0.52733647  0.65564344  0.38794741
   0.49239701  0.66577056  0.55360069
   0.43474946  0.63866176  0.45139507
   0.65751518  0.58882333  0.47799230
   0.39344830  0.63998468  0.61016865
   0.59209687  0.60426966  0.57791441
   0.59429669  0.56092766  0.37772918
   0.33438753  0.61418140  0.50934806
   0.53386565  0.57712512  0.47804186
   0.49665017  0.58511675  0.64260351
   0.47877374  0.54933542  0.37454615
   0.43904934  0.55335498  0.54361076
   0.73833088  0.49862074  0.48847470
   0.67010843  0.51900458  0.57800874
   0.27109873  0.52554098  0.45814180
   0.59408843  0.52203474  0.66613463
   0.69866925  0.51988380  0.38634043
   0.68620300  0.44982196  0.67036795
   0.38167816  0.53462784  0.43494647
   0.54643792  0.49139262  0.56054446
   0.39187168  0.52893680  0.64621656
   0.75183754  0.43248036  0.57969834
   0.33083136  0.50420588  0.55168608
   0.62244704  0.47969357  0.46646566
   0.48838801  0.46475385  0.66137410
   0.54876793  0.45319960  0.37542514
   0.47700995  0.47087173  0.46955771
   0.58330308  0.40158414  0.66829833
   0.42266901  0.44577131  0.36913407
   0.63426121  0.40761366  0.56230049
   0.41805898  0.43241634  0.57371928
   0.35302908  0.42714863  0.46690419
   0.51629471  0.37434060  0.58043039
   0.55923661  0.38424984  0.47393394
   0.49174883  0.35233116  0.38366187
   0.44461206  0.35616714  0.48963937
   0.37687894  0.34111579  0.39287388
Direct configuration=    16
   0.39178599  0.71679387  0.52329227
   0.58474799  0.68099864  0.48868482
   0.52756535  0.65528845  0.38799991
   0.49222223  0.66581630  0.55401310
   0.43508822  0.63894384  0.45130851
   0.65770053  0.58897085  0.47828574
   0.39355800  0.63960960  0.61071910
   0.59191702  0.60436295  0.57808518
   0.59377044  0.56086245  0.37754085
   0.33424494  0.61433760  0.50908365
   0.53382890  0.57668327  0.47806040
   0.49658094  0.58458307  0.64331684
   0.47831889  0.54954361  0.37435127
   0.43910871  0.55349385  0.54396940
   0.73785338  0.49771534  0.48866843
   0.67086954  0.51977073  0.57827936
   0.27080385  0.52624915  0.45722403
   0.59405087  0.52209718  0.66606282
   0.69812578  0.51896944  0.38564260
   0.68636623  0.45014958  0.67054071
   0.38186363  0.53487282  0.43542032
   0.54753277  0.49158832  0.56021467
   0.39156829  0.52806738  0.64590539
   0.75303577  0.43362171  0.58031604
   0.33055148  0.50486593  0.55072441
   0.62190952  0.47953677  0.46632366
   0.48817284  0.46417391  0.66048376
   0.54838309  0.45299418  0.37560489
   0.47701059  0.47066765  0.46969532
   0.58408416  0.40174264  0.66805944
   0.42304530  0.44564941  0.36947795
   0.63511316  0.40767644  0.56159414
   0.41681908  0.43316098  0.57333379
   0.35224209  0.42709919  0.46656561
   0.51638377  0.37514712  0.58061997
   0.55932056  0.38382834  0.47399662
   0.49198451  0.35196931  0.38394496
   0.44440133  0.35601449  0.48979347
   0.37724711  0.34104031  0.39299340
Direct configuration=    17
   0.39190733  0.71682358  0.52406566
   0.58440729  0.68080439  0.48888488
   0.52779818  0.65492734  0.38805331
   0.49204443  0.66586283  0.55443263
   0.43543283  0.63923080  0.45122045
   0.65788909  0.58912092  0.47858424
   0.39366960  0.63922805  0.61127904
   0.59173406  0.60445784  0.57825890
   0.59323510  0.56079611  0.37734928
   0.33409988  0.61449649  0.50881468
   0.53379152  0.57623379  0.47807926
   0.49651051  0.58404017  0.64404248
   0.47785620  0.54975539  0.37415302
   0.43916911  0.55363511  0.54433423
   0.73736765  0.49679432  0.48886550
   0.67164380  0.52055010  0.57855465
   0.27050389  0.52696954  0.45629041
   0.59401267  0.52216069  0.66598976
   0.69757292  0.51803931  0.38493273
   0.68653229  0.45048286  0.67071645
   0.38205229  0.53512203  0.43590235
   0.54864651  0.49178739  0.55987918
   0.39125965  0.52718295  0.64558886
   0.75425468  0.43478275  0.58094440
   0.33026677  0.50553738  0.54974615
   0.62136273  0.47937725  0.46617920
   0.48795395  0.46358396  0.65957806
   0.54799162  0.45278521  0.37578775
   0.47701125  0.47046005  0.46983531
   0.58487873  0.40190388  0.66781642
   0.42342807  0.44552541  0.36982776
   0.63597981  0.40774030  0.56087559
   0.41555777  0.43391848  0.57294165
   0.35144150  0.42704889  0.46622118
   0.51647435  0.37596756  0.58081283
   0.55940597  0.38339955  0.47406039
   0.49222425  0.35160122  0.38423294
   0.44418696  0.35585920  0.48995023
   0.37762163  0.34096353  0.39311498
Direct configuration=    18
   0.39181558  0.71675582  0.52490750
   0.58446071  0.68050892  0.48832732
   0.52838341  0.65510553  0.38782433
   0.49153038  0.66533401  0.55527198
   0.43551739  0.63935945  0.45134001
   0.65791459  0.58905164  0.47874303
   0.39386327  0.63851388  0.61204205
   0.59167343  0.60454498  0.57887496
   0.59317498  0.56050582  0.37694559
   0.33414126  0.61518259  0.50863867
   0.53399961  0.57596263  0.47791007
   0.49605325  0.58348352  0.64428328
   0.47736753  0.54996143  0.37386698
   0.43986036  0.55388000  0.54405317
   0.73636422  0.49624206  0.48805179
   0.67200729  0.52133871  0.57887165
   0.27017869  0.52793504  0.45546105
   0.59371300  0.52249042  0.66612389
   0.69704444  0.51719728  0.38507834
   0.68683227  0.45064729  0.67077455
   0.38179228  0.53522947  0.43638810
   0.54970308  0.49174167  0.56044107
   0.39077475  0.52663590  0.64568750
   0.75528294  0.43585445  0.58199319
   0.32966967  0.50632153  0.54923046
   0.62124748  0.47963602  0.46568369
   0.48776028  0.46334290  0.65871148
   0.54760715  0.45274314  0.37545692
   0.47696542  0.47009157  0.47022291
   0.58556795  0.40193187  0.66711170
   0.42374984  0.44551561  0.36997087
   0.63700618  0.40804932  0.56080275
   0.41479000  0.43408380  0.57211690
   0.35095987  0.42716642  0.46620754
   0.51612833  0.37657282  0.58050779
   0.55967962  0.38243206  0.47426721
   0.49252748  0.35123446  0.38462984
   0.44405092  0.35569016  0.49007286
   0.37801792  0.34068246  0.39330381
Direct configuration=    19
   0.39178361  0.71673221  0.52520091
   0.58447933  0.68040594  0.48813299
   0.52858738  0.65516763  0.38774452
   0.49135121  0.66514970  0.55556453
   0.43554687  0.63940429  0.45138168
   0.65792349  0.58902750  0.47879837
   0.39393077  0.63826496  0.61230798
   0.59165230  0.60457535  0.57908968
   0.59315403  0.56040464  0.37680489
   0.33415568  0.61542172  0.50857733
   0.53407214  0.57586812  0.47785110
   0.49589388  0.58328950  0.64436721
   0.47719722  0.55003324  0.37376729
   0.44010129  0.55396535  0.54395521
   0.73601449  0.49604957  0.48776818
   0.67213398  0.52161356  0.57898214
   0.27006535  0.52827155  0.45517199
   0.59360855  0.52260534  0.66617063
   0.69686024  0.51690380  0.38512909
   0.68693683  0.45070459  0.67079479
   0.38170166  0.53526692  0.43655740
   0.55007134  0.49172573  0.56063691
   0.39060574  0.52644524  0.64572188
   0.75564132  0.43622798  0.58235873
   0.32946156  0.50659483  0.54905073
   0.62120731  0.47972620  0.46551098
   0.48769279  0.46325888  0.65840944
   0.54747315  0.45272848  0.37534161
   0.47694945  0.46996315  0.47035800
   0.58580817  0.40194163  0.66686609
   0.42386199  0.44551220  0.37002075
   0.63736390  0.40815703  0.56077736
   0.41452240  0.43414143  0.57182945
   0.35079200  0.42720738  0.46620279
   0.51600772  0.37678378  0.58040147
   0.55977500  0.38209485  0.47433929
   0.49263316  0.35110663  0.38476818
   0.44400351  0.35563124  0.49011561
   0.37815604  0.34058450  0.39336963
Direct configuration=    20
   0.39163105  0.71655391  0.52594714
   0.58427316  0.67994220  0.48790990
   0.52883581  0.65536489  0.38744210
   0.49171922  0.66456973  0.55588121
   0.43590049  0.63952301  0.45151126
   0.65770293  0.58895430  0.47878887
   0.39364758  0.63754915  0.61292030
   0.59149449  0.60502011  0.57941105
   0.59313921  0.56021894  0.37633652
   0.33430880  0.61633156  0.50861219
   0.53451150  0.57585640  0.47754525
   0.49532127  0.58292460  0.64428757
   0.47703262  0.55033273  0.37383669
   0.44035540  0.55378536  0.54377119
   0.73539282  0.49526282  0.48796472
   0.67243137  0.52188899  0.57927115
   0.26979474  0.52935378  0.45477066
   0.59361892  0.52273942  0.66680858
   0.69659437  0.51652752  0.38479273
   0.68715231  0.45098890  0.67089637
   0.38162149  0.53508068  0.43669046
   0.55062238  0.49152906  0.56100456
   0.39007420  0.52615975  0.64547263
   0.75629253  0.43734376  0.58269274
   0.32904381  0.50738845  0.54916755
   0.62041597  0.47935452  0.46531567
   0.48765092  0.46318725  0.65804249
   0.54718398  0.45273102  0.37498742
   0.47743600  0.46961314  0.47086794