 running on   32 total cores
 distrk:  each k-point on   32 cores,    1 groups
 distr:  one band on    8 cores,    4 groups
 using from now: INCAR     
 vasp.5.3.5 31Mar14 (build Feb 01 2018 12:10:03) gamma-only                     
  
 POSCAR found type information on POSCAR  Ag
 POSCAR found :  1 types and      30 ions
 scaLAPACK will be used

 ----------------------------------------------------------------------------- 
|                                                                             |
|  ADVICE TO THIS USER RUNNING 'VASP/VAMP'   (HEAR YOUR MASTER'S VOICE ...):  |
|                                                                             |
|      You have a (more or less) 'large supercell' and for larger cells       |
|      it might be more efficient to use real space projection opertators     |
|      So try LREAL= Auto  in the INCAR   file.                               |
|      Mind: At the moment your POTCAR file does not contain real space       |
|       projectors, and has to be modified,  BUT if you                       |
|      want to do an extremely  accurate calculation you might also keep the  |
|      reciprocal projection scheme          (i.e. LREAL=.FALSE.)             |
|                                                                             |
 ----------------------------------------------------------------------------- 

 LDA part: xc-table for Pade appr. of Perdew
 POSCAR, INCAR and KPOINTS ok, starting setup
 WARNING: small aliasing (wrap around) errors must be expected
 FFT: planning ...
 WAVECAR not read
 entering main loop
       N       E                     dE             d eps       ncg     rms          rms(c)
DAV:   1     0.288071276427E+04    0.28807E+04   -0.60824E+04   864   0.588E+02
DAV:   2     0.634633911217E+03   -0.22461E+04   -0.20175E+04  1512   0.143E+02
DAV:   3    -0.266683438890E+02   -0.66130E+03   -0.60502E+03  1128   0.871E+01
DAV:   4    -0.607413419557E+02   -0.34073E+02   -0.33725E+02   944   0.219E+01
DAV:   5    -0.612035045106E+02   -0.46216E+00   -0.46163E+00   968   0.301E+00    0.309E+01
DAV:   6    -0.149810929253E+02    0.46222E+02   -0.14143E+02   880   0.176E+01    0.163E+01
DAV:   7    -0.744152472817E+01    0.75396E+01   -0.80242E+00   920   0.427E+00    0.103E+01
DAV:   8    -0.808110317136E+01   -0.63958E+00   -0.18300E+00   936   0.371E+00    0.552E+00
DAV:   9    -0.180196113952E+02   -0.99385E+01   -0.33649E+00   952   0.274E+00    0.365E+00
DAV:  10    -0.319653118396E+02   -0.13946E+02   -0.60762E+00   896   0.374E+00    0.336E+00
DAV:  11    -0.368001044750E+02   -0.48348E+01   -0.16748E+00   944   0.219E+00    0.260E+00
DAV:  12    -0.467535715327E+02   -0.99535E+01   -0.52909E+00   888   0.279E+00    0.170E+00
DAV:  13    -0.524718224091E+02   -0.57183E+01   -0.19980E+00   904   0.156E+00    0.192E+00
DAV:  14    -0.529595078421E+02   -0.48769E+00   -0.54482E-02  1032   0.492E-01    0.171E+00
DAV:  15    -0.559944245397E+02   -0.30349E+01   -0.71793E-01   888   0.148E+00    0.110E+00
DAV:  16    -0.578265016644E+02   -0.18321E+01   -0.40588E-01   880   0.113E+00    0.585E-01
DAV:  17    -0.590516749987E+02   -0.12252E+01   -0.14305E-01   888   0.486E-01    0.443E-01
DAV:  18    -0.600575832219E+02   -0.10059E+01   -0.58901E-02   912   0.392E-01    0.261E-01
DAV:  19    -0.607683519524E+02   -0.71077E+00   -0.34273E-02   904   0.260E-01    0.136E-01
DAV:  20    -0.609409785332E+02   -0.17263E+00   -0.42699E-03   936   0.896E-02    0.998E-02
DAV:  21    -0.610276350006E+02   -0.86656E-01   -0.18874E-03   784   0.613E-02    0.571E-02
DAV:  22    -0.610767011903E+02   -0.49066E-01   -0.23145E-03   880   0.537E-02    0.268E-02
DAV:  23    -0.610776459860E+02   -0.94480E-03   -0.13841E-04   648   0.155E-02    0.205E-02
DAV:  24    -0.610836067961E+02   -0.59608E-02   -0.27849E-04   624   0.224E-02    0.136E-02
DAV:  25    -0.610857864867E+02   -0.21797E-02   -0.13042E-04   624   0.165E-02    0.919E-03
DAV:  26    -0.610876690067E+02   -0.18825E-02   -0.27202E-05   624   0.115E-02    0.481E-03
DAV:  27    -0.610893397226E+02   -0.16707E-02   -0.25463E-05   600   0.817E-03    0.354E-03
DAV:  28    -0.610894857779E+02   -0.14606E-03   -0.47777E-06   608   0.474E-03    0.239E-03
DAV:  29    -0.610895250351E+02   -0.39257E-04   -0.20704E-06   568   0.454E-03
   1 F= -.61089525E+02 E0= -.61089525E+02  d E =-.610895E+02  mag=     0.0016
 curvature:   0.00 expect dE= 0.000E+00 dE for cont linesearch  0.000E+00
 trial: gam= 0.00000 g(F)=  0.177E-01 g(S)=  0.000E+00 ort = 0.000E+00 (trialstep = 0.100E+01)
 search vector abs. value=  0.177E-01
 bond charge predicted
       N       E                     dE             d eps       ncg     rms          rms(c)
DAV:   1    -0.611063555084E+02   -0.16870E-01   -0.11921E+00   896   0.201E+00    0.805E-02
DAV:   2    -0.611069394437E+02   -0.58394E-03   -0.57243E-03   912   0.196E-01    0.616E-02
DAV:   3    -0.611069357510E+02    0.36927E-05   -0.94338E-05   544   0.278E-02
   2 F= -.61106936E+02 E0= -.61106936E+02  d E =-.174107E-01  mag=     0.0009
 ZBRENT: can't locate minimum, use default step
 trial-energy change:   -0.017411  1 .order   -0.017161   -0.017724   -0.016597
 step:   4.0000(harm= 15.7252)  dis= 0.01732  next Energy=   -61.228884 (dE=-0.139E+00)
 bond charge predicted
       N       E                     dE             d eps       ncg     rms          rms(c)
DAV:   1    -0.611496749912E+02   -0.42736E-01   -0.10751E+01   888   0.603E+00    0.238E-01
DAV:   2    -0.611546838205E+02   -0.50088E-02   -0.51438E-02   904   0.588E-01    0.185E-01
DAV:   3    -0.611545547587E+02    0.12906E-03   -0.90187E-04   928   0.820E-02    0.119E-01
DAV:   4    -0.611544625747E+02    0.92184E-04   -0.49631E-04   912   0.458E-02
   3 F= -.61154463E+02 E0= -.61154463E+02  d E =-.649375E-01  mag=     0.0004
 curvature:  -2.88 expect dE=-0.359E-01 dE for cont linesearch -0.358E-01
 ZBRENT: increasing intervall
 opt :  10.0000  next Energy=   -61.233106 (dE=-0.144E+00)
 bond charge predicted
       N       E                     dE             d eps       ncg     rms          rms(c)
DAV:   1    -0.612105668874E+02   -0.56012E-01   -0.42946E+01   864   0.121E+01    0.444E-01
DAV:   2    -0.612306727299E+02   -0.20106E-01   -0.20548E-01   912   0.118E+00    0.364E-01
DAV:   3    -0.612302708026E+02    0.40193E-03   -0.34758E-03   904   0.159E-01    0.245E-01
DAV:   4    -0.612298561137E+02    0.41469E-03   -0.20143E-03   928   0.903E-02    0.541E-02
DAV:   5    -0.612298502388E+02    0.58750E-05   -0.56959E-05   568   0.233E-02
   4 F= -.61229850E+02 E0= -.61229850E+02  d E =-.140325E+00  mag=     0.0002
 curvature:  -6.32 expect dE=-0.416E-01 dE for cont linesearch -0.401E-01
 ZBRENT: increasing intervall
 opt :  22.0000  next Energy=   -61.306024 (dE=-0.216E+00)
 bond charge predicted
       N       E                     dE             d eps       ncg     rms          rms(c)
DAV:   1    -0.612298849022E+02   -0.28788E-04   -0.17238E+02   864   0.242E+01    0.803E-01
DAV:   2    -0.613101156777E+02   -0.80231E-01   -0.81529E-01   912   0.236E+00    0.725E-01
DAV:   3    -0.613090519335E+02    0.10637E-02   -0.13115E-02   912   0.301E-01    0.524E-01
DAV:   4    -0.613069700797E+02    0.20819E-02   -0.78835E-03   912   0.176E-01    0.166E-01
DAV:   5    -0.613070453882E+02   -0.75309E-04   -0.48807E-04   912   0.581E-02
   5 F= -.61307045E+02 E0= -.61307045E+02  d E =-.217520E+00  mag=     0.0001
 curvature: -12.02 expect dE=-0.173E-01 dE for cont linesearch -0.450E-02
 ZBRENT: extrapolating
 opt :  25.8558  next Energy=   -61.312015 (dE=-0.222E+00)
 bond charge predicted
       N       E                     dE             d eps       ncg     rms          rms(c)
DAV:   1    -0.613041384673E+02    0.28316E-02   -0.17707E+01   896   0.773E+00    0.264E-01
DAV:   2    -0.613125544460E+02   -0.84160E-02   -0.86285E-02   912   0.760E-01    0.209E-01
DAV:   3    -0.613124462617E+02    0.10818E-03   -0.14363E-03   912   0.101E-01    0.141E-01
DAV:   4    -0.613123183828E+02    0.12788E-03   -0.65326E-04   904   0.521E-02    0.374E-02
DAV:   5    -0.613123268861E+02   -0.85033E-05   -0.26269E-05   560   0.152E-02
   6 F= -.61312327E+02 E0= -.61312327E+02  d E =-.222802E+00  mag=     0.0000
 curvature: -13.26 expect dE=-0.189E-01 dE for cont linesearch -0.667E-04
 trial: gam= 0.06368 g(F)=  0.143E-02 g(S)=  0.000E+00 ort = 0.299E-03 (trialstep = 0.597E+01)
 search vector abs. value=  0.154E-02
 bond charge predicted
       N       E                     dE             d eps       ncg     rms          rms(c)
DAV:   1    -0.613176441414E+02   -0.53258E-02   -0.36820E+00   896   0.353E+00    0.113E-01
DAV:   2    -0.613193316457E+02   -0.16875E-02   -0.17542E-02   912   0.338E-01    0.862E-02
DAV:   3    -0.613193096269E+02    0.22019E-04   -0.27988E-04   648   0.431E-02
   7 F= -.61319310E+02 E0= -.61319310E+02  d E =-.698274E-02  mag=     0.0000
 trial-energy change:   -0.006983  1 .order   -0.006533   -0.008636   -0.004429
 step:   9.1415(harm= 12.2579)  dis= 0.01074  next Energy=   -61.320553 (dE=-0.823E-02)
 bond charge predicted
       N       E                     dE             d eps       ncg     rms          rms(c)
DAV:   1    -0.613212005863E+02   -0.18689E-02   -0.10475E+00   896   0.188E+00    0.699E-02
DAV:   2    -0.613216687024E+02   -0.46812E-03   -0.49809E-03   928   0.179E-01    0.497E-02
DAV:   3    -0.613216649431E+02    0.37593E-05   -0.78155E-05   544   0.228E-02
   8 F= -.61321665E+02 E0= -.61321665E+02  d E =-.933806E-02  mag=     0.0000
 curvature:  -4.91 expect dE=-0.179E-02 dE for cont linesearch -0.810E-03
 trial: gam=-0.09003 g(F)=  0.364E-03 g(S)=  0.000E+00 ort = 0.503E-03 (trialstep = 0.661E+01)
 search vector abs. value=  0.285E-03
 bond charge predicted
       N       E                     dE             d eps       ncg     rms          rms(c)
DAV:   1    -0.613233743931E+02   -0.17057E-02   -0.83546E-01   896   0.168E+00    0.367E-02
DAV:   2    -0.613237704747E+02   -0.39608E-03   -0.39232E-03   960   0.160E-01    0.301E-02
DAV:   3    -0.613237669433E+02    0.35315E-05   -0.50762E-05   528   0.187E-02
   9 F= -.61323767E+02 E0= -.61323767E+02  d E =-.210200E-02  mag=     0.0000
 ZBRENT: can't locate minimum, use default step
 trial-energy change:   -0.002102  1 .order   -0.001903   -0.002102   -0.001704
 step:  26.4209(harm= 34.8656)  dis= 0.00896  next Energy=   -61.327213 (dE=-0.555E-02)
 bond charge predicted
       N       E                     dE             d eps       ncg     rms          rms(c)
DAV:   1    -0.613248429817E+02   -0.10725E-02   -0.75125E+00   864   0.505E+00    0.112E-01
DAV:   2    -0.613283858289E+02   -0.35428E-02   -0.35327E-02   896   0.481E-01    0.921E-02
DAV:   3    -0.613283329140E+02    0.52915E-04   -0.51502E-04   928   0.563E-02
  10 F= -.61328333E+02 E0= -.61328333E+02  d E =-.666797E-02  mag=     0.0000
 curvature: -14.24 expect dE=-0.520E-02 dE for cont linesearch -0.130E-02
 ZBRENT: increasing intervall
 opt :  66.0523  next Energy=   -61.330922 (dE=-0.926E-02)
 bond charge predicted
       N       E                     dE             d eps       ncg     rms          rms(c)
DAV:   1    -0.613156373724E+02    0.12748E-01   -0.30047E+01   864   0.101E+01    0.235E-01
DAV:   2    -0.613298334480E+02   -0.14196E-01   -0.14150E-01   896   0.963E-01    0.189E-01
DAV:   3    -0.613295805178E+02    0.25293E-03   -0.20811E-03   928   0.113E-01    0.142E-01
DAV:   4    -0.613292239030E+02    0.35661E-03   -0.13094E-03   896   0.697E-02    0.380E-02
DAV:   5    -0.613292522455E+02   -0.28343E-04   -0.90981E-05   576   0.239E-02
  11 F= -.61329252E+02 E0= -.61329252E+02  d E =-.758730E-02  mag=     0.0000
 curvature: -28.28 expect dE=-0.381E-01 dE for cont linesearch -0.896E-03
 trial: gam= 0.00000 g(F)=  0.135E-02 g(S)=  0.000E+00 ort =-0.951E-04 (trialstep = 0.392E+01)
 search vector abs. value=  0.135E-02
 bond charge predicted
       N       E                     dE             d eps       ncg     rms          rms(c)
DAV:   1    -0.613329300859E+02   -0.37062E-02   -0.13998E+00   896   0.216E+00    0.804E-02
DAV:   2    -0.613335601729E+02   -0.63009E-03   -0.67729E-03   912   0.207E-01    0.590E-02
DAV:   3    -0.613335535625E+02    0.66104E-05   -0.11677E-04   576   0.274E-02
  12 F= -.61333554E+02 E0= -.61333554E+02  d E =-.430132E-02  mag=     0.0000
 trial-energy change:   -0.004301  1 .order   -0.004087   -0.005279   -0.002896
 step:   8.6870(harm=  8.6870)  dis= 0.01058  next Energy=   -61.335101 (dE=-0.585E-02)
 bond charge predicted
       N       E                     dE             d eps       ncg     rms          rms(c)
DAV:   1    -0.613352336008E+02   -0.16734E-02   -0.20779E+00   896   0.263E+00    0.103E-01
DAV:   2    -0.613361454038E+02   -0.91180E-03   -0.10088E-02   912   0.251E-01    0.728E-02
DAV:   3    -0.613361355628E+02    0.98411E-05   -0.17122E-04   576   0.331E-02
  13 F= -.61336136E+02 E0= -.61336136E+02  d E =-.688332E-02  mag=     0.0000
 curvature:  -4.34 expect dE=-0.885E-03 dE for cont linesearch -0.392E-04
 trial: gam= 0.06943 g(F)=  0.204E-03 g(S)=  0.000E+00 ort = 0.110E-03 (trialstep = 0.487E+01)
 search vector abs. value=  0.226E-03
 bond charge predicted
       N       E                     dE             d eps       ncg     rms          rms(c)
DAV:   1    -0.613370057069E+02   -0.86030E-03   -0.36053E-01   896   0.110E+00    0.262E-02
DAV:   2    -0.613371744482E+02   -0.16874E-03   -0.16998E-03   928   0.106E-01    0.234E-02
DAV:   3    -0.613371724670E+02    0.19812E-05   -0.22557E-05   528   0.127E-02
  14 F= -.61337172E+02 E0= -.61337172E+02  d E =-.103690E-02  mag=     0.0000
 ZBRENT: can't locate minimum, use default step
 trial-energy change:   -0.001037  1 .order   -0.000950   -0.001030   -0.000870
 step:  19.4945(harm= 31.3115)  dis= 0.00816  next Energy=   -61.339445 (dE=-0.331E-02)
 bond charge predicted
       N       E                     dE             d eps       ncg     rms          rms(c)
DAV:   1    -0.613380096220E+02   -0.83517E-03   -0.32375E+00   864   0.331E+00    0.753E-02
DAV:   2    -0.613395291076E+02   -0.15195E-02   -0.15290E-02   896   0.318E-01    0.702E-02
DAV:   3    -0.613395045452E+02    0.24562E-04   -0.20290E-04   544   0.380E-02
  15 F= -.61339505E+02 E0= -.61339505E+02  d E =-.336898E-02  mag=     0.0000
 curvature: -13.37 expect dE=-0.165E-02 dE for cont linesearch -0.182E-03
 trial: gam= 0.42204 g(F)=  0.124E-03 g(S)=  0.000E+00 ort = 0.554E-04 (trialstep = 0.780E+01)
 search vector abs. value=  0.211E-03
 bond charge predicted
       N       E                     dE             d eps       ncg     rms          rms(c)
DAV:   1    -0.613403570512E+02   -0.82794E-03   -0.86656E-01   896   0.171E+00    0.399E-02
DAV:   2    -0.613407508132E+02   -0.39376E-03   -0.40506E-03   880   0.164E-01    0.382E-02
DAV:   3    -0.613407423962E+02    0.84170E-05   -0.53361E-05   560   0.193E-02
  16 F= -.61340742E+02 E0= -.61340742E+02  d E =-.123785E-02  mag=     0.0000
 ZBRENT: can't locate minimum, use default step
 trial-energy change:   -0.001238  1 .order   -0.001033   -0.001148   -0.000919
 step:  31.1912(harm= 39.1139)  dis= 0.01391  next Energy=   -61.342383 (dE=-0.288E-02)
 bond charge predicted
       N       E                     dE             d eps       ncg     rms          rms(c)
DAV:   1    -0.613393705994E+02    0.13802E-02   -0.77604E+00   864   0.510E+00    0.110E-01
DAV:   2    -0.613430166910E+02   -0.36461E-02   -0.37090E-02   880   0.495E-01    0.106E-01
DAV:   3    -0.613429558813E+02    0.60810E-04   -0.55335E-04   928   0.593E-02
  17 F= -.61342956E+02 E0= -.61342956E+02  d E =-.345134E-02  mag=     0.0000
 curvature: -26.21 expect dE=-0.102E-01 dE for cont linesearch -0.217E-03
 trial: gam= 0.00000 g(F)=  0.389E-03 g(S)=  0.000E+00 ort = 0.418E-04 (trialstep = 0.676E+01)
 search vector abs. value=  0.389E-03
 bond charge predicted
       N       E                     dE             d eps       ncg     rms          rms(c)
DAV:   1    -0.613440938796E+02   -0.10772E-02   -0.12021E+00   896   0.199E+00    0.591E-02
DAV:   2    -0.613446166762E+02   -0.52280E-03   -0.57377E-03   896   0.189E-01    0.434E-02
DAV:   3    -0.613446068679E+02    0.98083E-05   -0.91714E-05   560   0.234E-02
  18 F= -.61344607E+02 E0= -.61344607E+02  d E =-.165099E-02  mag=     0.0000
 trial-energy change:   -0.001651  1 .order   -0.001647   -0.002629   -0.000664
 step:   9.0500(harm=  9.0500)  dis= 0.00720  next Energy=   -61.344715 (dE=-0.176E-02)
 bond charge predicted
       N       E                     dE             d eps       ncg     rms          rms(c)
DAV:   1    -0.613447919022E+02   -0.17523E-03   -0.13925E-01   896   0.679E-01    0.272E-02
DAV:   2    -0.613448532337E+02   -0.61332E-04   -0.66891E-04   896   0.635E-02
  19 F= -.61344853E+02 E0= -.61344853E+02  d E =-.189735E-02  mag=     0.0000
 curvature:  -4.52 expect dE=-0.447E-03 dE for cont linesearch -0.280E-05
 trial: gam= 0.21448 g(F)=  0.989E-04 g(S)=  0.000E+00 ort = 0.155E-04 (trialstep = 0.722E+01)
 search vector abs. value=  0.123E-03
 reached required accuracy - stopping structural energy minimisation
Application 90972118 resources: utime ~20661s, stime ~128s, Rss ~94056, inblocks ~81671, outblocks ~151502
