   6   6   0   0
  0.8017942E+03  0.1688125E-08  0.1688125E-08  0.1688125E-08  0.1000000E-15
  1.000000000000000E-004
  CAR 
 unknown system                          
      0.78829882     -9.95573765  301     -4.31511850      1.00000000
     -9.956  0.0000E+00  0.0000E+00  0.0000E+00  0.0000E+00
     -9.920  0.0000E+00  0.0000E+00  0.0000E+00  0.0000E+00
     -9.884  0.0000E+00  0.0000E+00  0.0000E+00  0.0000E+00
     -9.848  0.0000E+00  0.0000E+00  0.0000E+00  0.0000E+00
     -9.812  0.0000E+00  0.0000E+00  0.0000E+00  0.0000E+00
     -9.777  0.0000E+00  0.0000E+00  0.0000E+00  0.0000E+00
     -9.741  0.0000E+00  0.0000E+00  0.0000E+00  0.0000E+00
     -9.705  0.0000E+00  0.0000E+00  0.0000E+00  0.0000E+00
     -9.669  0.0000E+00  0.0000E+00  0.0000E+00  0.0000E+00
     -9.633  0.0000E+00  0.0000E+00  0.0000E+00  0.0000E+00
     -9.598  0.0000E+00  0.0000E+00  0.0000E+00  0.0000E+00
     -9.562  0.0000E+00  0.0000E+00  0.0000E+00  0.0000E+00
     -9.526  0.0000E+00  0.0000E+00  0.0000E+00  0.0000E+00
     -9.490  0.0000E+00  0.0000E+00  0.0000E+00  0.0000E+00
     -9.454  0.0000E+00  0.0000E+00  0.1000E-02  0.1000E-02
     -9.419  0.0000E+00  0.0000E+00  0.1000E-02  0.1000E-02
     -9.383  0.0000E+00  0.0000E+00  0.1000E-02  0.1000E-02
     -9.347  0.0000E+00  0.0000E+00  0.1000E-02  0.1000E-02
     -9.311  0.0000E+00  0.0000E+00  0.1000E-02  0.1000E-02
     -9.275  0.0000E+00  0.0000E+00  0.1000E-02  0.1000E-02
     -9.239  0.0000E+00  0.0000E+00  0.1000E-02  0.1000E-02
     -9.204  0.0000E+00  0.0000E+00  0.1000E-02  0.1000E-02
     -9.168  0.0000E+00  0.0000E+00  0.1000E-02  0.1000E-02
     -9.132  0.0000E+00  0.0000E+00  0.1000E-02  0.1000E-02
     -9.096  0.0000E+00  0.0000E+00  0.1000E-02  0.1000E-02
     -9.060  0.0000E+00  0.0000E+00  0.2000E-02  0.2000E-02
     -9.025  0.0000E+00  0.0000E+00  0.2000E-02  0.2000E-02
     -8.989  0.0000E+00  0.0000E+00  0.2000E-02  0.2000E-02
     -8.953  0.0000E+00  0.0000E+00  0.2000E-02  0.2000E-02
     -8.917  0.0000E+00  0.0000E+00  0.2000E-02  0.2000E-02
     -8.881  0.0000E+00  0.0000E+00  0.2000E-02  0.2000E-02
     -8.846  0.0000E+00  0.0000E+00  0.3000E-02  0.3000E-02
     -8.810  0.0000E+00  0.0000E+00  0.3000E-02  0.3000E-02
     -8.774  0.0000E+00  0.0000E+00  0.3000E-02  0.3000E-02
     -8.738  0.0000E+00  0.0000E+00  0.3000E-02  0.3000E-02
     -8.702  0.0000E+00  0.0000E+00  0.3000E-02  0.3000E-02
     -8.666  0.0000E+00  0.0000E+00  0.3000E-02  0.3000E-02
     -8.631  0.0000E+00  0.0000E+00  0.3000E-02  0.3000E-02
     -8.595  0.0000E+00  0.0000E+00  0.3000E-02  0.3000E-02
     -8.559  0.0000E+00  0.0000E+00  0.3000E-02  0.3000E-02
     -8.523  0.0000E+00  0.0000E+00  0.3000E-02  0.3000E-02
     -8.487  0.0000E+00  0.0000E+00  0.3000E-02  0.3000E-02
     -8.452  0.0000E+00  0.0000E+00  0.3000E-02  0.3000E-02
     -8.416  0.0000E+00  0.0000E+00  0.4000E-02  0.4000E-02
     -8.380  0.0000E+00  0.0000E+00  0.4000E-02  0.4000E-02
     -8.344  0.0000E+00  0.0000E+00  0.6000E-02  0.6000E-02
     -8.308  0.0000E+00  0.0000E+00  0.6000E-02  0.6000E-02
     -8.273  0.0000E+00  0.0000E+00  0.8000E-02  0.8000E-02
     -8.237  0.0000E+00  0.0000E+00  0.8000E-02  0.8000E-02
     -8.201  0.0000E+00  0.0000E+00  0.8000E-02  0.8000E-02
     -8.165  0.0000E+00  0.0000E+00  0.8000E-02  0.8000E-02
     -8.129  0.0000E+00  0.0000E+00  0.8000E-02  0.8000E-02
     -8.093  0.0000E+00  0.0000E+00  0.8000E-02  0.8000E-02
     -8.058  0.0000E+00  0.0000E+00  0.8000E-02  0.8000E-02
     -8.022  0.0000E+00  0.0000E+00  0.8000E-02  0.8000E-02
     -7.986  0.0000E+00  0.0000E+00  0.8000E-02  0.8000E-02
     -7.950  0.0000E+00  0.0000E+00  0.8000E-02  0.8000E-02
     -7.914  0.0000E+00  0.0000E+00  0.8000E-02  0.8000E-02
     -7.879  0.0000E+00  0.0000E+00  0.9000E-02  0.9000E-02
     -7.843  0.0000E+00  0.0000E+00  0.9000E-02  0.9000E-02
     -7.807  0.0000E+00  0.0000E+00  0.9000E-02  0.9000E-02
     -7.771  0.0000E+00  0.0000E+00  0.1000E-01  0.1000E-01
     -7.735  0.0000E+00  0.0000E+00  0.1000E-01  0.1000E-01
     -7.699  0.0000E+00  0.0000E+00  0.1000E-01  0.1000E-01
     -7.664  0.0000E+00  0.0000E+00  0.1100E-01  0.1100E-01
     -7.628  0.0000E+00  0.0000E+00  0.1100E-01  0.1100E-01
     -7.592  0.0000E+00  0.0000E+00  0.1200E-01  0.1200E-01
     -7.556  0.0000E+00  0.0000E+00  0.1300E-01  0.1300E-01
     -7.520  0.0000E+00  0.0000E+00  0.1300E-01  0.1300E-01
     -7.485  0.0000E+00  0.0000E+00  0.1300E-01  0.1300E-01
     -7.449  0.0000E+00  0.0000E+00  0.1400E-01  0.1400E-01
     -7.413  0.0000E+00  0.0000E+00  0.1400E-01  0.1400E-01
     -7.377  0.0000E+00  0.0000E+00  0.1400E-01  0.1400E-01
     -7.341  0.0000E+00  0.0000E+00  0.1400E-01  0.1400E-01
     -7.306  0.0000E+00  0.0000E+00  0.1500E-01  0.1500E-01
     -7.270  0.0000E+00  0.0000E+00  0.1500E-01  0.1500E-01
     -7.234  0.0000E+00  0.0000E+00  0.1500E-01  0.1500E-01
     -7.198  0.0000E+00  0.0000E+00  0.1600E-01  0.1600E-01
     -7.162  0.0000E+00  0.0000E+00  0.1700E-01  0.1700E-01
     -7.126  0.0000E+00  0.0000E+00  0.1800E-01  0.1800E-01
     -7.091  0.0000E+00  0.0000E+00  0.1900E-01  0.1900E-01
     -7.055  0.0000E+00  0.0000E+00  0.1900E-01  0.1900E-01
     -7.019  0.0000E+00  0.0000E+00  0.2000E-01  0.2000E-01
     -6.983  0.0000E+00  0.0000E+00  0.2100E-01  0.2100E-01
     -6.947  0.0000E+00  0.0000E+00  0.2200E-01  0.2200E-01
     -6.912  0.0000E+00  0.0000E+00  0.2200E-01  0.2200E-01
     -6.876  0.0000E+00  0.0000E+00  0.2200E-01  0.2200E-01
     -6.840  0.0000E+00  0.0000E+00  0.2300E-01  0.2300E-01
     -6.804  0.0000E+00  0.0000E+00  0.2400E-01  0.2400E-01
     -6.768  0.0000E+00  0.0000E+00  0.2500E-01  0.2500E-01
     -6.733  0.0000E+00  0.0000E+00  0.2500E-01  0.2500E-01
     -6.697  0.0000E+00  0.0000E+00  0.2600E-01  0.2600E-01
     -6.661  0.0000E+00  0.0000E+00  0.2600E-01  0.2600E-01
     -6.625  0.0000E+00  0.0000E+00  0.2600E-01  0.2600E-01
     -6.589  0.0000E+00  0.0000E+00  0.2600E-01  0.2600E-01
     -6.553  0.0000E+00  0.0000E+00  0.2600E-01  0.2600E-01
     -6.518  0.0000E+00  0.0000E+00  0.2600E-01  0.2600E-01
     -6.482  0.0000E+00  0.0000E+00  0.2800E-01  0.2800E-01
     -6.446  0.0000E+00  0.0000E+00  0.2800E-01  0.2800E-01
     -6.410  0.0000E+00  0.0000E+00  0.2800E-01  0.2800E-01
     -6.374  0.0000E+00  0.0000E+00  0.2800E-01  0.2800E-01
     -6.339  0.0000E+00  0.0000E+00  0.2900E-01  0.2900E-01
     -6.303  0.0000E+00  0.0000E+00  0.3000E-01  0.3000E-01
     -6.267  0.0000E+00  0.0000E+00  0.3000E-01  0.3000E-01
     -6.231  0.0000E+00  0.0000E+00  0.3000E-01  0.3000E-01
     -6.195  0.0000E+00  0.0000E+00  0.3100E-01  0.3100E-01
     -6.160  0.0000E+00  0.0000E+00  0.3100E-01  0.3100E-01
     -6.124  0.0000E+00  0.0000E+00  0.3100E-01  0.3100E-01
     -6.088  0.0000E+00  0.0000E+00  0.3100E-01  0.3100E-01
     -6.052  0.0000E+00  0.0000E+00  0.3100E-01  0.3100E-01
     -6.016  0.0000E+00  0.0000E+00  0.3100E-01  0.3100E-01
     -5.980  0.0000E+00  0.0000E+00  0.3100E-01  0.3100E-01
     -5.945  0.0000E+00  0.0000E+00  0.3100E-01  0.3100E-01
     -5.909  0.0000E+00  0.0000E+00  0.3100E-01  0.3100E-01
     -5.873  0.0000E+00  0.0000E+00  0.3100E-01  0.3100E-01
     -5.837  0.0000E+00  0.0000E+00  0.3100E-01  0.3100E-01
     -5.801  0.0000E+00  0.0000E+00  0.3100E-01  0.3100E-01
     -5.766  0.0000E+00  0.0000E+00  0.3100E-01  0.3100E-01
     -5.730  0.0000E+00  0.0000E+00  0.3100E-01  0.3100E-01
     -5.694  0.0000E+00  0.0000E+00  0.3100E-01  0.3100E-01
     -5.658  0.0000E+00  0.0000E+00  0.3100E-01  0.3100E-01
     -5.622  0.0000E+00  0.0000E+00  0.3100E-01  0.3100E-01
     -5.586  0.0000E+00  0.0000E+00  0.3100E-01  0.3100E-01
     -5.551  0.0000E+00  0.0000E+00  0.3100E-01  0.3100E-01
     -5.515  0.0000E+00  0.0000E+00  0.3100E-01  0.3100E-01
     -5.479  0.0000E+00  0.0000E+00  0.3100E-01  0.3100E-01
     -5.443  0.0000E+00  0.0000E+00  0.3100E-01  0.3100E-01
     -5.407  0.0000E+00  0.0000E+00  0.3100E-01  0.3100E-01
     -5.372  0.0000E+00  0.0000E+00  0.3100E-01  0.3100E-01
     -5.336  0.0000E+00  0.0000E+00  0.3100E-01  0.3100E-01
     -5.300  0.0000E+00  0.0000E+00  0.3100E-01  0.3100E-01
     -5.264  0.0000E+00  0.0000E+00  0.3100E-01  0.3100E-01
     -5.228  0.0000E+00  0.0000E+00  0.3100E-01  0.3100E-01
     -5.193  0.0000E+00  0.0000E+00  0.3100E-01  0.3100E-01
     -5.157  0.0000E+00  0.0000E+00  0.3100E-01  0.3100E-01
     -5.121  0.0000E+00  0.0000E+00  0.3100E-01  0.3100E-01
     -5.085  0.0000E+00  0.0000E+00  0.3100E-01  0.3100E-01
     -5.049  0.0000E+00  0.0000E+00  0.3100E-01  0.3100E-01
     -5.013  0.0000E+00  0.0000E+00  0.3100E-01  0.3100E-01
     -4.978  0.0000E+00  0.0000E+00  0.3100E-01  0.3100E-01
     -4.942  0.0000E+00  0.0000E+00  0.3100E-01  0.3100E-01
     -4.906  0.0000E+00  0.0000E+00  0.3100E-01  0.3100E-01
     -4.870  0.0000E+00  0.0000E+00  0.3100E-01  0.3100E-01
     -4.834  0.0000E+00  0.0000E+00  0.3100E-01  0.3100E-01
     -4.799  0.0000E+00  0.0000E+00  0.3100E-01  0.3100E-01
     -4.763  0.0000E+00  0.0000E+00  0.3100E-01  0.3100E-01
     -4.727  0.0000E+00  0.0000E+00  0.3100E-01  0.3100E-01
     -4.691  0.0000E+00  0.0000E+00  0.3100E-01  0.3100E-01
     -4.655  0.0000E+00  0.0000E+00  0.3100E-01  0.3100E-01
     -4.620  0.0000E+00  0.0000E+00  0.3100E-01  0.3100E-01
     -4.584  0.0000E+00  0.0000E+00  0.3100E-01  0.3100E-01
     -4.548  0.0000E+00  0.0000E+00  0.3100E-01  0.3100E-01
     -4.512  0.0000E+00  0.0000E+00  0.3100E-01  0.3100E-01
     -4.476  0.0000E+00  0.0000E+00  0.3100E-01  0.3100E-01
     -4.440  0.2756E-01  0.2756E-01  0.3199E-01  0.3199E-01
     -4.405  0.0000E+00  0.0000E+00  0.3200E-01  0.3200E-01
     -4.369  0.0000E+00  0.0000E+00  0.3200E-01  0.3200E-01
     -4.333  0.0000E+00  0.0000E+00  0.3200E-01  0.3200E-01
     -4.297  0.0000E+00  0.0000E+00  0.3300E-01  0.3300E-01
     -4.261  0.0000E+00  0.0000E+00  0.3300E-01  0.3300E-01
     -4.226  0.0000E+00  0.0000E+00  0.3300E-01  0.3300E-01
     -4.190  0.0000E+00  0.0000E+00  0.3300E-01  0.3300E-01
     -4.154  0.0000E+00  0.0000E+00  0.3300E-01  0.3300E-01
     -4.118  0.0000E+00  0.0000E+00  0.3300E-01  0.3300E-01
     -4.082  0.0000E+00  0.0000E+00  0.3300E-01  0.3300E-01
     -4.047  0.0000E+00  0.0000E+00  0.3300E-01  0.3300E-01
     -4.011  0.0000E+00  0.0000E+00  0.3300E-01  0.3300E-01
     -3.975  0.0000E+00  0.0000E+00  0.3300E-01  0.3300E-01
     -3.939  0.0000E+00  0.0000E+00  0.3300E-01  0.3300E-01
     -3.903  0.0000E+00  0.0000E+00  0.3300E-01  0.3300E-01
     -3.867  0.0000E+00  0.0000E+00  0.3300E-01  0.3300E-01
     -3.832  0.0000E+00  0.0000E+00  0.3300E-01  0.3300E-01
     -3.796  0.0000E+00  0.0000E+00  0.3300E-01  0.3300E-01
     -3.760  0.0000E+00  0.0000E+00  0.3300E-01  0.3300E-01
     -3.724  0.0000E+00  0.0000E+00  0.3300E-01  0.3300E-01
     -3.688  0.0000E+00  0.0000E+00  0.3300E-01  0.3300E-01
     -3.653  0.0000E+00  0.0000E+00  0.3300E-01  0.3300E-01
     -3.617  0.0000E+00  0.0000E+00  0.3400E-01  0.3400E-01
     -3.581  0.0000E+00  0.0000E+00  0.3400E-01  0.3400E-01
     -3.545  0.0000E+00  0.0000E+00  0.3400E-01  0.3400E-01
     -3.509  0.0000E+00  0.0000E+00  0.3400E-01  0.3400E-01
     -3.474  0.0000E+00  0.0000E+00  0.3400E-01  0.3400E-01
     -3.438  0.0000E+00  0.0000E+00  0.3400E-01  0.3400E-01
     -3.402  0.0000E+00  0.0000E+00  0.3400E-01  0.3400E-01
     -3.366  0.0000E+00  0.0000E+00  0.3400E-01  0.3400E-01
     -3.330  0.0000E+00  0.0000E+00  0.3400E-01  0.3400E-01
     -3.294  0.0000E+00  0.0000E+00  0.3400E-01  0.3400E-01
     -3.259  0.0000E+00  0.0000E+00  0.3400E-01  0.3400E-01
     -3.223  0.0000E+00  0.0000E+00  0.3400E-01  0.3400E-01
     -3.187  0.0000E+00  0.0000E+00  0.3400E-01  0.3400E-01
     -3.151  0.0000E+00  0.0000E+00  0.3400E-01  0.3400E-01
     -3.115  0.0000E+00  0.0000E+00  0.3400E-01  0.3400E-01
     -3.080  0.0000E+00  0.0000E+00  0.3400E-01  0.3400E-01
     -3.044  0.0000E+00  0.0000E+00  0.3400E-01  0.3400E-01
     -3.008  0.0000E+00  0.0000E+00  0.3400E-01  0.3400E-01
     -2.972  0.0000E+00  0.0000E+00  0.3400E-01  0.3400E-01
     -2.936  0.0000E+00  0.0000E+00  0.3400E-01  0.3400E-01
     -2.900  0.0000E+00  0.0000E+00  0.3400E-01  0.3400E-01
     -2.865  0.0000E+00  0.0000E+00  0.3400E-01  0.3400E-01
     -2.829  0.0000E+00  0.0000E+00  0.3400E-01  0.3400E-01
     -2.793  0.0000E+00  0.0000E+00  0.3400E-01  0.3400E-01
     -2.757  0.0000E+00  0.0000E+00  0.3400E-01  0.3400E-01
     -2.721  0.0000E+00  0.0000E+00  0.3500E-01  0.3500E-01
     -2.686  0.0000E+00  0.0000E+00  0.3500E-01  0.3500E-01
     -2.650  0.0000E+00  0.0000E+00  0.3500E-01  0.3500E-01
     -2.614  0.0000E+00  0.0000E+00  0.3500E-01  0.3500E-01
     -2.578  0.0000E+00  0.0000E+00  0.3500E-01  0.3500E-01
     -2.542  0.0000E+00  0.0000E+00  0.3500E-01  0.3500E-01
     -2.507  0.0000E+00  0.0000E+00  0.3500E-01  0.3500E-01
     -2.471  0.0000E+00  0.0000E+00  0.3500E-01  0.3500E-01
     -2.435  0.0000E+00  0.0000E+00  0.3500E-01  0.3500E-01
     -2.399  0.0000E+00  0.0000E+00  0.3500E-01  0.3500E-01
     -2.363  0.0000E+00  0.0000E+00  0.3500E-01  0.3500E-01
     -2.327  0.0000E+00  0.0000E+00  0.3500E-01  0.3500E-01
     -2.292  0.0000E+00  0.0000E+00  0.3500E-01  0.3500E-01
     -2.256  0.0000E+00  0.0000E+00  0.3500E-01  0.3500E-01
     -2.220  0.0000E+00  0.0000E+00  0.3600E-01  0.3600E-01
     -2.184  0.0000E+00  0.0000E+00  0.3600E-01  0.3600E-01
     -2.148  0.0000E+00  0.0000E+00  0.3600E-01  0.3600E-01
     -2.113  0.0000E+00  0.0000E+00  0.3600E-01  0.3600E-01
     -2.077  0.0000E+00  0.0000E+00  0.3600E-01  0.3600E-01
     -2.041  0.0000E+00  0.0000E+00  0.3600E-01  0.3600E-01
     -2.005  0.0000E+00  0.0000E+00  0.3600E-01  0.3600E-01
     -1.969  0.0000E+00  0.0000E+00  0.3600E-01  0.3600E-01
     -1.934  0.0000E+00  0.0000E+00  0.3600E-01  0.3600E-01
     -1.898  0.0000E+00  0.0000E+00  0.3600E-01  0.3600E-01
     -1.862  0.0000E+00  0.0000E+00  0.3600E-01  0.3600E-01
     -1.826  0.0000E+00  0.0000E+00  0.3600E-01  0.3600E-01
     -1.790  0.0000E+00  0.0000E+00  0.3600E-01  0.3600E-01
     -1.754  0.0000E+00  0.0000E+00  0.3600E-01  0.3600E-01
     -1.719  0.0000E+00  0.0000E+00  0.3600E-01  0.3600E-01
     -1.683  0.0000E+00  0.0000E+00  0.3600E-01  0.3600E-01
     -1.647  0.0000E+00  0.0000E+00  0.3600E-01  0.3600E-01
     -1.611  0.0000E+00  0.0000E+00  0.3600E-01  0.3600E-01
     -1.575  0.0000E+00  0.0000E+00  0.3600E-01  0.3600E-01
     -1.540  0.0000E+00  0.0000E+00  0.3600E-01  0.3600E-01
     -1.504  0.0000E+00  0.0000E+00  0.3600E-01  0.3600E-01
     -1.468  0.0000E+00  0.0000E+00  0.3600E-01  0.3600E-01
     -1.432  0.0000E+00  0.0000E+00  0.3600E-01  0.3600E-01
     -1.396  0.0000E+00  0.0000E+00  0.3600E-01  0.3600E-01
     -1.361  0.0000E+00  0.0000E+00  0.3600E-01  0.3600E-01
     -1.325  0.0000E+00  0.0000E+00  0.3600E-01  0.3600E-01
     -1.289  0.0000E+00  0.0000E+00  0.3600E-01  0.3600E-01
     -1.253  0.0000E+00  0.0000E+00  0.3600E-01  0.3600E-01
     -1.217  0.0000E+00  0.0000E+00  0.3600E-01  0.3600E-01
     -1.181  0.0000E+00  0.0000E+00  0.3600E-01  0.3600E-01
     -1.146  0.0000E+00  0.0000E+00  0.3600E-01  0.3600E-01
     -1.110  0.0000E+00  0.0000E+00  0.3600E-01  0.3600E-01
     -1.074  0.0000E+00  0.0000E+00  0.3600E-01  0.3600E-01
     -1.038  0.0000E+00  0.0000E+00  0.3700E-01  0.3700E-01
     -1.002  0.0000E+00  0.0000E+00  0.3700E-01  0.3700E-01
     -0.967  0.0000E+00  0.0000E+00  0.3800E-01  0.3800E-01
     -0.931  0.0000E+00  0.0000E+00  0.3800E-01  0.3800E-01
     -0.895  0.0000E+00  0.0000E+00  0.3900E-01  0.3900E-01
     -0.859  0.0000E+00  0.0000E+00  0.3900E-01  0.3900E-01
     -0.823  0.0000E+00  0.0000E+00  0.3900E-01  0.3900E-01
     -0.787  0.0000E+00  0.0000E+00  0.4000E-01  0.4000E-01
     -0.752  0.0000E+00  0.0000E+00  0.4000E-01  0.4000E-01
     -0.716  0.0000E+00  0.0000E+00  0.4000E-01  0.4000E-01
     -0.680  0.0000E+00  0.0000E+00  0.4000E-01  0.4000E-01
     -0.644  0.0000E+00  0.0000E+00  0.4000E-01  0.4000E-01
     -0.608  0.0000E+00  0.0000E+00  0.4000E-01  0.4000E-01
     -0.573  0.0000E+00  0.0000E+00  0.4000E-01  0.4000E-01
     -0.537  0.0000E+00  0.0000E+00  0.4100E-01  0.4100E-01
     -0.501  0.0000E+00  0.0000E+00  0.4100E-01  0.4100E-01
     -0.465  0.0000E+00  0.0000E+00  0.4100E-01  0.4100E-01
     -0.429  0.0000E+00  0.0000E+00  0.4100E-01  0.4100E-01
     -0.394  0.0000E+00  0.0000E+00  0.4100E-01  0.4100E-01
     -0.358  0.0000E+00  0.0000E+00  0.4200E-01  0.4200E-01
     -0.322  0.0000E+00  0.0000E+00  0.4200E-01  0.4200E-01
     -0.286  0.0000E+00  0.0000E+00  0.4200E-01  0.4200E-01
     -0.250  0.0000E+00  0.0000E+00  0.4200E-01  0.4200E-01
     -0.214  0.0000E+00  0.0000E+00  0.4200E-01  0.4200E-01
     -0.179  0.0000E+00  0.0000E+00  0.4200E-01  0.4200E-01
     -0.143  0.0000E+00  0.0000E+00  0.4200E-01  0.4200E-01
     -0.107  0.0000E+00  0.0000E+00  0.4200E-01  0.4200E-01
     -0.071  0.0000E+00  0.0000E+00  0.4200E-01  0.4200E-01
     -0.035  0.0000E+00  0.0000E+00  0.4200E-01  0.4200E-01
      0.000  0.0000E+00  0.0000E+00  0.4200E-01  0.4200E-01
      0.036  0.0000E+00  0.0000E+00  0.4200E-01  0.4200E-01
      0.072  0.0000E+00  0.0000E+00  0.4200E-01  0.4200E-01
      0.108  0.0000E+00  0.0000E+00  0.4200E-01  0.4200E-01
      0.144  0.0000E+00  0.0000E+00  0.4200E-01  0.4200E-01
      0.179  0.0000E+00  0.0000E+00  0.4200E-01  0.4200E-01
      0.215  0.0000E+00  0.0000E+00  0.4300E-01  0.4300E-01
      0.251  0.0000E+00  0.0000E+00  0.4300E-01  0.4300E-01
      0.287  0.0000E+00  0.0000E+00  0.4300E-01  0.4300E-01
      0.323  0.0000E+00  0.0000E+00  0.4400E-01  0.4400E-01
      0.359  0.0000E+00  0.0000E+00  0.4400E-01  0.4400E-01
      0.394  0.0000E+00  0.0000E+00  0.4400E-01  0.4400E-01
      0.430  0.0000E+00  0.0000E+00  0.4400E-01  0.4400E-01
      0.466  0.0000E+00  0.0000E+00  0.4400E-01  0.4400E-01
      0.502  0.0000E+00  0.0000E+00  0.4400E-01  0.4400E-01
      0.538  0.0000E+00  0.0000E+00  0.4400E-01  0.4400E-01
      0.573  0.0000E+00  0.0000E+00  0.4400E-01  0.4400E-01
      0.609  0.0000E+00  0.0000E+00  0.4400E-01  0.4400E-01
      0.645  0.0000E+00  0.0000E+00  0.4400E-01  0.4400E-01
      0.681  0.0000E+00  0.0000E+00  0.4400E-01  0.4400E-01
      0.717  0.0000E+00  0.0000E+00  0.4400E-01  0.4400E-01
      0.752  0.0000E+00  0.0000E+00  0.4400E-01  0.4400E-01
      0.788  0.0000E+00  0.0000E+00  0.4400E-01  0.4400E-01
