15
Energy = -9.6938327 eV
Mg 15.660255211145952 17.48820738998032 15.741316883216998
Mg 15.535832266885897 14.53093681346807 14.327293511495377
Mg 13.815581744373862 11.979705616999047 9.962119039877365
Mg 14.220551613941858 14.495084875630223 11.615236890169161
Mg 13.328250317171374 9.455322880145015 11.45515311906183
Mg 13.248844057312205 12.742126487288731 15.32135615774894
Mg 14.806403286465002 11.80254798458957 12.861771274529264
Mg 13.790780337572372 16.899270961721022 13.336902991102008
Mg 13.217992366522827 15.680738074174041 16.125512166762423
Mg 12.950935471023225 9.870035393151946 14.412698468812964
Mg 10.568145074293746 9.04268010769171 12.634288002233017
Mg 11.101956669348459 11.961963271853971 13.240055825829643
Mg 11.40212672186672 13.7385487470265 10.86934461921393
Mg 11.57328302813803 14.846437253009395 13.666276439379775
Mg 10.924855286189452 10.819525701171246 10.256465099513681
