15
Energy = -9.51488321 eV
Mg 15.885130949130668 12.587305731435045 12.012055954208506
Mg 18.37550496899149 12.162740393997641 13.535915812138224
Mg 11.332076851678773 11.12695393151846 12.656836389170953
Mg 12.994051259623863 13.423058469855965 11.68581440445572
Mg 13.83454976796414 11.967773341158306 14.244048669423762
Mg 17.450930714901055 14.987395957715178 13.22766266387336
Mg 15.190342746700093 15.493199504479453 11.306389506172026
Mg 12.342150360565128 16.307017208590647 12.513089819468345
Mg 10.954876572888624 12.587558214388961 15.449049397413292
Mg 8.583363343982144 11.76748235202446 13.568437914955396
Mg 10.239833667287861 14.176517174548117 12.840610638891567
Mg 14.49312513019416 15.136041266554136 14.260299731850473
Mg 16.43512742339753 13.248334942296022 15.588707899549295
Mg 13.509698466490383 13.724199751968296 16.700621852977857
Mg 11.516325787233223 15.537312815965864 15.313685131696696
