29
Energy = -24.3576825 eV
Mg 15.096928261667127 18.98757853812956 15.507019871116398
Mg 14.554406350997889 17.967080718704686 12.637770072544644
Mg 16.792661142429264 16.761218482688907 14.49744528892234
Mg 13.388544483328001 17.938143035947064 17.690165081234085
Mg 15.949247806656855 16.851947577588007 17.353710129746595
Mg 12.670484622510893 17.50811532685231 14.898702224603568
Mg 16.779593306765065 16.394754051694502 11.587881549850643
Mg 11.90054460780481 16.8411220012322 12.151076294107233
Mg 14.41172394233004 14.689935089516945 13.373046368560036
Mg 16.379611396375253 14.25537964074656 16.064001569393007
Mg 13.404625575866586 14.984501224346731 16.54470855536487
Mg 14.02052136463164 15.76652814465544 10.441100999669924
Mg 17.58534525679649 14.057492441076993 13.19927304722011
Mg 16.3870725393407 13.893301767106282 10.418859554442973
Mg 11.495311096082721 14.134583799758147 11.371477411433151
Mg 16.66731538676617 11.703422890339594 14.859924055046736
Mg 13.766799385369021 12.67659357826261 10.406956561908498
Mg 16.043203579910006 11.5423605788918 12.09725616899928
Mg 12.839515051520138 12.119953069452128 13.49175992946402
Mg 11.314745395152315 14.968613828005848 14.324516988025643
Mg 9.657987634631944 12.926736810014054 13.295320592924204
Mg 14.20639602335679 12.090695098374297 16.346185130169683
Mg 11.005978399500366 11.02916049710715 11.40644145574053
Mg 14.689475660337564 9.68569369942791 14.152012322517063
Mg 13.787099145250528 9.915667498932834 11.277948992544992
Mg 11.146668451466924 12.571067706062449 16.064853326846084
Mg 12.316277301421858 9.837207771537258 15.948429095440693
Mg 9.880154325078472 10.350154457037865 14.424463583260042
Mg 12.014066170018753 8.777104620093965 13.272269049754215
