26
Energy = -21.77113306 eV
Mg 16.29748213361088 12.628443106536876 12.744973583403372
Mg 6.979286386130406 14.528722537417357 12.318973238749576
Mg 14.19043645458573 12.431517338289156 15.116072058946358
Mg 14.069154796938895 11.081509855022 8.639629515259527
Mg 15.253894893519947 9.850814150891642 13.852529680779993
Mg 9.159176386870218 14.316894858600227 10.190535360574339
Mg 11.870217291212953 14.21461595809995 14.396465104954823
Mg 11.823460384568072 12.774567601453855 9.441122216466146
Mg 11.759253581960829 9.73083457793842 10.093049556631907
Mg 9.6108640895823 15.807229728853597 12.95696270391786
Mg 14.490544528323122 14.918721224651263 13.239191831298228
Mg 17.639955883810796 9.77957380319651 12.029157923739598
Mg 13.295584000500071 9.586042819015114 16.034791794715932
Mg 14.773878345122432 9.166150562816128 10.897725407104074
Mg 11.312087571341438 11.184956554383515 14.566010306649058
Mg 12.549746356242167 8.753686973204054 12.99414399567849
Mg 8.780888309346835 13.365680596948412 14.513298263699463
Mg 10.439792073321144 12.518288290572416 12.105534320211424
Mg 12.174097568698407 15.090883786135521 11.429688536006491
Mg 9.790574421429689 9.448035736377976 12.274732245009712
Mg 7.488711257702376 11.556385681941194 12.309364462027647
Mg 14.709400570184732 13.84971294152727 10.300371882127711
Mg 9.052604387324386 11.176491039531587 9.66862584267119
Mg 6.492823567612901 12.885670619168481 9.862178640432568
Mg 16.635629416628987 11.569711486126698 9.891225533887994
Mg 13.321258146664434 11.745660974534584 12.09444879829015
