24
Energy = -19.73704367 eV
Mg 12.138684873355665 12.225408366554007 11.80529619546689
Mg 9.803841764361449 8.793131282442198 14.91052905256481
Mg 11.26252588055465 12.665057017978237 8.759906710190377
Mg 12.365484653105204 9.284843193422375 12.701093267663328
Mg 14.538400484274492 10.813926022890248 14.17066240104538
Mg 13.705089657152904 14.783543803657665 10.958632108509931
Mg 9.43965031995749 10.769456509144645 12.591547853242501
Mg 12.765355318591487 8.676555179447284 15.745424039409492
Mg 11.457348119409097 6.54704633361936 13.980799852222606
Mg 15.692063986209428 12.599267281024545 12.036182660504986
Mg 11.579323538064202 11.507755551876278 14.799149790826586
Mg 10.904251663757211 15.633474554333493 9.589414812694459
Mg 9.171914088553956 13.365480583228184 13.961079267072227
Mg 14.251441687922542 12.193423493993519 9.349886155640828
Mg 11.160370925716656 15.201647257516386 12.562205393083861
Mg 12.150402516278932 9.892089742503694 9.77104936840553
Mg 13.38310260696423 14.764080618300177 7.9048578458523435
Mg 13.258177211752589 17.490260926396278 9.073912121995715
Mg 9.245833107978127 13.35731428228003 10.925177683434104
Mg 11.338946851074315 14.505114156081065 15.592882932524182
Mg 14.885562985437184 9.909007261778987 11.225665245391708
Mg 9.222623629265492 10.554584373495056 9.61127463227418
Mg 9.968768165922572 8.083237016191234 11.427831530014965
Mg 13.689332242066651 13.7627914695721 13.92403535769623
