24
Energy = -18.72832905 eV
Mg 9.831096577732287 12.733827864683066 17.09130601996512
Mg 15.953631064800431 12.51844061451608 11.989190089871768
Mg 16.986337276030337 14.41714512090262 9.85745712040851
Mg 11.897270817894581 11.491194326581292 15.201216690182788
Mg 15.237709791291493 16.793926637807843 9.70022994205245
Mg 13.577642882377017 9.638647824678252 16.914413494213658
Mg 15.256444349421285 15.7268087336714 12.643193323047946
Mg 17.817616104024616 16.91876498341487 11.33938667571664
Mg 14.76218587270281 12.626207466223951 16.83332154129661
Mg 9.877308244039718 16.38411901855358 12.595288079255958
Mg 10.171627704842749 13.997801040367237 14.417840401640325
Mg 14.808514021508364 10.817615048567767 14.346156359158162
Mg 16.882061616131477 13.228553714765754 14.798893220496112
Mg 18.645616023453247 14.111444349462984 12.415871353258398
Mg 12.34511652551912 12.021934106270628 18.532647602675205
Mg 13.951948811118484 14.045691850591844 10.319020521863486
Mg 11.185166694417997 13.93240791700839 11.541566155391468
Mg 12.566169323863427 16.30070199700508 14.0667848931682
Mg 10.653193594155736 9.793511463396737 17.594035694381354
Mg 12.466320074778334 16.698765955735734 10.931030118998079
Mg 17.667487912518872 16.19956789939465 14.343735876410266
Mg 12.288708749440206 14.456998163994172 16.60189109638755
Mg 15.02006226295744 15.458485603452223 15.72707592482073
Mg 13.49476206238914 13.446520844595737 13.592244807214243
