28
Energy = -24.79040069 eV
Mg 14.944514895750387 11.820332108902987 8.520338274961665
Mg 12.388699216987446 12.267104876044051 6.944298305019362
Mg 10.310551692359828 11.23393939569105 8.960705848692648
Mg 10.427015851841519 14.247559305483076 7.950976451016421
Mg 12.75238517167824 9.572203336748995 8.306006693321164
Mg 8.12074501015747 13.13260237774718 9.7800704872635
Mg 15.644572766355648 13.773718441350251 10.753134634181455
Mg 7.789523912184926 10.025980548884352 10.36689003606789
Mg 15.609362512164875 8.94288375146736 8.996773999415385
Mg 13.199326612514042 14.46158480810647 9.05652942894681
Mg 10.610250707992666 8.503649741230296 10.302032039962002
Mg 5.908085111265885 12.171599869958225 11.389616637262876
Mg 15.720308511252991 10.818367838195005 11.418546243739817
Mg 12.81623636544486 11.777234930641589 10.77486558824601
Mg 13.469992470062385 8.554968188209216 11.083841240801501
Mg 10.75391471677026 13.971379327729728 10.99757273263715
Mg 14.887456259915943 13.009175427678283 13.52845874134628
Mg 10.236696532685778 10.936830359468242 12.285315760506968
Mg 7.295872233070895 10.566505546915696 13.493027925223057
Mg 13.312672039076993 15.021864838298153 12.075842988916568
Mg 8.509109233107514 8.027784620339368 12.498538412513659
Mg 8.352352611173947 13.452507243430203 12.892578500025243
Mg 11.397321214407071 8.155896000234666 13.421495236005146
Mg 13.40021054987136 10.459600129270651 13.41624515108491
Mg 11.744175589558187 13.136838217003062 13.88028833866117
Mg 9.168210471273074 12.056266883901678 15.351739549327611
Mg 9.11543044204954 8.93093441199301 15.288857276705574
Mg 11.584313332790828 10.439993508842045 15.734719511914024
