34
Energy = -32.12236422 eV
Mg 10.449946920383008 12.134174464985946 9.651502730765278
Mg 7.34082624165763 12.253162887592264 12.48125585525251
Mg 9.970471337917571 15.487335269859827 9.415571724523371
Mg 12.102654242117113 14.033301139896345 14.201590806423669
Mg 13.39234861062549 9.488248912847576 13.064670771807558
Mg 12.406179987183082 15.314841911197478 11.192201335902677
Mg 9.777350094946954 14.071986958013374 12.137569728351933
Mg 7.77864303454336 13.41825422788139 9.70130349868113
Mg 11.829547242381652 11.037771679680048 15.179786575625208
Mg 14.48680308967296 12.08422040707298 14.430895610852648
Mg 11.550023528601706 9.479349739783055 10.436749278074366
Mg 13.87192174954803 6.215829004817611 9.106479847761365
Mg 11.23393518635961 11.307983950821095 6.814169626054801
Mg 7.668244946402986 9.060540279111512 13.187577327654642
Mg 8.196764910116643 11.352716138878264 7.373366637045984
Mg 14.536090558424709 8.874511247415231 10.264208166112372
Mg 15.414155021417063 11.530882353395652 11.476263442837425
Mg 12.398348291921108 6.825090102677793 11.718620605612127
Mg 9.183302338535785 9.805224859659665 15.80598945304034
Mg 12.56151720645572 12.264412470618574 11.745931837207506
Mg 10.987749287297737 6.378562987168414 8.980476415099753
Mg 9.275184756430525 7.5396971031493045 11.148674851383726
Mg 10.066318114311086 10.880346737174396 12.620382264150663
Mg 9.626027508231015 8.867126251488642 8.046060808540052
Mg 12.672253619262557 8.685473143536425 7.671292766281192
Mg 10.72080371102687 8.151571922125736 13.83157210681953
Mg 6.710240338217666 11.163622579330374 15.183901817282365
Mg 14.9159489610997 14.483763415688458 12.791989796201227
Mg 9.487669999146755 13.949639313674378 6.9486549260228605
Mg 13.608689062776376 11.404975565397168 8.82555085837221
Mg 12.32913511231267 14.1021277186339 8.157232147857036
Mg 9.33755942793007 12.805324913342083 14.930325401058143
Mg 8.005319176238123 10.203626554572203 10.266881422008781
Mg 14.7916597105122 14.027937112518682 9.894932883340127
