31
Energy = -26.21657132 eV
Mg 10.161544794091057 20.29707870444105 15.16351077715382
Mg 15.186078440349377 12.874670821121212 11.050346145221443
Mg 14.69726759554255 14.896132351609195 19.079511589368703
Mg 17.606709668711886 11.93300116619248 12.798919302733474
Mg 12.947693469839592 19.32708051944773 14.206989478815975
Mg 10.992752355000432 15.998819912228111 12.187958290495319
Mg 13.768227403891425 10.676670407290443 12.608049293326662
Mg 16.156070648988045 10.032256831579492 10.818180536231703
Mg 16.756744228036865 17.350399750248997 18.434166690173868
Mg 17.724396709266138 16.920564691941678 15.410523805753234
Mg 16.90619405379852 15.235901936185794 12.814304424844694
Mg 17.481098547394804 10.812009134854577 15.678711123014489
Mg 17.97924405270118 13.768432054738454 15.33297450771316
Mg 12.900372956364341 18.325085464260706 11.418441651090747
Mg 12.358970508634577 13.391474629695141 12.843383215538825
Mg 14.925098790741929 18.36074402819141 16.224687738753076
Mg 11.983909241655343 19.116383275181093 17.188004719746313
Mg 15.354710737282474 15.327860465675615 16.180873737199626
Mg 10.21837602402245 18.835805930658115 12.597455657269057
Mg 15.744879250775059 12.507776192137069 17.49177371503365
Mg 13.92871273983875 17.915908729163323 19.14138371828061
Mg 14.167238853871812 15.622115799577585 11.492548394760318
Mg 12.39196075832871 16.094851517494448 17.349031526052183
Mg 10.468522855830802 17.209877078018124 15.180471638024244
Mg 14.386713303141972 10.500054619071642 15.640040285511414
Mg 17.75339558112256 14.669508655614075 18.190658914582
Mg 13.15504625356507 16.1054841239596 14.351036927762165
Mg 13.026635547248997 13.315074507583466 16.213849129971287
Mg 15.185718533971967 13.025132781329905 14.154657309760365
Mg 15.503284752832235 17.876088150585108 13.215262305898356
Mg 16.243550358730577 9.14918069894269 13.60479516356978
