32
Energy = -27.55362649 eV
Mg 14.819205063623098 17.02800835123097 16.748059798678625
Mg 14.539376444592861 14.17330632274961 17.778084262717293
Mg 12.030341619607473 16.06119634473999 17.105185715245504
Mg 17.141241478646773 15.228737032576246 16.602712088504205
Mg 11.741869290051586 13.204630883517437 18.08467654384972
Mg 16.29710295484609 12.315974326904964 16.19651499729107
Mg 12.995339067865938 17.284504043603782 14.38363302397149
Mg 13.599650009002463 11.219751705352461 16.991217363793705
Mg 12.117905712673918 13.792281162087088 14.77033110183354
Mg 17.609554993362313 13.95658166479559 13.88318412488303
Mg 15.246131671759848 9.668580955246036 15.08535716257304
Mg 10.066125768839203 16.793295655199085 14.895530234652208
Mg 17.519392429348223 10.938729637164865 13.779712780557029
Mg 9.459653678570815 14.242210610474437 16.514628167043774
Mg 15.896592941403181 16.500904613108837 14.024078817273535
Mg 10.658444797109677 11.241464077709914 16.10266368083318
Mg 7.86749812141973 11.965569399104268 15.166865142685172
Mg 8.966728388874099 14.279840273450759 13.552952006040826
Mg 11.247647746927246 15.889746781016763 12.289086245105986
Mg 14.562565885460877 13.469950060878782 12.930114712610084
Mg 14.04536591869713 16.742112322451742 11.585395544668284
Mg 17.280724127812714 12.407622297871079 11.24014124318733
Mg 16.631463964333534 15.325360308002645 11.271835123178409
Mg 15.076743211636416 10.318156820314014 12.019336867166789
Mg 12.786757529164444 10.785476089727084 14.011316105784191
Mg 9.977929755222414 11.269930310346846 13.114077401112144
Mg 10.08979598979804 13.327507695208311 10.970218011017497
Mg 17.30828993027415 13.952697895660528 8.544760394948522
Mg 12.30512560637695 11.287422626941712 11.061602256357615
Mg 12.773829849481531 14.32177221431328 10.294811329157671
Mg 14.893242581384506 15.554246343543879 8.659320878656418
Mg 14.810708065697701 12.349384468574925 9.573571225035268
