31
Energy = -27.47327858 eV
Mg 10.557897844180532 13.922730381477555 14.257485723094598
Mg 15.003369339012607 13.662697117967191 18.600391056998838
Mg 11.290805185415675 18.62503868870673 14.337855088866855
Mg 15.274313710828508 17.3062002053232 12.07880494211127
Mg 10.986215114048987 16.178071434262996 16.15852327115459
Mg 17.912093449794323 10.940767030324453 15.758551612767574
Mg 15.84348647242097 16.481684742770884 17.98640647305354
Mg 12.3457069395971 13.45531511602298 16.63056652301084
Mg 19.535720417730086 13.258803604956727 14.475082539066264
Mg 11.689596364339785 13.804297412904296 11.555229310985464
Mg 10.306398787848853 16.638612831187675 12.125973660037644
Mg 20.50923897742749 14.843307318316647 17.00933068511822
Mg 12.459572371155073 18.791770174006494 11.60620739203775
Mg 13.608698381170528 17.745400572345563 16.241193622443536
Mg 16.517443840849086 17.522830401156636 15.043382512395063
Mg 17.396802985065367 14.151431317316042 16.251042053636798
Mg 12.928648832544393 15.821534688027088 18.432662606283248
Mg 17.231676471805898 15.20669861412356 13.161286928664511
Mg 15.001588649135934 11.717969546428849 16.277784172322182
Mg 18.114575883510284 14.48158330891485 19.048166277290346
Mg 19.845530322008393 12.155099236680865 17.742553857152487
Mg 17.043021464446475 11.534978844543783 18.514219121736893
Mg 14.762486130734304 14.850732305025124 15.362228596426029
Mg 12.873849278483624 16.055059554354607 13.577434737695084
Mg 13.25893614822771 12.529241080893472 13.821860314931916
Mg 14.773290081849211 14.190920691138565 11.788964480569271
Mg 14.252019730633844 19.441471485976926 13.896606212255593
Mg 12.921626357404072 16.221076721594226 10.335990627135748
Mg 16.365366276356827 12.403109686486983 13.644694742338217
Mg 18.608935974752505 17.168919884815736 17.344377662587753
Mg 19.475874075491152 16.414860890174726 14.646520479757179
