35
Energy = -31.6969081 eV
Mg 9.398982785404385 15.055156806959372 17.67157025486299
Mg 20.69008942348728 12.462777525722059 16.03541035608908
Mg 10.04328822911699 12.273023577776328 16.92341138642606
Mg 12.764003477701843 11.263881918874423 17.050515749531307
Mg 18.379822484865777 15.45384790891516 11.268741332122548
Mg 14.113655573757445 15.761324826563948 18.585650684386707
Mg 17.643653557307573 13.100832980585473 16.010690790843874
Mg 15.228139960181679 15.430957434666826 15.528530117497281
Mg 15.770468466443923 18.39893497742226 14.511513112839081
Mg 17.116437057294966 15.192430908196163 18.139446017319436
Mg 9.12960237104118 14.243042601379575 14.812021265549275
Mg 14.98542109658752 12.972379753475728 17.935066621568964
Mg 18.057257249384506 16.093659045233323 14.952034994971976
Mg 11.331336209608374 16.97596332095014 18.49377690663429
Mg 12.39632877128074 14.720371738008911 16.060206130106902
Mg 11.614396205463589 12.445246760001206 14.268907345935125
Mg 13.658403494489443 18.672826088685625 19.170962823967088
Mg 21.05815669578905 15.496689468425554 15.703201256179202
Mg 15.798009217510764 16.444506567037777 12.288569218422188
Mg 19.613239138088552 13.708753101299157 13.538383425202168
Mg 18.104710241809506 19.68001515133156 15.889283289711287
Mg 10.817766635380895 15.298091107786092 12.722205331391903
Mg 10.428388485113361 16.948059442668452 15.347183778919549
Mg 19.85000696318643 14.301103843800247 18.163487716960127
Mg 13.643637155816988 14.28951488292678 12.909157454968604
Mg 13.221807265403 17.877865839526166 16.29739119602139
Mg 16.68658207534851 13.678443867003647 13.117678723988776
Mg 20.521467320564042 18.43260572643217 14.973525540637363
Mg 19.262600575607944 17.308322102054696 17.570243777150086
Mg 16.237883575180643 17.992674792620427 17.497870608771777
Mg 14.658267803371746 12.332290111254661 15.00341075876922
Mg 12.976610756535285 17.184375607476973 13.439824079568282
Mg 20.671472966743096 16.431089340283112 12.787935763312696
Mg 18.2866507997147 18.295116200659347 12.773501256503126
Mg 11.966134652019111 13.626301636845763 18.897271139527785
