39
Energy = -36.47993363 eV
Mg 14.202795307739748 7.99051848862331 10.86569574802966
Mg 16.0929798274111 10.329233423975381 12.499367919919907
Mg 15.843365697761119 10.332086655057866 9.493724434202653
Mg 13.074464575060523 9.619045780019775 8.402790505049248
Mg 16.431099603437605 12.749870744922555 14.406362278281424
Mg 14.961333209512203 10.484433529399189 16.377283409771437
Mg 14.264570587387762 8.611565060770781 13.917886274204173
Mg 14.387994948851375 12.555774332153126 8.285856921949058
Mg 15.3992326971986 13.00249840285358 11.305873346023983
Mg 12.158383606412837 11.742378439197356 6.215823969335439
Mg 11.359623311769246 7.369990195163653 9.741614997086392
Mg 13.145624393314844 10.695807716971693 11.26417364437463
Mg 13.625372706760679 11.696715775748936 14.023214784897922
Mg 14.513220268577795 13.491444623759259 16.595478708293687
Mg 11.54645997730378 12.312416126875918 9.191246354521997
Mg 14.173396100766956 14.901106218297524 13.906670017837113
Mg 10.258274224581227 10.00844557328702 10.572380240750196
Mg 11.680854642925478 14.617943105908124 7.402699704757084
Mg 13.892105881697121 15.13462646581543 9.726561704896106
Mg 10.14004975335883 9.85829639629165 7.535644936421839
Mg 9.36483467392672 12.640824029783898 6.535838720497249
Mg 11.08369495334874 15.834354139454735 10.238603718104486
Mg 12.41687412312995 11.639750691027247 17.584406354979688
Mg 11.61275242203249 8.156532764517483 12.711549682859028
Mg 12.48664347586529 13.55175474034555 11.894391331034576
Mg 10.826473337059944 11.167742260292677 13.312583720978628
Mg 9.718114826722665 13.0421230936683 11.292621392465444
Mg 11.070178244199596 15.789506943463653 13.340887319966805
Mg 11.959665126836303 9.418458181675591 15.63542594128927
Mg 8.754224919058954 7.620436787412554 11.722896681456835
Mg 11.646024905322363 13.654334262812274 15.358964826000813
Mg 8.130567393448379 11.531527921684264 9.102391413673265
Mg 8.799658470040518 14.470062650140045 8.797962756318361
Mg 8.514642733604335 15.837666484874147 11.80435657677252
Mg 9.637938890861326 11.413773442809466 16.108751544968136
Mg 9.065721512780378 8.793241282346473 14.471458256407313
Mg 7.874784922982777 10.681282885866597 12.421247110376362
Mg 8.828722466048665 13.563512855312858 14.058447069154981
Mg 6.832226284060303 13.363047962209508 11.422905818444011
