35
Energy = -33.45015963 eV
Mg 16.61778166191065 12.612268911622202 15.146689101541057
Mg 15.609787667141726 13.392209333250339 12.303214347817645
Mg 15.1860339969081 10.549757964987391 13.63205420197483
Mg 16.898726423260165 10.617052991702883 11.253781874283789
Mg 13.999424698448106 14.470450980908314 9.907483239458534
Mg 14.36874604092283 8.56224009695096 11.553743782283874
Mg 16.233523556096692 12.607351931461718 9.213146046411806
Mg 14.403128533684363 14.458234911382442 15.568703879196285
Mg 15.475162010340465 9.751869485006203 8.807384913619087
Mg 11.39674953119579 14.506122999197826 8.285609099438023
Mg 13.932021555077824 11.330182284536674 16.36812995091495
Mg 13.356946389821307 15.428226273866338 12.774936485069311
Mg 13.534728344782767 12.07307014631203 7.957606564530769
Mg 12.708937917427134 9.183068627722447 14.196099977234184
Mg 12.846718845245789 12.512735804253145 13.742616466753036
Mg 13.559199173785808 11.514446093656806 10.991737061633737
Mg 12.569363616511303 9.089383102511189 9.255043197065417
Mg 11.786936669707165 15.85422877406014 15.363361066116662
Mg 11.309893829133 7.651540075689246 11.92824123722523
Mg 12.0426113327493 16.718523302386505 10.29836592954324
Mg 11.270844297568571 13.634221390312344 11.332745638518528
Mg 10.85155118807006 10.940468582176782 15.831359704309234
Mg 11.954151944371624 13.421839527592796 17.09854749855304
Mg 9.82103129675417 8.38192330823142 14.627777920317913
Mg 10.8871979050343 10.720133991031238 12.259601634821427
Mg 8.6341035288457 13.532409263555017 9.07170570956487
Mg 10.294031629883298 16.222613513461372 12.741671147881794
Mg 10.83740743493601 11.52323445485995 9.222605043576818
Mg 9.63047288161204 8.75768346786711 9.735193860079702
Mg 10.12277011174918 13.507478473527648 14.349625070581233
Mg 9.205404156939254 16.261139483817086 9.919714023525538
Mg 8.17535113549495 8.363373222213392 12.26611192196036
Mg 8.34503771268518 11.049398131950245 13.911311794923506
Mg 8.274583495589726 13.9305809217175 12.033679688190954
Mg 8.145474737394382 11.136038192942204 10.875187525097287
