33
Energy = -30.18105598 eV
Mg 12.331113784920774 19.483377344410812 10.925358850796448
Mg 16.662781518085733 16.45721337585824 11.289121474998238
Mg 12.139819126488987 14.384074651356498 10.226123508538645
Mg 15.115965780662039 19.085035761060166 11.664852792976236
Mg 12.62450584000416 13.686910392272221 13.800060671003676
Mg 15.084620207936798 13.939727309551639 10.435212263788523
Mg 18.608127279290454 13.610439048572392 15.975811577399428
Mg 10.874236111415764 16.114215972033474 14.543998294493061
Mg 13.810730073929006 16.962911523028097 9.805294111064477
Mg 16.433522471448704 13.202381867882785 18.151027115133086
Mg 14.371882625888448 13.438675977259322 16.040475490593824
Mg 15.7969725777676 14.088207054499303 13.5394399518081
Mg 11.797861417930363 11.549115834155733 16.368910533717834
Mg 13.799511437130578 16.04672829773816 12.60125583576316
Mg 18.050162532885803 13.790227652356567 10.950509207062204
Mg 18.88051880161406 12.31080491890359 13.266936749775537
Mg 16.608226040393777 15.789140572472524 16.399733808969657
Mg 16.67537770263142 11.451712370227781 15.107456009469658
Mg 16.00907089529251 17.599880305295734 14.097208301002203
Mg 13.234618243221261 12.725681762527305 18.952371113297662
Mg 9.653732756840522 13.307269697596105 15.189005237361973
Mg 10.019538331949697 13.866894743406526 12.25107872554203
Mg 14.292776842077414 15.433958877759697 18.475977548937895
Mg 13.169706940874079 11.820088790126938 11.453212708381363
Mg 10.885192734196286 11.127638682635288 13.510800774057685
Mg 12.729200230983855 18.56578416829772 13.762305961141363
Mg 16.180980161358917 11.438451845982918 12.044320868778774
Mg 13.698512029217927 16.452072202639442 15.698828875424185
Mg 14.605279318870869 10.650713844692877 17.230152076471317
Mg 11.612813921434297 14.618725203590861 17.14311589513958
Mg 13.89994865140291 10.761049141947554 14.121936743045913
Mg 11.01063173361556 16.85051586733577 11.633229814656673
Mg 18.445627711391083 15.540688665803623 13.634663095092161
