36
Energy = -33.01163969 eV
Mg 9.867701857526201 12.186754637092799 16.852908356517474
Mg 8.858531057557201 13.996791949916242 14.645678204791107
Mg 13.516628842190729 12.900112323663178 12.315495437272967
Mg 7.783105541698199 9.980232681036238 11.23533309141829
Mg 11.39442923458655 16.72588665905624 11.062486804297075
Mg 12.8678954433229 11.442516123013188 9.771729431250915
Mg 11.081842988561823 11.622273134774352 14.064392035676054
Mg 10.375330219868415 11.922091286337123 8.123379631882175
Mg 9.244109511131837 14.36196375904166 9.760494144502335
Mg 14.903610483650313 8.130229713404104 12.540441362337363
Mg 16.17080991580376 14.141579349169444 12.470007844700847
Mg 15.236676930357316 13.383799778009411 9.524014225747623
Mg 14.953676984558593 10.681012527223874 14.231125615915037
Mg 7.534213546522124 13.024736070700357 11.999091004239327
Mg 15.557967407865062 10.83775038821604 11.209464547361778
Mg 10.972367766754257 14.16260162110765 12.452799554932062
Mg 15.277781300994683 10.66685579540441 8.060227313558865
Mg 14.389205203802288 16.000384413523182 10.803618001143116
Mg 9.944663181734803 8.829363086785097 13.05817772340667
Mg 8.464286362450911 15.937745154089667 12.145792463375704
Mg 12.607451185215334 10.01203808305873 12.197328537287383
Mg 13.266940556024625 12.598835943467664 6.97008497938065
Mg 8.112116553957 10.991492752726682 14.235188040052709
Mg 12.22977371173123 14.315254035293107 9.430873623879512
Mg 10.607151042204174 9.0085073454514 9.837079555746483
Mg 12.094461566180925 7.058422630297627 11.913530460269017
Mg 12.900014290408532 11.178282172095294 16.444555744922084
Mg 12.308282705110217 9.694391829799956 7.244326023665825
Mg 13.758701907531043 8.496651198109035 9.703450780610055
Mg 12.70093131802707 8.494599083342203 14.797269769132804
Mg 14.824368856160357 13.490230012897003 15.243635583448121
Mg 11.880062615102881 14.140141736984972 15.58096713788074
Mg 10.21997203640583 9.346836389662322 16.09582070936473
Mg 10.652442274167477 16.571565757006727 14.136628808186883
Mg 10.218650727474957 11.679113532258269 11.177441389763276
Mg 13.607509909280152 15.800981585638556 13.651038477612955
