4
Energy = -0.52823968 eV
Mg 8.763540730365927 7.828607668487468 9.274540709072955
Mg 10.751122506692324 9.624075058767753 11.224080543968222
Mg 7.142428490305522 6.807618079876104 6.458644898077274
Mg 10.331317114081264 12.731643488519078 10.029166871652938
