48
Energy = -47.31571873 eV
Mg 12.503964769632194 7.6391311513755 11.74979892376825
Mg 14.398538159711972 9.767967450678473 10.882846226083412
Mg 16.728884809047628 11.410150769402907 9.819864413813221
Mg 11.786029899802603 9.391948902282405 9.359392285494648
Mg 11.322669903663403 11.31730622118964 7.143434647931582
Mg 14.093359522126555 11.46468947038064 8.321109588208612
Mg 10.065390801473802 9.445056522393124 11.965506200611955
Mg 9.112118375330464 11.082803409143782 9.443428562475317
Mg 15.650027615486716 14.158363812343081 9.109177006484671
Mg 16.637758262733893 10.529883251690942 12.706699571193221
Mg 11.560477171565053 8.117701682549528 14.470481921270714
Mg 14.488257517315148 8.731151717735603 13.861422232860297
Mg 12.70776355422897 14.185559522264892 8.039774747864442
Mg 12.503242014526636 11.105433870690502 13.098719971997742
Mg 9.69461552239772 13.614369369561192 7.76428133537776
Mg 14.393552682420133 13.014381979194146 11.669056536635981
Mg 11.628832270252351 12.378020735323176 10.297072050827998
Mg 13.134015148092137 10.437844403993552 16.095569669774967
Mg 16.561137982261712 10.08561711924893 15.805159603792632
Mg 18.68181657600159 12.13517601416105 14.296333328417969
Mg 9.910728093643712 10.746571556233695 14.752904065313551
Mg 17.408552858221338 13.441168091361277 11.944404799715322
Mg 9.05407146771851 12.29928948240072 12.347503606542796
Mg 10.663878148602132 8.938648052672281 17.121723969948277
Mg 17.576945807995088 12.817924373277986 16.818407870691274
Mg 15.085798388866271 11.5440367915852 18.01814986520685
Mg 15.143182403663044 12.495876845570326 14.510510199052577
Mg 11.623471076307608 14.202028553486466 12.65479716979308
Mg 10.308013000949924 11.926198320228544 17.539249259251385
Mg 13.459166998134085 15.818362102165581 10.483438973642969
Mg 7.971486656155716 13.975259864636243 10.183528218080479
Mg 10.565390928432741 15.495157274095911 9.945058661526932
Mg 12.326814413871464 13.403333915948023 15.467657442225875
Mg 9.18714984290504 13.720213164718233 15.057997917268002
Mg 8.898201008655597 15.616378706854414 12.562386624900405
Mg 17.163969328658645 15.09722869182121 14.512956885170409
Mg 12.72657709164757 13.356516213792446 18.607725614593047
Mg 14.087520629310784 15.500261182811359 13.859840211615559
Mg 15.075695218012315 14.39389389989486 16.860220406603954
Mg 11.533770216783276 17.34512475762085 12.267986045504735
Mg 10.285426562244115 14.904099539503004 17.5907386040844
Mg 16.26250766605873 16.113751614695193 11.604507190998515
Mg 10.80443682672509 16.30958896524942 14.941510780979874
Mg 14.274215346633367 18.506784358351666 11.743772279462615
Mg 12.861461879469614 16.361446999443086 17.10728710497046
Mg 15.653103397830652 17.268047770852696 16.39428030827289
Mg 13.270171327946592 18.39101796383931 14.687450725054466
Mg 16.34489225749143 18.18082231546048 13.771609538914252
