43
Energy = -41.10011322 eV
Mg 9.899007549656021 13.16742144253783 8.257172477361587
Mg 13.310561224093943 8.254679439012373 7.403026005231754
Mg 16.236451154214695 7.602506454522683 8.575813613815324
Mg 15.423219986869022 10.265632070884598 7.523109903584593
Mg 10.663919126259357 16.015003221308934 8.884477369175293
Mg 9.412830842108734 10.37920338032713 9.48215612412192
Mg 12.293694852981265 11.113495932389865 8.736707253705907
Mg 12.75526513431079 14.001934482175528 9.664674396895661
Mg 7.320993427697558 12.49094020813824 9.806051388273625
Mg 13.698646568445481 6.186200514129387 9.607983327454402
Mg 12.83443738318208 16.797904892395536 10.91934665619714
Mg 11.210368366495713 7.934677509525162 9.509154671921587
Mg 9.812369902216092 16.26361266948825 11.709307248925082
Mg 7.8891611931738295 15.306360730032472 9.567288910289516
Mg 14.035103247622848 9.271591804511626 10.285300077338864
Mg 10.300344240323241 13.13555686429574 11.296055867028327
Mg 15.32646004614616 12.206031672021293 9.703225165188908
Mg 17.099449315598683 9.712784566071702 10.627720854533438
Mg 15.982147971149542 6.927341892888925 11.417117425440102
Mg 8.27312346055157 11.047956940737965 12.31527051258431
Mg 15.199436308746698 14.700106247175942 11.376108591436871
Mg 12.904160543230219 7.202563502099084 12.306344156285144
Mg 7.4658687763658635 14.112468767757086 12.330433453178147
Mg 16.415921922940843 12.074072898744392 12.55454302461465
Mg 13.220065418393283 11.830900748509443 11.889832976854697
Mg 15.169681072410183 9.334509939689093 13.133911347317536
Mg 11.03368549079454 9.733013050387273 11.958500227927011
Mg 14.876665801387416 17.17862752836168 13.073371176736645
Mg 12.496590330004297 14.563449409229284 13.06078693855998
Mg 11.002045411762783 12.092686827208603 14.089635754301195
Mg 11.795282594016005 17.481599255882465 13.754475183716702
Mg 9.45297368139522 9.578369289766236 14.778673278241074
Mg 9.62864622639768 14.855320791084926 14.322635879190805
Mg 12.489994328877222 9.076268012299286 14.602193463349103
Mg 7.8772787497971 12.398835704504929 14.964031766273584
Mg 15.38441557084249 14.41625543354376 14.392795743018025
Mg 14.177781545015 11.613092166397827 14.829410794042179
Mg 12.802708478815594 13.847823250779618 16.167796054282505
Mg 11.679313686962315 10.984620758763402 16.836772826801624
Mg 13.921553487555748 16.704623302356786 15.789010107246739
Mg 11.081849202359049 16.285297713125463 16.49140143133641
Mg 9.874328662563043 13.500555378536987 17.05091533473411
Mg 8.704724495396267 10.78663011552686 17.38798802061359
