41
Energy = -39.27145714 eV
Mg 9.796494266005167 12.951129958679765 7.824915604587811
Mg 7.727613158167948 13.800555375881448 9.940777416256582
Mg 12.300017813893987 14.890020664431528 8.166769628438335
Mg 10.947102915329262 9.932275108612581 7.808592207931823
Mg 12.615406149464839 12.250694667714416 6.75025220833714
Mg 9.466281661061544 15.85342523024192 8.38579758757868
Mg 9.016640014463231 10.88351797880511 9.952519411026321
Mg 8.336304436146737 16.939659351691212 10.850987060559373
Mg 11.441657325628343 16.94506520898957 10.451302255700387
Mg 7.748730934674114 11.887659530239773 12.512970557367465
Mg 12.006753748900008 12.18590062785176 9.787717470721173
Mg 7.346555052332571 14.94097395432896 12.685002134496203
Mg 14.879554457370391 12.802615754766398 8.796536177737524
Mg 11.868800091224347 9.06912171201901 10.629259609093237
Mg 9.427747131939888 8.769504321239374 12.42836729277081
Mg 13.887927838406304 9.92554482772677 8.554504960529739
Mg 10.712662421756708 11.428954448305262 12.365810681945172
Mg 13.765527514082015 14.653015444841484 10.910758551618809
Mg 9.962510121659077 16.562272376209222 13.398811664452385
Mg 16.65927635619001 10.453958941910544 9.560174438326033
Mg 10.445025853389437 14.251688523957455 11.346599503874922
Mg 16.60236534194972 12.965684341393624 11.380339194682607
Mg 12.604704535686935 10.124719910934733 14.105902210886983
Mg 9.571174572083684 13.603043805007225 14.376735703934486
Mg 12.715675434053693 7.3011365314318 12.956856299003658
Mg 14.099769349805829 11.165208204357294 11.591197370511614
Mg 12.949269295492774 16.477583905185764 13.144099302603811
Mg 10.435960910189525 7.601702437213057 14.943347225727882
Mg 15.47373870913786 14.781158289164926 13.538925752993688
Mg 12.723182647387654 13.27531692774694 13.420951839897123
Mg 14.980430813498002 8.280052627621828 11.092631976154664
Mg 9.343388020718622 10.536471730641264 15.014410491887979
Mg 17.287732245845092 9.945702496061099 12.32413621628285
Mg 11.585756372860368 12.298240899807597 16.201412685088595
Mg 13.311625815959381 7.513403925710524 16.027572843108796
Mg 11.364048566970098 9.411729120319768 17.105654458688672
Mg 15.610508348109747 11.696996603667797 14.173348388424547
Mg 11.787066977365086 15.332224213413978 15.592724379051667
Mg 15.38867304550867 8.5601315612424 14.161370890110828
Mg 14.306939717855611 13.580456817001307 16.091660901599404
Mg 14.275585795795692 10.385356182120415 16.605128433500735
