48
Energy = -47.58196548 eV
Mg 19.091521466053493 12.861068129745972 11.435891199930008
Mg 16.46515021144372 14.121992738047828 10.636675408845324
Mg 19.17572781122475 12.025416430349344 14.314196996185217
Mg 17.056631981774185 11.117560215340765 9.79383477156232
Mg 14.219914462676403 15.809004380568366 9.595333853309112
Mg 18.942685637859025 10.035863652282485 12.035767773855772
Mg 17.514469587262926 14.425063793406132 13.591957116390372
Mg 14.286058407326614 12.482846304396556 9.266420036976378
Mg 13.277902454458218 18.551985878170655 11.395815458509702
Mg 16.231971095193515 11.808526852025413 12.728283733735676
Mg 17.267590437226755 9.6822755023247 14.660266958900777
Mg 16.303350021066457 8.729710476247684 11.667773734877207
Mg 11.660024045446201 14.2726780831509 9.396387821444453
Mg 15.159815055710693 16.172249718576595 12.470310185351103
Mg 11.691152892222327 17.292478474248448 8.966041316505398
Mg 14.580914389970484 9.362861740657234 9.099977178444508
Mg 13.551533493551451 13.489053315064945 12.122014256541883
Mg 13.734225377032846 10.418647001102572 11.813054026426412
Mg 16.68648882138058 12.413160923220346 16.031233882401356
Mg 10.179529544672219 18.637792169232775 11.01114558680588
Mg 11.164465252219554 18.88280913621648 13.759126279169019
Mg 11.403299769194962 11.412944261996948 10.12364570113614
Mg 13.464386226124635 17.336950545919937 14.662500301583666
Mg 12.021118746933995 16.036471818060786 12.081235780987901
Mg 14.96624507555034 14.759898295329098 15.186173045780366
Mg 10.422748986135362 13.5921649092382 12.268692652314432
Mg 8.775317475320524 13.003659185210468 9.581926012348092
Mg 12.01115126899615 14.401000334417722 14.705878702072566
Mg 11.32887177315654 11.092880455598946 13.320898611097276
Mg 9.203180572642234 15.902612998237526 10.276910157010366
Mg 10.823637716092389 8.673243791487172 11.172530797480428
Mg 10.673899908918358 16.956012444675007 16.106874123904525
Mg 9.305053254526147 16.491833870541157 13.29679388198622
Mg 13.545390842123734 12.97653500600278 17.41271172107479
Mg 13.557320535158013 7.392319950286237 11.176000768916728
Mg 13.858778395255698 11.817727791263012 14.665716907135014
Mg 13.293790858584979 16.017325347203244 17.41385935948201
Mg 11.856070297056759 7.394028079969513 13.64333434431758
Mg 8.203267422276449 11.79704285388596 14.33842465818496
Mg 15.030870261387069 10.029501047980746 16.86444599049404
Mg 14.537359001850312 8.580336967173178 14.140421144931878
Mg 8.591907022378402 10.80223585696197 11.574888320730356
Mg 7.5753696791589284 13.950543971678515 12.2876823318898
Mg 9.395729599298868 9.078820977640351 14.16801068011055
Mg 8.937295610974182 14.435547244224916 15.43509201300461
Mg 10.700641811559258 12.004729827437973 16.172329899777996
Mg 10.859657272883174 14.497148545905747 17.85555386142964
Mg 12.155160391096224 9.309725612665131 15.885573200043462
