45
Energy = -43.78982304 eV
Mg 13.832540443544058 8.794831543810623 9.465040233104213
Mg 10.906591332298973 9.869433435159905 9.190517387698431
Mg 13.05736501605152 10.884431049842613 7.240879070170688
Mg 16.691156973126382 8.376002295625947 10.293853933570443
Mg 9.145286425186779 9.279115833109357 11.626976133973285
Mg 15.875295097143553 10.94091165292381 8.473275228838133
Mg 11.774524657677148 7.748866993847323 11.339323664453584
Mg 14.542130854268642 8.068857484787443 12.694689171669651
Mg 10.666129494832921 8.1497438241715 14.11673397640335
Mg 17.429140872986782 9.330377320217286 13.102405178317989
Mg 7.597540756686189 8.850083242736792 14.279755660167977
Mg 10.991366491104671 12.924028071550856 8.290317947654488
Mg 10.599941987860628 12.16110700854284 11.318061276087757
Mg 13.25247806353315 11.778479841760577 10.061958415333258
Mg 18.177037541743367 10.987936913939656 10.506100169382192
Mg 14.087952257181799 13.745767935127189 7.918648837281667
Mg 9.287793453694562 9.526662442081093 16.549516348481067
Mg 8.179605799081992 11.701362605281789 9.825473863013704
Mg 15.192741746201117 10.693154825482795 14.753454611174856
Mg 6.591758568946036 10.793604738972595 12.360713394055148
Mg 15.358885828780734 10.78820737432571 11.664725626669032
Mg 9.901415411752486 11.23947595937236 14.024371677138017
Mg 16.263817597295894 13.467827909005956 10.22532670343635
Mg 12.411821690453081 14.466282922788832 10.780251009250586
Mg 7.292719096945186 11.777644463719147 15.33882645683478
Mg 12.239341401902584 9.963422905933221 15.98959667789518
Mg 11.948140298905484 15.944862469726443 8.299354646437308
Mg 12.578116201235035 10.486884337974415 12.923179467023692
Mg 17.44538463087348 12.489107860721669 13.084594597350153
Mg 14.158637799350835 13.246970579287808 12.937928595795558
Mg 7.91053331676995 13.419678299836043 12.569696328644067
Mg 9.323724671917038 14.757575371238167 10.130778496523165
Mg 14.830516705512986 16.119461435345627 9.75621739547277
Mg 11.288375931799802 14.011279327649358 13.6355623937535
Mg 8.582268997216717 16.32507467707725 12.712102499156394
Mg 16.096998658410246 13.635424332375377 15.42095598277246
Mg 10.142874676150447 12.397063156270132 16.844939850239488
Mg 8.652394644842737 14.663562194404696 15.31001844186263
Mg 13.172535121226499 12.761301498551031 15.971991645975816
Mg 16.32947312770406 15.372585609795347 12.66282695070571
Mg 10.920707983252536 17.134842987699997 11.138570101774071
Mg 13.569526169265098 16.614208278180598 12.466857541754754
Mg 13.849905718583344 15.603555338605554 15.16713417294589
Mg 11.06885344783235 16.97228292292262 14.264881534298251
Mg 11.299234846180193 15.1220463763297 16.677314197420312
