48
Energy = -47.39565892 eV
Mg 8.867769778806403 13.69565906334896 9.422950297969521
Mg 11.583711172001479 12.607596807696966 8.631828900901215
Mg 7.388912837968203 14.334577858689862 11.937578770743952
Mg 12.013144938194953 9.755888950288998 7.708868602743969
Mg 9.601848449666223 10.580079148398431 9.600108899341304
Mg 8.053323400055648 11.451094900155535 12.145758160675218
Mg 7.863617059639137 16.385654555123217 14.08345840955565
Mg 9.558843902311382 16.326199466920556 11.606843625477095
Mg 13.87045433158775 14.370757159654572 7.912071491132751
Mg 11.544585824290612 15.425040716967525 9.539990272783518
Mg 11.034257050020033 7.8322942741900015 9.602112847268183
Mg 9.954218466691751 9.065586164901415 12.235802768694267
Mg 14.399323698886473 11.451793576270928 8.290257533457716
Mg 10.559221894021302 17.55844377338526 14.628285829663517
Mg 13.709183748711197 13.477074322917987 11.282774698219692
Mg 12.462279893516008 16.37525041310429 12.288425557145754
Mg 10.695970492354798 13.059207395383044 11.742631572624958
Mg 7.989450880351008 13.392711476957881 14.737748922864071
Mg 14.51151632163991 16.374066286911063 9.974847196728476
Mg 14.109719754591104 8.486394292592157 9.613727059723185
Mg 13.495988283080738 17.543210096306566 15.129384416168854
Mg 12.550284228879965 10.578863442289668 11.10762556048294
Mg 14.899510708732588 18.118845068871718 12.458560271059321
Mg 9.026515639089132 15.786228422677183 16.668201375551348
Mg 16.32945739134312 13.742524744070314 9.54840176953046
Mg 15.813909814555057 10.908187034144763 10.746401275187699
Mg 10.877847422169815 14.506150256460266 14.329963419253422
Mg 12.548812539754094 7.28273747792201 12.002865050203667
Mg 16.413108606574674 17.100415477801107 14.756623990845755
Mg 9.548814282267147 10.82619899078739 14.72019547554121
Mg 12.054991241071816 15.66188521318935 17.011156532694176
Mg 15.445329870111943 11.993747069022902 13.616302613190475
Mg 10.141324883008606 13.013870028147966 16.9737763118947
Mg 16.30679812208154 15.351737720933192 12.142760362262605
Mg 12.447599984519847 11.797346776154951 14.036737871075038
Mg 14.013243011390584 14.589745826261744 14.20997992111009
Mg 18.026670568961187 12.860199516146261 11.971712000953318
Mg 11.905686886449864 8.751560065862297 14.539940319892223
Mg 14.697399802681765 9.043471867333755 13.127631374870848
Mg 17.763748758663866 9.776948099455034 12.628403538238977
Mg 15.18679150254293 15.277910619855122 16.928181805438623
Mg 13.248798630236232 12.850023517804928 17.00891381196092
Mg 11.397948002819788 10.374205677406795 17.04429497026717
Mg 17.357331702524032 14.340212360944903 14.771083860106154
Mg 18.64645170395189 11.677036065284884 14.756344913135605
Mg 16.87990815933781 9.380598114446624 15.402926257664726
Mg 14.143671902413598 10.040645806107275 16.097628121576165
Mg 16.211718478181563 12.236157413593437 16.66051181215094
