51
Energy = -50.86148304 eV
Mg 10.044877770174214 11.61623730702187 17.508484971496163
Mg 8.79019779587244 14.308137068892352 16.219369133354743
Mg 12.983118569945521 11.467701565269373 17.734801017324628
Mg 8.698296970227394 16.56169679076786 13.90514577419185
Mg 8.83130248639967 11.135310644819945 14.780533686810355
Mg 11.604959367459506 14.246850327789684 17.88067669996775
Mg 8.001679742994243 15.68533618187492 11.077021729997707
Mg 16.02890171094669 11.13691063052999 16.99776514420398
Mg 8.49832995993639 13.642474363489795 13.21523742594393
Mg 13.411579581540545 16.705929698318236 17.703870702394486
Mg 10.945492460779741 16.45031314713045 15.931946912015817
Mg 11.627041028290682 9.691784296704617 15.06142329742492
Mg 14.10143426686636 8.873144589787682 16.87273700017505
Mg 11.268884916982767 13.012753465501893 15.009864239255958
Mg 14.694357364869969 13.864613815332614 17.56205984915627
Mg 11.15019273742272 18.325248498428596 13.663626631082924
Mg 11.156086660547553 14.999793324371563 12.61422075029576
Mg 16.85778307776514 8.486142878174906 15.794793601448804
Mg 8.044830272429609 11.123139359857017 11.785076395199624
Mg 13.972854144228364 11.667152023255847 14.619657618058692
Mg 10.28227528437178 17.583463579219053 10.959109029317512
Mg 13.82903154031085 18.014166348796948 14.996805099029231
Mg 13.477234398092723 14.978217885553013 14.914971202895597
Mg 9.609435895955059 15.890803151429823 8.542437667032774
Mg 9.512651960807641 8.84639250426192 13.02852639015066
Mg 15.99876779821629 16.381446006348956 16.29565038447162
Mg 11.347976922438177 11.583879579636124 12.433696576694317
Mg 13.842876745508285 13.68108249826347 12.272329539411299
Mg 13.448711546677595 17.04932979637986 12.093532329218897
Mg 16.85451777607769 10.784298488892347 13.861718064136792
Mg 16.39151461400035 13.599732723686122 14.977740213881978
Mg 9.706347377450173 13.187888104537333 10.139502049432178
Mg 14.41593012216381 10.78028751468506 11.648529124091567
Mg 12.351564307530264 15.528944083815151 9.722293192811291
Mg 14.43979782287424 8.487168485102352 13.886926753750744
Mg 10.038360089795791 9.717835628660575 10.149846226383213
Mg 12.230442316104215 8.471957822316751 11.915385173356393
Mg 16.013783454279046 16.048025344107494 13.24194896677897
Mg 12.677963561660606 12.452746229179999 9.775001358850112
Mg 11.436472677581573 13.998986463099238 7.124039245427351
Mg 17.2846182437976 10.152990560923662 10.789599396534774
Mg 16.911321099637284 13.213167001276025 12.013652278296458
Mg 12.867829382701162 9.414726148413859 9.053029178803241
Mg 15.467995745253974 15.443705664445543 10.285536341902562
Mg 17.220155453082903 7.889220141792584 12.850845273580537
Mg 10.651072899525738 11.244548958405838 7.697578143565904
Mg 14.307513549366808 14.507185217249843 7.605952662453997
Mg 13.657227151768259 11.627580825496988 6.996522165684097
Mg 15.1322847923502 7.926465027137764 10.723826481022723
Mg 15.823529306815118 12.505284809855294 9.299461084935666
Mg 15.665409716959456 9.660754875364466 8.271533377511012
