55
Energy = -55.51267186 eV
Mg 14.11681750346064 14.428016036124612 13.98617274557274
Mg 8.973928697260666 9.726195309070583 12.813566873986506
Mg 13.769627700743076 9.628496860124642 16.67251180992012
Mg 8.882068936833123 14.494369324018145 15.502938361962137
Mg 14.205671752607184 12.875153591983997 11.225585580506461
Mg 14.010567298502266 12.857984855965494 16.61002755598398
Mg 14.10916164252862 17.592538607813335 13.953833295594858
Mg 14.310854551066019 16.136292175671155 11.259792648099047
Mg 16.419409282206605 17.391321792550404 15.798015167226056
Mg 14.096882360098299 11.301110408736125 13.975290164422352
Mg 14.266495556293574 9.608913022489242 11.237152930550993
Mg 11.335634701806436 14.458294925532284 17.45191699127667
Mg 8.854134626083479 11.283782018697027 15.48672003065872
Mg 16.86067453733332 14.431830603234955 10.537923332895147
Mg 8.821921602276385 12.87973415848149 17.980783250091008
Mg 14.046493811388688 8.137753396461733 13.919375540734752
Mg 16.83887198250429 11.28107006044115 10.525688070492562
Mg 16.69032459368453 11.318034261616647 15.82545639657143
Mg 11.510144762023124 12.876807270016142 14.76314368436716
Mg 9.041715404964677 14.43207521110502 10.20201642503759
Mg 16.35008731885654 8.30015485134736 15.780667713581014
Mg 11.43318489672427 16.12036518712796 14.791125031540375
Mg 9.021642740821168 11.390359224340632 10.187029522275438
Mg 13.822358945779184 16.088167857273756 16.69296118805043
Mg 11.387520012402387 9.634034361702726 14.757163800567259
Mg 11.75344993725603 12.897420501962976 9.32758956692932
Mg 16.708814347299853 14.36718668288958 15.83064285887863
Mg 16.851797410832265 12.848534686957322 13.180040942471278
Mg 16.804884479593706 12.864851521195696 7.992945352232284
Mg 9.289975667948596 12.92339728013171 7.370435099263892
Mg 16.735498172979742 15.990874848922191 13.198088318667901
Mg 11.882428785278623 16.108095851166343 9.360018855409164
Mg 9.405637682361025 15.944324586087463 7.557886773792413
Mg 16.69036950750747 9.707574549189507 13.183894367094444
Mg 9.298663507694258 17.45476359195201 10.23624447323616
Mg 9.37089810570777 9.89915201825069 7.528896190545024
Mg 11.625514139258916 14.443034932168814 12.034628516734754
Mg 11.844176516872569 9.68196060617681 9.330092957380684
Mg 11.889759625709974 14.488042899085517 6.582786261126156
Mg 11.627140520473116 17.611876102572385 12.08934570365949
Mg 9.244306707058302 8.36235611543104 10.19082589414715
Mg 11.870258401053825 11.332130285839515 6.56622710810037
Mg 11.60698219927608 11.32814191413497 12.019815510478935
Mg 14.417562726997756 14.622406893553222 8.591235515591974
Mg 14.384463239013177 12.896172573400925 6.096386941067624
Mg 11.566578193322483 8.15664494333227 12.04685299541809
Mg 14.39376366910025 11.146355652552622 8.57812361976536
Mg 16.445379895851957 12.838175061479031 18.633380860680433
Mg 8.880129171540686 12.899032491898419 12.857648211507986
Mg 11.304063176512086 11.272368856631775 17.431741556116016
Mg 16.314390956005305 15.860199172265817 18.477118590628667
Mg 9.013014194938632 16.06978235301761 12.844772172935963
Mg 13.817811683925642 14.401857445306822 19.35282325710642
Mg 16.248434219653067 9.824242491870812 18.465658764682985
Mg 13.77384735019222 11.32237712811492 19.343184061849758
