51
Energy = -51.23403475 eV
Mg 17.962107663351006 15.505059368076449 12.03486193714338
Mg 16.06137857786634 17.698068757474967 13.460449361362503
Mg 17.104445227237104 14.242597866670183 9.364202551143123
Mg 15.560338490093645 16.542331736496745 10.414756671661674
Mg 13.239485776894904 17.01501434423729 12.201599495267152
Mg 16.36095809365557 16.21070718012333 16.247040356664183
Mg 10.657018048728483 17.87721835534837 10.850043345382586
Mg 14.521155781463724 14.40729483453886 7.879790013920254
Mg 13.501193603753618 17.30838283390687 15.23554635075824
Mg 18.775583420528264 16.69253412335543 14.687078079743431
Mg 12.584186323464676 16.26528458258303 9.254198012838806
Mg 16.823330224977138 12.621668038500955 11.939119247140198
Mg 10.588949082933599 17.19825484186871 13.834444103881687
Mg 15.351852426360553 14.88600257191612 13.632901617918048
Mg 15.320928532943368 11.754097373157485 9.341145121861297
Mg 13.796129431081507 15.293139449033266 17.428306036684106
Mg 9.41079916364995 15.640034258913174 9.121751917243152
Mg 10.90230811798565 15.470261507797897 16.426484634537978
Mg 13.9665676978595 14.05407968269194 11.068184919067601
Mg 10.864025395522685 14.19313612875746 11.425612033247367
Mg 8.322758235667935 16.505302549805744 11.886827034819113
Mg 15.638588575039021 13.126760647918273 16.321354822135955
Mg 11.700325848973263 13.542547794181683 8.473521342128077
Mg 12.430754248712187 14.600194222547557 13.996194518141774
Mg 18.07046547722316 13.782903932652045 14.633799663562325
Mg 14.095633847736826 12.100568017731453 13.561011576708248
Mg 12.597878716214563 12.72473587720829 16.481521710236045
Mg 9.026735561307579 14.594819898853991 14.0934117958051
Mg 7.731968124007121 13.658254962185884 11.3192987054648
Mg 16.85498688371567 10.906418370263808 14.449535593591927
Mg 8.836706209158468 12.717185335160522 8.632480920243601
Mg 10.909436402060779 11.977683648050677 13.708511070030148
Mg 13.311783489878895 11.447931979415214 7.154999925681979
Mg 9.478002962734532 12.699772456198193 16.394796252039185
Mg 15.435795094436465 9.87604990579399 11.672417716590836
Mg 12.456650822151932 11.42909157151834 10.929721549123762
Mg 14.379497789257927 10.254589504219208 16.18096255107862
Mg 10.821534822777654 10.394599295269183 8.38484225245082
Mg 7.800787858022312 11.754990974328322 13.738663905778225
Mg 9.351907045619127 11.02820652858803 11.09201417067461
Mg 11.328526765707139 10.05566047514061 16.382588420612805
Mg 13.60127498767052 9.168273574283953 9.11656601677673
Mg 12.621078462978675 9.47282121780424 13.493818597036878
Mg 15.409801516192784 8.188718048277583 14.131684465259035
Mg 9.554384738690047 9.100561078518247 13.401345768598986
Mg 8.31894402552018 9.920178531650677 16.058521683491225
Mg 11.11278853247695 8.485281796997464 10.825020672270817
Mg 13.851492571804695 7.290860845660233 11.580883927418064
Mg 13.027299840505416 7.459508403811585 15.909522367602776
Mg 10.105265805038405 7.3720869078544755 15.91305610607468
Mg 11.487931050061242 6.614154361671812 13.325102563259799
