  25  25   0   0
  0.3664509E+03  0.2092435E-08  0.2092435E-08  0.2092435E-08  0.1000000E-15
  1.000000000000000E-004
  CAR 
 unknown system                          
      1.60781712     -9.84684506  301     -3.26041431      1.00000000
     -9.847  0.0000E+00  0.0000E+00  0.0000E+00  0.0000E+00
     -9.809  0.0000E+00  0.0000E+00  0.0000E+00  0.0000E+00
     -9.770  0.0000E+00  0.0000E+00  0.0000E+00  0.0000E+00
     -9.732  0.0000E+00  0.0000E+00  0.0000E+00  0.0000E+00
     -9.694  0.0000E+00  0.0000E+00  0.0000E+00  0.0000E+00
     -9.656  0.0000E+00  0.0000E+00  0.0000E+00  0.0000E+00
     -9.618  0.0000E+00  0.0000E+00  0.0000E+00  0.0000E+00
     -9.580  0.0000E+00  0.0000E+00  0.0000E+00  0.0000E+00
     -9.541  0.0000E+00  0.0000E+00  0.0000E+00  0.0000E+00
     -9.503  0.0000E+00  0.0000E+00  0.0000E+00  0.0000E+00
     -9.465  0.0000E+00  0.0000E+00  0.0000E+00  0.0000E+00
     -9.427  0.0000E+00  0.0000E+00  0.0000E+00  0.0000E+00
     -9.389  0.0000E+00  0.0000E+00  0.0000E+00  0.0000E+00
     -9.350  0.0000E+00  0.0000E+00  0.0000E+00  0.0000E+00
     -9.312  0.0000E+00  0.0000E+00  0.1000E-02  0.0000E+00
     -9.274  0.0000E+00  0.0000E+00  0.1000E-02  0.1000E-02
     -9.236  0.0000E+00  0.0000E+00  0.1000E-02  0.1000E-02
     -9.198  0.0000E+00  0.0000E+00  0.1000E-02  0.1000E-02
     -9.160  0.0000E+00  0.0000E+00  0.1000E-02  0.1000E-02
     -9.121  0.0000E+00  0.0000E+00  0.1000E-02  0.1000E-02
     -9.083  0.0000E+00  0.0000E+00  0.1000E-02  0.1000E-02
     -9.045  0.0000E+00  0.0000E+00  0.2000E-02  0.2000E-02
     -9.007  0.2054E-08  0.0000E+00  0.2000E-02  0.2000E-02
     -8.969  0.0000E+00  0.0000E+00  0.3000E-02  0.3000E-02
     -8.930  0.0000E+00  0.0000E+00  0.5000E-02  0.4000E-02
     -8.892  0.0000E+00  0.0000E+00  0.6000E-02  0.5000E-02
     -8.854  0.6615E-14  0.0000E+00  0.6000E-02  0.6000E-02
     -8.816  0.0000E+00  0.0000E+00  0.8000E-02  0.7000E-02
     -8.778  0.0000E+00  0.0000E+00  0.8000E-02  0.8000E-02
     -8.740  0.0000E+00  0.0000E+00  0.1000E-01  0.1000E-01
     -8.701  0.0000E+00  0.0000E+00  0.1100E-01  0.1100E-01
     -8.663  0.0000E+00  0.0000E+00  0.1200E-01  0.1200E-01
     -8.625  0.0000E+00  0.0000E+00  0.1300E-01  0.1300E-01
     -8.587  0.0000E+00  0.0000E+00  0.1400E-01  0.1300E-01
     -8.549  0.0000E+00  0.0000E+00  0.1400E-01  0.1400E-01
     -8.510  0.0000E+00  0.0000E+00  0.1500E-01  0.1400E-01
     -8.472  0.0000E+00  0.0000E+00  0.1600E-01  0.1600E-01
     -8.434  0.0000E+00  0.0000E+00  0.1800E-01  0.1700E-01
     -8.396  0.0000E+00  0.0000E+00  0.1900E-01  0.1900E-01
     -8.358  0.0000E+00  0.0000E+00  0.2000E-01  0.2000E-01
     -8.320  0.0000E+00  0.0000E+00  0.2200E-01  0.2100E-01
     -8.281  0.0000E+00  0.0000E+00  0.2400E-01  0.2300E-01
     -8.243  0.0000E+00  0.0000E+00  0.2600E-01  0.2500E-01
     -8.205  0.0000E+00  0.0000E+00  0.2700E-01  0.2600E-01
     -8.167  0.0000E+00  0.0000E+00  0.2800E-01  0.2800E-01
     -8.129  0.0000E+00  0.0000E+00  0.3000E-01  0.2900E-01
     -8.090  0.0000E+00  0.0000E+00  0.3100E-01  0.3000E-01
     -8.052  0.0000E+00  0.0000E+00  0.3300E-01  0.3200E-01
     -8.014  0.0000E+00  0.0000E+00  0.3500E-01  0.3400E-01
     -7.976  0.0000E+00  0.0000E+00  0.3600E-01  0.3500E-01
     -7.938  0.2617E-01  0.0000E+00  0.3800E-01  0.3700E-01
     -7.900  0.0000E+00  0.0000E+00  0.4000E-01  0.4000E-01
     -7.861  0.0000E+00  0.0000E+00  0.4000E-01  0.4000E-01
     -7.823  0.0000E+00  0.0000E+00  0.4300E-01  0.4100E-01
     -7.785  0.0000E+00  0.0000E+00  0.4400E-01  0.4400E-01
     -7.747  0.0000E+00  0.0000E+00  0.4600E-01  0.4600E-01
     -7.709  0.0000E+00  0.0000E+00  0.4700E-01  0.4700E-01
     -7.670  0.0000E+00  0.0000E+00  0.4800E-01  0.4800E-01
     -7.632  0.8246E-02  0.0000E+00  0.4931E-01  0.4900E-01
     -7.594  0.0000E+00  0.0000E+00  0.5100E-01  0.5000E-01
     -7.556  0.0000E+00  0.0000E+00  0.5200E-01  0.5200E-01
     -7.518  0.0000E+00  0.0000E+00  0.5300E-01  0.5300E-01
     -7.480  0.0000E+00  0.0000E+00  0.5400E-01  0.5400E-01
     -7.441  0.0000E+00  0.0000E+00  0.5600E-01  0.5600E-01
     -7.403  0.0000E+00  0.0000E+00  0.5800E-01  0.5800E-01
     -7.365  0.0000E+00  0.2619E-01  0.6000E-01  0.6000E-01
     -7.327  0.0000E+00  0.0000E+00  0.6100E-01  0.6000E-01
     -7.289  0.0000E+00  0.0000E+00  0.6400E-01  0.6300E-01
     -7.250  0.0000E+00  0.0000E+00  0.6400E-01  0.6400E-01
     -7.212  0.5159E-02  0.0000E+00  0.6620E-01  0.6600E-01
     -7.174  0.0000E+00  0.0000E+00  0.6900E-01  0.6800E-01
     -7.136  0.0000E+00  0.0000E+00  0.7000E-01  0.7000E-01
     -7.098  0.0000E+00  0.0000E+00  0.7200E-01  0.7100E-01
     -7.060  0.0000E+00  0.0000E+00  0.7500E-01  0.7400E-01
     -7.021  0.0000E+00  0.0000E+00  0.7700E-01  0.7700E-01
     -6.983  0.2619E-01  0.0000E+00  0.8000E-01  0.7900E-01
     -6.945  0.0000E+00  0.0000E+00  0.8200E-01  0.8200E-01
     -6.907  0.0000E+00  0.0000E+00  0.8500E-01  0.8400E-01
     -6.869  0.0000E+00  0.0000E+00  0.8900E-01  0.8700E-01
     -6.830  0.2619E-01  0.0000E+00  0.9100E-01  0.9000E-01
     -6.792  0.0000E+00  0.0000E+00  0.9300E-01  0.9300E-01
     -6.754  0.0000E+00  0.2177E-01  0.9600E-01  0.9483E-01
     -6.716  0.0000E+00  0.0000E+00  0.9800E-01  0.9700E-01
     -6.678  0.0000E+00  0.0000E+00  0.1000E+00  0.1000E+00
     -6.640  0.0000E+00  0.0000E+00  0.1020E+00  0.1020E+00
     -6.601  0.0000E+00  0.0000E+00  0.1050E+00  0.1030E+00
     -6.563  0.0000E+00  0.0000E+00  0.1070E+00  0.1070E+00
     -6.525  0.0000E+00  0.0000E+00  0.1100E+00  0.1090E+00
     -6.487  0.0000E+00  0.0000E+00  0.1120E+00  0.1120E+00
     -6.449  0.0000E+00  0.0000E+00  0.1140E+00  0.1140E+00
     -6.410  0.0000E+00  0.0000E+00  0.1160E+00  0.1160E+00
     -6.372  0.0000E+00  0.0000E+00  0.1170E+00  0.1170E+00
     -6.334  0.0000E+00  0.0000E+00  0.1190E+00  0.1180E+00
     -6.296  0.0000E+00  0.0000E+00  0.1210E+00  0.1210E+00
     -6.258  0.0000E+00  0.0000E+00  0.1230E+00  0.1230E+00
     -6.220  0.0000E+00  0.0000E+00  0.1240E+00  0.1240E+00
     -6.181  0.0000E+00  0.0000E+00  0.1260E+00  0.1260E+00
     -6.143  0.0000E+00  0.0000E+00  0.1270E+00  0.1270E+00
     -6.105  0.0000E+00  0.0000E+00  0.1280E+00  0.1270E+00
     -6.067  0.0000E+00  0.0000E+00  0.1290E+00  0.1280E+00
     -6.029  0.0000E+00  0.0000E+00  0.1290E+00  0.1290E+00
     -5.990  0.0000E+00  0.0000E+00  0.1290E+00  0.1290E+00
     -5.952  0.0000E+00  0.0000E+00  0.1290E+00  0.1290E+00
     -5.914  0.0000E+00  0.0000E+00  0.1290E+00  0.1290E+00
     -5.876  0.0000E+00  0.0000E+00  0.1290E+00  0.1290E+00
     -5.838  0.0000E+00  0.0000E+00  0.1290E+00  0.1290E+00
     -5.800  0.0000E+00  0.0000E+00  0.1290E+00  0.1290E+00
     -5.761  0.0000E+00  0.0000E+00  0.1300E+00  0.1300E+00
     -5.723  0.0000E+00  0.0000E+00  0.1300E+00  0.1300E+00
     -5.685  0.0000E+00  0.0000E+00  0.1300E+00  0.1300E+00
     -5.647  0.0000E+00  0.0000E+00  0.1300E+00  0.1300E+00
     -5.609  0.0000E+00  0.0000E+00  0.1300E+00  0.1300E+00
     -5.570  0.0000E+00  0.0000E+00  0.1300E+00  0.1300E+00
     -5.532  0.0000E+00  0.0000E+00  0.1300E+00  0.1300E+00
     -5.494  0.0000E+00  0.0000E+00  0.1300E+00  0.1300E+00
     -5.456  0.0000E+00  0.0000E+00  0.1300E+00  0.1300E+00
     -5.418  0.0000E+00  0.0000E+00  0.1300E+00  0.1300E+00
     -5.380  0.0000E+00  0.0000E+00  0.1300E+00  0.1300E+00
     -5.341  0.0000E+00  0.0000E+00  0.1300E+00  0.1300E+00
     -5.303  0.0000E+00  0.0000E+00  0.1300E+00  0.1300E+00
     -5.265  0.0000E+00  0.0000E+00  0.1300E+00  0.1300E+00
     -5.227  0.0000E+00  0.0000E+00  0.1300E+00  0.1300E+00
     -5.189  0.0000E+00  0.0000E+00  0.1300E+00  0.1300E+00
     -5.150  0.0000E+00  0.0000E+00  0.1300E+00  0.1300E+00
     -5.112  0.0000E+00  0.0000E+00  0.1310E+00  0.1300E+00
     -5.074  0.0000E+00  0.0000E+00  0.1310E+00  0.1310E+00
     -5.036  0.0000E+00  0.0000E+00  0.1310E+00  0.1310E+00
     -4.998  0.0000E+00  0.0000E+00  0.1310E+00  0.1310E+00
     -4.960  0.0000E+00  0.0000E+00  0.1310E+00  0.1310E+00
     -4.921  0.0000E+00  0.0000E+00  0.1310E+00  0.1310E+00
     -4.883  0.0000E+00  0.0000E+00  0.1310E+00  0.1310E+00
     -4.845  0.0000E+00  0.0000E+00  0.1310E+00  0.1310E+00
     -4.807  0.0000E+00  0.0000E+00  0.1320E+00  0.1320E+00
     -4.769  0.0000E+00  0.0000E+00  0.1320E+00  0.1320E+00
     -4.730  0.0000E+00  0.0000E+00  0.1320E+00  0.1320E+00
     -4.692  0.0000E+00  0.0000E+00  0.1320E+00  0.1320E+00
     -4.654  0.0000E+00  0.0000E+00  0.1330E+00  0.1320E+00
     -4.616  0.0000E+00  0.0000E+00  0.1330E+00  0.1330E+00
     -4.578  0.0000E+00  0.0000E+00  0.1340E+00  0.1330E+00
     -4.540  0.0000E+00  0.0000E+00  0.1340E+00  0.1340E+00
     -4.501  0.0000E+00  0.0000E+00  0.1340E+00  0.1340E+00
     -4.463  0.0000E+00  0.0000E+00  0.1340E+00  0.1340E+00
     -4.425  0.0000E+00  0.0000E+00  0.1340E+00  0.1340E+00
     -4.387  0.0000E+00  0.0000E+00  0.1340E+00  0.1340E+00
     -4.349  0.0000E+00  0.0000E+00  0.1350E+00  0.1340E+00
     -4.310  0.0000E+00  0.0000E+00  0.1350E+00  0.1350E+00
     -4.272  0.0000E+00  0.0000E+00  0.1350E+00  0.1350E+00
     -4.234  0.0000E+00  0.0000E+00  0.1350E+00  0.1350E+00
     -4.196  0.0000E+00  0.0000E+00  0.1350E+00  0.1350E+00
     -4.158  0.0000E+00  0.0000E+00  0.1350E+00  0.1350E+00
     -4.120  0.0000E+00  0.0000E+00  0.1350E+00  0.1350E+00
     -4.081  0.0000E+00  0.0000E+00  0.1350E+00  0.1350E+00
     -4.043  0.0000E+00  0.0000E+00  0.1350E+00  0.1350E+00
     -4.005  0.0000E+00  0.0000E+00  0.1360E+00  0.1350E+00
     -3.967  0.2619E-01  0.0000E+00  0.1370E+00  0.1360E+00
     -3.929  0.0000E+00  0.0000E+00  0.1370E+00  0.1360E+00
     -3.890  0.0000E+00  0.0000E+00  0.1370E+00  0.1370E+00
     -3.852  0.0000E+00  0.0000E+00  0.1370E+00  0.1370E+00
     -3.814  0.0000E+00  0.0000E+00  0.1370E+00  0.1370E+00
     -3.776  0.0000E+00  0.0000E+00  0.1370E+00  0.1370E+00
     -3.738  0.0000E+00  0.0000E+00  0.1370E+00  0.1370E+00
     -3.700  0.0000E+00  0.0000E+00  0.1370E+00  0.1370E+00
     -3.661  0.0000E+00  0.0000E+00  0.1370E+00  0.1370E+00
     -3.623  0.0000E+00  0.0000E+00  0.1370E+00  0.1370E+00
     -3.585  0.0000E+00  0.0000E+00  0.1370E+00  0.1370E+00
     -3.547  0.0000E+00  0.0000E+00  0.1370E+00  0.1370E+00
     -3.509  0.0000E+00  0.0000E+00  0.1370E+00  0.1370E+00
     -3.470  0.0000E+00  0.0000E+00  0.1370E+00  0.1370E+00
     -3.432  0.0000E+00  0.0000E+00  0.1370E+00  0.1370E+00
     -3.394  0.0000E+00  0.0000E+00  0.1370E+00  0.1370E+00
     -3.356  0.0000E+00  0.0000E+00  0.1370E+00  0.1370E+00
     -3.318  0.0000E+00  0.0000E+00  0.1370E+00  0.1370E+00
     -3.280  0.0000E+00  0.0000E+00  0.1370E+00  0.1370E+00
     -3.241  0.0000E+00  0.0000E+00  0.1380E+00  0.1370E+00
     -3.203  0.0000E+00  0.0000E+00  0.1380E+00  0.1370E+00
     -3.165  0.0000E+00  0.0000E+00  0.1380E+00  0.1380E+00
     -3.127  0.0000E+00  0.0000E+00  0.1380E+00  0.1380E+00
     -3.089  0.0000E+00  0.0000E+00  0.1380E+00  0.1380E+00
     -3.050  0.0000E+00  0.0000E+00  0.1380E+00  0.1380E+00
     -3.012  0.0000E+00  0.0000E+00  0.1380E+00  0.1380E+00
     -2.974  0.0000E+00  0.0000E+00  0.1390E+00  0.1380E+00
     -2.936  0.0000E+00  0.0000E+00  0.1390E+00  0.1390E+00
     -2.898  0.0000E+00  0.0000E+00  0.1390E+00  0.1390E+00
     -2.860  0.0000E+00  0.0000E+00  0.1400E+00  0.1390E+00
     -2.821  0.0000E+00  0.0000E+00  0.1400E+00  0.1400E+00
     -2.783  0.2619E-01  0.0000E+00  0.1410E+00  0.1400E+00
     -2.745  0.0000E+00  0.0000E+00  0.1410E+00  0.1410E+00
     -2.707  0.0000E+00  0.0000E+00  0.1410E+00  0.1410E+00
     -2.669  0.0000E+00  0.0000E+00  0.1410E+00  0.1410E+00
     -2.630  0.0000E+00  0.0000E+00  0.1410E+00  0.1410E+00
     -2.592  0.0000E+00  0.0000E+00  0.1410E+00  0.1410E+00
     -2.554  0.0000E+00  0.0000E+00  0.1410E+00  0.1410E+00
     -2.516  0.0000E+00  0.0000E+00  0.1420E+00  0.1410E+00
     -2.478  0.0000E+00  0.0000E+00  0.1420E+00  0.1420E+00
     -2.439  0.0000E+00  0.0000E+00  0.1430E+00  0.1420E+00
     -2.401  0.0000E+00  0.0000E+00  0.1430E+00  0.1430E+00
     -2.363  0.0000E+00  0.0000E+00  0.1440E+00  0.1430E+00
     -2.325  0.0000E+00  0.0000E+00  0.1440E+00  0.1440E+00
     -2.287  0.0000E+00  0.0000E+00  0.1440E+00  0.1440E+00
     -2.249  0.0000E+00  0.0000E+00  0.1440E+00  0.1440E+00
     -2.210  0.0000E+00  0.0000E+00  0.1440E+00  0.1440E+00
     -2.172  0.0000E+00  0.0000E+00  0.1440E+00  0.1440E+00
     -2.134  0.0000E+00  0.0000E+00  0.1450E+00  0.1440E+00
     -2.096  0.0000E+00  0.0000E+00  0.1450E+00  0.1450E+00
     -2.058  0.0000E+00  0.0000E+00  0.1450E+00  0.1450E+00
     -2.019  0.0000E+00  0.0000E+00  0.1450E+00  0.1450E+00
     -1.981  0.0000E+00  0.0000E+00  0.1460E+00  0.1450E+00
     -1.943  0.0000E+00  0.0000E+00  0.1460E+00  0.1450E+00
     -1.905  0.0000E+00  0.0000E+00  0.1460E+00  0.1460E+00
     -1.867  0.0000E+00  0.0000E+00  0.1460E+00  0.1460E+00
     -1.829  0.0000E+00  0.0000E+00  0.1460E+00  0.1460E+00
     -1.790  0.0000E+00  0.0000E+00  0.1460E+00  0.1460E+00
     -1.752  0.0000E+00  0.0000E+00  0.1460E+00  0.1460E+00
     -1.714  0.0000E+00  0.0000E+00  0.1470E+00  0.1460E+00
     -1.676  0.0000E+00  0.2619E-01  0.1470E+00  0.1470E+00
     -1.638  0.0000E+00  0.0000E+00  0.1470E+00  0.1470E+00
     -1.599  0.0000E+00  0.0000E+00  0.1470E+00  0.1470E+00
     -1.561  0.0000E+00  0.0000E+00  0.1470E+00  0.1470E+00
     -1.523  0.0000E+00  0.0000E+00  0.1470E+00  0.1470E+00
     -1.485  0.0000E+00  0.0000E+00  0.1480E+00  0.1470E+00
     -1.447  0.0000E+00  0.0000E+00  0.1480E+00  0.1470E+00
     -1.409  0.0000E+00  0.0000E+00  0.1490E+00  0.1480E+00
     -1.370  0.0000E+00  0.0000E+00  0.1490E+00  0.1490E+00
     -1.332  0.0000E+00  0.0000E+00  0.1500E+00  0.1490E+00
     -1.294  0.0000E+00  0.0000E+00  0.1500E+00  0.1490E+00
     -1.256  0.0000E+00  0.0000E+00  0.1500E+00  0.1500E+00
     -1.218  0.0000E+00  0.0000E+00  0.1500E+00  0.1500E+00
     -1.179  0.0000E+00  0.0000E+00  0.1510E+00  0.1500E+00
     -1.141  0.0000E+00  0.0000E+00  0.1510E+00  0.1510E+00
     -1.103  0.0000E+00  0.0000E+00  0.1510E+00  0.1510E+00
     -1.065  0.0000E+00  0.0000E+00  0.1520E+00  0.1520E+00
     -1.027  0.0000E+00  0.0000E+00  0.1520E+00  0.1520E+00
     -0.989  0.2592E-01  0.0000E+00  0.1530E+00  0.1520E+00
     -0.950  0.0000E+00  0.0000E+00  0.1530E+00  0.1530E+00
     -0.912  0.0000E+00  0.0000E+00  0.1530E+00  0.1530E+00
     -0.874  0.0000E+00  0.0000E+00  0.1530E+00  0.1530E+00
     -0.836  0.0000E+00  0.0000E+00  0.1530E+00  0.1530E+00
     -0.798  0.0000E+00  0.0000E+00  0.1540E+00  0.1530E+00
     -0.759  0.0000E+00  0.0000E+00  0.1540E+00  0.1540E+00
     -0.721  0.0000E+00  0.0000E+00  0.1540E+00  0.1540E+00
     -0.683  0.0000E+00  0.0000E+00  0.1550E+00  0.1540E+00
     -0.645  0.0000E+00  0.0000E+00  0.1550E+00  0.1540E+00
     -0.607  0.0000E+00  0.0000E+00  0.1560E+00  0.1550E+00
     -0.569  0.0000E+00  0.0000E+00  0.1560E+00  0.1560E+00
     -0.530  0.2619E-01  0.0000E+00  0.1570E+00  0.1560E+00
     -0.492  0.0000E+00  0.0000E+00  0.1570E+00  0.1560E+00
     -0.454  0.0000E+00  0.0000E+00  0.1570E+00  0.1570E+00
     -0.416  0.0000E+00  0.0000E+00  0.1570E+00  0.1570E+00
     -0.378  0.0000E+00  0.0000E+00  0.1570E+00  0.1570E+00
     -0.339  0.0000E+00  0.0000E+00  0.1580E+00  0.1570E+00
     -0.301  0.0000E+00  0.0000E+00  0.1590E+00  0.1580E+00
     -0.263  0.0000E+00  0.0000E+00  0.1590E+00  0.1590E+00
     -0.225  0.0000E+00  0.0000E+00  0.1600E+00  0.1590E+00
     -0.187  0.0000E+00  0.0000E+00  0.1600E+00  0.1600E+00
     -0.149  0.0000E+00  0.0000E+00  0.1600E+00  0.1600E+00
     -0.110  0.0000E+00  0.0000E+00  0.1610E+00  0.1600E+00
     -0.072  0.0000E+00  0.0000E+00  0.1610E+00  0.1610E+00
     -0.034  0.0000E+00  0.0000E+00  0.1620E+00  0.1610E+00
      0.004  0.0000E+00  0.0000E+00  0.1630E+00  0.1620E+00
      0.042  0.0000E+00  0.0000E+00  0.1630E+00  0.1630E+00
      0.081  0.0000E+00  0.0000E+00  0.1630E+00  0.1630E+00
      0.119  0.0000E+00  0.0000E+00  0.1630E+00  0.1630E+00
      0.157  0.0000E+00  0.0000E+00  0.1640E+00  0.1630E+00
      0.195  0.0000E+00  0.0000E+00  0.1640E+00  0.1630E+00
      0.233  0.0000E+00  0.0000E+00  0.1640E+00  0.1640E+00
      0.271  0.0000E+00  0.0000E+00  0.1640E+00  0.1640E+00
      0.310  0.0000E+00  0.0000E+00  0.1650E+00  0.1640E+00
      0.348  0.0000E+00  0.0000E+00  0.1650E+00  0.1640E+00
      0.386  0.0000E+00  0.0000E+00  0.1660E+00  0.1650E+00
      0.424  0.0000E+00  0.0000E+00  0.1670E+00  0.1660E+00
      0.462  0.0000E+00  0.0000E+00  0.1670E+00  0.1670E+00
      0.501  0.0000E+00  0.0000E+00  0.1670E+00  0.1670E+00
      0.539  0.0000E+00  0.0000E+00  0.1670E+00  0.1670E+00
      0.577  0.0000E+00  0.0000E+00  0.1690E+00  0.1680E+00
      0.615  0.0000E+00  0.0000E+00  0.1690E+00  0.1690E+00
      0.653  0.0000E+00  0.0000E+00  0.1690E+00  0.1690E+00
      0.691  0.0000E+00  0.0000E+00  0.1690E+00  0.1690E+00
      0.730  0.0000E+00  0.0000E+00  0.1710E+00  0.1690E+00
      0.768  0.0000E+00  0.0000E+00  0.1720E+00  0.1710E+00
      0.806  0.0000E+00  0.0000E+00  0.1740E+00  0.1730E+00
      0.844  0.0000E+00  0.2619E-01  0.1740E+00  0.1740E+00
      0.882  0.0000E+00  0.0000E+00  0.1750E+00  0.1740E+00
      0.921  0.0000E+00  0.0000E+00  0.1750E+00  0.1750E+00
      0.959  0.0000E+00  0.0000E+00  0.1770E+00  0.1750E+00
      0.997  0.0000E+00  0.0000E+00  0.1770E+00  0.1770E+00
      1.035  0.0000E+00  0.0000E+00  0.1790E+00  0.1770E+00
      1.073  0.0000E+00  0.0000E+00  0.1800E+00  0.1790E+00
      1.111  0.0000E+00  0.0000E+00  0.1800E+00  0.1800E+00
      1.150  0.0000E+00  0.0000E+00  0.1800E+00  0.1800E+00
      1.188  0.0000E+00  0.0000E+00  0.1800E+00  0.1800E+00
      1.226  0.0000E+00  0.0000E+00  0.1800E+00  0.1800E+00
      1.264  0.0000E+00  0.0000E+00  0.1800E+00  0.1800E+00
      1.302  0.0000E+00  0.0000E+00  0.1800E+00  0.1800E+00
      1.341  0.0000E+00  0.0000E+00  0.1800E+00  0.1800E+00
      1.379  0.0000E+00  0.0000E+00  0.1800E+00  0.1800E+00
      1.417  0.0000E+00  0.0000E+00  0.1800E+00  0.1800E+00
      1.455  0.0000E+00  0.0000E+00  0.1800E+00  0.1800E+00
      1.493  0.0000E+00  0.0000E+00  0.1800E+00  0.1800E+00
      1.531  0.0000E+00  0.0000E+00  0.1800E+00  0.1800E+00
      1.570  0.0000E+00  0.0000E+00  0.1800E+00  0.1800E+00
      1.608  0.0000E+00  0.0000E+00  0.1800E+00  0.1800E+00
