   55   55 1000    2
  0.2541847E+03  0.2409003E-08  0.2409003E-08  0.2409003E-08  0.1000000E-15
  1.000000000000000E-004
  CAR 
 unknown system                          
    605      1    392
 
  0.0000000E+00  0.0000000E+00  0.0000000E+00  0.1000000E+01
    1       -9.629962     -9.615233
    2       -9.125805     -9.116634
    3       -9.058553     -9.049466
    4       -9.038015     -9.031373
    5       -8.993359     -8.988093
    6       -8.962543     -8.956273
    7       -8.927332     -8.920507
    8       -8.905068     -8.898546
    9       -8.897482     -8.889900
   10       -8.858730     -8.851948
   11       -8.845810     -8.840909
   12       -8.834199     -8.825543
   13       -8.793188     -8.787724
   14       -8.782890     -8.774927
   15       -8.763259     -8.755890
   16       -8.740977     -8.731077
   17       -8.732675     -8.725858
   18       -8.707780     -8.701655
   19       -8.697373     -8.690572
   20       -8.683127     -8.676092
   21       -8.675785     -8.671189
   22       -8.648483     -8.642137
   23       -8.645012     -8.638325
   24       -8.629211     -8.623397
   25       -8.609914     -8.603907
   26       -8.596781     -8.590321
   27       -8.582710     -8.576669
   28       -8.570583     -8.562924
   29       -8.559602     -8.553892
   30       -8.546052     -8.537423
   31       -8.526763     -8.520240
   32       -8.509270     -8.503194
   33       -8.501578     -8.493303
   34       -8.486784     -8.479821
   35       -8.459751     -8.452392
   36       -8.456476     -8.451411
   37       -8.445234     -8.439718
   38       -8.435745     -8.426930
   39       -8.411960     -8.405514
   40       -8.393574     -8.386874
   41       -8.388097     -8.379334
   42       -8.367221     -8.360547
   43       -8.347214     -8.340275
   44       -8.339604     -8.332563
   45       -8.330495     -8.325017
   46       -8.320975     -8.314559
   47       -8.313838     -8.308169
   48       -8.301055     -8.294139
   49       -8.285231     -8.278960
   50       -8.271241     -8.264216
   51       -8.260528     -8.253912
   52       -8.249824     -8.242988
   53       -8.236851     -8.231644
   54       -8.222221     -8.216329
   55       -8.200178     -8.195192
   56       -8.190737     -8.183532
   57       -8.179451     -8.173630
   58       -8.154616     -8.148888
   59       -8.140040     -8.132882
   60       -8.127073     -8.120663
   61       -8.116382     -8.110683
   62       -8.101647     -8.095458
   63       -8.091388     -8.085210
   64       -8.076736     -8.070263
   65       -8.075806     -8.068590
   66       -8.064427     -8.057816
   67       -8.044264     -8.038748
   68       -8.022090     -8.014581
   69       -8.010681     -8.004630
   70       -8.000793     -7.995654
   71       -7.990470     -7.985096
   72       -7.978256     -7.971033
   73       -7.971295     -7.965868
   74       -7.964836     -7.957401
   75       -7.950060     -7.944383
   76       -7.946849     -7.942537
   77       -7.930185     -7.923616
   78       -7.924438     -7.919838
   79       -7.901278     -7.896300
   80       -7.882872     -7.877341
   81       -7.869991     -7.864527
   82       -7.857338     -7.851791
   83       -7.836997     -7.831664
   84       -7.827927     -7.822523
   85       -7.814511     -7.808781
   86       -7.803726     -7.797882
   87       -7.794485     -7.788936
   88       -7.789336     -7.784435
   89       -7.776147     -7.770007
   90       -7.755155     -7.750014
   91       -7.730132     -7.724803
   92       -7.720099     -7.714798
   93       -7.718578     -7.712330
   94       -7.717955     -7.711748
   95       -7.699293     -7.693714
   96       -7.687698     -7.681665
   97       -7.680894     -7.675689
   98       -7.675479     -7.669632
   99       -7.658130     -7.652367
  100       -7.656306     -7.650984
  101       -7.633908     -7.628433
  102       -7.627915     -7.622957
  103       -7.605042     -7.600330
  104       -7.603553     -7.596859
  105       -7.594248     -7.589146
  106       -7.584857     -7.579194
  107       -7.578027     -7.573018
  108       -7.567324     -7.561850
  109       -7.555913     -7.550761
  110       -7.541259     -7.535029
  111       -7.531164     -7.525005
  112       -7.524651     -7.520357
  113       -7.514152     -7.507743
  114       -7.502125     -7.497203
  115       -7.485748     -7.480000
  116       -7.474383     -7.469538
  117       -7.469048     -7.462555
  118       -7.458106     -7.453267
  119       -7.446150     -7.439907
  120       -7.438047     -7.432564
  121       -7.427428     -7.421555
  122       -7.412652     -7.407818
  123       -7.409660     -7.403787
  124       -7.400771     -7.395537
  125       -7.387502     -7.382148
  126       -7.374288     -7.369336
  127       -7.361115     -7.356010
  128       -7.355358     -7.349570
  129       -7.330710     -7.325629
  130       -7.320878     -7.315484
  131       -7.313589     -7.308094
  132       -7.303051     -7.296707
  133       -7.294975     -7.289892
  134       -7.289211     -7.284241
  135       -7.278368     -7.271543
  136       -7.259222     -7.254144
  137       -7.247840     -7.242836
  138       -7.236210     -7.230969
  139       -7.230609     -7.224914
  140       -7.226376     -7.220562
  141       -7.212638     -7.208185
  142       -7.203042     -7.198784
  143       -7.193044     -7.187568
  144       -7.180768     -7.175355
  145       -7.168703     -7.162913
  146       -7.152837     -7.147569
  147       -7.149684     -7.144536
  148       -7.135472     -7.130385
  149       -7.121531     -7.116971
  150       -7.112901     -7.107192
  151       -7.104390     -7.098908
  152       -7.095010     -7.089806
  153       -7.088388     -7.083531
  154       -7.079554     -7.074667
  155       -7.055880     -7.051057
  156       -7.044879     -7.038667
  157       -7.035803     -7.030752
  158       -7.023581     -7.017821
  159       -7.019919     -7.015366
  160       -7.007333     -7.002853
  161       -6.994915     -6.989851
  162       -6.989467     -6.984165
  163       -6.981549     -6.976451
  164       -6.974294     -6.969439
  165       -6.962604     -6.956938
  166       -6.957003     -6.952128
  167       -6.945527     -6.939886
  168       -6.928023     -6.923222
  169       -6.925017     -6.918145
  170       -6.913891     -6.908816
  171       -6.901222     -6.894619
  172       -6.888258     -6.883317
  173       -6.886337     -6.881095
  174       -6.869145     -6.863013
  175       -6.863191     -6.858274
  176       -6.847160     -6.842108
  177       -6.839492     -6.833564
  178       -6.829124     -6.823265
  179       -6.819712     -6.813678
  180       -6.817043     -6.811435
  181       -6.807487     -6.801845
  182       -6.793889     -6.787523
  183       -6.785862     -6.780400
  184       -6.771937     -6.767317
  185       -6.770226     -6.765626
  186       -6.763553     -6.757558
  187       -6.755476     -6.749371
  188       -6.746869     -6.742621
  189       -6.730871     -6.725633
  190       -6.725229     -6.719786
  191       -6.717937     -6.712192
  192       -6.711793     -6.706595
  193       -6.701361     -6.696547
  194       -6.697657     -6.691402
  195       -6.684148     -6.678460
  196       -6.678236     -6.672734
  197       -6.671823     -6.667093
  198       -6.660347     -6.654092
  199       -6.653593     -6.647914
  200       -6.642528     -6.638405
  201       -6.637548     -6.633021
  202       -6.626483     -6.621542
  203       -6.615791     -6.611390
  204       -6.605070     -6.600428
  205       -6.598101     -6.593994
  206       -6.591140     -6.585606
  207       -6.589090     -6.584399
  208       -6.582699     -6.578712
  209       -6.575708     -6.569537
  210       -6.570460     -6.566170
  211       -6.561659     -6.556917
  212       -6.558129     -6.552716
  213       -6.545540     -6.538830
  214       -6.540362     -6.536267
  215       -6.532828     -6.527599
  216       -6.530683     -6.525316
  217       -6.516394     -6.512041
  218       -6.513847     -6.509253
  219       -6.502496     -6.497561
  220       -6.491081     -6.486597
  221       -6.486096     -6.480565
  222       -6.476133     -6.471188
  223       -6.475007     -6.470792
  224       -6.465296     -6.459610
  225       -6.452598     -6.447883
  226       -6.448311     -6.443445
  227       -6.442122     -6.437523
  228       -6.434379     -6.429803
  229       -6.431878     -6.426569
  230       -6.426504     -6.421659
  231       -6.421492     -6.416817
  232       -6.404748     -6.399996
  233       -6.397751     -6.392534
  234       -6.388198     -6.383605
  235       -6.382408     -6.377874
  236       -6.367721     -6.364035
  237       -6.366408     -6.361823
  238       -6.358453     -6.354017
  239       -6.350011     -6.345969
  240       -6.340851     -6.336045
  241       -6.330769     -6.326277
  242       -6.325008     -6.320370
  243       -6.321914     -6.317188
  244       -6.313349     -6.309383
  245       -6.307549     -6.303833
  246       -6.299623     -6.295218
  247       -6.287437     -6.283203
  248       -6.284586     -6.279844
  249       -6.279172     -6.274342
  250       -6.268624     -6.263681
  251       -6.258874     -6.254020
  252       -6.257492     -6.252083
  253       -6.244376     -6.239661
  254       -6.235381     -6.231631
  255       -6.229239     -6.224869
  256       -6.222752     -6.217943
  257       -6.221537     -6.216869
  258       -6.204596     -6.200135
  259       -6.193917     -6.189264
  260       -6.189256     -6.183965
  261       -6.180215     -6.174863
  262       -6.174526     -6.170055
  263       -6.166413     -6.162263
  264       -6.164253     -6.159211
  265       -6.148681     -6.143795
  266       -6.127889     -6.123214
  267       -6.126658     -6.121214
  268       -6.116704     -6.111920
  269       -6.105376     -6.100653
  270       -6.099498     -6.094617
  271       -6.079232     -6.073907
  272       -6.073318     -6.068520
  273       -6.052302     -6.047114
  274       -6.047489     -6.042348
  275       -6.035362     -6.030805
  276       -6.024775     -6.019807
  277       -6.020104     -6.015432
  278       -6.000938     -5.996453
  279       -5.988791     -5.984068
  280       -5.961427     -5.956438
  281       -5.946171     -5.941105
  282       -5.928669     -5.922646
  283       -5.853042     -5.849459
  284       -5.789683     -5.778858
  285       -5.565084     -5.552604
  286       -5.428703     -5.416892
  287       -5.300342     -5.286361
  288       -5.262295     -5.251568
  289       -5.058104     -5.043281
  290       -4.891405     -4.877555
  291       -4.718088     -4.700089
  292       -4.567942     -4.544230
  293       -4.357339     -4.340081
  294       -4.234441     -4.221689
  295       -4.102308     -4.086180
  296       -4.047872     -4.030591
  297       -3.921029     -3.904400
  298       -3.848299     -3.835478
  299       -3.785111     -3.769891
  300       -3.574247     -3.560529
  301       -3.530324     -3.512529
  302       -3.373972     -3.356106
  303       -3.156384     -3.095024
  304       -2.997606     -2.981121
  305       -2.894899     -2.879983
  306       -2.702457     -2.685053
  307       -2.650802     -2.631850
  308       -2.587180     -2.571714
  309       -2.474213     -2.455044
  310       -2.420450     -2.401502
  311       -2.380259     -2.364780
  312       -2.270439     -2.254088
  313       -2.237664     -2.221588
  314       -2.112726     -2.092946
  315       -2.051383     -2.035973
  316       -1.933978     -1.919805
  317       -1.896703     -1.870240
  318       -1.743671     -1.715320
  319       -1.711670     -1.696143
  320       -1.559750     -1.536797
  321       -1.448847     -1.426680
  322       -1.387316     -1.370095
  323       -1.321030     -1.286715
  324       -1.187210     -1.167957
  325       -1.183684     -1.167342
  326       -1.156642     -1.140773
  327       -1.094700     -1.072944
  328       -1.047824     -1.027496
  329       -1.021344     -1.005513
  330       -0.865696     -0.841518
  331       -0.812171     -0.785956
  332       -0.763974     -0.743531
  333       -0.745779     -0.728526
  334       -0.683269     -0.665079
  335       -0.574265     -0.557680
  336       -0.568804     -0.548126
  337       -0.468338     -0.448913
  338       -0.430689     -0.404069
  339       -0.362302     -0.341040
  340       -0.321094     -0.303311
  341       -0.233914     -0.219817
  342       -0.145409     -0.124114
  343       -0.076895     -0.057004
  344       -0.021820     -0.002965
  345        0.020043      0.037357
  346        0.069817      0.093893
  347        0.186106      0.211404
  348        0.234560      0.259753
  349        0.289097      0.315710
  350        0.381592      0.404038
  351        0.499676      0.516314
  352        0.597087      0.614041
  353        0.664251      0.682142
  354        0.677841      0.701211
  355        0.722265      0.726799
  356        0.768633      0.783952
  357        0.802236      0.817854
  358        0.852557      0.870346
  359        0.900667      0.918570
  360        0.927354      0.949671
  361        0.943652      0.964026
  362        0.955334      0.966010
  363        0.981877      0.999352
  364        1.024215      1.027833
  365        1.037010      1.044058
  366        1.061063      1.073657
  367        1.068881      1.082972
  368        1.085371      1.094729
  369        1.114151      1.126724
  370        1.126369      1.145381
  371        1.133957      1.155694
  372        1.152865      1.159243
  373        1.168339      1.172061
  374        1.191824      1.213950
  375        1.222927      1.234947
  376        1.244513      1.257651
  377        1.297076      1.314934
  378        1.315999      1.329886
  379        1.332511      1.349351
  380        1.341293      1.353455
  381        1.362078      1.376993
  382        1.382137      1.392843
  383        1.384654      1.398409
  384        1.429037      1.455812
  385        1.447691      1.458420
  386        1.455790      1.470064
  387        1.472439      1.482616
  388        1.520203      1.528173
  389        1.522751      1.534879
  390        1.579155      1.596989
  391        1.590910      1.613528
  392        1.618820      1.627719
