       N       E                     dE             d eps       ncg     rms          rms(c)
DAV:   1     0.655476998599E+03    0.65548E+03   -0.18166E+04   320   0.544E+02
DAV:   2     0.104119535935E+03   -0.55136E+03   -0.49758E+03   520   0.127E+02
DAV:   3    -0.263784575139E+02   -0.13050E+03   -0.11641E+03   392   0.104E+02
DAV:   4    -0.375960717278E+02   -0.11218E+02   -0.98684E+01   360   0.382E+01
DAV:   5    -0.380523889382E+02   -0.45632E+00   -0.44870E+00   376   0.611E+00    0.183E+01
DAV:   6    -0.438970188704E+02   -0.58446E+01   -0.65909E+01   352   0.643E+01    0.588E+01
DAV:   7    -0.411232056173E+02    0.27738E+01   -0.10947E+02   344   0.514E+01    0.313E+01
DAV:   8    -0.413622639752E+02   -0.23906E+00   -0.15756E+01   376   0.510E+01    0.467E+01
DAV:   9    -0.377271139849E+02    0.36351E+01   -0.85965E+00   376   0.312E+01    0.353E+01
DAV:  10    -0.357860589845E+02    0.19411E+01   -0.44088E+00   440   0.232E+01    0.234E+01
DAV:  11    -0.361336648463E+02   -0.34761E+00   -0.34501E+00   464   0.253E+01    0.386E+01
DAV:  12    -0.355743453861E+02    0.55932E+00   -0.34706E+00   408   0.245E+01    0.404E+01
DAV:  13    -0.340940994054E+02    0.14802E+01   -0.38505E+00   424   0.198E+01    0.296E+01
DAV:  14    -0.338249205620E+02    0.26918E+00   -0.22552E+00   408   0.136E+01    0.215E+01
DAV:  15    -0.343241444732E+02   -0.49922E+00   -0.91235E-01   392   0.138E+01    0.252E+01
DAV:  16    -0.337509827396E+02    0.57316E+00   -0.12625E+00   360   0.119E+01    0.213E+01
DAV:  17    -0.336673617762E+02    0.83621E-01   -0.29109E-01   384   0.760E+00    0.217E+01
DAV:  18    -0.335757403538E+02    0.91621E-01   -0.27828E-01   328   0.506E+00    0.182E+01
DAV:  19    -0.335289229290E+02    0.46817E-01   -0.99728E-02   384   0.425E+00    0.158E+01
DAV:  20    -0.335611965706E+02   -0.32274E-01   -0.25692E-01   432   0.610E+00    0.131E+01
DAV:  21    -0.335681628009E+02   -0.69662E-02   -0.19984E-01   360   0.754E+00    0.127E+01
DAV:  22    -0.336533538429E+02   -0.85191E-01   -0.27260E-01   400   0.543E+00    0.112E+01
DAV:  23    -0.336549735958E+02   -0.16198E-02   -0.11133E-01   368   0.508E+00    0.106E+01
DAV:  24    -0.338272527562E+02   -0.17228E+00   -0.11268E-01   424   0.387E+00    0.831E+00
DAV:  25    -0.339784352340E+02   -0.15118E+00   -0.63401E-01   456   0.458E+00    0.598E+00
DAV:  26    -0.339218086969E+02    0.56627E-01   -0.76535E-02   424   0.286E+00    0.582E+00
DAV:  27    -0.338479776474E+02    0.73831E-01   -0.21899E-02   464   0.164E+00    0.558E+00
DAV:  28    -0.338938100501E+02   -0.45832E-01   -0.21662E-02   456   0.169E+00    0.541E+00
DAV:  29    -0.339374597905E+02   -0.43650E-01   -0.61821E-02   472   0.240E+00    0.385E+00
DAV:  30    -0.340148034586E+02   -0.77344E-01   -0.56225E-02   440   0.161E+00    0.301E+00
DAV:  31    -0.340452913607E+02   -0.30488E-01   -0.19929E-02   400   0.117E+00    0.306E+00
DAV:  32    -0.340514336455E+02   -0.61423E-02   -0.94164E-03   464   0.101E+00    0.258E+00
DAV:  33    -0.340980504586E+02   -0.46617E-01   -0.17430E-02   464   0.107E+00    0.229E+00
DAV:  34    -0.341174891756E+02   -0.19439E-01   -0.16145E-02   440   0.131E+00    0.265E+00
DAV:  35    -0.341399296975E+02   -0.22441E-01   -0.13779E-02   464   0.106E+00    0.276E+00
DAV:  36    -0.341645750443E+02   -0.24645E-01   -0.16953E-02   456   0.140E+00    0.172E+00
DAV:  37    -0.341864337163E+02   -0.21859E-01   -0.16757E-02   456   0.104E+00    0.139E+00
DAV:  38    -0.341641144369E+02    0.22319E-01   -0.51394E-03   376   0.594E-01    0.157E+00
DAV:  39    -0.341204165773E+02    0.43698E-01   -0.92856E-03   448   0.910E-01    0.240E+00
DAV:  40    -0.340766096380E+02    0.43807E-01   -0.93170E-03   464   0.760E-01    0.351E+00
DAV:  41    -0.340558680676E+02    0.20742E-01   -0.24532E-03   360   0.391E-01    0.365E+00
DAV:  42    -0.340519194704E+02    0.39486E-02   -0.43558E-04   248   0.161E-01    0.367E+00
DAV:  43    -0.340510395484E+02    0.87992E-03   -0.19922E-04   224   0.136E-01    0.354E+00
DAV:  44    -0.340698965760E+02   -0.18857E-01   -0.13714E-03   288   0.290E-01    0.309E+00
DAV:  45    -0.341189281768E+02   -0.49032E-01   -0.77806E-03   488   0.772E-01    0.240E+00
DAV:  46    -0.341635559313E+02   -0.44628E-01   -0.21277E-02   472   0.149E+00    0.135E+00
DAV:  47    -0.342034241108E+02   -0.39868E-01   -0.95594E-03   416   0.779E-01    0.805E-01
DAV:  48    -0.342128500117E+02   -0.94259E-02   -0.31283E-03   376   0.451E-01    0.732E-01
DAV:  49    -0.342144060745E+02   -0.15561E-02   -0.22564E-03   400   0.442E-01    0.877E-01
DAV:  50    -0.342131641321E+02    0.12419E-02   -0.11816E-03   384   0.330E-01    0.890E-01
DAV:  51    -0.342153777832E+02   -0.22137E-02   -0.19972E-03   392   0.452E-01    0.463E-01
DAV:  52    -0.342162583410E+02   -0.88056E-03   -0.13516E-03   352   0.344E-01    0.484E-01
DAV:  53    -0.342227083452E+02   -0.64500E-02   -0.11997E-03   312   0.248E-01    0.495E-01
DAV:  54    -0.342247102133E+02   -0.20019E-02   -0.85077E-04   352   0.260E-01    0.532E-01
DAV:  55    -0.342258851411E+02   -0.11749E-02   -0.11158E-03   384   0.284E-01    0.588E-01
DAV:  56    -0.342287622672E+02   -0.28771E-02   -0.10469E-03   368   0.308E-01    0.583E-01
DAV:  57    -0.342315184666E+02   -0.27562E-02   -0.51694E-04   336   0.248E-01    0.435E-01
DAV:  58    -0.342342324338E+02   -0.27140E-02   -0.17888E-04   216   0.909E-02    0.389E-01
DAV:  59    -0.342371502817E+02   -0.29178E-02   -0.13226E-04   216   0.105E-01    0.289E-01
DAV:  60    -0.342411534214E+02   -0.40031E-02   -0.27133E-04   232   0.128E-01
   1 F= -.34241153E+02 E0= -.34241153E+02  d E =-.342412E+02  mag=    11.9820
       N       E                     dE             d eps       ncg     rms          rms(c)
DAV:   1    -0.347599680400E+02   -0.52282E+00   -0.24023E+01   320   0.165E+01    0.170E+00
DAV:   2    -0.348682275585E+02   -0.10826E+00   -0.41505E-01   440   0.814E+00    0.100E+01
DAV:   3    -0.345288183748E+02    0.33941E+00   -0.46464E-01   360   0.940E+00    0.290E+00
DAV:   4    -0.348601704708E+02   -0.33135E+00   -0.41518E-01   432   0.643E+00    0.901E+00
DAV:   5    -0.345855317170E+02    0.27464E+00   -0.20015E-01   344   0.561E+00    0.165E+00
DAV:   6    -0.347455878157E+02   -0.16006E+00   -0.33738E-02   384   0.247E+00    0.110E+00
DAV:   7    -0.347886169475E+02   -0.43029E-01   -0.16752E-02   408   0.190E+00    0.136E+00
DAV:   8    -0.347862264208E+02    0.23905E-02   -0.84684E-03   368   0.152E+00    0.967E-01
DAV:   9    -0.347906752419E+02   -0.44488E-02   -0.43231E-03   368   0.108E+00    0.854E-01
DAV:  10    -0.347938697832E+02   -0.31945E-02   -0.48114E-03   392   0.892E-01    0.690E-01
DAV:  11    -0.347951605036E+02   -0.12907E-02   -0.20815E-03   360   0.766E-01    0.306E-01
DAV:  12    -0.347989123238E+02   -0.37518E-02   -0.98623E-04   360   0.605E-01    0.470E-01
DAV:  13    -0.347988972505E+02    0.15073E-04   -0.90331E-04   336   0.631E-01
   2 F= -.34798897E+02 E0= -.34798897E+02  d E =-.557744E+00  mag=    11.9910
       N       E                     dE             d eps       ncg     rms          rms(c)
DAV:   1    -0.361148331609E+02   -0.13159E+01   -0.22077E+02   320   0.519E+01    0.507E+00
DAV:   2    -0.369466282352E+02   -0.83180E+00   -0.36257E+00   424   0.223E+01    0.220E+01
DAV:   3    -0.358356937422E+02    0.11109E+01   -0.25816E+00   352   0.253E+01    0.121E+01
DAV:   4    -0.365747136317E+02   -0.73902E+00   -0.12630E+00   440   0.166E+01    0.218E+01
DAV:   5    -0.358424219313E+02    0.73229E+00   -0.69390E-01   352   0.124E+01    0.689E+00
DAV:   6    -0.362036236570E+02   -0.36120E+00   -0.48547E-01   416   0.876E+00    0.772E+00
DAV:   7    -0.362621418916E+02   -0.58518E-01   -0.43927E-01   392   0.724E+00    0.532E+00
DAV:   8    -0.363070204967E+02   -0.44879E-01   -0.10602E-01   368   0.585E+00    0.354E+00
DAV:   9    -0.363597748707E+02   -0.52754E-01   -0.94927E-02   456   0.423E+00    0.429E+00
DAV:  10    -0.363596913898E+02    0.83481E-04   -0.79641E-02   392   0.387E+00    0.293E+00
DAV:  11    -0.363731166829E+02   -0.13425E-01   -0.29121E-02   424   0.300E+00    0.246E+00
DAV:  12    -0.363918455767E+02   -0.18729E-01   -0.26311E-02   400   0.245E+00    0.182E+00
DAV:  13    -0.364048097126E+02   -0.12964E-01   -0.12238E-02   384   0.216E+00    0.108E+00
DAV:  14    -0.364282032116E+02   -0.23393E-01   -0.73133E-03   416   0.153E+00    0.150E+00
DAV:  15    -0.364283132776E+02   -0.11007E-03   -0.66233E-03   376   0.168E+00    0.916E-01
DAV:  16    -0.364494180079E+02   -0.21105E-01   -0.10409E-02   456   0.153E+00    0.173E+00
DAV:  17    -0.364427378424E+02    0.66802E-02   -0.11656E-02   368   0.162E+00    0.590E-01
DAV:  18    -0.364581772479E+02   -0.15439E-01   -0.57446E-03   448   0.120E+00    0.120E+00
DAV:  19    -0.364554483414E+02    0.27289E-02   -0.56082E-03   368   0.111E+00    0.468E-01
DAV:  20    -0.364616832001E+02   -0.62349E-02   -0.24971E-03   440   0.723E-01    0.564E-01
DAV:  21    -0.364626109061E+02   -0.92771E-03   -0.19634E-03   360   0.708E-01    0.442E-01
DAV:  22    -0.364632210646E+02   -0.61016E-03   -0.15643E-03   360   0.527E-01    0.247E-01
DAV:  23    -0.364640269043E+02   -0.80584E-03   -0.33802E-04   264   0.263E-01    0.165E-01
DAV:  24    -0.364641994757E+02   -0.17257E-03   -0.15587E-04   224   0.150E-01    0.153E-01
DAV:  25    -0.364650745170E+02   -0.87504E-03   -0.14051E-04   224   0.127E-01    0.646E-02
DAV:  26    -0.364659826073E+02   -0.90809E-03   -0.17735E-04   232   0.821E-02    0.755E-02
DAV:  27    -0.364664950914E+02   -0.51248E-03   -0.92658E-05   224   0.815E-02    0.669E-02
DAV:  28    -0.364669351182E+02   -0.44003E-03   -0.47461E-05   216   0.452E-02    0.591E-02
DAV:  29    -0.364673036456E+02   -0.36853E-03   -0.30788E-05   208   0.280E-02    0.573E-02
DAV:  30    -0.364676743375E+02   -0.37069E-03   -0.18420E-05   208   0.215E-02    0.525E-02
DAV:  31    -0.364683374083E+02   -0.66307E-03   -0.24590E-05   208   0.254E-02    0.478E-02
DAV:  32    -0.364699391683E+02   -0.16018E-02   -0.14189E-04   216   0.735E-02    0.334E-02
DAV:  33    -0.364712190582E+02   -0.12799E-02   -0.61290E-05   216   0.504E-02    0.246E-02
DAV:  34    -0.364717150358E+02   -0.49598E-03   -0.33538E-05   224   0.319E-02    0.150E-02
DAV:  35    -0.364721172174E+02   -0.40218E-03   -0.21828E-05   216   0.235E-02    0.175E-02
DAV:  36    -0.364725037222E+02   -0.38650E-03   -0.29498E-05   216   0.225E-02    0.210E-02
DAV:  37    -0.364727473251E+02   -0.24360E-03   -0.17512E-05   224   0.209E-02    0.181E-02
DAV:  38    -0.364728529138E+02   -0.10559E-03   -0.14349E-05   224   0.158E-02    0.121E-02
DAV:  39    -0.364728880863E+02   -0.35173E-04   -0.90169E-06   216   0.121E-02
   3 F= -.36472888E+02 E0= -.36472888E+02  d E =-.223173E+01  mag=    12.0012
       N       E                     dE             d eps       ncg     rms          rms(c)
DAV:   1    -0.381841323214E+02   -0.17113E+01   -0.95093E+02   320   0.121E+02    0.103E+01
DAV:   2    -0.429154416735E+02   -0.47313E+01   -0.18427E+01   416   0.529E+01    0.416E+01
DAV:   3    -0.398194796026E+02    0.30960E+01   -0.77717E+00   344   0.420E+01    0.232E+01
DAV:   4    -0.400248968513E+02   -0.20542E+00   -0.51204E+00   376   0.360E+01    0.286E+01
DAV:   5    -0.397313425040E+02    0.29355E+00   -0.24509E+00   376   0.229E+01    0.256E+01
DAV:   6    -0.390932817716E+02    0.63806E+00   -0.42361E+00   432   0.179E+01    0.179E+01
DAV:   7    -0.392696328147E+02   -0.17635E+00   -0.15632E+00   424   0.144E+01    0.149E+01
DAV:   8    -0.392854217237E+02   -0.15789E-01   -0.18983E+00   400   0.126E+01    0.143E+01
DAV:   9    -0.391968647857E+02    0.88557E-01   -0.11106E+00   352   0.103E+01    0.731E+00
DAV:  10    -0.393027370445E+02   -0.10587E+00   -0.26510E-01   416   0.715E+00    0.789E+00
DAV:  11    -0.392082660378E+02    0.94471E-01   -0.18951E-01   376   0.613E+00    0.685E+00
DAV:  12    -0.393281230056E+02   -0.11986E+00   -0.40522E-01   400   0.689E+00    0.777E+00
DAV:  13    -0.392912711845E+02    0.36852E-01   -0.13932E-01   360   0.524E+00    0.407E+00
DAV:  14    -0.393767121579E+02   -0.85441E-01   -0.94348E-02   384   0.456E+00    0.522E+00
DAV:  15    -0.394603243151E+02   -0.83612E-01   -0.69506E-02   392   0.385E+00    0.317E+00
DAV:  16    -0.395210295982E+02   -0.60705E-01   -0.58368E-02   368   0.415E+00    0.346E+00
DAV:  17    -0.395884852938E+02   -0.67456E-01   -0.51974E-02   392   0.359E+00    0.290E+00
DAV:  18    -0.395997736418E+02   -0.11288E-01   -0.31845E-02   360   0.325E+00    0.182E+00
DAV:  19    -0.396498034643E+02   -0.50030E-01   -0.33182E-02   416   0.267E+00    0.258E+00
DAV:  20    -0.396408896097E+02    0.89139E-02   -0.25258E-02   360   0.263E+00    0.135E+00
DAV:  21    -0.396691468444E+02   -0.28257E-01   -0.93354E-03   440   0.102E+00    0.915E-01
DAV:  22    -0.396812751299E+02   -0.12128E-01   -0.58571E-03   432   0.100E+00    0.677E-01
DAV:  23    -0.396881923106E+02   -0.69172E-02   -0.56879E-03   392   0.746E-01    0.588E-01
DAV:  24    -0.396884860872E+02   -0.29378E-03   -0.20271E-03   368   0.521E-01    0.439E-01
DAV:  25    -0.396889851599E+02   -0.49907E-03   -0.86477E-04   336   0.306E-01    0.341E-01
DAV:  26    -0.396903309245E+02   -0.13458E-02   -0.13301E-03   280   0.276E-01    0.263E-01
DAV:  27    -0.396915231017E+02   -0.11922E-02   -0.39350E-04   280   0.198E-01    0.235E-01
DAV:  28    -0.396923407392E+02   -0.81764E-03   -0.20330E-04   224   0.149E-01    0.146E-01
DAV:  29    -0.396948787459E+02   -0.25380E-02   -0.26168E-04   248   0.107E-01    0.121E-01
DAV:  30    -0.396975458845E+02   -0.26671E-02   -0.34067E-04   232   0.119E-01    0.124E-01
DAV:  31    -0.397002888798E+02   -0.27430E-02   -0.33513E-04   232   0.104E-01    0.126E-01
DAV:  32    -0.397028726928E+02   -0.25838E-02   -0.24667E-04   232   0.970E-02    0.890E-02
DAV:  33    -0.397056224333E+02   -0.27497E-02   -0.29511E-04   224   0.777E-02    0.857E-02
DAV:  34    -0.397077963136E+02   -0.21739E-02   -0.24631E-04   232   0.763E-02    0.792E-02
DAV:  35    -0.397095066306E+02   -0.17103E-02   -0.17236E-04   232   0.638E-02    0.787E-02
DAV:  36    -0.397097688874E+02   -0.26226E-03   -0.63654E-05   224   0.405E-02    0.820E-02
DAV:  37    -0.397079598595E+02    0.18090E-02   -0.77610E-05   208   0.553E-02    0.881E-02
DAV:  38    -0.397056561750E+02    0.23037E-02   -0.97380E-05   224   0.665E-02    0.900E-02
DAV:  39    -0.397096064629E+02   -0.39503E-02   -0.11138E-04   232   0.857E-02    0.602E-02
DAV:  40    -0.397115990438E+02   -0.19926E-02   -0.10678E-04   224   0.726E-02    0.463E-02
DAV:  41    -0.397129481708E+02   -0.13491E-02   -0.14460E-04   232   0.649E-02    0.416E-02
DAV:  42    -0.397139150112E+02   -0.96684E-03   -0.12359E-04   224   0.596E-02    0.450E-02
DAV:  43    -0.397144517604E+02   -0.53675E-03   -0.64139E-05   240   0.393E-02    0.449E-02
DAV:  44    -0.397139594286E+02    0.49233E-03   -0.27066E-05   216   0.330E-02    0.510E-02
DAV:  45    -0.397147184886E+02   -0.75906E-03   -0.44181E-05   208   0.497E-02    0.455E-02
DAV:  46    -0.397139089171E+02    0.80957E-03   -0.15063E-04   232   0.862E-02    0.453E-02
DAV:  47    -0.397142800506E+02   -0.37113E-03   -0.79650E-05   232   0.587E-02    0.428E-02
DAV:  48    -0.397143654690E+02   -0.85418E-04   -0.50249E-05   208   0.346E-02
   4 F= -.39714365E+02 E0= -.39714365E+02  d E =-.547321E+01  mag=    12.0046
       N       E                     dE             d eps       ncg     rms          rms(c)
DAV:   1    -0.283633770828E+02    0.11351E+02   -0.50294E+03   320   0.381E+02    0.261E+01
DAV:   2    -0.602976937102E+02   -0.31934E+02   -0.14071E+02   376   0.131E+02    0.728E+01
DAV:   3    -0.484905496159E+02    0.11807E+02   -0.42724E+01   360   0.805E+01    0.361E+01
DAV:   4    -0.500525806103E+02   -0.15620E+01   -0.43477E+01   408   0.814E+01    0.430E+01
DAV:   5    -0.463551492339E+02    0.36974E+01   -0.20426E+01   360   0.599E+01    0.364E+01
DAV:   6    -0.446070508111E+02    0.17481E+01   -0.11781E+01   368   0.427E+01    0.291E+01
DAV:   7    -0.438279391495E+02    0.77911E+00   -0.78355E+00   368   0.381E+01    0.244E+01
DAV:   8    -0.425935079951E+02    0.12344E+01   -0.37893E+00   416   0.279E+01    0.163E+01
DAV:   9    -0.421690986418E+02    0.42441E+00   -0.15446E+00   384   0.195E+01    0.991E+00
DAV:  10    -0.425120116010E+02   -0.34291E+00   -0.10762E+00   360   0.151E+01    0.102E+01
DAV:  11    -0.423480511618E+02    0.16396E+00   -0.30834E-01   352   0.908E+00    0.641E+00
DAV:  12    -0.423951994314E+02   -0.47148E-01   -0.14097E-01   352   0.657E+00    0.613E+00
DAV:  13    -0.423598993958E+02    0.35300E-01   -0.14815E-01   360   0.721E+00    0.590E+00
DAV:  14    -0.424801514067E+02   -0.12025E+00   -0.30533E-01   360   0.992E+00    0.761E+00
DAV:  15    -0.423446471893E+02    0.13550E+00   -0.33852E-01   376   0.890E+00    0.411E+00
DAV:  16    -0.424219727315E+02   -0.77326E-01   -0.24930E-01   408   0.714E+00    0.630E+00
DAV:  17    -0.423838845517E+02    0.38088E-01   -0.17404E-01   328   0.558E+00    0.273E+00
DAV:  18    -0.424742526600E+02   -0.90368E-01   -0.82419E-02   424   0.434E+00    0.259E+00
DAV:  19    -0.425511016763E+02   -0.76849E-01   -0.63382E-02   352   0.486E+00    0.133E+00
DAV:  20    -0.425898397479E+02   -0.38738E-01   -0.37136E-02   344   0.260E+00    0.121E+00
DAV:  21    -0.426427865282E+02   -0.52947E-01   -0.29640E-02   352   0.288E+00    0.148E+00
DAV:  22    -0.427074853963E+02   -0.64699E-01   -0.17387E-02   336   0.174E+00    0.701E-01
DAV:  23    -0.428213632700E+02   -0.11388E+00   -0.14060E-02   416   0.906E-01    0.529E-01
DAV:  24    -0.429058904297E+02   -0.84527E-01   -0.65965E-03   336   0.739E-01    0.307E-01
DAV:  25    -0.429972590190E+02   -0.91369E-01   -0.60803E-03   352   0.576E-01    0.312E-01
DAV:  26    -0.430821699171E+02   -0.84911E-01   -0.50337E-03   336   0.449E-01    0.255E-01
DAV:  27    -0.431587084629E+02   -0.76539E-01   -0.36263E-03   352   0.359E-01    0.159E-01
DAV:  28    -0.432068483849E+02   -0.48140E-01   -0.20281E-03   352   0.214E-01    0.105E-01
DAV:  29    -0.432485770963E+02   -0.41729E-01   -0.17026E-03   312   0.140E-01    0.121E-01
DAV:  30    -0.432699293141E+02   -0.21352E-01   -0.76751E-04   304   0.121E-01    0.112E-01
DAV:  31    -0.432818654845E+02   -0.11936E-01   -0.41750E-04   264   0.817E-02    0.122E-01
DAV:  32    -0.432837830433E+02   -0.19176E-02   -0.10157E-04   232   0.487E-02    0.138E-01
DAV:  33    -0.432832801901E+02    0.50285E-03   -0.60496E-05   232   0.669E-02    0.151E-01
DAV:  34    -0.432820352541E+02    0.12449E-02   -0.33847E-05   208   0.425E-02    0.160E-01
DAV:  35    -0.432880537700E+02   -0.60185E-02   -0.14289E-04   232   0.118E-01    0.116E-01
DAV:  36    -0.432979059461E+02   -0.98522E-02   -0.79642E-04   296   0.215E-01    0.614E-02
DAV:  37    -0.433030717887E+02   -0.51658E-02   -0.58890E-04   296   0.113E-01    0.563E-02
DAV:  38    -0.433061169563E+02   -0.30452E-02   -0.43611E-04   240   0.108E-01    0.710E-02
DAV:  39    -0.433079366918E+02   -0.18197E-02   -0.24117E-04   232   0.801E-02    0.756E-02
DAV:  40    -0.433058153257E+02    0.21214E-02   -0.14957E-04   224   0.115E-01    0.113E-01
DAV:  41    -0.433080981432E+02   -0.22828E-02   -0.84060E-05   208   0.852E-02    0.942E-02
DAV:  42    -0.433090540404E+02   -0.95590E-03   -0.20911E-04   232   0.111E-01    0.757E-02
DAV:  43    -0.433077129165E+02    0.13411E-02   -0.60541E-04   248   0.189E-01    0.515E-02
DAV:  44    -0.433098100776E+02   -0.20972E-02   -0.45131E-04   288   0.103E-01    0.673E-02
DAV:  45    -0.433103939685E+02   -0.58389E-03   -0.11957E-04   224   0.583E-02    0.873E-02
DAV:  46    -0.433086470179E+02    0.17470E-02   -0.66104E-05   216   0.734E-02    0.120E-01
DAV:  47    -0.433090659945E+02   -0.41898E-03   -0.21879E-05   216   0.430E-02    0.116E-01
DAV:  48    -0.433101804850E+02   -0.11145E-02   -0.58572E-05   216   0.607E-02    0.978E-02
DAV:  49    -0.433102257305E+02   -0.45246E-04   -0.51865E-05   208   0.446E-02
   5 F= -.43310226E+02 E0= -.43310226E+02  d E =-.906907E+01  mag=    10.0072
       N       E                     dE             d eps       ncg     rms          rms(c)
DAV:   1    -0.432120750872E+02    0.98105E-01   -0.84077E+01   320   0.318E+01    0.354E+00
DAV:   2    -0.443709436556E+02   -0.11589E+01   -0.33404E+00   424   0.235E+01    0.272E+01
DAV:   3    -0.429326324540E+02    0.14383E+01   -0.76718E-01   352   0.190E+01    0.102E+01
DAV:   4    -0.431675093142E+02   -0.23488E+00   -0.93039E-01   448   0.130E+01    0.592E+00
DAV:   5    -0.433063292779E+02   -0.13882E+00   -0.43947E-01   416   0.927E+00    0.617E+00
DAV:   6    -0.432011523147E+02    0.10518E+00   -0.12119E-01   360   0.706E+00    0.213E+00
DAV:   7    -0.432731275692E+02   -0.71975E-01   -0.69916E-02   448   0.429E+00    0.321E+00
DAV:   8    -0.432736258841E+02   -0.49831E-03   -0.43088E-02   376   0.371E+00    0.209E+00
DAV:   9    -0.432925995719E+02   -0.18974E-01   -0.52071E-02   352   0.362E+00    0.236E+00
DAV:  10    -0.432961506223E+02   -0.35511E-02   -0.27488E-02   408   0.326E+00    0.185E+00
DAV:  11    -0.432958590103E+02    0.29161E-03   -0.31958E-02   384   0.294E+00    0.123E+00
DAV:  12    -0.433136969760E+02   -0.17838E-01   -0.19869E-02   448   0.251E+00    0.177E+00
DAV:  13    -0.433012243559E+02    0.12473E-01   -0.14535E-02   384   0.234E+00    0.744E-01
DAV:  14    -0.433110921374E+02   -0.98678E-02   -0.63292E-03   472   0.117E+00    0.789E-01
DAV:  15    -0.433064016842E+02    0.46905E-02   -0.24341E-03   352   0.929E-01    0.528E-01
DAV:  16    -0.433057382477E+02    0.66344E-03   -0.84760E-04   360   0.244E-01    0.500E-01
DAV:  17    -0.433035542220E+02    0.21840E-02   -0.21823E-04   216   0.209E-01    0.493E-01
DAV:  18    -0.433048689221E+02   -0.13147E-02   -0.23978E-04   208   0.186E-01    0.471E-01
DAV:  19    -0.433081585988E+02   -0.32897E-02   -0.67828E-04   248   0.350E-01    0.481E-01
DAV:  20    -0.433123482876E+02   -0.41897E-02   -0.13602E-03   440   0.519E-01    0.409E-01
DAV:  21    -0.433147159104E+02   -0.23676E-02   -0.19550E-03   448   0.672E-01    0.401E-01
DAV:  22    -0.433183808917E+02   -0.36650E-02   -0.13933E-03   360   0.654E-01    0.209E-01
DAV:  23    -0.433197764024E+02   -0.13955E-02   -0.44974E-04   304   0.293E-01    0.104E-01
DAV:  24    -0.433202714264E+02   -0.49502E-03   -0.23609E-04   224   0.151E-01    0.790E-02
DAV:  25    -0.433204777897E+02   -0.20636E-03   -0.17364E-04   208   0.104E-01    0.868E-02
DAV:  26    -0.433205822678E+02   -0.10448E-03   -0.87960E-05   216   0.797E-02    0.629E-02
DAV:  27    -0.433205928966E+02   -0.10629E-04   -0.11004E-04   216   0.754E-02
   6 F= -.43320593E+02 E0= -.43320593E+02  d E =-.907944E+01  mag=    10.0004
       N       E                     dE             d eps       ncg     rms          rms(c)
DAV:   1    -0.433351953974E+02   -0.14613E-01   -0.17962E+01   320   0.144E+01    0.141E+00
DAV:   2    -0.433940193223E+02   -0.58824E-01   -0.27651E-01   440   0.752E+00    0.541E+00
DAV:   3    -0.432907383245E+02    0.10328E+00   -0.21909E-01   352   0.821E+00    0.186E+00
DAV:   4    -0.433645300324E+02   -0.73792E-01   -0.87188E-02   432   0.457E+00    0.292E+00
DAV:   5    -0.433340361051E+02    0.30494E-01   -0.40779E-02   368   0.375E+00    0.110E+00
DAV:   6    -0.433502343305E+02   -0.16198E-01   -0.11433E-02   432   0.165E+00    0.874E-01
DAV:   7    -0.433567240614E+02   -0.64897E-02   -0.95793E-03   408   0.185E+00    0.131E+00
DAV:   8    -0.433542472447E+02    0.24768E-02   -0.17017E-02   392   0.197E+00    0.122E+00
DAV:   9    -0.433534379371E+02    0.80931E-03   -0.81574E-03   400   0.156E+00    0.752E-01
DAV:  10    -0.433566758323E+02   -0.32379E-02   -0.65100E-03   408   0.124E+00    0.715E-01
DAV:  11    -0.433560867041E+02    0.58913E-03   -0.26915E-03   368   0.898E-01    0.240E-01
DAV:  12    -0.433580287874E+02   -0.19421E-02   -0.10173E-03   360   0.522E-01    0.313E-01
DAV:  13    -0.433580145164E+02    0.14271E-04   -0.52471E-04   304   0.434E-01
   7 F= -.43358015E+02 E0= -.43358015E+02  d E =-.911686E+01  mag=    10.0001
       N       E                     dE             d eps       ncg     rms          rms(c)
DAV:   1    -0.436090746500E+02   -0.25105E+00   -0.42372E+02   320   0.756E+01    0.694E+00
DAV:   2    -0.457515527508E+02   -0.21425E+01   -0.10420E+01   408   0.405E+01    0.249E+01
DAV:   3    -0.442262658662E+02    0.15253E+01   -0.76911E+00   352   0.395E+01    0.171E+01
DAV:   4    -0.441242460272E+02    0.10202E+00   -0.45076E+00   424   0.246E+01    0.116E+01
DAV:   5    -0.442609146766E+02   -0.13667E+00   -0.10589E+00   368   0.190E+01    0.963E+00
DAV:   6    -0.440269415979E+02    0.23397E+00   -0.55732E-01   384   0.138E+01    0.332E+00
DAV:   7    -0.441858049408E+02   -0.15886E+00   -0.23496E-01   400   0.846E+00    0.507E+00
DAV:   8    -0.441576119107E+02    0.28193E-01   -0.12965E-01   384   0.687E+00    0.265E+00
DAV:   9    -0.441786792899E+02   -0.21067E-01   -0.78697E-02   360   0.516E+00    0.215E+00
DAV:  10    -0.441988738293E+02   -0.20195E-01   -0.43260E-02   392   0.372E+00    0.208E+00
DAV:  11    -0.441974232399E+02    0.14506E-02   -0.35554E-02   376   0.400E+00    0.151E+00
DAV:  12    -0.442124820619E+02   -0.15059E-01   -0.23034E-02   376   0.291E+00    0.140E+00
DAV:  13    -0.442085445025E+02    0.39376E-02   -0.96997E-03   368   0.234E+00    0.623E-01
DAV:  14    -0.442159791450E+02   -0.74346E-02   -0.85080E-03   408   0.178E+00    0.971E-01
DAV:  15    -0.442139193243E+02    0.20598E-02   -0.46746E-03   368   0.144E+00    0.365E-01
DAV:  16    -0.442174371394E+02   -0.35178E-02   -0.20844E-03   408   0.871E-01    0.425E-01
DAV:  17    -0.442174835410E+02   -0.46402E-04   -0.11448E-03   360   0.740E-01    0.136E-01
DAV:  18    -0.442190188952E+02   -0.15354E-02   -0.29063E-04   256   0.286E-01    0.151E-01
DAV:  19    -0.442192516454E+02   -0.23275E-03   -0.20195E-04   224   0.278E-01    0.986E-02
DAV:  20    -0.442199693505E+02   -0.71771E-03   -0.10360E-04   224   0.195E-01    0.872E-02
DAV:  21    -0.442201591133E+02   -0.18976E-03   -0.57838E-05   224   0.149E-01    0.546E-02
DAV:  22    -0.442207553340E+02   -0.59622E-03   -0.40283E-05   224   0.884E-02    0.225E-02
DAV:  23    -0.442211578098E+02   -0.40248E-03   -0.25575E-05   224   0.333E-02    0.166E-02
DAV:  24    -0.442214827355E+02   -0.32493E-03   -0.11671E-05   216   0.210E-02    0.143E-02
DAV:  25    -0.442219356050E+02   -0.45287E-03   -0.95125E-06   224   0.194E-02    0.850E-03
DAV:  26    -0.442223093846E+02   -0.37378E-03   -0.75259E-06   224   0.149E-02    0.617E-03
DAV:  27    -0.442225434601E+02   -0.23408E-03   -0.42534E-06   216   0.892E-03    0.379E-03
DAV:  28    -0.442227586294E+02   -0.21517E-03   -0.27190E-06   216   0.655E-03    0.350E-03
DAV:  29    -0.442229722261E+02   -0.21360E-03   -0.25098E-06   216   0.552E-03    0.235E-03
DAV:  30    -0.442231270772E+02   -0.15485E-03   -0.17627E-06   224   0.414E-03    0.197E-03
DAV:  31    -0.442233103056E+02   -0.18323E-03   -0.26171E-06   216   0.461E-03    0.220E-03
DAV:  32    -0.442234255227E+02   -0.11522E-03   -0.19882E-06   232   0.412E-03    0.202E-03
DAV:  33    -0.442234821083E+02   -0.56586E-04   -0.89779E-07   216   0.337E-03
   8 F= -.44223482E+02 E0= -.44223482E+02  d E =-.865468E+00  mag=    10.0000
       N       E                     dE             d eps       ncg     rms          rms(c)
DAV:   1    -0.442221039107E+02    0.13216E-02   -0.50725E+01   320   0.244E+01    0.240E+00
DAV:   2    -0.444718198632E+02   -0.24972E+00   -0.13937E+00   424   0.141E+01    0.993E+00
DAV:   3    -0.441498880955E+02    0.32193E+00   -0.54336E-01   360   0.149E+01    0.402E+00
DAV:   4    -0.443084615596E+02   -0.15857E+00   -0.36588E-01   456   0.861E+00    0.539E+00
DAV:   5    -0.442504499404E+02    0.58012E-01   -0.14423E-01   360   0.642E+00    0.240E+00
DAV:   6    -0.442639456892E+02   -0.13496E-01   -0.35746E-02   384   0.357E+00    0.112E+00
DAV:   7    -0.442875694003E+02   -0.23624E-01   -0.24179E-02   440   0.277E+00    0.178E+00
DAV:   8    -0.442801674008E+02    0.74020E-02   -0.17777E-02   392   0.263E+00    0.958E-01
DAV:   9    -0.442880583941E+02   -0.78910E-02   -0.14510E-02   376   0.236E+00    0.123E+00
DAV:  10    -0.442852939220E+02    0.27645E-02   -0.91490E-03   352   0.182E+00    0.539E-01
DAV:  11    -0.442894898527E+02   -0.41959E-02   -0.32441E-03   392   0.114E+00    0.617E-01
DAV:  12    -0.442890015126E+02    0.48834E-03   -0.22070E-03   360   0.932E-01    0.333E-01
DAV:  13    -0.442900388112E+02   -0.10373E-02   -0.88996E-04   360   0.592E-01    0.218E-01
DAV:  14    -0.442906372399E+02   -0.59843E-03   -0.37143E-04   264   0.400E-01    0.204E-01
DAV:  15    -0.442907561683E+02   -0.11893E-03   -0.20710E-04   224   0.299E-01    0.809E-02
DAV:  16    -0.442910440364E+02   -0.28787E-03   -0.86402E-05   208   0.169E-01    0.851E-02
DAV:  17    -0.442911057294E+02   -0.61693E-04   -0.53642E-05   208   0.140E-01
   9 F= -.44291106E+02 E0= -.44291106E+02  d E =-.933091E+00  mag=    10.0000
       N       E                     dE             d eps       ncg     rms          rms(c)
DAV:   1    -0.443663151932E+02   -0.75271E-01   -0.13020E+02   320   0.399E+01    0.348E+00
DAV:   2    -0.445320912596E+02   -0.16578E+00   -0.15080E+00   464   0.119E+01    0.820E+00
DAV:   3    -0.445237962320E+02    0.82950E-02   -0.11970E+00   360   0.180E+01    0.677E+00
DAV:   4    -0.445568394907E+02   -0.33043E-01   -0.40837E-01   376   0.112E+01    0.558E+00
DAV:   5    -0.444964167191E+02    0.60423E-01   -0.20334E-01   360   0.708E+00    0.219E+00
DAV:   6    -0.445446142165E+02   -0.48197E-01   -0.65589E-02   392   0.447E+00    0.277E+00
DAV:   7    -0.445454515959E+02   -0.83738E-03   -0.43551E-02   352   0.387E+00    0.190E+00
DAV:   8    -0.445492837594E+02   -0.38322E-02   -0.26262E-02   376   0.350E+00    0.146E+00
DAV:   9    -0.445680922917E+02   -0.18809E-01   -0.34452E-02   384   0.341E+00    0.243E+00
DAV:  10    -0.445501473277E+02    0.17945E-01   -0.23575E-02   392   0.303E+00    0.742E-01
DAV:  11    -0.445624934632E+02   -0.12346E-01   -0.90921E-03   416   0.176E+00    0.952E-01
DAV:  12    -0.445623063698E+02    0.18709E-03   -0.51342E-03   384   0.156E+00    0.614E-01
DAV:  13    -0.445635431973E+02   -0.12368E-02   -0.31482E-03   384   0.104E+00    0.383E-01
DAV:  14    -0.445648496829E+02   -0.13065E-02   -0.12577E-03   368   0.670E-01    0.294E-01
DAV:  15    -0.445649493284E+02   -0.99645E-04   -0.61683E-04   320   0.454E-01
  10 F= -.44564949E+02 E0= -.44564949E+02  d E =-.273844E+00  mag=    10.0000
       N       E                     dE             d eps       ncg     rms          rms(c)
DAV:   1    -0.445641333444E+02    0.71634E-03   -0.53893E+00   320   0.789E+00    0.758E-01
DAV:   2    -0.445777289182E+02   -0.13596E-01   -0.88447E-02   424   0.400E+00    0.271E+00
DAV:   3    -0.445505769752E+02    0.27152E-01   -0.56088E-02   368   0.447E+00    0.927E-01
DAV:   4    -0.445733928572E+02   -0.22816E-01   -0.16799E-02   432   0.228E+00    0.137E+00
DAV:   5    -0.445651457909E+02    0.82471E-02   -0.85768E-03   344   0.178E+00    0.389E-01
DAV:   6    -0.445700992370E+02   -0.49534E-02   -0.29026E-03   416   0.805E-01    0.411E-01
DAV:   7    -0.445715700523E+02   -0.14708E-02   -0.25270E-03   392   0.802E-01    0.526E-01
DAV:   8    -0.445713861680E+02    0.18388E-03   -0.12169E-03   360   0.737E-01    0.279E-01
DAV:   9    -0.445724531981E+02   -0.10670E-02   -0.11730E-03   360   0.613E-01    0.441E-01
DAV:  10    -0.445719911081E+02    0.46209E-03   -0.70614E-04   328   0.570E-01    0.174E-01
DAV:  11    -0.445726409764E+02   -0.64987E-03   -0.29211E-04   224   0.337E-01    0.176E-01
DAV:  12    -0.445727504799E+02   -0.10950E-03   -0.16994E-04   216   0.267E-01    0.100E-01
DAV:  13    -0.445728405186E+02   -0.90039E-04   -0.68193E-05   208   0.158E-01
  11 F= -.44572841E+02 E0= -.44572841E+02  d E =-.281735E+00  mag=    10.0000
       N       E                     dE             d eps       ncg     rms          rms(c)
DAV:   1    -0.446202563619E+02   -0.47506E-01   -0.22950E+01   320   0.162E+01    0.231E+00
DAV:   2    -0.453451591139E+02   -0.72490E+00   -0.13378E+00   384   0.217E+01    0.159E+01
DAV:   3    -0.443952972761E+02    0.94986E+00   -0.60868E-01   384   0.185E+01    0.375E+00
DAV:   4    -0.445781129828E+02   -0.18282E+00   -0.17822E-01   440   0.667E+00    0.217E+00
DAV:   5    -0.446460502518E+02   -0.67937E-01   -0.83612E-02   392   0.519E+00    0.338E+00
DAV:   6    -0.446124904658E+02    0.33560E-01   -0.59595E-02   368   0.396E+00    0.100E+00
DAV:   7    -0.446322804668E+02   -0.19790E-01   -0.10193E-02   392   0.185E+00    0.766E-01
DAV:   8    -0.446392482993E+02   -0.69678E-02   -0.15149E-02   384   0.149E+00    0.119E+00
DAV:   9    -0.446348866302E+02    0.43617E-02   -0.94159E-03   360   0.146E+00    0.515E-01
DAV:  10    -0.446400548665E+02   -0.51682E-02   -0.29670E-03   408   0.976E-01    0.532E-01
DAV:  11    -0.446401701146E+02   -0.11525E-03   -0.15612E-03   352   0.881E-01    0.248E-01
DAV:  12    -0.446415947563E+02   -0.14246E-02   -0.85633E-04   328   0.472E-01    0.235E-01
DAV:  13    -0.446417711460E+02   -0.17639E-03   -0.48314E-04   288   0.458E-01    0.172E-01
DAV:  14    -0.446423104212E+02   -0.53928E-03   -0.41400E-04   232   0.380E-01    0.235E-01
DAV:  15    -0.446422422651E+02    0.68156E-04   -0.22026E-04   224   0.340E-01
  12 F= -.44642242E+02 E0= -.44642242E+02  d E =-.694017E-01  mag=    10.0000
       N       E                     dE             d eps       ncg     rms          rms(c)
DAV:   1    -0.445851078969E+02    0.57203E-01   -0.13023E+02   320   0.395E+01    0.658E+00
DAV:   2    -0.498989275745E+02   -0.53138E+01   -0.12966E+01   376   0.639E+01    0.369E+01
DAV:   3    -0.448795941619E+02    0.50193E+01   -0.90892E+00   368   0.439E+01    0.175E+01
DAV:   4    -0.443642322877E+02    0.51536E+00   -0.34138E+00   408   0.212E+01    0.648E+00
DAV:   5    -0.446013774235E+02   -0.23715E+00   -0.99534E-01   424   0.126E+01    0.686E+00
DAV:   6    -0.447296075721E+02   -0.12823E+00   -0.74013E-01   368   0.110E+01    0.793E+00
DAV:   7    -0.446023472156E+02    0.12726E+00   -0.30262E-01   360   0.824E+00    0.248E+00
DAV:   8    -0.446791010008E+02   -0.76754E-01   -0.73847E-02   424   0.461E+00    0.275E+00
DAV:   9    -0.446835712473E+02   -0.44702E-02   -0.48069E-02   368   0.378E+00    0.177E+00
DAV:  10    -0.446973729242E+02   -0.13802E-01   -0.40519E-02   368   0.329E+00    0.183E+00
DAV:  11    -0.447010358079E+02   -0.36629E-02   -0.33269E-02   408   0.261E+00    0.150E+00
DAV:  12    -0.447021982366E+02   -0.11624E-02   -0.11716E-02   352   0.225E+00    0.759E-01
DAV:  13    -0.447083336595E+02   -0.61354E-02   -0.90640E-03   456   0.152E+00    0.923E-01
DAV:  14    -0.447067594796E+02    0.15742E-02   -0.35653E-03   360   0.130E+00    0.532E-01
DAV:  15    -0.447098541324E+02   -0.30947E-02   -0.28390E-03   384   0.966E-01    0.526E-01
DAV:  16    -0.447100767626E+02   -0.22263E-03   -0.18544E-03   368   0.810E-01    0.234E-01
DAV:  17    -0.447117223358E+02   -0.16456E-02   -0.75428E-04   352   0.487E-01    0.278E-01
DAV:  18    -0.447117969633E+02   -0.74628E-04   -0.48188E-04   320   0.425E-01
  13 F= -.44711797E+02 E0= -.44711797E+02  d E =-.138956E+00  mag=    10.0000
       N       E                     dE             d eps       ncg     rms          rms(c)
DAV:   1    -0.447227532353E+02   -0.11031E-01   -0.41244E+01   320   0.218E+01    0.292E+00
DAV:   2    -0.458583116915E+02   -0.11356E+01   -0.28902E+00   384   0.262E+01    0.217E+01
DAV:   3    -0.445238561167E+02    0.13345E+01   -0.16782E+00   344   0.212E+01    0.657E+00
DAV:   4    -0.446606283746E+02   -0.13677E+00   -0.45121E-01   440   0.952E+00    0.337E+00
DAV:   5    -0.447819968850E+02   -0.12137E+00   -0.31716E-01   384   0.730E+00    0.494E+00
DAV:   6    -0.447161094491E+02    0.65887E-01   -0.11952E-01   368   0.526E+00    0.139E+00
DAV:   7    -0.447480826152E+02   -0.31973E-01   -0.31597E-02   400   0.245E+00    0.108E+00
DAV:   8    -0.447647243618E+02   -0.16642E-01   -0.27190E-02   384   0.210E+00    0.165E+00
DAV:   9    -0.447573375297E+02    0.73868E-02   -0.11887E-02   360   0.187E+00    0.837E-01
DAV:  10    -0.447669305693E+02   -0.95930E-02   -0.83579E-03   440   0.166E+00    0.123E+00
DAV:  11    -0.447644978210E+02    0.24327E-02   -0.66902E-03   376   0.146E+00    0.449E-01
DAV:  12    -0.447696054900E+02   -0.51077E-02   -0.32133E-03   392   0.105E+00    0.585E-01
DAV:  13    -0.447695435200E+02    0.61970E-04   -0.27182E-03   352   0.857E-01    0.325E-01
DAV:  14    -0.447709508662E+02   -0.14073E-02   -0.80803E-04   352   0.607E-01    0.311E-01
DAV:  15    -0.447714597195E+02   -0.50885E-03   -0.65272E-04   312   0.486E-01    0.194E-01
DAV:  16    -0.447715895640E+02   -0.12984E-03   -0.22054E-04   232   0.290E-01    0.201E-01
DAV:  17    -0.447716510481E+02   -0.61484E-04   -0.16298E-04   216   0.250E-01
  14 F= -.44771651E+02 E0= -.44771651E+02  d E =-.598541E-01  mag=    10.0000
       N       E                     dE             d eps       ncg     rms          rms(c)
DAV:   1    -0.447622611254E+02    0.93284E-02   -0.26554E+01   320   0.174E+01    0.224E+00
DAV:   2    -0.454143378440E+02   -0.65208E+00   -0.17118E+00   392   0.199E+01    0.164E+01
DAV:   3    -0.445613548582E+02    0.85298E+00   -0.69730E-01   352   0.170E+01    0.380E+00
DAV:   4    -0.447509942630E+02   -0.18964E+00   -0.22051E-01   456   0.736E+00    0.313E+00
DAV:   5    -0.447990009931E+02   -0.48007E-01   -0.21143E-01   368   0.563E+00    0.407E+00
DAV:   6    -0.447504888806E+02    0.48512E-01   -0.86440E-02   352   0.413E+00    0.743E-01
DAV:   7    -0.447831863276E+02   -0.32697E-01   -0.12839E-02   408   0.178E+00    0.858E-01
DAV:   8    -0.447878308335E+02   -0.46445E-02   -0.74280E-03   360   0.131E+00    0.696E-01
DAV:   9    -0.447895681072E+02   -0.17373E-02   -0.36824E-03   376   0.119E+00    0.808E-01
DAV:  10    -0.447903924047E+02   -0.82430E-03   -0.51544E-03   360   0.115E+00    0.788E-01
DAV:  11    -0.447894430507E+02    0.94935E-03   -0.43378E-03   376   0.969E-01    0.383E-01
DAV:  12    -0.447924467565E+02   -0.30037E-02   -0.22057E-03   368   0.728E-01    0.441E-01
DAV:  13    -0.447921306824E+02    0.31607E-03   -0.13484E-03   352   0.621E-01    0.195E-01
DAV:  14    -0.447928048283E+02   -0.67415E-03   -0.38259E-04   256   0.391E-01    0.182E-01
DAV:  15    -0.447930842974E+02   -0.27947E-03   -0.33583E-04   208   0.296E-01    0.139E-01
DAV:  16    -0.447930545677E+02    0.29730E-04   -0.93359E-05   216   0.183E-01
  15 F= -.44793055E+02 E0= -.44793055E+02  d E =-.812576E-01  mag=    10.0000
       N       E                     dE             d eps       ncg     rms          rms(c)
DAV:   1    -0.447919179851E+02    0.11663E-02   -0.20463E+00   320   0.482E+00    0.588E-01
DAV:   2    -0.448336646478E+02   -0.41747E-01   -0.96930E-02   392   0.498E+00    0.453E+00
DAV:   3    -0.447500122756E+02    0.83652E-01   -0.63220E-02   360   0.460E+00    0.881E-01
DAV:   4    -0.447914413872E+02   -0.41429E-01   -0.15600E-02   424   0.198E+00    0.896E-01
DAV:   5    -0.447942224751E+02   -0.27811E-02   -0.14550E-02   360   0.144E+00    0.110E+00
DAV:   6    -0.447893303772E+02    0.48921E-02   -0.54629E-03   336   0.103E+00    0.231E-01
DAV:   7    -0.447934041222E+02   -0.40737E-02   -0.80470E-04   352   0.449E-01    0.222E-01
DAV:   8    -0.447944738906E+02   -0.10698E-02   -0.71195E-04   304   0.426E-01    0.281E-01
DAV:   9    -0.447943757666E+02    0.98124E-04   -0.32366E-04   216   0.320E-01
  16 F= -.44794376E+02 E0= -.44794376E+02  d E =-.825788E-01  mag=    10.0000
       N       E                     dE             d eps       ncg     rms          rms(c)
DAV:   1    -0.447906531382E+02    0.38208E-02   -0.38184E+01   320   0.210E+01    0.281E+00
DAV:   2    -0.458329196739E+02   -0.10423E+01   -0.27084E+00   376   0.245E+01    0.226E+01
DAV:   3    -0.445963956928E+02    0.12365E+01   -0.12335E+00   344   0.188E+01    0.739E+00
DAV:   4    -0.447193260152E+02   -0.12293E+00   -0.34236E-01   408   0.108E+01    0.214E+00
DAV:   5    -0.448686680890E+02   -0.14934E+00   -0.26655E-01   440   0.658E+00    0.543E+00
DAV:   6    -0.447765707478E+02    0.92097E-01   -0.12797E-01   352   0.530E+00    0.119E+00
DAV:   7    -0.448157164899E+02   -0.39146E-01   -0.24611E-02   440   0.242E+00    0.112E+00
DAV:   8    -0.448262987319E+02   -0.10582E-01   -0.21353E-02   376   0.195E+00    0.157E+00
DAV:   9    -0.448206104728E+02    0.56883E-02   -0.13145E-02   360   0.172E+00    0.735E-01
DAV:  10    -0.448278607094E+02   -0.72502E-02   -0.45114E-03   416   0.140E+00    0.858E-01
DAV:  11    -0.448270132642E+02    0.84745E-03   -0.41768E-03   368   0.134E+00    0.462E-01
DAV:  12    -0.448306706607E+02   -0.36574E-02   -0.54736E-03   448   0.103E+00    0.809E-01
DAV:  13    -0.448284453589E+02    0.22253E-02   -0.65392E-03   360   0.907E-01    0.351E-01
DAV:  14    -0.448307579897E+02   -0.23126E-02   -0.98689E-04   352   0.617E-01    0.261E-01
DAV:  15    -0.448313929677E+02   -0.63498E-03   -0.50678E-04   280   0.363E-01    0.237E-01
DAV:  16    -0.448310872497E+02    0.30572E-03   -0.18441E-04   208   0.261E-01    0.213E-01
DAV:  17    -0.448313257857E+02   -0.23854E-03   -0.16201E-04   208   0.219E-01    0.105E-01
DAV:  18    -0.448320454360E+02   -0.71965E-03   -0.10241E-04   216   0.147E-01    0.877E-02
DAV:  19    -0.448322694516E+02   -0.22402E-03   -0.97056E-05   224   0.165E-01    0.571E-02
DAV:  20    -0.448324619768E+02   -0.19253E-03   -0.43210E-05   208   0.792E-02    0.399E-02
DAV:  21    -0.448325508184E+02   -0.88842E-04   -0.22920E-05   208   0.844E-02
  17 F= -.44832551E+02 E0= -.44832551E+02  d E =-.381751E-01  mag=    10.0000
       N       E                     dE             d eps       ncg     rms          rms(c)
DAV:   1    -0.448206393450E+02    0.11823E-01   -0.23187E+01   320   0.163E+01    0.211E+00
DAV:   2    -0.453718898006E+02   -0.55125E+00   -0.13348E+00   384   0.182E+01    0.176E+01
DAV:   3    -0.446098241587E+02    0.76207E+00   -0.19651E+00   352   0.148E+01    0.511E+00
DAV:   4    -0.447752546771E+02   -0.16543E+00   -0.18416E-01   400   0.810E+00    0.159E+00
DAV:   5    -0.448632305401E+02   -0.87976E-01   -0.11854E-01   416   0.465E+00    0.375E+00
DAV:   6    -0.448138616863E+02    0.49369E-01   -0.56990E-02   352   0.384E+00    0.849E-01
DAV:   7    -0.448364144946E+02   -0.22553E-01   -0.14605E-02   448   0.174E+00    0.868E-01
DAV:   8    -0.448404024692E+02   -0.39880E-02   -0.10753E-02   376   0.133E+00    0.869E-01
DAV:   9    -0.448400798137E+02    0.32266E-03   -0.73691E-03   368   0.117E+00    0.559E-01
DAV:  10    -0.448434499898E+02   -0.33702E-02   -0.32776E-03   432   0.979E-01    0.748E-01
DAV:  11    -0.448419405364E+02    0.15095E-02   -0.25356E-03   360   0.963E-01    0.376E-01
DAV:  12    -0.448441861374E+02   -0.22456E-02   -0.20697E-03   400   0.751E-01    0.495E-01
DAV:  13    -0.448441805455E+02    0.55919E-05   -0.13939E-03   336   0.592E-01    0.169E-01
DAV:  14    -0.448450602402E+02   -0.87969E-03   -0.41433E-04   296   0.434E-01    0.200E-01
DAV:  15    -0.448452233868E+02   -0.16315E-03   -0.32033E-04   208   0.299E-01    0.154E-01
DAV:  16    -0.448451774368E+02    0.45950E-04   -0.11279E-04   208   0.200E-01
  18 F= -.44845177E+02 E0= -.44845177E+02  d E =-.508017E-01  mag=    10.0000
       N       E                     dE             d eps       ncg     rms          rms(c)
DAV:   1    -0.448441942030E+02    0.10292E-02   -0.24787E+01   320   0.169E+01    0.203E+00
DAV:   2    -0.452588701887E+02   -0.41468E+00   -0.12489E+00   424   0.159E+01    0.149E+01
DAV:   3    -0.445951683519E+02    0.66370E+00   -0.91683E-01   352   0.142E+01    0.380E+00
DAV:   4    -0.448375819653E+02   -0.24241E+00   -0.19490E-01   432   0.735E+00    0.283E+00
DAV:   5    -0.448678610776E+02   -0.30279E-01   -0.11493E-01   400   0.474E+00    0.297E+00
DAV:   6    -0.448496268627E+02    0.18234E-01   -0.55647E-02   352   0.375E+00    0.863E-01
DAV:   7    -0.448654776459E+02   -0.15851E-01   -0.12692E-02   440   0.187E+00    0.120E+00
DAV:   8    -0.448659681237E+02   -0.49048E-03   -0.11608E-02   376   0.169E+00    0.894E-01
DAV:   9    -0.448674313565E+02   -0.14632E-02   -0.65798E-03   416   0.129E+00    0.597E-01
DAV:  10    -0.448701365011E+02   -0.27051E-02   -0.42204E-03   352   0.115E+00    0.498E-01
DAV:  11    -0.448709809631E+02   -0.84446E-03   -0.21054E-03   400   0.934E-01    0.444E-01
DAV:  12    -0.448725910168E+02   -0.16101E-02   -0.24552E-03   360   0.788E-01    0.619E-01
DAV:  13    -0.448714324153E+02    0.11586E-02   -0.14514E-03   352   0.661E-01    0.163E-01
DAV:  14    -0.448730133550E+02   -0.15809E-02   -0.59932E-04   296   0.447E-01    0.220E-01
DAV:  15    -0.448731142023E+02   -0.10085E-03   -0.35127E-04   232   0.342E-01    0.102E-01
DAV:  16    -0.448732888260E+02   -0.17462E-03   -0.10658E-04   200   0.195E-01    0.112E-01
DAV:  17    -0.448734184753E+02   -0.12965E-03   -0.89430E-05   208   0.159E-01    0.580E-02
DAV:  18    -0.448734798955E+02   -0.61420E-04   -0.31955E-05   208   0.960E-02
  19 F= -.44873480E+02 E0= -.44873480E+02  d E =-.283025E-01  mag=    10.0000
       N       E                     dE             d eps       ncg     rms          rms(c)
DAV:   1    -0.448715030066E+02    0.19155E-02   -0.46082E+00   320   0.726E+00    0.860E-01
DAV:   2    -0.449392257486E+02   -0.67723E-01   -0.21477E-01   408   0.673E+00    0.605E+00
DAV:   3    -0.447907579630E+02    0.14847E+00   -0.19704E-01   344   0.629E+00    0.122E+00
DAV:   4    -0.448699561781E+02   -0.79198E-01   -0.27357E-02   416   0.286E+00    0.129E+00
DAV:   5    -0.448747549180E+02   -0.47987E-02   -0.13955E-02   376   0.200E+00    0.123E+00
DAV:   6    -0.448711971801E+02    0.35577E-02   -0.68700E-03   368   0.139E+00    0.345E-01
DAV:   7    -0.448753080078E+02   -0.41108E-02   -0.22336E-03   432   0.769E-01    0.532E-01
DAV:   8    -0.448751214878E+02    0.18652E-03   -0.34547E-03   376   0.718E-01    0.415E-01
DAV:   9    -0.448759843811E+02   -0.86289E-03   -0.10758E-03   344   0.562E-01    0.324E-01
DAV:  10    -0.448764769562E+02   -0.49258E-03   -0.93989E-04   360   0.515E-01    0.295E-01
DAV:  11    -0.448765278741E+02   -0.50918E-04   -0.59891E-04   296   0.438E-01
  20 F= -.44876528E+02 E0= -.44876528E+02  d E =-.313504E-01  mag=    10.0000
       N       E                     dE             d eps       ncg     rms          rms(c)
DAV:   1    -0.448749992087E+02    0.14777E-02   -0.10560E+01   320   0.110E+01    0.128E+00
DAV:   2    -0.450102196214E+02   -0.13522E+00   -0.40120E-01   416   0.100E+01    0.792E+00
DAV:   3    -0.447765498920E+02    0.23367E+00   -0.33122E-01   344   0.913E+00    0.204E+00
DAV:   4    -0.448705899737E+02   -0.94040E-01   -0.62796E-02   432   0.414E+00    0.176E+00
DAV:   5    -0.448814245227E+02   -0.10835E-01   -0.29758E-02   360   0.282E+00    0.153E+00
DAV:   6    -0.448759004519E+02    0.55241E-02   -0.18879E-02   368   0.186E+00    0.583E-01
DAV:   7    -0.448827087124E+02   -0.68083E-02   -0.44309E-03   424   0.114E+00    0.741E-01
DAV:   8    -0.448842822660E+02   -0.15736E-02   -0.57848E-03   400   0.106E+00    0.569E-01
DAV:   9    -0.448848201202E+02   -0.53785E-03   -0.25541E-03   384   0.845E-01    0.446E-01
DAV:  10    -0.448858303108E+02   -0.10102E-02   -0.14645E-03   368   0.789E-01    0.465E-01
DAV:  11    -0.448858411126E+02   -0.10802E-04   -0.92226E-04   344   0.660E-01
  21 F= -.44885841E+02 E0= -.44885841E+02  d E =-.931324E-02  mag=    10.0000
       N       E                     dE             d eps       ncg     rms          rms(c)
DAV:   1    -0.448853711391E+02    0.45917E-03   -0.15526E+00   320   0.422E+00    0.558E-01
DAV:   2    -0.449141900183E+02   -0.28819E-01   -0.78223E-02   384   0.481E+00    0.350E+00
DAV:   3    -0.448547182636E+02    0.59472E-01   -0.61235E-02   344   0.428E+00    0.895E-01
DAV:   4    -0.448819962863E+02   -0.27278E-01   -0.10833E-02   432   0.170E+00    0.643E-01
DAV:   5    -0.448858460317E+02   -0.38497E-02   -0.50256E-03   344   0.981E-01    0.576E-01
DAV:   6    -0.448851074281E+02    0.73860E-03   -0.31067E-03   344   0.707E-01    0.169E-01
DAV:   7    -0.448872408422E+02   -0.21334E-02   -0.78290E-04   352   0.507E-01    0.425E-01
DAV:   8    -0.448869720157E+02    0.26883E-03   -0.80555E-04   296   0.481E-01    0.232E-01
DAV:   9    -0.448873879453E+02   -0.41593E-03   -0.31035E-04   216   0.369E-01    0.197E-01
DAV:  10    -0.448875573588E+02   -0.16941E-03   -0.27091E-04   208   0.316E-01    0.112E-01
DAV:  11    -0.448877310803E+02   -0.17372E-03   -0.10165E-04   216   0.209E-01    0.824E-02
DAV:  12    -0.448878205909E+02   -0.89511E-04   -0.69712E-05   200   0.149E-01
  22 F= -.44887821E+02 E0= -.44887821E+02  d E =-.112927E-01  mag=    10.0000
       N       E                     dE             d eps       ncg     rms          rms(c)
DAV:   1    -0.448865714534E+02    0.11596E-02   -0.31848E+00   320   0.603E+00    0.638E-01
DAV:   2    -0.449206154711E+02   -0.34044E-01   -0.75738E-02   408   0.485E+00    0.398E+00
DAV:   3    -0.448562227669E+02    0.64393E-01   -0.57362E-02   352   0.458E+00    0.807E-01
DAV:   4    -0.448895721236E+02   -0.33349E-01   -0.20350E-02   440   0.221E+00    0.121E+00
DAV:   5    -0.448857377274E+02    0.38344E-02   -0.11173E-02   344   0.152E+00    0.634E-01
DAV:   6    -0.448885135778E+02   -0.27759E-02   -0.28138E-03   344   0.904E-01    0.257E-01
DAV:   7    -0.448895170664E+02   -0.10035E-02   -0.10153E-03   360   0.512E-01    0.302E-01
DAV:   8    -0.448901324628E+02   -0.61540E-03   -0.11354E-03   336   0.535E-01    0.339E-01
DAV:   9    -0.448900568143E+02    0.75648E-04   -0.44739E-04   288   0.416E-01
  23 F= -.44890057E+02 E0= -.44890057E+02  d E =-.223622E-02  mag=    10.0000
       N       E                     dE             d eps       ncg     rms          rms(c)
DAV:   1    -0.448900992213E+02    0.33241E-04   -0.28458E-02   328   0.689E-01    0.256E-01
DAV:   2    -0.449036227266E+02   -0.13524E-01   -0.22655E-02   408   0.272E+00    0.245E+00
DAV:   3    -0.448737382229E+02    0.29885E-01   -0.16914E-02   376   0.249E+00    0.342E-01
DAV:   4    -0.448890191041E+02   -0.15281E-01   -0.16860E-03   392   0.575E-01    0.862E-02
DAV:   5    -0.448905205076E+02   -0.15014E-02   -0.33352E-04   248   0.268E-01    0.176E-01
DAV:   6    -0.448904571294E+02    0.63378E-04   -0.18594E-04   200   0.229E-01
  24 F= -.44890457E+02 E0= -.44890457E+02  d E =-.263654E-02  mag=    10.0000
       N       E                     dE             d eps       ncg     rms          rms(c)
DAV:   1    -0.448907103495E+02   -0.18984E-03   -0.14164E+00   320   0.403E+00    0.478E-01
DAV:   2    -0.449112426634E+02   -0.20532E-01   -0.62365E-02   384   0.376E+00    0.302E+00
DAV:   3    -0.448668085841E+02    0.44434E-01   -0.38573E-02   352   0.355E+00    0.626E-01
DAV:   4    -0.448900535970E+02   -0.23245E-01   -0.12878E-02   432   0.150E+00    0.930E-01
DAV:   5    -0.448896158259E+02    0.43777E-03   -0.54895E-03   336   0.106E+00    0.430E-01
DAV:   6    -0.448912662888E+02   -0.16505E-02   -0.11286E-03   360   0.631E-01    0.174E-01
DAV:   7    -0.448918667829E+02   -0.60049E-03   -0.42034E-04   264   0.359E-01    0.217E-01
DAV:   8    -0.448922651116E+02   -0.39833E-03   -0.60388E-04   264   0.359E-01    0.235E-01
DAV:   9    -0.448921051899E+02    0.15992E-03   -0.24697E-04   224   0.272E-01    0.223E-01
DAV:  10    -0.448921035863E+02    0.16036E-05   -0.29225E-04   208   0.269E-01
  25 F= -.44892104E+02 E0= -.44892104E+02  d E =-.164646E-02  mag=    10.0000
       N       E                     dE             d eps       ncg     rms          rms(c)
DAV:   1    -0.448920363239E+02    0.68866E-04   -0.48658E-01   328   0.237E+00    0.285E-01
DAV:   2    -0.448999194833E+02   -0.78832E-02   -0.20187E-02   392   0.229E+00    0.192E+00
DAV:   3    -0.448801276612E+02    0.19792E-01   -0.13197E-02   344   0.214E+00    0.384E-01
DAV:   4    -0.448916132114E+02   -0.11486E-01   -0.46864E-03   416   0.894E-01    0.505E-01
DAV:   5    -0.448919013694E+02   -0.28816E-03   -0.19990E-03   344   0.630E-01    0.296E-01
DAV:   6    -0.448922400091E+02   -0.33864E-03   -0.42323E-04   296   0.404E-01    0.113E-01
DAV:   7    -0.448924791323E+02   -0.23912E-03   -0.15904E-04   200   0.214E-01    0.120E-01
DAV:   8    -0.448926735480E+02   -0.19442E-03   -0.22001E-04   208   0.207E-01    0.132E-01
DAV:   9    -0.448926456198E+02    0.27928E-04   -0.98649E-05   208   0.163E-01
  26 F= -.44892646E+02 E0= -.44892646E+02  d E =-.218849E-02  mag=    10.0000
       N       E                     dE             d eps       ncg     rms          rms(c)
DAV:   1    -0.448919229464E+02    0.75060E-03   -0.14869E+00   320   0.411E+00    0.511E-01
DAV:   2    -0.449158328357E+02   -0.23910E-01   -0.75960E-02   392   0.408E+00    0.321E+00
DAV:   3    -0.448647271300E+02    0.51106E-01   -0.48838E-02   352   0.389E+00    0.420E-01
DAV:   4    -0.448924412947E+02   -0.27714E-01   -0.11837E-02   456   0.145E+00    0.108E+00
DAV:   5    -0.448895416286E+02    0.28997E-02   -0.57158E-03   352   0.114E+00    0.410E-01
DAV:   6    -0.448923743797E+02   -0.28328E-02   -0.12376E-03   368   0.615E-01    0.207E-01
DAV:   7    -0.448930888084E+02   -0.71443E-03   -0.60991E-04   304   0.404E-01    0.275E-01
DAV:   8    -0.448933890527E+02   -0.30024E-03   -0.58969E-04   288   0.426E-01    0.254E-01
DAV:   9    -0.448933478719E+02    0.41181E-04   -0.29842E-04   224   0.342E-01
  27 F= -.44893348E+02 E0= -.44893348E+02  d E =-.702252E-03  mag=    10.0000
       N       E                     dE             d eps       ncg     rms          rms(c)
DAV:   1    -0.448931818132E+02    0.20724E-03   -0.34924E-03   472   0.380E-01    0.100E-01
DAV:   2    -0.448954435935E+02   -0.22618E-02   -0.30492E-03   384   0.103E+00    0.919E-01
DAV:   3    -0.448902443449E+02    0.51992E-02   -0.25837E-03   368   0.945E-01    0.151E-01
DAV:   4    -0.448934323022E+02   -0.31880E-02   -0.21301E-04   240   0.242E-01    0.381E-02
DAV:   5    -0.448936679830E+02   -0.23568E-03   -0.73078E-05   200   0.117E-01    0.776E-02
DAV:   6    -0.448936709452E+02   -0.29622E-05   -0.48726E-05   192   0.986E-02
  28 F= -.44893671E+02 E0= -.44893671E+02  d E =-.102533E-02  mag=    10.0000
       N       E                     dE             d eps       ncg     rms          rms(c)
DAV:   1    -0.448936233834E+02    0.44600E-04   -0.54888E-01   320   0.251E+00    0.320E-01
DAV:   2    -0.449049993880E+02   -0.11376E-01   -0.33891E-02   408   0.262E+00    0.240E+00
DAV:   3    -0.448790180840E+02    0.25981E-01   -0.21627E-02   352   0.247E+00    0.450E-01
DAV:   4    -0.448927925754E+02   -0.13774E-01   -0.38149E-03   432   0.984E-01    0.474E-01
DAV:   5    -0.448936417036E+02   -0.84913E-03   -0.19453E-03   352   0.677E-01    0.298E-01
DAV:   6    -0.448936678085E+02   -0.26105E-04   -0.87642E-04   312   0.429E-01
  29 F= -.44893668E+02 E0= -.44893668E+02  d E =0.313668E-05  mag=    10.0000
       N       E                     dE             d eps       ncg     rms          rms(c)
DAV:   1    -0.448924999413E+02    0.11418E-02   -0.13720E+00   320   0.397E+00    0.519E-01
DAV:   2    -0.449229090187E+02   -0.30409E-01   -0.84307E-02   416   0.422E+00    0.377E+00
DAV:   3    -0.448634116166E+02    0.59497E-01   -0.49368E-02   344   0.403E+00    0.698E-01
DAV:   4    -0.448906487251E+02   -0.27237E-01   -0.11085E-02   448   0.153E+00    0.812E-01
DAV:   5    -0.448919852845E+02   -0.13366E-02   -0.44455E-03   352   0.102E+00    0.384E-01
DAV:   6    -0.448929022425E+02   -0.91696E-03   -0.14500E-03   352   0.603E-01    0.160E-01
DAV:   7    -0.448939961418E+02   -0.10939E-02   -0.10004E-03   328   0.436E-01    0.292E-01
DAV:   8    -0.448937881888E+02    0.20795E-03   -0.35182E-04   280   0.389E-01    0.269E-01
DAV:   9    -0.448937473196E+02    0.40869E-04   -0.40603E-04   216   0.327E-01
  30 F= -.44893747E+02 E0= -.44893747E+02  d E =-.763744E-04  mag=    10.0000
