 vasp.5.3.5 31Mar14 (build Feb 01 2018 12:10:03) gamma-only                     
  
 executed on             LinuxIFC date 2019.03.23  12:16:54
 running on   32 total cores
 distrk:  each k-point on   32 cores,    1 groups
 distr:  one band on NCORES_PER_BAND=   8 cores,    4 groups


--------------------------------------------------------------------------------------------------------


 INCAR:
 POTCAR:    PAW_PBE Ag 02Apr2005                  
 POTCAR:    PAW_PBE Ag 02Apr2005                  
   VRHFIN =Ag : s1 d10                                                          
   LEXCH  = PE                                                                  
   EATOM  =  1037.2675 eV,   76.2370 Ry                                         
                                                                                
   TITEL  = PAW_PBE Ag 02Apr2005                                                
   LULTRA =        F    use ultrasoft PP ?                                      
   IUNSCR =        1    unscreen: 0-lin 1-nonlin 2-no                           
   RPACOR =    2.000    partial core radius                                     
   POMASS =  107.868; ZVAL   =   11.000    mass and valenz                      
   RCORE  =    2.500    outmost cutoff radius                                   
   RWIGS  =    2.840; RWIGS  =    1.503    wigner-seitz radius (au A)           
   ENMAX  =  249.844; ENMIN  =  187.383 eV                                      
   ICORE  =        3    local potential                                         
   LCOR   =        T    correct aug charges                                     
   LPAW   =        T    paw PP                                                  
   EAUG   =  412.496                                                            
   DEXC   =    0.000                                                            
   RMAX   =    2.560    core radius for proj-oper                               
   RAUG   =    1.300    factor for augmentation sphere                          
   RDEP   =    2.576    radius for radial grids                                 
   RDEPT  =    2.072    core radius for aug-charge                              
                                                                                
   Atomic configuration                                                         
   12 entries                                                                   
     n  l   j            E        occ.                                          
     1  0  0.50    -25324.9161   2.0000                                         
     2  0  0.50     -3728.5341   2.0000                                         
     2  1  1.50     -3344.0404   6.0000                                         
     3  0  0.50      -683.5581   2.0000                                         
     3  1  1.50      -557.3225   6.0000                                         
     3  2  2.50      -358.3853  10.0000                                         
     4  0  0.50       -95.0341   2.0000                                         
     4  1  1.50       -58.5511   6.0000                                         
     4  2  2.50        -7.4440  10.0000                                         
     5  0  0.50        -4.4045   1.0000                                         
     5  1  0.50        -1.3606   0.0000                                         
     4  3  2.50        -1.3606   0.0000                                         
   Description                                                                  
     l       E           TYP  RCUT    TYP  RCUT                                 
     2     -7.4439781     23  2.400                                             
     2     -8.8045607     23  2.400                                             
     0     -4.4044681     23  2.400                                             
     0      1.9520038     23  2.400                                             
     1     -1.3605826     23  2.500                                             
     1     27.2116520     23  2.500                                             
     3     -4.0817478     23  2.400                                             
  local pseudopotential read in
  partial core-charges read in
  partial kinetic energy density read in
  atomic valenz-charges read in
  non local Contribution for L=           2  read in
    real space projection operators read in
  non local Contribution for L=           2  read in
    real space projection operators read in
  non local Contribution for L=           0  read in
    real space projection operators read in
  non local Contribution for L=           0  read in
    real space projection operators read in
  non local Contribution for L=           1  read in
    real space projection operators read in
  non local Contribution for L=           1  read in
    real space projection operators read in
    PAW grid and wavefunctions read in
 
   number of l-projection  operators is LMAX  =           6
   number of lm-projection operators is LMMAX =          18
 
  PAW_PBE Ag 02Apr2005                  :
 energy of atom  1       EATOM=-1037.2675
 kinetic energy error for atom=    0.0689 (will be added to EATOM!!)
 
 
 POSCAR: Ti7, -33.50407084 <s> Ag </s>           
  positions in direct lattice
  No initial velocities read in
 exchange correlation table for  LEXCH =        8
   RHO(1)=    0.500       N(1)  =     2000
   RHO(2)=  100.500       N(2)  =     4000
 


--------------------------------------------------------------------------------------------------------


 ion  position               nearest neighbor table
   1  0.570  0.504  0.686-   2 2.18
   2  0.450  0.500  0.670-   1 2.18   5 3.06
   3  0.558  0.394  0.440-   4 2.45   5 2.57
   4  0.614  0.517  0.420-   3 2.45   6 2.70   5 2.97
   5  0.473  0.491  0.501-   7 2.41   6 2.52   3 2.57   4 2.97   2 3.06
   6  0.496  0.609  0.428-   7 2.37   5 2.52   4 2.70
   7  0.389  0.535  0.406-   6 2.37   5 2.41
 
  LATTYP: Found a simple cubic cell.
 ALAT       =    17.9595025012
  
  Lattice vectors:
  
 A1 = (  17.9595025012,   0.0000000000,   0.0000000000)
 A2 = (   0.0000000000,  17.9595025012,   0.0000000000)
 A3 = (   0.0000000000,   0.0000000000,  17.9595025012)


Analysis of symmetry for initial positions (statically):
=====================================================================
 Subroutine PRICEL returns:
 Original cell was already a primitive cell.
 

 Routine SETGRP: Setting up the symmetry group for a 
 simple cubic supercell.


 Subroutine GETGRP returns: Found  1 space group operations
 (whereof  1 operations were pure point group operations)
 out of a pool of 48 trial point group operations.


The static configuration has the point symmetry C_1 .


Analysis of symmetry for dynamics (positions and initial velocities):
=====================================================================
 Subroutine PRICEL returns:
 Original cell was already a primitive cell.
 

 Routine SETGRP: Setting up the symmetry group for a 
 simple cubic supercell.


 Subroutine GETGRP returns: Found  1 space group operations
 (whereof  1 operations were pure point group operations)
 out of a pool of 48 trial point group operations.


The dynamic configuration has the point symmetry C_1 .


Analysis of magnetic symmetry:
=====================================================================
 Subroutine PRICEL returns:
 Original cell was already a primitive cell.
 

 Subroutine MAGSYM returns: Found  1 space group operations
 (whereof  1 operations were pure point group operations)
 out of a pool of  1 trial space group operations
 (whereof  1 operations were pure point group operations)
 and found also     1 'primitive' translations


The magnetic configuration has the point symmetry C_1 .
 
 
 KPOINTS: Gamma-point only                        
  k-points in reciprocal lattice
Space group operators:
 irot       det(A)        alpha          n_x          n_y          n_z        tau_x        tau_y        tau_z
    1     1.000000     0.000000     1.000000     0.000000     0.000000     0.000000     0.000000     0.000000


--------------------------------------------------------------------------------------------------------




 Dimension of arrays:
   k-points           NKPTS =      1   k-points in BZ     NKDIM =      1   number of bands    NBANDS=     52
   number of dos      NEDOS =    301   number of ions     NIONS =      7
   non local maximal  LDIM  =      6   non local SUM 2l+1 LMDIM =     18
   total plane-waves  NPLWV = 343000
   max r-space proj   IRMAX =      1   max aug-charges    IRDMAX=   3111
   dimension x,y,z NGX =    70 NGY =   70 NGZ =   70
   dimension x,y,z NGXF=   140 NGYF=  140 NGZF=  140
   support grid    NGXF=   140 NGYF=  140 NGZF=  140
   ions per type =               7
 NGX,Y,Z   is equivalent  to a cutoff of   6.48,  6.48,  6.48 a.u.
 NGXF,Y,Z  is equivalent  to a cutoff of  12.96, 12.96, 12.96 a.u.


 I would recommend the setting:
   dimension x,y,z NGX =    69 NGY =   69 NGZ =   69
 SYSTEM =  unknown system                          
 POSCAR =  Ti7, -33.50407084 <s> Ag </s>           

 Startparameter for this run:
   NWRITE =      2    write-flag & timer
   PREC   = normal    normal or accurate (medium, high low for compatibility)
   ISTART =      0    job   : 0-new  1-cont  2-samecut
   ICHARG =      2    charge: 1-file 2-atom 10-const
   ISPIN  =      2    spin polarized calculation?
   LNONCOLLINEAR =      F non collinear calculations
   LSORBIT =      F    spin-orbit coupling
   INIWAV =      1    electr: 0-lowe 1-rand  2-diag
   LASPH  =      F    aspherical Exc in radial PAW
   METAGGA=      F    non-selfconsistent MetaGGA calc.

 Electronic Relaxation 1
   ENCUT  =  249.8 eV  18.36 Ry    4.29 a.u.  23.15 23.15 23.15*2*pi/ulx,y,z
   ENINI  =  249.8     initial cutoff
   ENAUG  =  412.5 eV  augmentation charge cutoff
   NELM   =     60;   NELMIN=  2; NELMDL= -5     # of ELM steps 
   EDIFF  = 0.1E-03   stopping-criterion for ELM
   LREAL  =      F    real-space projection
   NLSPLINE    = F    spline interpolate recip. space projectors
   LCOMPAT=      F    compatible to vasp.4.4
   GGA_COMPAT  = T    GGA compatible to vasp.4.4-vasp.4.6
   LMAXPAW     = -100 max onsite density
   LMAXMIX     =    2 max onsite mixed and CHGCAR
   VOSKOWN=      0    Vosko Wilk Nusair interpolation
   ROPT   =    0.00000
 Ionic relaxation
   EDIFFG = 0.1E-02   stopping-criterion for IOM
   NSW    =   1000    number of steps for IOM
   NBLOCK =      1;   KBLOCK =   1000    inner block; outer block 
   IBRION =      2    ionic relax: 0-MD 1-quasi-New 2-CG
   NFREE  =      1    steps in history (QN), initial steepest desc. (CG)
   ISIF   =      2    stress and relaxation
   IWAVPR =     11    prediction:  0-non 1-charg 2-wave 3-comb
   ISYM   =      2    0-nonsym 1-usesym 2-fastsym
   LCORR  =      T    Harris-Foulkes like correction to forces

   POTIM  = 0.1000    time-step for ionic-motion
   TEIN   =    0.0    initial temperature
   TEBEG  =    0.0;   TEEND  =   0.0 temperature during run
   SMASS  =  -3.00    Nose mass-parameter (am)
   estimated Nose-frequenzy (Omega)   =  0.10E-29 period in steps =****** mass=  -0.737E-26a.u.
   SCALEE = 1.0000    scale energy and forces
   NPACO  =    256;   APACO  = 16.0  distance and # of slots for P.C.
   PSTRESS=    0.0 pullay stress

  Mass of Ions in am
   POMASS = 107.87
  Ionic Valenz
   ZVAL   =  11.00
  Atomic Wigner-Seitz radii
   RWIGS  =  -1.00
  virtual crystal weights 
   VCA    =   1.00
   NELECT =      77.0000    total number of electrons
   NUPDOWN=      -1.0000    fix difference up-down

 DOS related values:
   EMIN   =  10.00;   EMAX   =-10.00  energy-range for DOS
   EFERMI =   0.00
   ISMEAR =     0;   SIGMA  =   0.00  broadening in eV -4-tet -1-fermi 0-gaus

 Electronic relaxation 2 (details)
   IALGO  =     38    algorithm
   LDIAG  =      T    sub-space diagonalisation (order eigenvalues)
   LSUBROT=      F    optimize rotation matrix (better conditioning)
   TURBO    =      0    0=normal 1=particle mesh
   IRESTART =      0    0=no restart 2=restart with 2 vectors
   NREBOOT  =      0    no. of reboots
   NMIN     =      0    reboot dimension
   EREF     =   0.00    reference energy to select bands
   IMIX   =      4    mixing-type and parameters
     AMIX     =   0.40;   BMIX     =  1.00
     AMIX_MAG =   1.60;   BMIX_MAG =  1.00
     AMIN     =   0.10
     WC   =   100.;   INIMIX=   1;  MIXPRE=   1;  MAXMIX= -45

 Intra band minimization:
   WEIMIN = 0.0010     energy-eigenvalue tresh-hold
   EBREAK =  0.48E-06  absolut break condition
   DEPER  =   0.30     relativ break condition  

   TIME   =   0.40     timestep for ELM

  volume/ion in A,a.u.               =     827.53      5584.46
  Fermi-wavevector in a.u.,A,eV,Ry     =   0.387803  0.732841  2.046192  0.150391
  Thomas-Fermi vector in A             =   1.327881
 
 Write flags
   LWAVE  =      F    write WAVECAR
   LCHARG =      F    write CHGCAR
   LVTOT  =      F    write LOCPOT, total local potential
   LVHAR  =      F    write LOCPOT, Hartree potential only
   LELF   =      F    write electronic localiz. function (ELF)
   LORBIT =      0    0 simple, 1 ext, 2 COOP (PROOUT)


 Dipole corrections
   LMONO  =      F    monopole corrections only (constant potential shift)
   LDIPOL =      F    correct potential (dipole corrections)
   IDIPOL =      0    1-x, 2-y, 3-z, 4-all directions 
   EPSILON=  1.0000000 bulk dielectric constant

 Exchange correlation treatment:
   GGA     =    PE    GGA type
   LEXCH   =     8    internal setting for exchange type
   VOSKOWN=      0    Vosko Wilk Nusair interpolation
   LHFCALC =     F    Hartree Fock is set to
   LHFONE  =     F    Hartree Fock one center treatment
   AEXX    =    0.0000 exact exchange contribution

 Linear response parameters
   LEPSILON=     F    determine dielectric tensor
   LRPA    =     F    only Hartree local field effects (RPA)
   LNABLA  =     F    use nabla operator in PAW spheres
   LVEL    =     F    velocity operator in full k-point grid
   LINTERFAST=   F  fast interpolation
   KINTER  =     0    interpolate to denser k-point grid
   CSHIFT  =0.1000    complex shift for real part using Kramers Kronig
   OMEGAMAX=  -1.0    maximum frequency
   DEG_THRESHOLD= 0.2000000E-02 threshold for treating states as degnerate
   RTIME   =    0.100 relaxation time in fs

 Orbital magnetization related:
   ORBITALMAG=     F  switch on orbital magnetization
   LCHIMAG   =     F  perturbation theory with respect to B field
   DQ        =  0.001000  dq finite difference perturbation B field



--------------------------------------------------------------------------------------------------------


 conjugate gradient relaxation of ions
 charge density and potential will be updated during run
 spin polarized calculation
 Variant of blocked Davidson
 Davidson routine will perform the subspace rotation
 perform sub-space diagonalisation
    after iterative eigenvector-optimisation
 modified Broyden-mixing scheme, WC =      100.0
 initial mixing is a Kerker type mixing with AMIX =  0.4000 and BMIX =      1.0000
 Hartree-type preconditioning will be used
 using additional bands           13
 reciprocal scheme for non local part
 use partial core corrections
 calculate Harris-corrections to forces 
   (improved forces if not selfconsistent)
 use gradient corrections 
 use of overlap-Matrix (Vanderbilt PP)
 Gauss-broadening in eV      SIGMA  =   0.00


--------------------------------------------------------------------------------------------------------


  energy-cutoff  :      249.84
  volume of cell :     5792.72
      direct lattice vectors                 reciprocal lattice vectors
    17.959502501  0.000000000  0.000000000     0.055680830  0.000000000  0.000000000
     0.000000000 17.959502501  0.000000000     0.000000000  0.055680830  0.000000000
     0.000000000  0.000000000 17.959502501     0.000000000  0.000000000  0.055680830

  length of vectors
    17.959502501 17.959502501 17.959502501     0.055680830  0.055680830  0.055680830


 
 k-points in units of 2pi/SCALE and weight: Gamma-point only                        
   0.00000000  0.00000000  0.00000000       1.000
 
 k-points in reciprocal lattice and weights: Gamma-point only                        
   0.00000000  0.00000000  0.00000000       1.000
 
 position of ions in fractional coordinates (direct lattice) 
   0.57037164  0.50396660  0.68641511
   0.44997257  0.49974096  0.66963986
   0.55776087  0.39403842  0.43981967
   0.61425682  0.51662892  0.42002953
   0.47270360  0.49145144  0.50119856
   0.49595822  0.60900077  0.42801979
   0.38914785  0.53522831  0.40556759
 
 position of ions in cartesian coordinates  (Angst):
  10.24359088  9.05098945 12.32767389
   8.08128345  8.97509894 12.02639872
  10.01710780  7.07673392  7.89894246
  11.03174690  9.27839839  7.54352146
   8.48952142  8.82622344  9.00127676
   8.90716285 10.93735080  7.68702253
   6.98890175  9.61243408  7.28379216
 


--------------------------------------------------------------------------------------------------------


 use parallel FFT for wavefunctions z direction half grid
 k-point  1 :   0.0000 0.0000 0.0000  plane waves:   25934

 maximum and minimum number of plane-waves per node :      3247     3236

 maximum number of plane-waves:     25934
 maximum index in each direction: 
   IXMAX=   23   IYMAX=   23   IZMAX=   23
   IXMIN=  -23   IYMIN=  -23   IZMIN=    0

 WARNING: aliasing errors must be expected set NGX to  94 to avoid them
 WARNING: aliasing errors must be expected set NGY to  94 to avoid them
 WARNING: aliasing errors must be expected set NGZ to  94 to avoid them
 aliasing errors are usually negligible using standard VASP settings
 and one can safely disregard these warnings

 parallel 3D FFT for wavefunctions:
    minimum data exchange during FFTs selected (reduces bandwidth)
 parallel 3D FFT for charge:
    minimum data exchange during FFTs selected (reduces bandwidth)


 total amount of memory used by VASP on root node    47087. kBytes
========================================================================

   base      :      30000. kBytes
   nonl-proj :        830. kBytes
   fftplans  :       4207. kBytes
   grid      :      10682. kBytes
   one-center:         15. kBytes
   wavefun   :       1353. kBytes
 
     INWAV:  cpu time    0.00: real time    0.00
 Broyden mixing: mesh for mixing (old mesh)
   NGX = 47   NGY = 47   NGZ = 47
  (NGX  =140   NGY  =140   NGZ  =140)
  gives a total of 103823 points

 initial charge density was supplied:
 charge density of overlapping atoms calculated
 number of electron      77.0000000 magnetization       7.0000000
 keeping initial charge density in first step


--------------------------------------------------------------------------------------------------------


 Maximum index for augmentation-charges          236 (set IRDMAX)


--------------------------------------------------------------------------------------------------------


 First call to EWALD:  gamma=   0.099
 Maximum number of real-space cells 3x 3x 3
 Maximum number of reciprocal cells 3x 3x 3

 FEWALD executed in parallel
    FEWALD:  cpu time    0.00: real time    0.00


----------------------------------------- Iteration    1(   1)  ---------------------------------------


    POTLOK:  cpu time    0.16: real time    0.16
    SETDIJ:  cpu time    0.01: real time    0.01
     EDDAV:  cpu time    0.30: real time    0.31
       DOS:  cpu time    0.00: real time    0.00
    --------------------------------------------
      LOOP:  cpu time    0.47: real time    0.49

 eigenvalue-minimisations  :   208
 total energy-change (2. order) : 0.6735727E+03  (-0.1074419E+04)
 number of electron      77.0000000 magnetization       7.0000000
 augmentation part       77.0000000 magnetization       7.0000000

 Free energy of the ion-electron system (eV)
  ---------------------------------------------------
  alpha Z        PSCENC =         7.19494295
  Ewald energy   TEWEN  =      4105.78054927
  -Hartree energ DENC   =    -11036.96997853
  -exchange      EXHF   =         0.00000000
  -V(xc)+E(xc)   XCENC  =       -79.08277640
  PAW double counting   =      7023.60524649    -6700.85226215
  entropy T*S    EENTRO =        -0.00003345
  eigenvalues    EBANDS =        93.50660638
  atomic energy  EATOM  =      7260.39041060
  ---------------------------------------------------
  free energy    TOTEN  =       673.57270516 eV

  energy without entropy =      673.57273861  energy(sigma->0) =      673.57272189


--------------------------------------------------------------------------------------------------------




----------------------------------------- Iteration    1(   2)  ---------------------------------------


     EDDAV:  cpu time    0.49: real time    0.49
       DOS:  cpu time    0.00: real time    0.00
    --------------------------------------------
      LOOP:  cpu time    0.49: real time    0.50

 eigenvalue-minimisations  :   384
 total energy-change (2. order) :-0.3734891E+03  (-0.3275701E+03)
 number of electron      77.0000000 magnetization       7.0000000
 augmentation part       77.0000000 magnetization       7.0000000

 Free energy of the ion-electron system (eV)
  ---------------------------------------------------
  alpha Z        PSCENC =         7.19494295
  Ewald energy   TEWEN  =      4105.78054927
  -Hartree energ DENC   =    -11036.96997853
  -exchange      EXHF   =         0.00000000
  -V(xc)+E(xc)   XCENC  =       -79.08277640
  PAW double counting   =      7023.60524649    -6700.85226215
  entropy T*S    EENTRO =         0.00000000
  eigenvalues    EBANDS =      -279.98257518
  atomic energy  EATOM  =      7260.39041060
  ---------------------------------------------------
  free energy    TOTEN  =       300.08355704 eV

  energy without entropy =      300.08355704  energy(sigma->0) =      300.08355704


--------------------------------------------------------------------------------------------------------




----------------------------------------- Iteration    1(   3)  ---------------------------------------


     EDDAV:  cpu time    0.43: real time    0.43
       DOS:  cpu time    0.00: real time    0.00
    --------------------------------------------
      LOOP:  cpu time    0.44: real time    1.12

 eigenvalue-minimisations  :   328
 total energy-change (2. order) :-0.2722187E+03  (-0.2503126E+03)
 number of electron      77.0000000 magnetization       7.0000000
 augmentation part       77.0000000 magnetization       7.0000000

 Free energy of the ion-electron system (eV)
  ---------------------------------------------------
  alpha Z        PSCENC =         7.19494295
  Ewald energy   TEWEN  =      4105.78054927
  -Hartree energ DENC   =    -11036.96997853
  -exchange      EXHF   =         0.00000000
  -V(xc)+E(xc)   XCENC  =       -79.08277640
  PAW double counting   =      7023.60524649    -6700.85226215
  entropy T*S    EENTRO =         0.00000000
  eigenvalues    EBANDS =      -552.20131650
  atomic energy  EATOM  =      7260.39041060
  ---------------------------------------------------
  free energy    TOTEN  =        27.86481573 eV

  energy without entropy =       27.86481573  energy(sigma->0) =       27.86481573


--------------------------------------------------------------------------------------------------------




----------------------------------------- Iteration    1(   4)  ---------------------------------------


     EDDAV:  cpu time    0.35: real time    0.35
       DOS:  cpu time    0.00: real time    0.00
    --------------------------------------------
      LOOP:  cpu time    0.35: real time    0.36

 eigenvalue-minimisations  :   248
 total energy-change (2. order) :-0.3484427E+02  (-0.3254729E+02)
 number of electron      77.0000000 magnetization       7.0000000
 augmentation part       77.0000000 magnetization       7.0000000

 Free energy of the ion-electron system (eV)
  ---------------------------------------------------
  alpha Z        PSCENC =         7.19494295
  Ewald energy   TEWEN  =      4105.78054927
  -Hartree energ DENC   =    -11036.96997853
  -exchange      EXHF   =         0.00000000
  -V(xc)+E(xc)   XCENC  =       -79.08277640
  PAW double counting   =      7023.60524649    -6700.85226215
  entropy T*S    EENTRO =         0.00000000
  eigenvalues    EBANDS =      -587.04558303
  atomic energy  EATOM  =      7260.39041060
  ---------------------------------------------------
  free energy    TOTEN  =        -6.97945080 eV

  energy without entropy =       -6.97945080  energy(sigma->0) =       -6.97945080


--------------------------------------------------------------------------------------------------------




----------------------------------------- Iteration    1(   5)  ---------------------------------------


     EDDAV:  cpu time    0.33: real time    0.33
       DOS:  cpu time    0.00: real time    0.00
    CHARGE:  cpu time    0.03: real time    0.03
    MIXING:  cpu time    0.00: real time    0.00
    --------------------------------------------
      LOOP:  cpu time    0.36: real time    0.38

 eigenvalue-minimisations  :   232
 total energy-change (2. order) :-0.9576720E+00  (-0.9351939E+00)
 number of electron      76.9999539 magnetization       5.9531225
 augmentation part       36.6446582 magnetization       5.1004137

 Broyden mixing:
  rms(total) = 0.16416E+01    rms(broyden)= 0.16414E+01
  rms(prec ) = 0.16675E+01
  weight for this iteration     100.00

 Free energy of the ion-electron system (eV)
  ---------------------------------------------------
  alpha Z        PSCENC =         7.19494295
  Ewald energy   TEWEN  =      4105.78054927
  -Hartree energ DENC   =    -11036.96997853
  -exchange      EXHF   =         0.00000000
  -V(xc)+E(xc)   XCENC  =       -79.08277640
  PAW double counting   =      7023.60524649    -6700.85226215
  entropy T*S    EENTRO =         0.00000000
  eigenvalues    EBANDS =      -588.00325498
  atomic energy  EATOM  =      7260.39041060
  ---------------------------------------------------
  free energy    TOTEN  =        -7.93712276 eV

  energy without entropy =       -7.93712276  energy(sigma->0) =       -7.93712276


--------------------------------------------------------------------------------------------------------




----------------------------------------- Iteration    1(   6)  ---------------------------------------


    POTLOK:  cpu time    0.15: real time    0.15
    SETDIJ:  cpu time    0.01: real time    0.01
     EDDAV:  cpu time    0.32: real time    0.32
       DOS:  cpu time    0.00: real time    0.00
    CHARGE:  cpu time    0.02: real time    0.03
    MIXING:  cpu time    0.00: real time    0.00
    --------------------------------------------
      LOOP:  cpu time    0.51: real time    0.52

 eigenvalue-minimisations  :   220
 total energy-change (2. order) : 0.1011373E+02  (-0.2663262E+01)
 number of electron      76.9999532 magnetization       5.0773655
 augmentation part       37.1130078 magnetization       3.6128777

 Broyden mixing:
  rms(total) = 0.83590E+00    rms(broyden)= 0.83587E+00
  rms(prec ) = 0.84899E+00
  weight for this iteration     100.00

 eigenvalues of (default mixing * dielectric matrix)
  average eigenvalue GAMMA=   0.8690
  0.8690

 Free energy of the ion-electron system (eV)
  ---------------------------------------------------
  alpha Z        PSCENC =         7.19494295
  Ewald energy   TEWEN  =      4105.78054927
  -Hartree energ DENC   =    -11026.57891023
  -exchange      EXHF   =         0.00000000
  -V(xc)+E(xc)   XCENC  =       -73.34775653
  PAW double counting   =      7323.05628187    -7005.61418617
  entropy T*S    EENTRO =         0.00000000
  eigenvalues    EBANDS =      -588.70472179
  atomic energy  EATOM  =      7260.39041060
  ---------------------------------------------------
  free energy    TOTEN  =         2.17660997 eV

  energy without entropy =        2.17660997  energy(sigma->0) =        2.17660997


--------------------------------------------------------------------------------------------------------




----------------------------------------- Iteration    1(   7)  ---------------------------------------


    POTLOK:  cpu time    0.15: real time    0.15
    SETDIJ:  cpu time    0.00: real time    0.01
     EDDAV:  cpu time    0.34: real time    0.34
       DOS:  cpu time    0.00: real time    0.00
    CHARGE:  cpu time    0.03: real time    0.03
    MIXING:  cpu time    0.00: real time    0.00
    --------------------------------------------
      LOOP:  cpu time    0.52: real time    0.53

 eigenvalue-minimisations  :   236
 total energy-change (2. order) : 0.3124998E+01  (-0.2229056E+00)
 number of electron      76.9999532 magnetization       4.0803784
 augmentation part       37.0581112 magnetization       2.7415721

 Broyden mixing:
  rms(total) = 0.46414E+00    rms(broyden)= 0.46414E+00
  rms(prec ) = 0.47299E+00
  weight for this iteration     100.00

 eigenvalues of (default mixing * dielectric matrix)
  average eigenvalue GAMMA=   0.9547
  0.6987  1.2108

 Free energy of the ion-electron system (eV)
  ---------------------------------------------------
  alpha Z        PSCENC =         7.19494295
  Ewald energy   TEWEN  =      4105.78054927
  -Hartree energ DENC   =    -11043.58015311
  -exchange      EXHF   =         0.00000000
  -V(xc)+E(xc)   XCENC  =       -69.99136039
  PAW double counting   =      7510.86282068    -7197.07917461
  entropy T*S    EENTRO =         0.00000000
  eigenvalues    EBANDS =      -568.27642749
  atomic energy  EATOM  =      7260.39041060
  ---------------------------------------------------
  free energy    TOTEN  =         5.30160790 eV

  energy without entropy =        5.30160790  energy(sigma->0) =        5.30160790


--------------------------------------------------------------------------------------------------------




----------------------------------------- Iteration    1(   8)  ---------------------------------------


    POTLOK:  cpu time    0.15: real time    0.15
    SETDIJ:  cpu time    0.00: real time    0.01
     EDDAV:  cpu time    0.34: real time    0.34
       DOS:  cpu time    0.00: real time    0.00
    CHARGE:  cpu time    0.02: real time    0.03
    MIXING:  cpu time    0.00: real time    0.00
    --------------------------------------------
      LOOP:  cpu time    0.52: real time    0.53

 eigenvalue-minimisations  :   236
 total energy-change (2. order) :-0.4089072E+01  (-0.1974611E+00)
 number of electron      76.9999533 magnetization       3.3983629
 augmentation part       36.9632333 magnetization       2.1473413

 Broyden mixing:
  rms(total) = 0.19530E+00    rms(broyden)= 0.19530E+00
  rms(prec ) = 0.20066E+00
  weight for this iteration     100.00

 eigenvalues of (default mixing * dielectric matrix)
  average eigenvalue GAMMA=   1.1550
  1.9148  0.9311  0.6192

 Free energy of the ion-electron system (eV)
  ---------------------------------------------------
  alpha Z        PSCENC =         7.19494295
  Ewald energy   TEWEN  =      4105.78054927
  -Hartree energ DENC   =    -11058.68791574
  -exchange      EXHF   =         0.00000000
  -V(xc)+E(xc)   XCENC  =       -72.74016046
  PAW double counting   =      7676.67804661    -7365.82294317
  entropy T*S    EENTRO =         0.00000000
  eigenvalues    EBANDS =      -551.58039396
  atomic energy  EATOM  =      7260.39041060
  ---------------------------------------------------
  free energy    TOTEN  =         1.21253612 eV

  energy without entropy =        1.21253612  energy(sigma->0) =        1.21253612


--------------------------------------------------------------------------------------------------------




----------------------------------------- Iteration    1(   9)  ---------------------------------------


    POTLOK:  cpu time    0.15: real time    0.15
    SETDIJ:  cpu time    0.00: real time    0.01
     EDDAV:  cpu time    0.33: real time    0.33
       DOS:  cpu time    0.00: real time    0.00
    CHARGE:  cpu time    0.02: real time    0.03
    MIXING:  cpu time    0.01: real time    0.00
    --------------------------------------------
      LOOP:  cpu time    0.52: real time    0.53

 eigenvalue-minimisations  :   232
 total energy-change (2. order) :-0.2982808E+01  (-0.1128897E+00)
 number of electron      76.9999533 magnetization       2.6608350
 augmentation part       36.9680490 magnetization       1.4663452

 Broyden mixing:
  rms(total) = 0.10162E+00    rms(broyden)= 0.10161E+00
  rms(prec ) = 0.10777E+00
  weight for this iteration     100.00

 eigenvalues of (default mixing * dielectric matrix)
  average eigenvalue GAMMA=   1.2608
  0.6231  0.8202  2.1462  1.4537

 Free energy of the ion-electron system (eV)
  ---------------------------------------------------
  alpha Z        PSCENC =         7.19494295
  Ewald energy   TEWEN  =      4105.78054927
  -Hartree energ DENC   =    -11060.14696837
  -exchange      EXHF   =         0.00000000
  -V(xc)+E(xc)   XCENC  =       -75.00239587
  PAW double counting   =      7737.55197592    -7427.59697084
  entropy T*S    EENTRO =         0.00000000
  eigenvalues    EBANDS =      -549.94181512
  atomic energy  EATOM  =      7260.39041060
  ---------------------------------------------------
  free energy    TOTEN  =        -1.77027145 eV

  energy without entropy =       -1.77027145  energy(sigma->0) =       -1.77027145


--------------------------------------------------------------------------------------------------------




----------------------------------------- Iteration    1(  10)  ---------------------------------------


    POTLOK:  cpu time    0.15: real time    0.15
    SETDIJ:  cpu time    0.01: real time    0.01
     EDDAV:  cpu time    0.31: real time    0.32
       DOS:  cpu time    0.00: real time    0.00
    CHARGE:  cpu time    0.03: real time    0.03
    MIXING:  cpu time    0.01: real time    0.00
    --------------------------------------------
      LOOP:  cpu time    0.51: real time    0.51

 eigenvalue-minimisations  :   216
 total energy-change (2. order) :-0.2759916E+01  (-0.1135109E+00)
 number of electron      76.9999533 magnetization       2.2065557
 augmentation part       37.0156194 magnetization       1.0817417

 Broyden mixing:
  rms(total) = 0.67409E-01    rms(broyden)= 0.67398E-01
  rms(prec ) = 0.70618E-01
  weight for this iteration     100.00

 eigenvalues of (default mixing * dielectric matrix)
  average eigenvalue GAMMA=   1.2737
  2.5959  1.4059  0.8683  0.8683  0.6301

 Free energy of the ion-electron system (eV)
  ---------------------------------------------------
  alpha Z        PSCENC =         7.19494295
  Ewald energy   TEWEN  =      4105.78054927
  -Hartree energ DENC   =    -11055.97145143
  -exchange      EXHF   =         0.00000000
  -V(xc)+E(xc)   XCENC  =       -77.30448129
  PAW double counting   =      7745.15930258    -7435.27373482
  entropy T*S    EENTRO =         0.00000000
  eigenvalues    EBANDS =      -554.50572495
  atomic energy  EATOM  =      7260.39041060
  ---------------------------------------------------
  free energy    TOTEN  =        -4.53018710 eV

  energy without entropy =       -4.53018710  energy(sigma->0) =       -4.53018710


--------------------------------------------------------------------------------------------------------




----------------------------------------- Iteration    1(  11)  ---------------------------------------


    POTLOK:  cpu time    0.15: real time    0.15
    SETDIJ:  cpu time    0.01: real time    0.01
     EDDAV:  cpu time    0.32: real time    0.32
       DOS:  cpu time    0.00: real time    0.00
    CHARGE:  cpu time    0.03: real time    0.03
    MIXING:  cpu time    0.01: real time    0.01
    --------------------------------------------
      LOOP:  cpu time    0.51: real time    0.52

 eigenvalue-minimisations  :   224
 total energy-change (2. order) :-0.1236838E+01  (-0.3703159E-01)
 number of electron      76.9999533 magnetization       1.5506319
 augmentation part       37.0088420 magnetization       0.4544362

 Broyden mixing:
  rms(total) = 0.46490E-01    rms(broyden)= 0.46486E-01
  rms(prec ) = 0.50511E-01
  weight for this iteration     100.00

 eigenvalues of (default mixing * dielectric matrix)
  average eigenvalue GAMMA=   1.4734
  3.0732  2.0430  1.3459  0.9833  0.6325  0.7624

 Free energy of the ion-electron system (eV)
  ---------------------------------------------------
  alpha Z        PSCENC =         7.19494295
  Ewald energy   TEWEN  =      4105.78054927
  -Hartree energ DENC   =    -11055.62055503
  -exchange      EXHF   =         0.00000000
  -V(xc)+E(xc)   XCENC  =       -78.31476006
  PAW double counting   =      7744.20618662    -7434.39517094
  entropy T*S    EENTRO =         0.00000000
  eigenvalues    EBANDS =      -555.00862822
  atomic energy  EATOM  =      7260.39041060
  ---------------------------------------------------
  free energy    TOTEN  =        -5.76702480 eV

  energy without entropy =       -5.76702480  energy(sigma->0) =       -5.76702480


--------------------------------------------------------------------------------------------------------




----------------------------------------- Iteration    1(  12)  ---------------------------------------


    POTLOK:  cpu time    0.15: real time    0.15
    SETDIJ:  cpu time    0.01: real time    0.01
     EDDAV:  cpu time    0.31: real time    0.31
       DOS:  cpu time    0.00: real time    0.00
    CHARGE:  cpu time    0.02: real time    0.03
    MIXING:  cpu time    0.01: real time    0.01
    --------------------------------------------
      LOOP:  cpu time    0.50: real time    0.50

 eigenvalue-minimisations  :   208
 total energy-change (2. order) :-0.1430781E+01  (-0.4176592E-01)
 number of electron      76.9999533 magnetization       1.3006321
 augmentation part       37.0317938 magnetization       0.2322693

 Broyden mixing:
  rms(total) = 0.23206E-01    rms(broyden)= 0.23191E-01
  rms(prec ) = 0.25064E-01
  weight for this iteration     100.00

 eigenvalues of (default mixing * dielectric matrix)
  average eigenvalue GAMMA=   1.5207
  3.6760  2.2774  1.4572  1.1015  0.8308  0.6510  0.6510

 Free energy of the ion-electron system (eV)
  ---------------------------------------------------
  alpha Z        PSCENC =         7.19494295
  Ewald energy   TEWEN  =      4105.78054927
  -Hartree energ DENC   =    -11051.31826359
  -exchange      EXHF   =         0.00000000
  -V(xc)+E(xc)   XCENC  =       -79.69350140
  PAW double counting   =      7710.36482296    -7400.14936224
  entropy T*S    EENTRO =         0.00000000
  eigenvalues    EBANDS =      -559.76740447
  atomic energy  EATOM  =      7260.39041060
  ---------------------------------------------------
  free energy    TOTEN  =        -7.19780592 eV

  energy without entropy =       -7.19780592  energy(sigma->0) =       -7.19780592


--------------------------------------------------------------------------------------------------------




----------------------------------------- Iteration    1(  13)  ---------------------------------------


    POTLOK:  cpu time    0.15: real time    0.15
    SETDIJ:  cpu time    0.01: real time    0.01
     EDDAV:  cpu time    0.32: real time    0.32
       DOS:  cpu time    0.00: real time    0.00
    CHARGE:  cpu time    0.03: real time    0.03
    MIXING:  cpu time    0.00: real time    0.01
    --------------------------------------------
      LOOP:  cpu time    0.50: real time    0.52

 eigenvalue-minimisations  :   220
 total energy-change (2. order) :-0.4063301E+00  (-0.5473282E-02)
 number of electron      76.9999533 magnetization       1.1719563
 augmentation part       37.0294509 magnetization       0.1122814

 Broyden mixing:
  rms(total) = 0.12609E-01    rms(broyden)= 0.12602E-01
  rms(prec ) = 0.14528E-01
  weight for this iteration     100.00

 eigenvalues of (default mixing * dielectric matrix)
  average eigenvalue GAMMA=   1.5469
  4.1545  2.4358  1.6247  1.2171  0.9222  0.7665  0.6270  0.6270

 Free energy of the ion-electron system (eV)
  ---------------------------------------------------
  alpha Z        PSCENC =         7.19494295
  Ewald energy   TEWEN  =      4105.78054927
  -Hartree energ DENC   =    -11050.07814838
  -exchange      EXHF   =         0.00000000
  -V(xc)+E(xc)   XCENC  =       -80.09705265
  PAW double counting   =      7704.24252047    -7393.95358392
  entropy T*S    EENTRO =         0.00000000
  eigenvalues    EBANDS =      -561.08377439
  atomic energy  EATOM  =      7260.39041060
  ---------------------------------------------------
  free energy    TOTEN  =        -7.60413605 eV

  energy without entropy =       -7.60413605  energy(sigma->0) =       -7.60413605


--------------------------------------------------------------------------------------------------------




----------------------------------------- Iteration    1(  14)  ---------------------------------------


    POTLOK:  cpu time    0.15: real time    0.15
    SETDIJ:  cpu time    0.00: real time    0.01
     EDDAV:  cpu time    0.32: real time    0.32
       DOS:  cpu time    0.00: real time    0.00
    CHARGE:  cpu time    0.03: real time    0.03
    MIXING:  cpu time    0.00: real time    0.01
    --------------------------------------------
      LOOP:  cpu time    0.51: real time    0.51

 eigenvalue-minimisations  :   216
 total energy-change (2. order) :-0.1875657E+00  (-0.9350187E-03)
 number of electron      76.9999533 magnetization       1.0690002
 augmentation part       37.0310484 magnetization       0.0132261

 Broyden mixing:
  rms(total) = 0.74038E-02    rms(broyden)= 0.74007E-02
  rms(prec ) = 0.89887E-02
  weight for this iteration     100.00

 eigenvalues of (default mixing * dielectric matrix)
  average eigenvalue GAMMA=   1.6088
  4.6664  2.6191  1.6415  1.6415  1.0086  0.9109  0.7149  0.6380  0.6380

 Free energy of the ion-electron system (eV)
  ---------------------------------------------------
  alpha Z        PSCENC =         7.19494295
  Ewald energy   TEWEN  =      4105.78054927
  -Hartree energ DENC   =    -11048.99436016
  -exchange      EXHF   =         0.00000000
  -V(xc)+E(xc)   XCENC  =       -80.30039126
  PAW double counting   =      7702.93869152    -7392.60762401
  entropy T*S    EENTRO =         0.00000000
  eigenvalues    EBANDS =      -562.19392063
  atomic energy  EATOM  =      7260.39041060
  ---------------------------------------------------
  free energy    TOTEN  =        -7.79170172 eV

  energy without entropy =       -7.79170172  energy(sigma->0) =       -7.79170172


--------------------------------------------------------------------------------------------------------




----------------------------------------- Iteration    1(  15)  ---------------------------------------


    POTLOK:  cpu time    0.15: real time    0.15
    SETDIJ:  cpu time    0.01: real time    0.01
     EDDAV:  cpu time    0.32: real time    0.32
       DOS:  cpu time    0.00: real time    0.00
    CHARGE:  cpu time    0.03: real time    0.03
    MIXING:  cpu time    0.01: real time    0.01
    --------------------------------------------
      LOOP:  cpu time    0.52: real time    0.52

 eigenvalue-minimisations  :   220
 total energy-change (2. order) :-0.1075794E+00  (-0.5117434E-03)
 number of electron      76.9999533 magnetization       1.0262959
 augmentation part       37.0333830 magnetization      -0.0274049

 Broyden mixing:
  rms(total) = 0.33542E-02    rms(broyden)= 0.33525E-02
  rms(prec ) = 0.44612E-02
  weight for this iteration     100.00

 eigenvalues of (default mixing * dielectric matrix)
  average eigenvalue GAMMA=   1.6707
  5.1531  2.8063  2.2315  1.6353  1.0976  0.9118  0.9118  0.6962  0.6316  0.6316

 Free energy of the ion-electron system (eV)
  ---------------------------------------------------
  alpha Z        PSCENC =         7.19494295
  Ewald energy   TEWEN  =      4105.78054927
  -Hartree energ DENC   =    -11047.81833470
  -exchange      EXHF   =         0.00000000
  -V(xc)+E(xc)   XCENC  =       -80.42789275
  PAW double counting   =      7703.48928403    -7393.13165040
  entropy T*S    EENTRO =         0.00000000
  eigenvalues    EBANDS =      -563.37659008
  atomic energy  EATOM  =      7260.39041060
  ---------------------------------------------------
  free energy    TOTEN  =        -7.89928109 eV

  energy without entropy =       -7.89928109  energy(sigma->0) =       -7.89928109


--------------------------------------------------------------------------------------------------------




----------------------------------------- Iteration    1(  16)  ---------------------------------------


    POTLOK:  cpu time    0.15: real time    0.15
    SETDIJ:  cpu time    0.01: real time    0.01
     EDDAV:  cpu time    0.28: real time    0.28
       DOS:  cpu time    0.00: real time    0.00
    CHARGE:  cpu time    0.03: real time    0.03
    MIXING:  cpu time    0.00: real time    0.01
    --------------------------------------------
      LOOP:  cpu time    0.47: real time    0.48

 eigenvalue-minimisations  :   184
 total energy-change (2. order) :-0.2513646E-01  (-0.1375414E-03)
 number of electron      76.9999533 magnetization       1.0107459
 augmentation part       37.0331286 magnetization      -0.0421580

 Broyden mixing:
  rms(total) = 0.16871E-02    rms(broyden)= 0.16865E-02
  rms(prec ) = 0.25591E-02
  weight for this iteration     100.00

 eigenvalues of (default mixing * dielectric matrix)
  average eigenvalue GAMMA=   1.6755
  5.3909  2.9858  2.4747  1.6842  1.2191  1.0314  0.9346  0.7657  0.6297  0.6297
  0.6850

 Free energy of the ion-electron system (eV)
  ---------------------------------------------------
  alpha Z        PSCENC =         7.19494295
  Ewald energy   TEWEN  =      4105.78054927
  -Hartree energ DENC   =    -11047.30648863
  -exchange      EXHF   =         0.00000000
  -V(xc)+E(xc)   XCENC  =       -80.45989654
  PAW double counting   =      7705.27091116    -7394.92467511
  entropy T*S    EENTRO =         0.00000000
  eigenvalues    EBANDS =      -563.87017126
  atomic energy  EATOM  =      7260.39041060
  ---------------------------------------------------
  free energy    TOTEN  =        -7.92441755 eV

  energy without entropy =       -7.92441755  energy(sigma->0) =       -7.92441755


--------------------------------------------------------------------------------------------------------




----------------------------------------- Iteration    1(  17)  ---------------------------------------


    POTLOK:  cpu time    0.16: real time    0.15
    SETDIJ:  cpu time    0.00: real time    0.01
     EDDAV:  cpu time    0.27: real time    0.27
       DOS:  cpu time    0.00: real time    0.00
    CHARGE:  cpu time    0.03: real time    0.03
    MIXING:  cpu time    0.00: real time    0.01
    --------------------------------------------
      LOOP:  cpu time    0.47: real time    0.48

 eigenvalue-minimisations  :   176
 total energy-change (2. order) :-0.6633726E-02  (-0.4335822E-04)
 number of electron      76.9999533 magnetization       1.0037851
 augmentation part       37.0335010 magnetization      -0.0490608

 Broyden mixing:
  rms(total) = 0.97174E-03    rms(broyden)= 0.97140E-03
  rms(prec ) = 0.16440E-02
  weight for this iteration     100.00

 eigenvalues of (default mixing * dielectric matrix)
  average eigenvalue GAMMA=   1.6878
  5.5050  3.2561  2.5096  1.8526  1.5216  1.0931  0.9336  0.9336  0.7310  0.6276
  0.6276  0.6625

 Free energy of the ion-electron system (eV)
  ---------------------------------------------------
  alpha Z        PSCENC =         7.19494295
  Ewald energy   TEWEN  =      4105.78054927
  -Hartree energ DENC   =    -11046.98766327
  -exchange      EXHF   =         0.00000000
  -V(xc)+E(xc)   XCENC  =       -80.47010182
  PAW double counting   =      7705.83533133    -7395.49395799
  entropy T*S    EENTRO =         0.00000000
  eigenvalues    EBANDS =      -564.18056236
  atomic energy  EATOM  =      7260.39041060
  ---------------------------------------------------
  free energy    TOTEN  =        -7.93105128 eV

  energy without entropy =       -7.93105128  energy(sigma->0) =       -7.93105128


--------------------------------------------------------------------------------------------------------




----------------------------------------- Iteration    1(  18)  ---------------------------------------


    POTLOK:  cpu time    0.15: real time    0.15
    SETDIJ:  cpu time    0.00: real time    0.01
     EDDAV:  cpu time    0.26: real time    0.26
       DOS:  cpu time    0.00: real time    0.00
    CHARGE:  cpu time    0.03: real time    0.03
    MIXING:  cpu time    0.01: real time    0.01
    --------------------------------------------
      LOOP:  cpu time    0.46: real time    0.48

 eigenvalue-minimisations  :   168
 total energy-change (2. order) :-0.1650669E-02  (-0.2150904E-04)
 number of electron      76.9999533 magnetization       1.0001512
 augmentation part       37.0336790 magnetization      -0.0525423

 Broyden mixing:
  rms(total) = 0.64872E-03    rms(broyden)= 0.64851E-03
  rms(prec ) = 0.10997E-02
  weight for this iteration     100.00

 eigenvalues of (default mixing * dielectric matrix)
  average eigenvalue GAMMA=   1.6965
  5.5765  3.4720  2.5705  2.1799  1.6318  1.2296  0.9779  0.9779  0.8207  0.7153
  0.6266  0.6266  0.6491

 Free energy of the ion-electron system (eV)
  ---------------------------------------------------
  alpha Z        PSCENC =         7.19494295
  Ewald energy   TEWEN  =      4105.78054927
  -Hartree energ DENC   =    -11046.73906473
  -exchange      EXHF   =         0.00000000
  -V(xc)+E(xc)   XCENC  =       -80.47438127
  PAW double counting   =      7705.60392500    -7395.26162799
  entropy T*S    EENTRO =         0.00000000
  eigenvalues    EBANDS =      -564.42745578
  atomic energy  EATOM  =      7260.39041060
  ---------------------------------------------------
  free energy    TOTEN  =        -7.93270195 eV

  energy without entropy =       -7.93270195  energy(sigma->0) =       -7.93270195


--------------------------------------------------------------------------------------------------------




----------------------------------------- Iteration    1(  19)  ---------------------------------------


    POTLOK:  cpu time    0.15: real time    0.15
    SETDIJ:  cpu time    0.01: real time    0.01
     EDDAV:  cpu time    0.26: real time    0.26
       DOS:  cpu time    0.00: real time    0.00
    CHARGE:  cpu time    0.03: real time    0.03
    MIXING:  cpu time    0.01: real time    0.01
    --------------------------------------------
      LOOP:  cpu time    0.45: real time    0.46

 eigenvalue-minimisations  :   160
 total energy-change (2. order) :-0.1066250E-02  (-0.1352448E-04)
 number of electron      76.9999533 magnetization       1.0002125
 augmentation part       37.0339132 magnetization      -0.0523590

 Broyden mixing:
  rms(total) = 0.38150E-03    rms(broyden)= 0.38141E-03
  rms(prec ) = 0.65460E-03
  weight for this iteration     100.00

 eigenvalues of (default mixing * dielectric matrix)
  average eigenvalue GAMMA=   1.7128
  5.5729  3.9689  2.6689  2.3340  1.8258  1.2561  1.0388  1.0388  0.9036  0.7433
  0.7433  0.6238  0.6238  0.6374

 Free energy of the ion-electron system (eV)
  ---------------------------------------------------
  alpha Z        PSCENC =         7.19494295
  Ewald energy   TEWEN  =      4105.78054927
  -Hartree energ DENC   =    -11046.52443190
  -exchange      EXHF   =         0.00000000
  -V(xc)+E(xc)   XCENC  =       -80.47785815
  PAW double counting   =      7705.21973455    -7394.87567438
  entropy T*S    EENTRO =         0.00000000
  eigenvalues    EBANDS =      -564.64144114
  atomic energy  EATOM  =      7260.39041060
  ---------------------------------------------------
  free energy    TOTEN  =        -7.93376820 eV

  energy without entropy =       -7.93376820  energy(sigma->0) =       -7.93376820


--------------------------------------------------------------------------------------------------------




----------------------------------------- Iteration    1(  20)  ---------------------------------------


    POTLOK:  cpu time    0.15: real time    0.15
    SETDIJ:  cpu time    0.00: real time    0.01
     EDDAV:  cpu time    0.26: real time    0.26
       DOS:  cpu time    0.00: real time    0.00
    CHARGE:  cpu time    0.02: real time    0.03
    MIXING:  cpu time    0.01: real time    0.01
    --------------------------------------------
      LOOP:  cpu time    0.45: real time    0.46

 eigenvalue-minimisations  :   164
 total energy-change (2. order) :-0.5887252E-03  (-0.4436258E-05)
 number of electron      76.9999533 magnetization       0.9996446
 augmentation part       37.0339106 magnetization      -0.0528716

 Broyden mixing:
  rms(total) = 0.24074E-03    rms(broyden)= 0.24071E-03
  rms(prec ) = 0.42483E-03
  weight for this iteration     100.00

 eigenvalues of (default mixing * dielectric matrix)
  average eigenvalue GAMMA=   1.7444
  5.6848  4.5597  2.8023  2.4661  1.9124  1.4535  1.0964  1.0964  0.8958  0.8958
  0.7511  0.6773  0.6389  0.6177  0.6177

 Free energy of the ion-electron system (eV)
  ---------------------------------------------------
  alpha Z        PSCENC =         7.19494295
  Ewald energy   TEWEN  =      4105.78054927
  -Hartree energ DENC   =    -11046.41245366
  -exchange      EXHF   =         0.00000000
  -V(xc)+E(xc)   XCENC  =       -80.47942823
  PAW double counting   =      7705.13760498    -7394.79365978
  entropy T*S    EENTRO =        -0.00000000
  eigenvalues    EBANDS =      -564.75232304
  atomic energy  EATOM  =      7260.39041060
  ---------------------------------------------------
  free energy    TOTEN  =        -7.93435693 eV

  energy without entropy =       -7.93435693  energy(sigma->0) =       -7.93435693


--------------------------------------------------------------------------------------------------------




----------------------------------------- Iteration    1(  21)  ---------------------------------------


    POTLOK:  cpu time    0.15: real time    0.15
    SETDIJ:  cpu time    0.00: real time    0.01
     EDDAV:  cpu time    0.26: real time    0.26
       DOS:  cpu time    0.00: real time    0.00
    CHARGE:  cpu time    0.02: real time    0.03
    MIXING:  cpu time    0.01: real time    0.01
    --------------------------------------------
      LOOP:  cpu time    0.46: real time    0.46

 eigenvalue-minimisations  :   164
 total energy-change (2. order) :-0.2450066E-03  (-0.1788320E-05)
 number of electron      76.9999533 magnetization       1.0000160
 augmentation part       37.0340243 magnetization      -0.0524678

 Broyden mixing:
  rms(total) = 0.14177E-03    rms(broyden)= 0.14174E-03
  rms(prec ) = 0.27193E-03
  weight for this iteration     100.00

 eigenvalues of (default mixing * dielectric matrix)
  average eigenvalue GAMMA=   1.7846
  5.6888  5.2923  2.8299  2.5586  2.2201  1.5659  1.3279  1.1072  0.9325  0.9325
  0.7951  0.7705  0.6514  0.6416  0.6198  0.6198

 Free energy of the ion-electron system (eV)
  ---------------------------------------------------
  alpha Z        PSCENC =         7.19494295
  Ewald energy   TEWEN  =      4105.78054927
  -Hartree energ DENC   =    -11046.32340218
  -exchange      EXHF   =         0.00000000
  -V(xc)+E(xc)   XCENC  =       -80.48083461
  PAW double counting   =      7705.08863463    -7394.74367236
  entropy T*S    EENTRO =         0.00000000
  eigenvalues    EBANDS =      -564.84123024
  atomic energy  EATOM  =      7260.39041060
  ---------------------------------------------------
  free energy    TOTEN  =        -7.93460193 eV

  energy without entropy =       -7.93460193  energy(sigma->0) =       -7.93460193


--------------------------------------------------------------------------------------------------------




----------------------------------------- Iteration    1(  22)  ---------------------------------------


    POTLOK:  cpu time    0.15: real time    0.15
    SETDIJ:  cpu time    0.01: real time    0.01
     EDDAV:  cpu time    0.27: real time    0.27
       DOS:  cpu time    0.00: real time    0.00
    --------------------------------------------
      LOOP:  cpu time    0.43: real time    0.43

 eigenvalue-minimisations  :   172
 total energy-change (2. order) :-0.8803017E-04  (-0.9577762E-06)
 number of electron      76.9999533 magnetization       1.0000160
 augmentation part       37.0340243 magnetization      -0.0524678

 Free energy of the ion-electron system (eV)
  ---------------------------------------------------
  alpha Z        PSCENC =         7.19494295
  Ewald energy   TEWEN  =      4105.78054927
  -Hartree energ DENC   =    -11046.27613242
  -exchange      EXHF   =         0.00000000
  -V(xc)+E(xc)   XCENC  =       -80.48141905
  PAW double counting   =      7705.12447760    -7394.77944312
  entropy T*S    EENTRO =         0.00000000
  eigenvalues    EBANDS =      -564.88807579
  atomic energy  EATOM  =      7260.39041060
  ---------------------------------------------------
  free energy    TOTEN  =        -7.93468996 eV

  energy without entropy =       -7.93468996  energy(sigma->0) =       -7.93468996


--------------------------------------------------------------------------------------------------------




 average (electrostatic) potential at core
  the test charge radii are     1.1249
  (the norm of the test charge is              1.0000)
       1 -82.3228       2 -82.3825       3 -82.0194       4 -82.0679       5 -82.5034
       6 -82.3259       7 -82.2517
 
 
 
 E-fermi :  -3.8565     XC(G=0):  -0.6423     alpha+bet : -0.2774


 spin component 1

 k-point     1 :       0.0000    0.0000    0.0000
  band No.  band energies     occupation 
      1      -9.5864      1.00000
      2      -9.5603      1.00000
      3      -8.9491      1.00000
      4      -8.9383      1.00000
      5      -8.8317      1.00000
      6      -8.7743      1.00000
      7      -8.7075      1.00000
      8      -8.6893      1.00000
      9      -8.5040      1.00000
     10      -8.3411      1.00000
     11      -8.2302      1.00000
     12      -7.9487      1.00000
     13      -7.8256      1.00000
     14      -7.7728      1.00000
     15      -7.6989      1.00000
     16      -7.6375      1.00000
     17      -7.3814      1.00000
     18      -7.2820      1.00000
     19      -7.2181      1.00000
     20      -7.1413      1.00000
     21      -7.0890      1.00000
     22      -7.0666      1.00000
     23      -6.9306      1.00000
     24      -6.8414      1.00000
     25      -6.7713      1.00000
     26      -6.7239      1.00000
     27      -6.6923      1.00000
     28      -6.6570      1.00000
     29      -6.6325      1.00000
     30      -6.5772      1.00000
     31      -6.5520      1.00000
     32      -6.5348      1.00000
     33      -6.4831      1.00000
     34      -6.2903      1.00000
     35      -6.2602      1.00000
     36      -6.1281      1.00000
     37      -5.4203      1.00000
     38      -4.5265      1.00000
     39      -3.8723      1.00000
     40      -3.0059      0.00000
     41      -2.5272      0.00000
     42      -2.0016      0.00000
     43      -1.6091      0.00000
     44      -1.3553      0.00000
     45      -0.9996      0.00000
     46      -0.7863      0.00000
     47      -0.5659      0.00000
     48      -0.1859      0.00000
     49       0.0220      0.00000
     50       0.1594      0.00000
     51       0.2138      0.00000
     52       0.4335      0.00000

 spin component 2

 k-point     1 :       0.0000    0.0000    0.0000
  band No.  band energies     occupation 
      1      -9.5572      1.00000
      2      -9.5462      1.00000
      3      -8.9156      1.00000
      4      -8.9057      1.00000
      5      -8.8091      1.00000
      6      -8.7670      1.00000
      7      -8.6637      1.00000
      8      -8.6604      1.00000
      9      -8.4513      1.00000
     10      -8.2914      1.00000
     11      -8.1800      1.00000
     12      -7.9014      1.00000
     13      -7.7886      1.00000
     14      -7.7265      1.00000
     15      -7.6815      1.00000
     16      -7.6258      1.00000
     17      -7.3398      1.00000
     18      -7.2611      1.00000
     19      -7.1873      1.00000
     20      -7.1321      1.00000
     21      -7.0517      1.00000
     22      -7.0232      1.00000
     23      -6.8816      1.00000
     24      -6.7919      1.00000
     25      -6.7276      1.00000
     26      -6.6943      1.00000
     27      -6.6504      1.00000
     28      -6.6180      1.00000
     29      -6.5917      1.00000
     30      -6.5423      1.00000
     31      -6.5338      1.00000
     32      -6.5073      1.00000
     33      -6.4332      1.00000
     34      -6.2590      1.00000
     35      -6.2032      1.00000
     36      -6.0748      1.00000
     37      -5.3809      1.00000
     38      -4.4633      1.00000
     39      -3.5338      0.00000
     40      -2.9153      0.00000
     41      -2.4659      0.00000
     42      -1.7756      0.00000
     43      -1.5226      0.00000
     44      -1.2437      0.00000
     45      -0.7560      0.00000
     46      -0.7156      0.00000
     47      -0.4581      0.00000
     48      -0.0894      0.00000
     49       0.1692      0.00000
     50       0.2021      0.00000
     51       0.2997      0.00000
     52       0.5044      0.00000


--------------------------------------------------------------------------------------------------------


 soft charge-density along one line, spin component           1
         0         1         2         3         4         5         6         7         8         9
 total charge-density along one line
 
 soft charge-density along one line, spin component           2
         0         1         2         3         4         5         6         7         8         9
 total charge-density along one line
 
 pseudopotential strength for first ion, spin component:           1
-10.408  -0.011   0.004  -0.000  -0.001 -10.379  -0.010   0.004
 -0.011 -10.331   0.000  -0.003  -0.000  -0.010 -10.306   0.000
  0.004   0.000 -10.365  -0.004   0.056   0.004   0.000 -10.338
 -0.000  -0.003  -0.004 -10.413  -0.015  -0.000  -0.003  -0.004
 -0.001  -0.000   0.056  -0.015 -10.427  -0.001  -0.000   0.054
-10.379  -0.010   0.004  -0.000  -0.001 -10.327  -0.010   0.004
 -0.010 -10.306   0.000  -0.003  -0.000  -0.010 -10.256   0.000
  0.004   0.000 -10.338  -0.004   0.054   0.004   0.000 -10.287
 -0.000  -0.003  -0.004 -10.384  -0.015  -0.000  -0.003  -0.003
 -0.001  -0.000   0.054  -0.015 -10.398  -0.001  -0.000   0.052
  0.001   0.000  -0.010   0.006   0.020   0.001   0.000  -0.010
  0.002   0.000  -0.016   0.009   0.032   0.002   0.000  -0.016
  0.024   0.008   0.000  -0.000  -0.001   0.022   0.007   0.000
 -0.000   0.001   0.010   0.023  -0.002  -0.000   0.001   0.010
 -0.000  -0.000  -0.006   0.004   0.010  -0.000  -0.000  -0.005
  0.025   0.009   0.000  -0.000  -0.001   0.024   0.009   0.000
 -0.000   0.001   0.012   0.025  -0.002  -0.000   0.001   0.012
 -0.000  -0.000  -0.006   0.005   0.010  -0.001  -0.000  -0.005
 pseudopotential strength for first ion, spin component:           2
-10.408  -0.010   0.004  -0.000  -0.001 -10.380  -0.010   0.004
 -0.010 -10.332   0.000  -0.003  -0.000  -0.010 -10.306   0.000
  0.004   0.000 -10.365  -0.004   0.056   0.004   0.000 -10.338
 -0.000  -0.003  -0.004 -10.413  -0.015  -0.000  -0.003  -0.004
 -0.001  -0.000   0.056  -0.015 -10.427  -0.001  -0.000   0.054
-10.380  -0.010   0.004  -0.000  -0.001 -10.327  -0.010   0.004
 -0.010 -10.306   0.000  -0.003  -0.000  -0.010 -10.256   0.000
  0.004   0.000 -10.338  -0.004   0.054   0.004   0.000 -10.288
 -0.000  -0.003  -0.004 -10.384  -0.015  -0.000  -0.003  -0.004
 -0.001  -0.000   0.054  -0.015 -10.398  -0.001  -0.000   0.052
  0.001   0.000  -0.010   0.006   0.020   0.001   0.000  -0.010
  0.002   0.000  -0.017   0.009   0.032   0.002   0.000  -0.017
  0.024   0.008   0.000  -0.000  -0.001   0.022   0.007   0.000
 -0.000   0.001   0.010   0.023  -0.002  -0.000   0.001   0.010
 -0.000  -0.000  -0.006   0.004   0.010  -0.000  -0.000  -0.005
  0.025   0.009   0.000  -0.000  -0.001   0.024   0.009   0.000
 -0.000   0.001   0.012   0.025  -0.002  -0.000   0.001   0.012
 -0.000  -0.000  -0.006   0.005   0.010  -0.001  -0.000  -0.005
 total augmentation occupancy for first ion, spin component:           1
  3.169   0.140  -0.059   0.018   0.039  -1.265  -0.159   0.070  -0.020  -0.047  -0.111   0.022   0.166   0.003   0.024   0.003
  0.140   2.196   0.007   0.038  -0.003  -0.159  -0.150  -0.005  -0.043   0.001  -0.013   0.003   0.025   0.009   0.003   0.002
 -0.059   0.007   2.739  -0.013  -0.869   0.070  -0.005  -0.763   0.012   1.015   0.783  -0.153  -0.005   0.014  -0.224  -0.000
  0.018   0.038  -0.013   3.248   0.312  -0.020  -0.043   0.011  -1.357  -0.357  -0.457   0.091   0.003   0.177   0.105  -0.000
  0.039  -0.003  -0.869   0.312   3.747  -0.047   0.001   1.015  -0.357  -1.937  -1.513   0.293   0.004   0.033   0.404  -0.002
 -1.265  -0.159   0.070  -0.020  -0.047   1.350   0.177  -0.080   0.022   0.055   0.093  -0.015  -0.184  -0.004  -0.026   0.012
 -0.159  -0.150  -0.005  -0.043   0.001   0.177   0.102   0.004   0.049   0.000   0.011  -0.003  -0.027  -0.009  -0.003   0.002
  0.070  -0.005  -0.763   0.011   1.015  -0.080   0.004   0.780  -0.014  -1.155  -0.676   0.105   0.007  -0.016   0.248  -0.000
 -0.020  -0.043   0.012  -1.357  -0.357   0.022   0.049  -0.014   1.451   0.402   0.380  -0.063  -0.003  -0.197  -0.109   0.000
 -0.047   0.001   1.015  -0.357  -1.937   0.055   0.000  -1.155   0.402   2.115   1.287  -0.200  -0.003  -0.036  -0.446   0.000
 -0.111  -0.013   0.783  -0.457  -1.513   0.093   0.011  -0.676   0.380   1.287   1.883  -0.198  -0.012  -0.058  -0.364   0.001
  0.022   0.003  -0.153   0.091   0.293  -0.015  -0.003   0.105  -0.063  -0.200  -0.198   0.032   0.002   0.009   0.048  -0.000
  0.166   0.025  -0.005   0.003   0.004  -0.184  -0.027   0.007  -0.003  -0.003  -0.012   0.002   0.026   0.001   0.003  -0.002
  0.003   0.009   0.014   0.177   0.033  -0.004  -0.009  -0.016  -0.197  -0.036  -0.058   0.009   0.001   0.029   0.012  -0.000
  0.024   0.003  -0.224   0.105   0.404  -0.026  -0.003   0.248  -0.109  -0.446  -0.364   0.048   0.003   0.012   0.105  -0.000
  0.003   0.002  -0.000  -0.000  -0.002   0.012   0.002  -0.000   0.000   0.000   0.001  -0.000  -0.002  -0.000  -0.000   0.000
 -0.000  -0.000   0.005   0.002  -0.004   0.000   0.001   0.001   0.013   0.002   0.004  -0.001  -0.000  -0.002  -0.001   0.000
 -0.002  -0.000   0.010  -0.005  -0.019   0.001   0.000  -0.014   0.006   0.025   0.019  -0.002  -0.000  -0.001  -0.006  -0.000
 total augmentation occupancy for first ion, spin component:           2
 -0.015   0.001   0.000   0.005   0.003   0.008  -0.001  -0.000  -0.004  -0.002   0.007   0.001   0.002   0.001   0.002  -0.000
  0.001  -0.011  -0.002   0.007   0.004  -0.001   0.005   0.001  -0.005  -0.003   0.010   0.002   0.002   0.002   0.002  -0.000
  0.000  -0.002  -0.016  -0.004   0.002  -0.000   0.001   0.009   0.003  -0.001  -0.005  -0.001  -0.000   0.000  -0.000   0.000
  0.005   0.007  -0.004  -0.001   0.005  -0.004  -0.005   0.003  -0.004  -0.004   0.021   0.004   0.003   0.004   0.004  -0.000
  0.003   0.004   0.002   0.005  -0.017  -0.002  -0.003  -0.001  -0.004   0.009   0.010   0.002  -0.000   0.001   0.001   0.000
  0.008  -0.001  -0.000  -0.004  -0.002  -0.000   0.001  -0.000   0.003   0.002  -0.006  -0.001  -0.001  -0.001  -0.001   0.000
 -0.001   0.005   0.001  -0.005  -0.003   0.001   0.002  -0.001   0.004   0.002  -0.008  -0.001  -0.001  -0.001  -0.001   0.000
 -0.000   0.001   0.009   0.003  -0.001  -0.000  -0.001  -0.001  -0.002   0.001   0.004   0.001   0.000   0.000  -0.000  -0.000
 -0.004  -0.005   0.003  -0.004  -0.004   0.003   0.004  -0.002   0.008   0.003  -0.017  -0.002  -0.002  -0.002  -0.003   0.000
 -0.002  -0.003  -0.001  -0.004   0.009   0.002   0.002   0.001   0.003  -0.001  -0.009  -0.001  -0.000  -0.000  -0.000   0.000
  0.007   0.010  -0.005   0.021   0.010  -0.006  -0.008   0.004  -0.017  -0.009   0.039   0.001   0.005   0.005   0.007  -0.000
  0.001   0.002  -0.001   0.004   0.002  -0.001  -0.001   0.001  -0.002  -0.001   0.001   0.001   0.000   0.000   0.001  -0.000
  0.002   0.002  -0.000   0.003  -0.000  -0.001  -0.001   0.000  -0.002  -0.000   0.005   0.000   0.001   0.001   0.000  -0.000
  0.001   0.002   0.000   0.004   0.001  -0.001  -0.001   0.000  -0.002  -0.000   0.005   0.000   0.001   0.001   0.001  -0.000
  0.002   0.002  -0.000   0.004   0.001  -0.001  -0.001  -0.000  -0.003  -0.000   0.007   0.001   0.000   0.001   0.000  -0.000
 -0.000  -0.000   0.000  -0.000   0.000   0.000   0.000  -0.000   0.000   0.000  -0.000  -0.000  -0.000  -0.000  -0.000   0.000
 -0.000   0.000   0.000  -0.000   0.000   0.000   0.000   0.000   0.000  -0.000  -0.000  -0.000  -0.000   0.000  -0.000   0.000
  0.000  -0.000   0.000   0.000   0.000   0.000   0.000  -0.000   0.000   0.000  -0.000  -0.000  -0.000  -0.000   0.000   0.000


------------------------ aborting loop because EDIFF is reached ----------------------------------------


    CHARGE:  cpu time    0.03: real time    0.03
    FORLOC:  cpu time    0.00: real time    0.00
    FORNL :  cpu time    0.10: real time    0.10
    STRESS:  cpu time    0.11: real time    0.11
    FORCOR:  cpu time    0.15: real time    0.15
    FORHAR:  cpu time    0.02: real time    0.02
    MIXING:  cpu time    0.01: real time    0.01
    OFIELD:  cpu time    0.00: real time    0.00

  FORCE on cell =-STRESS in cart. coord.  units (eV):
  Direction    XX          YY          ZZ          XY          YZ          ZX
  --------------------------------------------------------------------------------------
  Alpha Z     7.19494     7.19494     7.19494
  Ewald    1656.26692   488.71173  1960.79868  -315.47710  -397.07689    93.09696
  Hartree  3757.26291  2880.70637  4408.24794  -318.09134  -308.89720    47.05457
  E(xc)    -406.45897  -407.03569  -407.54612     0.06176    -0.21303     0.03602
  Local   -6526.84073 -4501.35439 -7510.29762   639.60455   702.53455  -135.22851
  n-local   -64.27386   -67.89634   -70.86885    -0.34405    -0.65542     1.10499
  augment   636.38920   641.01032   643.87990    -1.24299     0.96710    -1.09541
  Kinetic   959.52090   965.37430   968.19459    -1.69670     1.36015    -0.99630
  Fock        0.00000     0.00000     0.00000     0.00000     0.00000     0.00000
  -------------------------------------------------------------------------------------
  Total      19.06130     6.71124    -0.39653     2.81414    -1.98074     3.97233
  in kB       5.27206     1.85622    -0.10967     0.77835    -0.54784     1.09868
  external pressure =        2.34 kB  Pullay stress =        0.00 kB


 VOLUME and BASIS-vectors are now :
 -----------------------------------------------------------------------------
  energy-cutoff  :      249.84
  volume of cell :     5792.72
      direct lattice vectors                 reciprocal lattice vectors
    17.959502501  0.000000000  0.000000000     0.055680830  0.000000000  0.000000000
     0.000000000 17.959502501  0.000000000     0.000000000  0.055680830  0.000000000
     0.000000000  0.000000000 17.959502501     0.000000000  0.000000000  0.055680830

  length of vectors
    17.959502501 17.959502501 17.959502501     0.055680830  0.055680830  0.055680830


 FORCES acting on ions
    electron-ion (+dipol)            ewald-force                    non-local-force                 convergence-correction
 -----------------------------------------------------------------------------------------------
   -.448E+03 -.187E+02 -.366E+03   0.444E+03 0.186E+02 0.366E+03   0.988E+01 0.219E+00 0.154E+01   0.862E-04 0.217E-03 0.162E-02
   0.440E+03 0.184E+02 -.355E+03   -.436E+03 -.184E+02 0.353E+03   -.945E+01 -.216E+00 0.563E+00   0.761E-03 -.308E-03 -.377E-03
   -.166E+03 0.658E+03 0.165E+03   0.166E+03 -.653E+03 -.164E+03   -.561E+00 -.710E+01 -.126E+01   -.579E-03 0.335E-03 -.435E-03
   -.616E+03 -.143E+03 0.255E+03   0.612E+03 0.141E+03 -.253E+03   0.466E+01 0.323E+01 -.168E+01   -.131E-02 -.106E-02 0.344E-03
   0.212E+03 0.192E+03 -.277E+03   -.213E+03 -.192E+03 0.275E+03   0.102E+01 -.114E+01 0.492E+01   0.636E-03 0.282E-03 0.926E-04
   -.780E+02 -.696E+03 0.194E+03   0.772E+02 0.693E+03 -.194E+03   0.308E+01 0.624E+01 -.227E+00   -.885E-03 -.128E-02 0.355E-04
   0.653E+03 -.993E+01 0.386E+03   -.650E+03 0.114E+02 -.382E+03   -.688E+01 -.226E+01 -.535E+01   -.101E-02 -.164E-03 -.103E-02
 -----------------------------------------------------------------------------------------------
   -.175E+01 0.966E+00 0.147E+01   0.000E+00 -.284E-12 0.000E+00   0.175E+01 -.102E+01 -.149E+01   -.230E-02 -.198E-02 0.252E-03
 
 
 POSITION                                       TOTAL-FORCE (eV/Angst)
 -----------------------------------------------------------------------------------
     10.24359      9.05099     12.32767         6.051533      0.174592      0.631424
      8.08128      8.97510     12.02640        -6.111108     -0.229732     -1.274898
     10.01711      7.07673      7.89894        -0.106480     -1.864427      0.022261
     11.03175      9.27840      7.54352         0.715007      1.169209     -0.137630
      8.48952      8.82622      9.00128         0.852403     -1.239431      2.800952
      8.90716     10.93735      7.68702         2.237146      2.728950     -0.208112
      6.98890      9.61243      7.28379        -3.638502     -0.739161     -1.833997
 -----------------------------------------------------------------------------------
    total drift:                                0.000080     -0.055726     -0.020930


--------------------------------------------------------------------------------------------------------



  FREE ENERGIE OF THE ION-ELECTRON SYSTEM (eV)
  ---------------------------------------------------
  free  energy   TOTEN  =        -7.93468996 eV

  energy  without entropy=       -7.93468996  energy(sigma->0) =       -7.93468996
 


--------------------------------------------------------------------------------------------------------


    POTLOK:  cpu time    0.16: real time    0.16


--------------------------------------------------------------------------------------------------------




--------------------------------------------------------------------------------------------------------


    WAVPRE:  cpu time    0.01: real time    0.01
 FEWALD executed in parallel
    FEWALD:  cpu time    0.00: real time    0.00
    ORTHCH:  cpu time    0.02: real time    0.01
     LOOP+:  cpu time   11.04: real time   11.96


----------------------------------------- Iteration    2(   1)  ---------------------------------------


    POTLOK:  cpu time    0.15: real time    0.15
    SETDIJ:  cpu time    0.00: real time    0.01
     EDDAV:  cpu time    0.31: real time    0.31
       DOS:  cpu time    0.00: real time    0.00
    CHARGE:  cpu time    0.03: real time    0.03
    MIXING:  cpu time    0.00: real time    0.01
    --------------------------------------------
      LOOP:  cpu time    0.50: real time    0.51

 eigenvalue-minimisations  :   208
 total energy-change (2. order) :-0.8783556E+00  (-0.8025284E+01)
 number of electron      77.0000046 magnetization       0.9999776
 augmentation part       37.0798004 magnetization      -0.0551818

 Broyden mixing:
  rms(total) = 0.22405E+00    rms(broyden)= 0.22390E+00
  rms(prec ) = 0.22426E+00
  weight for this iteration     100.00

 Free energy of the ion-electron system (eV)
  ---------------------------------------------------
  alpha Z        PSCENC =         7.19494295
  Ewald energy   TEWEN  =      3984.08904595
  -Hartree energ DENC   =    -10927.97925079
  -exchange      EXHF   =         0.00000000
  -V(xc)+E(xc)   XCENC  =       -80.98723248
  PAW double counting   =      7705.14859954    -7394.80348880
  entropy T*S    EENTRO =         0.00000000
  eigenvalues    EBANDS =      -561.86598453
  atomic energy  EATOM  =      7260.39041060
  ---------------------------------------------------
  free energy    TOTEN  =        -8.81295754 eV

  energy without entropy =       -8.81295754  energy(sigma->0) =       -8.81295754


--------------------------------------------------------------------------------------------------------




----------------------------------------- Iteration    2(   2)  ---------------------------------------


    POTLOK:  cpu time    0.15: real time    0.15
    SETDIJ:  cpu time    0.01: real time    0.01
     EDDAV:  cpu time    0.33: real time    0.33
       DOS:  cpu time    0.00: real time    0.00
    CHARGE:  cpu time    0.02: real time    0.03
    MIXING:  cpu time    0.00: real time    0.00
    --------------------------------------------
      LOOP:  cpu time    0.52: real time    0.52

 eigenvalue-minimisations  :   228
 total energy-change (2. order) :-0.3628549E-01  (-0.3742700E-01)
 number of electron      77.0000046 magnetization       0.9999872
 augmentation part       37.0651335 magnetization      -0.0553790

 Broyden mixing:
  rms(total) = 0.15415E+00    rms(broyden)= 0.15414E+00
  rms(prec ) = 0.15445E+00
  weight for this iteration     100.00

 eigenvalues of (default mixing * dielectric matrix)
  average eigenvalue GAMMA=   2.5091
  2.5091

 Free energy of the ion-electron system (eV)
  ---------------------------------------------------
  alpha Z        PSCENC =         7.19494295
  Ewald energy   TEWEN  =      3984.08904595
  -Hartree energ DENC   =    -10928.88664960
  -exchange      EXHF   =         0.00000000
  -V(xc)+E(xc)   XCENC  =       -80.95217231
  PAW double counting   =      7668.30036832    -7357.41288485
  entropy T*S    EENTRO =         0.00000000
  eigenvalues    EBANDS =      -561.57230411
  atomic energy  EATOM  =      7260.39041060
  ---------------------------------------------------
  free energy    TOTEN  =        -8.84924304 eV

  energy without entropy =       -8.84924304  energy(sigma->0) =       -8.84924304


--------------------------------------------------------------------------------------------------------




----------------------------------------- Iteration    2(   3)  ---------------------------------------


    POTLOK:  cpu time    0.15: real time    0.15
    SETDIJ:  cpu time    0.00: real time    0.01
     EDDAV:  cpu time    0.32: real time    0.32
       DOS:  cpu time    0.00: real time    0.00
    CHARGE:  cpu time    0.02: real time    0.03
    MIXING:  cpu time    0.01: real time    0.00
    --------------------------------------------
      LOOP:  cpu time    0.51: real time    0.55

 eigenvalue-minimisations  :   220
 total energy-change (2. order) : 0.1197449E-02  (-0.1595067E-02)
 number of electron      77.0000046 magnetization       0.9999896
 augmentation part       37.0747150 magnetization      -0.0547999

 Broyden mixing:
  rms(total) = 0.16190E-01    rms(broyden)= 0.16184E-01
  rms(prec ) = 0.17074E-01
  weight for this iteration     100.00

 eigenvalues of (default mixing * dielectric matrix)
  average eigenvalue GAMMA=   1.7172
  2.5980  0.8363

 Free energy of the ion-electron system (eV)
  ---------------------------------------------------
  alpha Z        PSCENC =         7.19494295
  Ewald energy   TEWEN  =      3984.08904595
  -Hartree energ DENC   =    -10930.94615245
  -exchange      EXHF   =         0.00000000
  -V(xc)+E(xc)   XCENC  =       -80.92233511
  PAW double counting   =      7602.11411564    -7290.30892107
  entropy T*S    EENTRO =         0.00000000
  eigenvalues    EBANDS =      -560.45915211
  atomic energy  EATOM  =      7260.39041060
  ---------------------------------------------------
[...]




----------------------------------------- Iteration   79(   3)  ---------------------------------------


    POTLOK:  cpu time    0.15: real time    0.15
    SETDIJ:  cpu time    0.00: real time    0.01
     EDDAV:  cpu time    0.24: real time    0.24
       DOS:  cpu time    0.00: real time    0.00
    --------------------------------------------
      LOOP:  cpu time    0.40: real time    0.41

 eigenvalue-minimisations  :   144
 total energy-change (2. order) : 0.8441564E-05  (-0.3955984E-05)
 number of electron      76.9999821 magnetization       1.0000002
 augmentation part       37.1032415 magnetization      -0.0779105

 Free energy of the ion-electron system (eV)
  ---------------------------------------------------
  alpha Z        PSCENC =         7.19494295
  Ewald energy   TEWEN  =      4348.72719723
  -Hartree energ DENC   =    -11299.31050837
  -exchange      EXHF   =         0.00000000
  -V(xc)+E(xc)   XCENC  =       -81.29764444
  PAW double counting   =      7436.30441768    -7122.61812659
  entropy T*S    EENTRO =         0.00000000
  eigenvalues    EBANDS =      -560.53540611
  atomic energy  EATOM  =      7260.39041060
  ---------------------------------------------------
  free energy    TOTEN  =       -11.14471704 eV

  energy without entropy =      -11.14471704  energy(sigma->0) =      -11.14471704


--------------------------------------------------------------------------------------------------------




 average (electrostatic) potential at core
  the test charge radii are     1.1249
  (the norm of the test charge is              1.0000)
       1 -82.1939       2 -82.1635       3 -82.2008       4 -82.2062       5 -82.6271
       6 -82.1485       7 -82.1637
 
 
 
 E-fermi :  -3.4872     XC(G=0):  -0.6366     alpha+bet : -0.2774


 spin component 1

 k-point     1 :       0.0000    0.0000    0.0000
  band No.  band energies     occupation 
      1      -9.0083      1.00000
      2      -8.8660      1.00000
      3      -8.8072      1.00000
      4      -8.5949      1.00000
      5      -8.4550      1.00000
      6      -8.1867      1.00000
      7      -8.1679      1.00000
      8      -8.1291      1.00000
      9      -7.9475      1.00000
     10      -7.8727      1.00000
     11      -7.8508      1.00000
     12      -7.7519      1.00000
     13      -7.7492      1.00000
     14      -7.7209      1.00000
     15      -7.7099      1.00000
     16      -7.5926      1.00000
     17      -7.4206      1.00000
     18      -7.3231      1.00000
     19      -7.1421      1.00000
     20      -7.1408      1.00000
     21      -7.1289      1.00000
     22      -7.0917      1.00000
     23      -7.0715      1.00000
     24      -7.0240      1.00000
     25      -6.9787      1.00000
     26      -6.9221      1.00000
     27      -6.9182      1.00000
     28      -6.8608      1.00000
     29      -6.8587      1.00000
     30      -6.8247      1.00000
     31      -6.7916      1.00000
     32      -6.7228      1.00000
     33      -6.6235      1.00000
     34      -6.6022      1.00000
     35      -6.5644      1.00000
     36      -6.4486      1.00000
     37      -5.2812      1.00000
     38      -5.0539      1.00000
     39      -3.5044      1.00000
     40      -3.0574      0.00000
     41      -2.7364      0.00000
     42      -2.0903      0.00000
     43      -1.6369      0.00000
     44      -1.3063      0.00000
     45      -0.9555      0.00000
     46      -0.8331      0.00000
     47      -0.4383      0.00000
     48      -0.2753      0.00000
     49      -0.0965      0.00000
     50       0.1154      0.00000
     51       0.2776      0.00000
     52       0.3531      0.00000

 spin component 2

 k-point     1 :       0.0000    0.0000    0.0000
  band No.  band energies     occupation 
      1      -8.9761      1.00000
      2      -8.8500      1.00000
      3      -8.7903      1.00000
      4      -8.5739      1.00000
      5      -8.4330      1.00000
      6      -8.1322      1.00000
      7      -8.1141      1.00000
      8      -8.0954      1.00000
      9      -7.9189      1.00000
     10      -7.8349      1.00000
     11      -7.8169      1.00000
     12      -7.7145      1.00000
     13      -7.7138      1.00000
     14      -7.6921      1.00000
     15      -7.6797      1.00000
     16      -7.5573      1.00000
     17      -7.3882      1.00000
     18      -7.2917      1.00000
     19      -7.1109      1.00000
     20      -7.1061      1.00000
     21      -7.0832      1.00000
     22      -7.0698      1.00000
     23      -7.0405      1.00000
     24      -6.9912      1.00000
     25      -6.9495      1.00000
     26      -6.8998      1.00000
     27      -6.8834      1.00000
     28      -6.8363      1.00000
     29      -6.8312      1.00000
     30      -6.7966      1.00000
     31      -6.7620      1.00000
     32      -6.6638      1.00000
     33      -6.5949      1.00000
     34      -6.5704      1.00000
     35      -6.5186      1.00000
     36      -6.4227      1.00000
     37      -5.1960      1.00000
     38      -4.9258      1.00000
     39      -3.2356      0.00000
     40      -2.9928      0.00000
     41      -2.6059      0.00000
     42      -1.9449      0.00000
     43      -1.4795      0.00000
     44      -1.1020      0.00000
     45      -0.7892      0.00000
     46      -0.7591      0.00000
     47      -0.3139      0.00000
     48      -0.1637      0.00000
     49       0.0564      0.00000
     50       0.2392      0.00000
     51       0.3846      0.00000
     52       0.4850      0.00000


--------------------------------------------------------------------------------------------------------


 soft charge-density along one line, spin component           1
         0         1         2         3         4         5         6         7         8         9
 total charge-density along one line
 
 soft charge-density along one line, spin component           2
         0         1         2         3         4         5         6         7         8         9
 total charge-density along one line
 
 pseudopotential strength for first ion, spin component:           1
-10.311  -0.008  -0.009  -0.001   0.002 -10.286  -0.008  -0.009
 -0.008 -10.315   0.001   0.010  -0.000  -0.008 -10.290   0.001
 -0.009   0.001 -10.326  -0.010   0.009  -0.009   0.001 -10.300
 -0.001   0.010  -0.010 -10.329  -0.009  -0.000   0.010  -0.009
  0.002  -0.000   0.009  -0.009 -10.310   0.002  -0.000   0.008
-10.286  -0.008  -0.009  -0.000   0.002 -10.236  -0.008  -0.008
 -0.008 -10.290   0.001   0.010  -0.000  -0.008 -10.241   0.001
 -0.009   0.001 -10.300  -0.009   0.008  -0.008   0.001 -10.251
 -0.000   0.010  -0.009 -10.303  -0.009  -0.000   0.009  -0.009
  0.002  -0.000   0.008  -0.009 -10.285   0.002  -0.000   0.008
 -0.006   0.001   0.004   0.003   0.005  -0.006   0.001   0.004
 -0.010   0.002   0.006   0.004   0.008  -0.010   0.002   0.006
  0.026   0.023   0.003   0.000   0.006   0.025   0.022   0.003
  0.000  -0.006   0.026   0.025   0.000   0.000  -0.006   0.025
 -0.005   0.000  -0.015   0.023   0.025  -0.005   0.000  -0.014
  0.031   0.028   0.004   0.001   0.008   0.030   0.027   0.004
  0.001  -0.008   0.032   0.031   0.000   0.001  -0.007   0.031
 -0.006   0.001  -0.018   0.028   0.031  -0.006   0.001  -0.017
 pseudopotential strength for first ion, spin component:           2
-10.313  -0.008  -0.009  -0.001   0.002 -10.288  -0.008  -0.009
 -0.008 -10.316   0.002   0.011  -0.001  -0.008 -10.291   0.002
 -0.009   0.002 -10.327  -0.010   0.008  -0.009   0.002 -10.302
 -0.001   0.011  -0.010 -10.332  -0.010  -0.000   0.010  -0.009
  0.002  -0.001   0.008  -0.010 -10.313   0.002  -0.001   0.008
-10.288  -0.008  -0.009  -0.000   0.002 -10.239  -0.008  -0.008
 -0.008 -10.291   0.002   0.010  -0.001  -0.008 -10.242   0.002
 -0.009   0.002 -10.302  -0.009   0.008  -0.008   0.002 -10.252
 -0.000   0.010  -0.009 -10.306  -0.009  -0.000   0.010  -0.009
  0.002  -0.001   0.008  -0.009 -10.288   0.002  -0.001   0.007
 -0.006   0.002   0.004   0.003   0.005  -0.006   0.001   0.004
 -0.010   0.003   0.006   0.005   0.008  -0.010   0.003   0.006
  0.026   0.023   0.004   0.000   0.007   0.026   0.022   0.004
  0.000  -0.006   0.026   0.026  -0.000   0.000  -0.006   0.025
 -0.006   0.000  -0.016   0.023   0.026  -0.006   0.000  -0.015
  0.033   0.029   0.005   0.000   0.008   0.031   0.028   0.005
  0.000  -0.007   0.032   0.032  -0.000   0.001  -0.007   0.031
 -0.007   0.000  -0.019   0.028   0.032  -0.007   0.001  -0.018
 total augmentation occupancy for first ion, spin component:           1
  2.427   0.029   0.046  -0.100  -0.110  -0.421  -0.021  -0.088   0.068   0.132   0.548  -0.086   0.031  -0.031  -0.073   0.013
  0.029   2.427   0.103  -0.098  -0.029  -0.021  -0.427  -0.093   0.167   0.038  -0.145   0.011   0.063   0.037  -0.049   0.010
  0.046   0.103   2.718  -0.114  -0.086  -0.089  -0.093  -0.740   0.054   0.126  -0.330   0.081   0.054   0.150  -0.083  -0.001
 -0.100  -0.098  -0.114   2.493   0.099   0.068   0.167   0.054  -0.563  -0.104  -0.142   0.054  -0.041   0.006   0.096   0.003
 -0.110  -0.029  -0.086   0.099   2.468   0.132   0.038   0.126  -0.104  -0.430  -0.443   0.067  -0.028   0.004   0.083   0.005
 -0.421  -0.021  -0.089   0.068   0.132   0.400   0.015   0.124  -0.043  -0.151  -0.483   0.077  -0.048   0.034   0.079   0.003
 -0.021  -0.427  -0.093   0.167   0.038   0.015   0.409   0.085  -0.226  -0.045   0.132  -0.016  -0.083  -0.032   0.051   0.005
 -0.088  -0.093  -0.740   0.054   0.126   0.124   0.085   0.740  -0.004  -0.161   0.276  -0.065  -0.053  -0.177   0.087   0.003
  0.068   0.167   0.054  -0.563  -0.104  -0.043  -0.226  -0.004   0.607   0.110   0.102  -0.029   0.044  -0.033  -0.114  -0.003
  0.132   0.038   0.126  -0.104  -0.430  -0.151  -0.045  -0.161   0.110   0.378   0.376  -0.054   0.030  -0.005  -0.107  -0.002
  0.548  -0.145  -0.330  -0.142  -0.443  -0.483   0.132   0.276   0.102   0.376   1.704  -0.202   0.029  -0.183  -0.146  -0.002
 -0.086   0.011   0.081   0.054   0.067   0.077  -0.016  -0.065  -0.029  -0.054  -0.202   0.036  -0.001   0.039   0.017   0.000
  0.031   0.063   0.054  -0.041  -0.028  -0.048  -0.083  -0.053   0.044   0.030   0.029  -0.001   0.031   0.016  -0.028  -0.002
 -0.031   0.037   0.150   0.006   0.004   0.034  -0.032  -0.177  -0.033  -0.005  -0.183   0.039   0.016   0.070  -0.010  -0.000
 -0.073  -0.049  -0.083   0.096   0.083   0.079   0.051   0.087  -0.114  -0.107  -0.146   0.017  -0.028  -0.010   0.063   0.002
  0.013   0.010  -0.001   0.003   0.005   0.003   0.005   0.003  -0.003  -0.002  -0.002   0.000  -0.002  -0.000   0.002   0.000
  0.003  -0.004   0.006   0.012  -0.002  -0.003   0.001   0.012   0.003   0.002   0.016  -0.003  -0.000  -0.005  -0.000   0.000
  0.002   0.002  -0.006   0.007   0.010  -0.006  -0.003  -0.004   0.007   0.007   0.012  -0.001   0.002  -0.000  -0.004  -0.000
 total augmentation occupancy for first ion, spin component:           2
 -0.024   0.007   0.003  -0.005  -0.003   0.007  -0.003  -0.005   0.000   0.003   0.020  -0.000   0.004   0.005  -0.003  -0.000
  0.007  -0.008   0.025   0.008  -0.003  -0.003  -0.005  -0.019  -0.004   0.003   0.036   0.009   0.019   0.021  -0.011  -0.000
  0.003   0.025  -0.025   0.010  -0.017  -0.004  -0.019   0.009  -0.008   0.012   0.047   0.005   0.013   0.018  -0.010  -0.000
 -0.005   0.008   0.010  -0.045  -0.003   0.000  -0.004  -0.008   0.024   0.004   0.015   0.001   0.003   0.001  -0.002  -0.000
 -0.003  -0.003  -0.017  -0.003  -0.027   0.003   0.003   0.013   0.004   0.011  -0.019  -0.002  -0.011  -0.010   0.005   0.000
  0.007  -0.003  -0.004   0.000   0.003   0.008  -0.000   0.006   0.004  -0.003  -0.018   0.002  -0.005  -0.004   0.004   0.000
 -0.003  -0.005  -0.019  -0.004   0.003  -0.000   0.020   0.015   0.002  -0.005  -0.026  -0.006  -0.012  -0.014   0.009   0.000
 -0.005  -0.019   0.009  -0.008   0.013   0.006   0.015   0.008   0.007  -0.009  -0.037  -0.002  -0.011  -0.011   0.009   0.000
  0.000  -0.004  -0.008   0.024   0.004   0.004   0.002   0.007  -0.003  -0.006  -0.016   0.001  -0.002  -0.003   0.004   0.000
  0.003   0.003   0.012   0.004   0.011  -0.003  -0.005  -0.009  -0.006   0.004   0.015   0.001   0.006   0.008  -0.005  -0.000
  0.020   0.036   0.047   0.015  -0.019  -0.018  -0.026  -0.037  -0.016   0.015   0.078   0.000   0.028   0.031  -0.024  -0.001
 -0.000   0.009   0.005   0.001  -0.002   0.002  -0.006  -0.002   0.001   0.001   0.000   0.002   0.002   0.003  -0.001  -0.000
  0.004   0.019   0.013   0.003  -0.011  -0.005  -0.012  -0.011  -0.002   0.006   0.028   0.002   0.009   0.009  -0.007  -0.000
  0.005   0.021   0.018   0.001  -0.010  -0.004  -0.014  -0.011  -0.003   0.008   0.031   0.003   0.009   0.009  -0.008  -0.000
 -0.003  -0.011  -0.010  -0.002   0.005   0.004   0.009   0.009   0.004  -0.005  -0.024  -0.001  -0.007  -0.008   0.006   0.000
 -0.000  -0.000  -0.000  -0.000   0.000   0.000   0.000   0.000   0.000  -0.000  -0.001  -0.000  -0.000  -0.000   0.000   0.000
 -0.000  -0.000  -0.000  -0.000   0.000   0.000   0.000   0.000   0.000  -0.000  -0.001  -0.000  -0.000  -0.000   0.000   0.000
  0.000   0.000   0.001   0.000  -0.000  -0.000  -0.000  -0.000  -0.000   0.000   0.001   0.000   0.000   0.000  -0.000  -0.000


------------------------ aborting loop because EDIFF is reached ----------------------------------------


    CHARGE:  cpu time    0.03: real time    0.03
    FORLOC:  cpu time    0.00: real time    0.00
    FORNL :  cpu time    0.10: real time    0.10
    STRESS:  cpu time    0.12: real time    0.12
    FORCOR:  cpu time    0.15: real time    0.15
    FORHAR:  cpu time    0.02: real time    0.02
    MIXING:  cpu time    0.00: real time    0.00
    OFIELD:  cpu time    0.00: real time    0.00

  FORCE on cell =-STRESS in cart. coord.  units (eV):
  Direction    XX          YY          ZZ          XY          YZ          ZX
  --------------------------------------------------------------------------------------
  Alpha Z     7.19494     7.19494     7.19494
  Ewald    2273.01656   247.97800  1827.72947 -1561.69492 -1220.88758  -648.29660
  Hartree  4433.71192  2769.42790  4096.17335 -1265.41584  -999.04059  -534.51342
  E(xc)    -404.97305  -406.13129  -405.43743    -0.96589    -0.67072    -0.33031
  Local   -7826.54138 -4147.85630 -7049.12957  2818.79175  2214.49386  1180.36831
  n-local   -83.16223   -81.79141   -82.14405     0.89171     0.47452     0.12033
  augment   640.75362   643.61539   642.08204     2.33679     1.56239     0.74749
  Kinetic   957.62253   965.31668   961.43152     6.09317     3.99108     1.81618
  Fock        0.00000     0.00000     0.00000     0.00000     0.00000     0.00000
  -------------------------------------------------------------------------------------
  Total      -2.37710    -2.24609    -2.09973     0.03676    -0.07705    -0.08802
  in kB      -0.65747    -0.62123    -0.58075     0.01017    -0.02131    -0.02434
  external pressure =       -0.62 kB  Pullay stress =        0.00 kB


 VOLUME and BASIS-vectors are now :
 -----------------------------------------------------------------------------
  energy-cutoff  :      249.84
  volume of cell :     5792.72
      direct lattice vectors                 reciprocal lattice vectors
    17.959502501  0.000000000  0.000000000     0.055680830  0.000000000  0.000000000
     0.000000000 17.959502501  0.000000000     0.000000000  0.055680830  0.000000000
     0.000000000  0.000000000 17.959502501     0.000000000  0.000000000  0.055680830

  length of vectors
    17.959502501 17.959502501 17.959502501     0.055680830  0.055680830  0.055680830


 FORCES acting on ions
    electron-ion (+dipol)            ewald-force                    non-local-force                 convergence-correction
 -----------------------------------------------------------------------------------------------
   -.279E+03 0.135E+03 -.583E+03   0.274E+03 -.134E+03 0.579E+03   0.446E+01 -.101E+01 0.410E+01   -.277E-01 -.416E-01 -.827E-02
   0.378E+03 -.765E+02 -.533E+03   -.374E+03 0.749E+02 0.529E+03   -.445E+01 0.157E+01 0.412E+01   -.112E-03 -.704E-03 0.194E-01
   -.388E+03 0.547E+03 0.683E+02   0.385E+03 -.542E+03 -.677E+02   0.278E+01 -.489E+01 -.640E+00   -.860E-02 0.317E-01 -.366E-03
   -.543E+03 -.161E+03 0.338E+03   0.537E+03 0.161E+03 -.337E+03   0.597E+01 0.637E+00 -.142E+01   -.134E-01 -.141E-01 -.243E-01
   0.163E+03 0.238E+03 0.135E+03   -.162E+03 -.236E+03 -.134E+03   -.981E+00 -.198E+01 -.997E+00   0.807E-01 -.238E-01 0.336E-01
   0.573E+02 -.464E+03 0.463E+03   -.553E+02 0.459E+03 -.459E+03   -.196E+01 0.466E+01 -.344E+01   0.504E-03 0.149E-01 -.189E-01
   0.610E+03 -.219E+03 0.111E+03   -.605E+03 0.217E+03 -.110E+03   -.518E+01 0.218E+01 -.897E+00   -.112E-01 0.133E-01 0.294E-02
 -----------------------------------------------------------------------------------------------
   -.760E+00 -.118E+01 -.721E+00   0.227E-12 0.114E-12 -.995E-13   0.644E+00 0.118E+01 0.828E+00   0.202E-01 -.203E-01 0.415E-02
 
 
 POSITION                                       TOTAL-FORCE (eV/Angst)
 -----------------------------------------------------------------------------------
      9.99574      8.23178     11.28366        -0.028466     -0.059021      0.019436
      7.49844      9.28784     11.19281        -0.000926      0.000122      0.010720
     11.02745      7.05282      8.97729         0.009915      0.020985     -0.003792
     11.08828      9.46254      7.58736        -0.004042     -0.000519     -0.047024
      8.82524      8.72426      8.88550         0.020995      0.023083      0.017281
      8.78273     10.81358      7.13747        -0.005257      0.003687     -0.004211
      6.54144     10.18442      8.70454         0.007780      0.011663      0.007589
 -----------------------------------------------------------------------------------
    total drift:                               -0.095534     -0.023152      0.110904


--------------------------------------------------------------------------------------------------------



  FREE ENERGIE OF THE ION-ELECTRON SYSTEM (eV)
  ---------------------------------------------------
  free  energy   TOTEN  =       -11.14471704 eV

  energy  without entropy=      -11.14471704  energy(sigma->0) =      -11.14471704
 
 d Force = 0.7270519E-03[ 0.405E-03, 0.105E-02]  d Energy = 0.8503278E-03-0.123E-03
 d Force =-0.3178879E+00[-0.329E+00,-0.306E+00]  d Ewald  =-0.3178905E+00 0.261E-05


--------------------------------------------------------------------------------------------------------


    POTLOK:  cpu time    0.16: real time    0.16


--------------------------------------------------------------------------------------------------------




--------------------------------------------------------------------------------------------------------


  
 reached required accuracy - stopping structural energy minimisation
     LOOP+:  cpu time    2.02: real time    2.06
    4ORBIT:  cpu time    0.00: real time    0.00

 total amount of memory used by VASP on root node    47087. kBytes
========================================================================

   base      :      30000. kBytes
   nonl-proj :        830. kBytes
   fftplans  :       4207. kBytes
   grid      :      10682. kBytes
   one-center:         15. kBytes
   wavefun   :       1353. kBytes
 
  
  
 General timing and accounting informations for this job:
 ========================================================
  
                  Total CPU time used (sec):      270.893
                            User time (sec):      263.120
                          System time (sec):        7.772
                         Elapsed time (sec):      319.234
  
                   Maximum memory used (kb):       51400.
                   Average memory used (kb):           0.
  
                          Minor page faults:      1382272
                          Major page faults:            0
                 Voluntary context switches:        13298
