       N       E                     dE             d eps       ncg     rms          rms(c)
DAV:   1     0.415502137369E+04    0.41550E+04   -0.10230E+05  1280   0.622E+02
DAV:   2     0.669275681587E+03   -0.34857E+04   -0.31410E+04  2080   0.168E+02
DAV:   3    -0.677486196886E+02   -0.73702E+03   -0.67701E+03  1608   0.828E+01
DAV:   4    -0.967917964381E+02   -0.29043E+02   -0.28810E+02  1384   0.177E+01
DAV:   5    -0.972264687503E+02   -0.43467E+00   -0.43420E+00  1416   0.251E+00    0.386E+01
DAV:   6    -0.490803912087E+02    0.48146E+02   -0.15424E+02  1304   0.159E+01    0.208E+01
DAV:   7    -0.375195093058E+02    0.11561E+02   -0.93572E+00  1376   0.440E+00    0.128E+01
DAV:   8    -0.342008869782E+02    0.33186E+01   -0.23513E+00  1360   0.241E+00    0.723E+00
DAV:   9    -0.372139816406E+02   -0.30131E+01   -0.86102E-01  1368   0.127E+00    0.444E+00
DAV:  10    -0.503073881566E+02   -0.13093E+02   -0.37706E+00  1320   0.242E+00    0.374E+00
DAV:  11    -0.604589741509E+02   -0.10152E+02   -0.37933E+00  1344   0.280E+00    0.316E+00
DAV:  12    -0.682135586333E+02   -0.77546E+01   -0.27010E+00  1336   0.212E+00    0.227E+00
DAV:  13    -0.793817551563E+02   -0.11168E+02   -0.47853E+00  1296   0.211E+00    0.203E+00
DAV:  14    -0.819164264197E+02   -0.25347E+01   -0.42237E-01  1400   0.105E+00    0.159E+00
DAV:  15    -0.867506745234E+02   -0.48342E+01   -0.10508E+00  1304   0.118E+00    0.174E+00
DAV:  16    -0.878032950956E+02   -0.10526E+01   -0.96713E-02  1384   0.708E-01    0.136E+00
DAV:  17    -0.903345203442E+02   -0.25312E+01   -0.42616E-01  1312   0.936E-01    0.851E-01
DAV:  18    -0.926678013899E+02   -0.23333E+01   -0.37469E-01  1296   0.677E-01    0.482E-01
DAV:  19    -0.937382535137E+02   -0.10705E+01   -0.60485E-02  1344   0.273E-01    0.365E-01
DAV:  20    -0.947835285306E+02   -0.10453E+01   -0.44074E-02  1344   0.314E-01    0.198E-01
DAV:  21    -0.952396152972E+02   -0.45609E+00   -0.16875E-02  1344   0.161E-01    0.127E+00
DAV:  22    -0.952361852927E+02    0.34300E-02   -0.68498E-04  1008   0.525E-02    0.126E+00
DAV:  23    -0.952375774058E+02   -0.13921E-02   -0.51827E-05   912   0.201E-02    0.125E+00
DAV:  24    -0.952368603597E+02    0.71705E-03   -0.50079E-05   896   0.277E-02    0.123E+00
DAV:  25    -0.952546161014E+02   -0.17756E-01   -0.44884E-03  1328   0.294E-01    0.104E+00
DAV:  26    -0.953101112378E+02   -0.55495E-01   -0.27035E-03  1352   0.141E-01    0.943E-01
DAV:  27    -0.953661234951E+02   -0.56012E-01   -0.64379E-03  1352   0.361E-01    0.690E-01
DAV:  28    -0.954298086296E+02   -0.63685E-01   -0.88390E-03  1368   0.338E-01    0.425E-01
DAV:  29    -0.954549509718E+02   -0.25142E-01   -0.38684E-03  1360   0.199E-01    0.256E-01
DAV:  30    -0.954608780175E+02   -0.59270E-02   -0.63936E-04  1440   0.767E-02    0.192E-01
DAV:  31    -0.954615237626E+02   -0.64575E-03   -0.33742E-05   856   0.119E-02    0.188E-01
DAV:  32    -0.954612819532E+02    0.24181E-03   -0.10480E-05   800   0.614E-03    0.189E-01
DAV:  33    -0.954616422293E+02   -0.36028E-03   -0.43389E-05   848   0.115E-02    0.183E-01
DAV:  34    -0.954623837013E+02   -0.74147E-03   -0.10763E-04   872   0.262E-02    0.178E-01
DAV:  35    -0.954755986843E+02   -0.13215E-01   -0.77962E-03  1344   0.271E-01    0.125E+00
DAV:  36    -0.954719650908E+02    0.36336E-02   -0.10265E-03  1376   0.865E-02    0.267E-01
DAV:  37    -0.954731354898E+02   -0.11704E-02   -0.77608E-04   872   0.475E-02    0.185E-01
DAV:  38    -0.954797683992E+02   -0.66329E-02   -0.93139E-03  1336   0.758E-02    0.366E-02
DAV:  39    -0.954817950176E+02   -0.20266E-02   -0.34516E-04   880   0.467E-02    0.419E-02
DAV:  40    -0.954832108056E+02   -0.14158E-02   -0.13851E-04   888   0.330E-02    0.216E-02
DAV:  41    -0.954852298670E+02   -0.20191E-02   -0.29581E-04   888   0.184E-02    0.293E-02
DAV:  42    -0.954871096508E+02   -0.18798E-02   -0.15950E-04   848   0.122E-02    0.211E-02
DAV:  43    -0.954882631811E+02   -0.11535E-02   -0.65842E-05   888   0.115E-02    0.297E-02
DAV:  44    -0.954891772112E+02   -0.91403E-03   -0.23126E-05   856   0.814E-03    0.296E-02
DAV:  45    -0.954900585917E+02   -0.88138E-03   -0.28691E-05   872   0.475E-03    0.273E-02
DAV:  46    -0.954904178057E+02   -0.35921E-03   -0.23509E-06   856   0.257E-03    0.256E-02
DAV:  47    -0.954906388130E+02   -0.22101E-03   -0.66350E-06   864   0.224E-03    0.237E-02
DAV:  48    -0.954907694018E+02   -0.13059E-03   -0.11793E-06   848   0.173E-03    0.231E-02
DAV:  49    -0.954908302071E+02   -0.60805E-04   -0.69361E-07   856   0.180E-03
   1 F= -.95490830E+02 E0= -.95490830E+02  d E =-.954908E+02  mag=     0.9682
       N       E                     dE             d eps       ncg     rms          rms(c)
DAV:   1    -0.955344650494E+02   -0.43696E-01   -0.30958E+00  1336   0.268E+00    0.113E-01
DAV:   2    -0.955357682216E+02   -0.13032E-02   -0.14755E-02  1352   0.263E-01    0.924E-02
DAV:   3    -0.955356317171E+02    0.13650E-03   -0.69467E-04  1040   0.802E-02    0.636E-02
DAV:   4    -0.955354785998E+02    0.15312E-03   -0.14075E-04   872   0.328E-02    0.362E-02
DAV:   5    -0.955352824568E+02    0.19614E-03   -0.11471E-04   848   0.212E-02    0.124E-02
DAV:   6    -0.955353029772E+02   -0.20520E-04   -0.25335E-05   872   0.853E-03
   2 F= -.95535303E+02 E0= -.95535303E+02  d E =-.444728E-01  mag=     0.9846
       N       E                     dE             d eps       ncg     rms          rms(c)
DAV:   1    -0.956429554734E+02   -0.10767E+00   -0.27869E+01  1280   0.805E+00    0.314E-01
DAV:   2    -0.956552727512E+02   -0.12317E-01   -0.12856E-01  1336   0.774E-01    0.239E-01
DAV:   3    -0.956549473487E+02    0.32540E-03   -0.29562E-03  1376   0.167E-01    0.166E-01
DAV:   4    -0.956546761972E+02    0.27115E-03   -0.79644E-04  1368   0.889E-02    0.850E-02
DAV:   5    -0.956546612584E+02    0.14939E-04   -0.48252E-04  1336   0.662E-02
   3 F= -.95654661E+02 E0= -.95654661E+02  d E =-.163831E+00  mag=     0.9924
       N       E                     dE             d eps       ncg     rms          rms(c)
DAV:   1    -0.957794515329E+02   -0.12478E+00   -0.11161E+02  1280   0.161E+01    0.579E-01
DAV:   2    -0.958290323533E+02   -0.49581E-01   -0.51068E-01  1304   0.153E+00    0.446E-01
DAV:   3    -0.958281067598E+02    0.92559E-03   -0.93971E-03  1384   0.237E-01    0.309E-01
DAV:   4    -0.958268772591E+02    0.12295E-02   -0.32810E-03  1328   0.115E-01    0.116E-01
DAV:   5    -0.958269313660E+02   -0.54107E-04   -0.70171E-04  1376   0.788E-02
   4 F= -.95826931E+02 E0= -.95826931E+02  d E =-.336101E+00  mag=     0.9964
       N       E                     dE             d eps       ncg     rms          rms(c)
DAV:   1    -0.957250782693E+02    0.10180E+00   -0.44884E+02  1280   0.325E+01    0.110E+00
DAV:   2    -0.959289634329E+02   -0.20389E+00   -0.20677E+00  1320   0.308E+00    0.859E-01
DAV:   3    -0.959260530088E+02    0.29104E-02   -0.35370E-02  1392   0.420E-01    0.601E-01
DAV:   4    -0.959210834293E+02    0.49696E-02   -0.11991E-02  1360   0.189E-01    0.239E-01
DAV:   5    -0.959211637142E+02   -0.80285E-04   -0.24589E-03  1376   0.952E-02    0.763E-02
DAV:   6    -0.959213546989E+02   -0.19098E-03   -0.22867E-04   928   0.260E-02    0.449E-02
DAV:   7    -0.959217046980E+02   -0.35000E-03   -0.15922E-04   888   0.211E-02    0.140E-02
DAV:   8    -0.959220250721E+02   -0.32037E-03   -0.27088E-05   872   0.990E-03    0.559E-03
DAV:   9    -0.959222583455E+02   -0.23327E-03   -0.82393E-06   880   0.506E-03    0.399E-03
DAV:  10    -0.959224798827E+02   -0.22154E-03   -0.33645E-06   840   0.237E-03    0.257E-03
DAV:  11    -0.959228460180E+02   -0.36614E-03   -0.89292E-06   864   0.258E-03    0.208E-03
DAV:  12    -0.959229777737E+02   -0.13176E-03   -0.22235E-06   880   0.140E-03    0.122E-03
DAV:  13    -0.959231340063E+02   -0.15623E-03   -0.22908E-06   824   0.124E-03    0.809E-04
DAV:  14    -0.959232203483E+02   -0.86342E-04   -0.10240E-06   856   0.745E-04
   5 F= -.95923220E+02 E0= -.95923220E+02  d E =-.432390E+00  mag=     1.0000
       N       E                     dE             d eps       ncg     rms          rms(c)
DAV:   1    -0.959221617257E+02    0.97228E-03   -0.18073E+01  1280   0.648E+00    0.213E-01
DAV:   2    -0.959303452156E+02   -0.81835E-02   -0.82720E-02  1344   0.612E-01    0.166E-01
DAV:   3    -0.959302179287E+02    0.12729E-03   -0.14267E-03  1400   0.819E-02    0.114E-01
DAV:   4    -0.959300146772E+02    0.20325E-03   -0.57096E-04  1344   0.409E-02    0.401E-02
DAV:   5    -0.959300125426E+02    0.21347E-05   -0.69516E-05   856   0.181E-02
   6 F= -.95930013E+02 E0= -.95930013E+02  d E =-.439182E+00  mag=     1.0000
       N       E                     dE             d eps       ncg     rms          rms(c)
DAV:   1    -0.959981942943E+02   -0.68180E-01   -0.44623E+01  1280   0.102E+01    0.302E-01
DAV:   2    -0.960186114587E+02   -0.20417E-01   -0.20199E-01  1352   0.967E-01    0.275E-01
DAV:   3    -0.960183210784E+02    0.29038E-03   -0.31629E-03  1408   0.123E-01    0.200E-01
DAV:   4    -0.960176612221E+02    0.65986E-03   -0.15456E-03  1344   0.655E-02    0.880E-02
DAV:   5    -0.960176666270E+02   -0.54049E-05   -0.43649E-04  1360   0.379E-02
   7 F= -.96017667E+02 E0= -.96017667E+02  d E =-.876541E-01  mag=     1.0000
       N       E                     dE             d eps       ncg     rms          rms(c)
DAV:   1    -0.959899342514E+02    0.27727E-01   -0.40399E+02  1280   0.307E+01    0.839E-01
DAV:   2    -0.961764578917E+02   -0.18652E+00   -0.18386E+00  1328   0.293E+00    0.828E-01
DAV:   3    -0.961749004311E+02    0.15575E-02   -0.28410E-02  1376   0.362E-01    0.618E-01
DAV:   4    -0.961691328700E+02    0.57676E-02   -0.96075E-03  1376   0.167E-01    0.344E-01
DAV:   5    -0.961686842959E+02    0.44857E-03   -0.64896E-03  1368   0.135E-01    0.117E-01
DAV:   6    -0.961686154724E+02    0.68823E-04   -0.21507E-04   904   0.255E-02
   8 F= -.96168615E+02 E0= -.96168615E+02  d E =-.238603E+00  mag=     1.0000
       N       E                     dE             d eps       ncg     rms          rms(c)
DAV:   1    -0.961483041928E+02    0.20380E-01   -0.82714E+01  1280   0.138E+01    0.371E-01
DAV:   2    -0.961864480111E+02   -0.38144E-01   -0.37669E-01  1344   0.132E+00    0.350E-01
DAV:   3    -0.961860703895E+02    0.37762E-03   -0.57783E-03  1376   0.163E-01    0.257E-01
DAV:   4    -0.961849492002E+02    0.11212E-02   -0.20654E-03  1344   0.768E-02    0.135E-01
DAV:   5    -0.961849183407E+02    0.30859E-04   -0.12252E-03  1360   0.588E-02    0.478E-02
DAV:   6    -0.961849154540E+02    0.28868E-05   -0.48041E-05   800   0.118E-02
   9 F= -.96184915E+02 E0= -.96184915E+02  d E =-.254903E+00  mag=     1.0000
       N       E                     dE             d eps       ncg     rms          rms(c)
DAV:   1    -0.962189320362E+02   -0.34014E-01   -0.94237E+01  1280   0.148E+01    0.368E-01
DAV:   2    -0.962624685945E+02   -0.43537E-01   -0.42971E-01  1336   0.140E+00    0.350E-01
DAV:   3    -0.962620503224E+02    0.41827E-03   -0.68673E-03  1392   0.174E-01    0.257E-01
DAV:   4    -0.962607260805E+02    0.13242E-02   -0.21140E-03  1368   0.770E-02    0.141E-01
DAV:   5    -0.962606082644E+02    0.11782E-03   -0.16224E-03  1368   0.664E-02    0.502E-02
DAV:   6    -0.962606125598E+02   -0.42954E-05   -0.43756E-05   824   0.115E-02
  10 F= -.96260613E+02 E0= -.96260613E+02  d E =-.756971E-01  mag=     1.0000
       N       E                     dE             d eps       ncg     rms          rms(c)
DAV:   1    -0.959676079486E+02    0.29300E+00   -0.73474E+02  1280   0.417E+01    0.122E+00
DAV:   2    -0.963134813057E+02   -0.34587E+00   -0.34206E+00  1344   0.398E+00    0.102E+00
DAV:   3    -0.963091904922E+02    0.42908E-02   -0.55077E-02  1392   0.500E-01    0.703E-01
DAV:   4    -0.962996810773E+02    0.95094E-02   -0.16921E-02  1344   0.220E-01    0.367E-01
DAV:   5    -0.962989748103E+02    0.70627E-03   -0.81074E-03  1360   0.151E-01    0.119E-01
DAV:   6    -0.962989829931E+02   -0.81828E-05   -0.30786E-04   936   0.303E-02
  11 F= -.96298983E+02 E0= -.96298983E+02  d E =-.114068E+00  mag=     1.0000
       N       E                     dE             d eps       ncg     rms          rms(c)
DAV:   1    -0.962776824424E+02    0.21292E-01   -0.85690E+01  1280   0.141E+01    0.363E-01
DAV:   2    -0.963171865654E+02   -0.39504E-01   -0.38982E-01  1344   0.133E+00    0.337E-01
DAV:   3    -0.963167875920E+02    0.39897E-03   -0.62241E-03  1432   0.166E-01    0.249E-01
DAV:   4    -0.963156921520E+02    0.10954E-02   -0.21889E-03  1328   0.774E-02    0.125E-01
DAV:   5    -0.963157632153E+02   -0.71063E-04   -0.12698E-03  1376   0.594E-02    0.456E-02
DAV:   6    -0.963157839585E+02   -0.20743E-04   -0.52526E-05   824   0.122E-02
  12 F= -.96315784E+02 E0= -.96315784E+02  d E =-.130869E+00  mag=     1.0000
       N       E                     dE             d eps       ncg     rms          rms(c)
DAV:   1    -0.963240101027E+02   -0.82469E-02   -0.10902E+02  1280   0.159E+01    0.426E-01
DAV:   2    -0.963737607549E+02   -0.49751E-01   -0.48786E-01  1352   0.149E+00    0.342E-01
DAV:   3    -0.963728504625E+02    0.91029E-03   -0.76622E-03  1400   0.186E-01    0.251E-01
DAV:   4    -0.963712986466E+02    0.15518E-02   -0.32718E-03  1320   0.932E-02    0.101E-01
DAV:   5    -0.963712795182E+02    0.19128E-04   -0.10004E-03  1392   0.540E-02    0.385E-02
DAV:   6    -0.963712720468E+02    0.74713E-05   -0.57240E-05   800   0.133E-02
  13 F= -.96371272E+02 E0= -.96371272E+02  d E =-.554881E-01  mag=     1.0000
       N       E                     dE             d eps       ncg     rms          rms(c)
DAV:   1    -0.962980803613E+02    0.73199E-01   -0.22656E+02  1280   0.230E+01    0.669E-01
DAV:   2    -0.964027404741E+02   -0.10466E+00   -0.10241E+00  1352   0.217E+00    0.500E-01
DAV:   3    -0.964006619680E+02    0.20785E-02   -0.16250E-02  1384   0.273E-01    0.355E-01
DAV:   4    -0.963976355003E+02    0.30265E-02   -0.70719E-03  1336   0.138E-01    0.133E-01
DAV:   5    -0.963976399330E+02   -0.44327E-05   -0.15026E-03  1400   0.683E-02    0.504E-02
DAV:   6    -0.963976303850E+02    0.95480E-05   -0.11397E-04   816   0.189E-02
  14 F= -.96397630E+02 E0= -.96397630E+02  d E =-.818464E-01  mag=     1.0000
       N       E                     dE             d eps       ncg     rms          rms(c)
DAV:   1    -0.963680010992E+02    0.29639E-01   -0.17054E+02  1280   0.199E+01    0.549E-01
DAV:   2    -0.964466986014E+02   -0.78698E-01   -0.77354E-01  1344   0.188E+00    0.447E-01
DAV:   3    -0.964453009954E+02    0.13976E-02   -0.12193E-02  1392   0.235E-01    0.320E-01
DAV:   4    -0.964428518619E+02    0.24491E-02   -0.50096E-03  1344   0.116E-01    0.136E-01
DAV:   5    -0.964428173403E+02    0.34522E-04   -0.16731E-03  1400   0.693E-02    0.508E-02
DAV:   6    -0.964428007203E+02    0.16620E-04   -0.97231E-05   832   0.170E-02
  15 F= -.96442801E+02 E0= -.96442801E+02  d E =-.451703E-01  mag=     1.0000
       N       E                     dE             d eps       ncg     rms          rms(c)
DAV:   1    -0.964235645287E+02    0.19253E-01   -0.59364E+01  1296   0.117E+01    0.318E-01
DAV:   2    -0.964508601701E+02   -0.27296E-01   -0.26753E-01  1344   0.111E+00    0.270E-01
DAV:   3    -0.964504102715E+02    0.44990E-03   -0.42012E-03  1384   0.137E-01    0.195E-01
DAV:   4    -0.964495569371E+02    0.85333E-03   -0.18321E-03  1336   0.699E-02    0.826E-02
DAV:   5    -0.964495742138E+02   -0.17277E-04   -0.61370E-04  1376   0.422E-02
  16 F= -.96449574E+02 E0= -.96449574E+02  d E =-.519438E-01  mag=     1.0000
       N       E                     dE             d eps       ncg     rms          rms(c)
DAV:   1    -0.964364348292E+02    0.13122E-01   -0.11620E+02  1280   0.164E+01    0.380E-01
DAV:   2    -0.964894828967E+02   -0.53048E-01   -0.51858E-01  1312   0.154E+00    0.373E-01
DAV:   3    -0.964888929177E+02    0.58998E-03   -0.79832E-03  1440   0.186E-01    0.283E-01
DAV:   4    -0.964871515986E+02    0.17413E-02   -0.24239E-03  1336   0.813E-02    0.158E-01
DAV:   5    -0.964869068881E+02    0.24471E-03   -0.24140E-03  1368   0.794E-02    0.568E-02
DAV:   6    -0.964869133364E+02   -0.64483E-05   -0.46160E-05   832   0.121E-02
  17 F= -.96486913E+02 E0= -.96486913E+02  d E =-.373391E-01  mag=     1.0000
       N       E                     dE             d eps       ncg     rms          rms(c)
DAV:   1    -0.964027231909E+02    0.84184E-01   -0.19867E+02  1280   0.215E+01    0.504E-01
DAV:   2    -0.964929792302E+02   -0.90256E-01   -0.88663E-01  1328   0.202E+00    0.487E-01
DAV:   3    -0.964918595983E+02    0.11196E-02   -0.13605E-02  1416   0.243E-01    0.367E-01
DAV:   4    -0.964888645811E+02    0.29950E-02   -0.41962E-03  1336   0.107E-01    0.203E-01
DAV:   5    -0.964884286823E+02    0.43590E-03   -0.38422E-03  1368   0.100E-01    0.716E-02
DAV:   6    -0.964884373195E+02   -0.86371E-05   -0.70089E-05   824   0.150E-02
  18 F= -.96488437E+02 E0= -.96488437E+02  d E =-.388631E-01  mag=     1.0000
       N       E                     dE             d eps       ncg     rms          rms(c)
DAV:   1    -0.964783408392E+02    0.10088E-01   -0.37629E+01  1288   0.935E+00    0.216E-01
DAV:   2    -0.964953652229E+02   -0.17024E-01   -0.16716E-01  1344   0.875E-01    0.207E-01
DAV:   3    -0.964951455782E+02    0.21964E-03   -0.24725E-03  1424   0.104E-01    0.158E-01
DAV:   4    -0.964946334325E+02    0.51215E-03   -0.87028E-04  1336   0.481E-02    0.822E-02
DAV:   5    -0.964946512726E+02   -0.17840E-04   -0.74307E-04  1360   0.441E-02
  19 F= -.96494651E+02 E0= -.96494651E+02  d E =-.450771E-01  mag=     1.0000
       N       E                     dE             d eps       ncg     rms          rms(c)
DAV:   1    -0.964612018233E+02    0.33432E-01   -0.14532E+02  1280   0.184E+01    0.429E-01
DAV:   2    -0.965266548859E+02   -0.65453E-01   -0.64179E-01  1328   0.172E+00    0.401E-01
DAV:   3    -0.965256625631E+02    0.99232E-03   -0.98589E-03  1440   0.208E-01    0.308E-01
DAV:   4    -0.965233813517E+02    0.22812E-02   -0.32509E-03  1328   0.931E-02    0.159E-01
DAV:   5    -0.965230557922E+02    0.32556E-03   -0.27502E-03  1360   0.845E-02    0.540E-02
DAV:   6    -0.965230597257E+02   -0.39335E-05   -0.48251E-05   832   0.125E-02
  20 F= -.96523060E+02 E0= -.96523060E+02  d E =-.284085E-01  mag=     1.0000
       N       E                     dE             d eps       ncg     rms          rms(c)
DAV:   1    -0.965144851869E+02    0.85706E-02   -0.24542E+01  1280   0.755E+00    0.171E-01
DAV:   2    -0.965255768845E+02   -0.11092E-01   -0.10874E-01  1328   0.705E-01    0.160E-01
DAV:   3    -0.965254372245E+02    0.13966E-03   -0.16644E-03  1392   0.852E-02    0.122E-01
DAV:   4    -0.965250908963E+02    0.34633E-03   -0.50205E-04  1320   0.369E-02    0.649E-02
DAV:   5    -0.965250531348E+02    0.37762E-04   -0.49030E-04  1344   0.356E-02
  21 F= -.96525053E+02 E0= -.96525053E+02  d E =-.304019E-01  mag=     1.0000
       N       E                     dE             d eps       ncg     rms          rms(c)
DAV:   1    -0.964897486623E+02    0.35342E-01   -0.13471E+02  1280   0.176E+01    0.384E-01
DAV:   2    -0.965526827601E+02   -0.62934E-01   -0.60843E-01  1328   0.167E+00    0.388E-01
DAV:   3    -0.965522156823E+02    0.46708E-03   -0.93248E-03  1440   0.199E-01    0.297E-01
DAV:   4    -0.965502766891E+02    0.19390E-02   -0.23073E-03  1328   0.816E-02    0.182E-01
DAV:   5    -0.965498151832E+02    0.46151E-03   -0.33692E-03  1352   0.922E-02    0.631E-02
DAV:   6    -0.965498369941E+02   -0.21811E-04   -0.40663E-05   824   0.119E-02
  22 F= -.96549837E+02 E0= -.96549837E+02  d E =-.247839E-01  mag=     1.0000
       N       E                     dE             d eps       ncg     rms          rms(c)
DAV:   1    -0.965274685176E+02    0.22347E-01   -0.58305E+01  1280   0.116E+01    0.247E-01
DAV:   2    -0.965544205120E+02   -0.26952E-01   -0.26218E-01  1312   0.109E+00    0.252E-01
DAV:   3    -0.965542013718E+02    0.21914E-03   -0.39872E-03  1400   0.131E-01    0.194E-01
DAV:   4    -0.965533640711E+02    0.83730E-03   -0.10001E-03  1304   0.536E-02    0.119E-01
DAV:   5    -0.965531829577E+02    0.18111E-03   -0.15111E-03  1352   0.617E-02    0.420E-02
DAV:   6    -0.965532055515E+02   -0.22594E-04   -0.17597E-05   792   0.788E-03
  23 F= -.96553206E+02 E0= -.96553206E+02  d E =-.281524E-01  mag=     1.0000
       N       E                     dE             d eps       ncg     rms          rms(c)
DAV:   1    -0.965354797069E+02    0.17703E-01   -0.79683E+01  1280   0.134E+01    0.271E-01
DAV:   2    -0.965727497271E+02   -0.37270E-01   -0.36234E-01  1352   0.127E+00    0.270E-01
DAV:   3    -0.965723893135E+02    0.36041E-03   -0.51776E-03  1408   0.147E-01    0.209E-01
DAV:   4    -0.965713557259E+02    0.10336E-02   -0.11047E-03  1320   0.558E-02    0.130E-01
DAV:   5    -0.965710461245E+02    0.30960E-03   -0.20281E-03  1320   0.702E-02    0.418E-02
DAV:   6    -0.965710779861E+02   -0.31862E-04   -0.18874E-05   800   0.857E-03
  24 F= -.96571078E+02 E0= -.96571078E+02  d E =-.178724E-01  mag=     1.0000
       N       E                     dE             d eps       ncg     rms          rms(c)
DAV:   1    -0.964616846030E+02    0.10936E+00   -0.26264E+02  1280   0.245E+01    0.552E-01
DAV:   2    -0.965852192056E+02   -0.12353E+00   -0.12102E+00  1384   0.233E+00    0.498E-01
DAV:   3    -0.965837377783E+02    0.14814E-02   -0.17502E-02  1352   0.272E-01    0.372E-01
DAV:   4    -0.965804173153E+02    0.33205E-02   -0.39060E-03  1368   0.104E-01    0.222E-01
DAV:   5    -0.965795337009E+02    0.88361E-03   -0.50892E-03  1320   0.112E-01    0.662E-02
DAV:   6    -0.965795921761E+02   -0.58475E-04   -0.50768E-05   816   0.144E-02
  25 F= -.96579592E+02 E0= -.96579592E+02  d E =-.263866E-01  mag=     1.0000
       N       E                     dE             d eps       ncg     rms          rms(c)
DAV:   1    -0.965695222312E+02    0.10011E-01   -0.68892E+01  1280   0.125E+01    0.307E-01
DAV:   2    -0.966023794516E+02   -0.32857E-01   -0.31674E-01  1336   0.118E+00    0.257E-01
DAV:   3    -0.966020509452E+02    0.32851E-03   -0.44902E-03  1384   0.135E-01    0.193E-01
DAV:   4    -0.966012203548E+02    0.83059E-03   -0.17887E-03  1352   0.683E-02    0.824E-02
DAV:   5    -0.966012387141E+02   -0.18359E-04   -0.72201E-04  1368   0.446E-02
  26 F= -.96601239E+02 E0= -.96601239E+02  d E =-.216465E-01  mag=     1.0000
       N       E                     dE             d eps       ncg     rms          rms(c)
DAV:   1    -0.965413995264E+02    0.59821E-01   -0.15633E+02  1280   0.188E+01    0.492E-01
DAV:   2    -0.966178816112E+02   -0.76482E-01   -0.72771E-01  1368   0.180E+00    0.387E-01
DAV:   3    -0.966171311519E+02    0.75046E-03   -0.10495E-02  1368   0.208E-01    0.285E-01
DAV:   4    -0.966153003759E+02    0.18308E-02   -0.38419E-03  1344   0.101E-01    0.121E-01
DAV:   5    -0.966152694059E+02    0.30970E-04   -0.14322E-03  1384   0.632E-02    0.428E-02
DAV:   6    -0.966152699321E+02   -0.52618E-06   -0.55713E-05   840   0.138E-02
  27 F= -.96615270E+02 E0= -.96615270E+02  d E =-.356778E-01  mag=     1.0000
       N       E                     dE             d eps       ncg     rms          rms(c)
DAV:   1    -0.966049224952E+02    0.10347E-01   -0.75130E+01  1280   0.130E+01    0.289E-01
DAV:   2    -0.966405366640E+02   -0.35614E-01   -0.34234E-01  1328   0.123E+00    0.256E-01
DAV:   3    -0.966401436686E+02    0.39300E-03   -0.47858E-03  1392   0.139E-01    0.199E-01
DAV:   4    -0.966391490929E+02    0.99458E-03   -0.15123E-03  1352   0.631E-02    0.987E-02
DAV:   5    -0.966390304756E+02    0.11862E-03   -0.11765E-03  1344   0.546E-02    0.330E-02
DAV:   6    -0.966390529561E+02   -0.22481E-04   -0.16599E-05   808   0.787E-03
  28 F= -.96639053E+02 E0= -.96639053E+02  d E =-.237830E-01  mag=     1.0000
       N       E                     dE             d eps       ncg     rms          rms(c)
DAV:   1    -0.965245826563E+02    0.11445E+00   -0.28118E+02  1280   0.253E+01    0.634E-01
DAV:   2    -0.966584334776E+02   -0.13385E+00   -0.13050E+00  1328   0.240E+00    0.502E-01
DAV:   3    -0.966566028478E+02    0.18306E-02   -0.18645E-02  1368   0.278E-01    0.374E-01
DAV:   4    -0.966531770209E+02    0.34258E-02   -0.52167E-03  1352   0.118E-01    0.188E-01
DAV:   5    -0.966526963286E+02    0.48069E-03   -0.34389E-03  1344   0.937E-02    0.540E-02
DAV:   6    -0.966527703241E+02   -0.73996E-04   -0.49091E-05   832   0.141E-02
  29 F= -.96652770E+02 E0= -.96652770E+02  d E =-.375004E-01  mag=     1.0000
       N       E                     dE             d eps       ncg     rms          rms(c)
DAV:   1    -0.966282937928E+02    0.24403E-01   -0.97561E+01  1280   0.148E+01    0.318E-01
DAV:   2    -0.966741880170E+02   -0.45894E-01   -0.44572E-01  1320   0.141E+00    0.291E-01
DAV:   3    -0.966737371254E+02    0.45089E-03   -0.63264E-03  1400   0.163E-01    0.225E-01
DAV:   4    -0.966725289468E+02    0.12082E-02   -0.14746E-03  1344   0.633E-02    0.128E-01
DAV:   5    -0.966722740012E+02    0.25495E-03   -0.20145E-03  1344   0.702E-02    0.388E-02
DAV:   6    -0.966723304267E+02   -0.56426E-04   -0.20812E-05   856   0.894E-03
  30 F= -.96672330E+02 E0= -.96672330E+02  d E =-.195601E-01  mag=     1.0000
       N       E                     dE             d eps       ncg     rms          rms(c)
DAV:   1    -0.965702313169E+02    0.10204E+00   -0.24871E+02  1280   0.238E+01    0.554E-01
DAV:   2    -0.966897386922E+02   -0.11951E+00   -0.11529E+00  1320   0.227E+00    0.472E-01
DAV:   3    -0.966884120761E+02    0.13266E-02   -0.16735E-02  1400   0.268E-01    0.354E-01
DAV:   4    -0.966854896715E+02    0.29224E-02   -0.35273E-03  1344   0.988E-02    0.205E-01
DAV:   5    -0.966847345209E+02    0.75515E-03   -0.43666E-03  1344   0.104E-01    0.550E-02
DAV:   6    -0.966848502085E+02   -0.11569E-03   -0.45502E-05   896   0.137E-02    0.366E-02
DAV:   7    -0.966849747825E+02   -0.12457E-03   -0.28774E-05   848   0.866E-03    0.148E-02
DAV:   8    -0.966850752041E+02   -0.10042E-03   -0.16016E-05   864   0.662E-03    0.379E-03
DAV:   9    -0.966851680954E+02   -0.92891E-04   -0.36380E-06   840   0.325E-03
  31 F= -.96685168E+02 E0= -.96685168E+02  d E =-.323978E-01  mag=     1.0000
       N       E                     dE             d eps       ncg     rms          rms(c)
DAV:   1    -0.966637276842E+02    0.21348E-01   -0.10301E+02  1280   0.153E+01    0.332E-01
DAV:   2    -0.967122454202E+02   -0.48518E-01   -0.46992E-01  1336   0.145E+00    0.326E-01
DAV:   3    -0.967117643372E+02    0.48108E-03   -0.67802E-03  1408   0.168E-01    0.253E-01
DAV:   4    -0.967102838345E+02    0.14805E-02   -0.18044E-03  1336   0.708E-02    0.145E-01
DAV:   5    -0.967099473070E+02    0.33653E-03   -0.22744E-03  1344   0.753E-02    0.485E-02
DAV:   6    -0.967099934175E+02   -0.46111E-04   -0.27118E-05   816   0.989E-03
  32 F= -.96709993E+02 E0= -.96709993E+02  d E =-.248253E-01  mag=     1.0000
       N       E                     dE             d eps       ncg     rms          rms(c)
DAV:   1    -0.966377173052E+02    0.72230E-01   -0.17879E+02  1280   0.202E+01    0.453E-01
DAV:   2    -0.967210615269E+02   -0.83344E-01   -0.81825E-01  1328   0.191E+00    0.428E-01
DAV:   3    -0.967200844684E+02    0.97706E-03   -0.11839E-02  1408   0.223E-01    0.326E-01
DAV:   4    -0.967176326685E+02    0.24518E-02   -0.30560E-03  1344   0.923E-02    0.187E-01
DAV:   5    -0.967171143017E+02    0.51837E-03   -0.35011E-03  1328   0.935E-02    0.604E-02
DAV:   6    -0.967171989685E+02   -0.84667E-04   -0.41427E-05   848   0.124E-02
  33 F= -.96717199E+02 E0= -.96717199E+02  d E =-.320309E-01  mag=     1.0000
       N       E                     dE             d eps       ncg     rms          rms(c)
DAV:   1    -0.967026984079E+02    0.14416E-01   -0.67108E+01  1280   0.124E+01    0.246E-01
DAV:   2    -0.967336939002E+02   -0.30995E-01   -0.30195E-01  1360   0.116E+00    0.247E-01
DAV:   3    -0.967333675639E+02    0.32634E-03   -0.42845E-03  1368   0.134E-01    0.194E-01
DAV:   4    -0.967324764711E+02    0.89109E-03   -0.96539E-04  1336   0.516E-02    0.118E-01
DAV:   5    -0.967322615400E+02    0.21493E-03   -0.17386E-03  1320   0.652E-02    0.384E-02
DAV:   6    -0.967323303334E+02   -0.68793E-04   -0.16418E-05   832   0.799E-03
  34 F= -.96732330E+02 E0= -.96732330E+02  d E =-.151314E-01  mag=     1.0000
       N       E                     dE             d eps       ncg     rms          rms(c)
DAV:   1    -0.966167710484E+02    0.11549E+00   -0.28978E+02  1280   0.258E+01    0.563E-01
DAV:   2    -0.967522238458E+02   -0.13545E+00   -0.13200E+00  1344   0.244E+00    0.522E-01
DAV:   3    -0.967505887882E+02    0.16351E-02   -0.18971E-02  1400   0.283E-01    0.399E-01
DAV:   4    -0.967467615332E+02    0.38273E-02   -0.42393E-03  1336   0.108E-01    0.238E-01
DAV:   5    -0.967456525875E+02    0.11089E-02   -0.59042E-03  1328   0.121E-01    0.708E-02
DAV:   6    -0.967457899952E+02   -0.13741E-03   -0.59062E-05   840   0.157E-02    0.474E-02
DAV:   7    -0.967459279169E+02   -0.13792E-03   -0.39305E-05   856   0.103E-02    0.183E-02
DAV:   8    -0.967460207334E+02   -0.92817E-04   -0.20395E-05   856   0.764E-03
  35 F= -.96746021E+02 E0= -.96746021E+02  d E =-.288218E-01  mag=     1.0000
       N       E                     dE             d eps       ncg     rms          rms(c)
DAV:   1    -0.967521431021E+02   -0.62152E-02   -0.42221E+01  1280   0.989E+00    0.241E-01
DAV:   2    -0.967713287538E+02   -0.19186E-01   -0.18768E-01  1344   0.924E-01    0.218E-01
DAV:   3    -0.967710619958E+02    0.26676E-03   -0.28441E-03  1416   0.109E-01    0.165E-01
DAV:   4    -0.967704425920E+02    0.61940E-03   -0.12171E-03  1328   0.567E-02    0.735E-02
DAV:   5    -0.967704664050E+02   -0.23813E-04   -0.56628E-04  1376   0.395E-02
  36 F= -.96770466E+02 E0= -.96770466E+02  d E =-.244457E-01  mag=     1.0000
       N       E                     dE             d eps       ncg     rms          rms(c)
DAV:   1    -0.967203104601E+02    0.50132E-01   -0.14977E+02  1280   0.187E+01    0.480E-01
DAV:   2    -0.967889700028E+02   -0.68660E-01   -0.67254E-01  1352   0.175E+00    0.407E-01
DAV:   3    -0.967879246338E+02    0.10454E-02   -0.10289E-02  1416   0.209E-01    0.300E-01
DAV:   4    -0.967857746389E+02    0.21500E-02   -0.41377E-03  1328   0.105E-01    0.131E-01
DAV:   5    -0.967857319657E+02    0.42673E-04   -0.16404E-03  1392   0.682E-02    0.503E-02
DAV:   6    -0.967857684887E+02   -0.36523E-04   -0.79123E-05   824   0.155E-02
  37 F= -.96785768E+02 E0= -.96785768E+02  d E =-.397478E-01  mag=     1.0000
       N       E                     dE             d eps       ncg     rms          rms(c)
DAV:   1    -0.967825157408E+02    0.32162E-02   -0.51486E+01  1280   0.109E+01    0.238E-01
DAV:   2    -0.968059085431E+02   -0.23393E-01   -0.22914E-01  1376   0.103E+00    0.234E-01
DAV:   3    -0.968056035165E+02    0.30503E-03   -0.33819E-03  1384   0.124E-01    0.179E-01
DAV:   4    -0.968048460497E+02    0.75747E-03   -0.95450E-04  1368   0.506E-02    0.102E-01
DAV:   5    -0.968047163787E+02    0.12967E-03   -0.12634E-03  1368   0.569E-02    0.353E-02
DAV:   6    -0.968047375881E+02   -0.21209E-04   -0.20795E-05   840   0.836E-03
  38 F= -.96804738E+02 E0= -.96804738E+02  d E =-.189691E-01  mag=     1.0000
       N       E                     dE             d eps       ncg     rms          rms(c)
DAV:   1    -0.966991067659E+02    0.10561E+00   -0.27760E+02  1280   0.254E+01    0.623E-01
DAV:   2    -0.968271340054E+02   -0.12803E+00   -0.12532E+00  1352   0.241E+00    0.551E-01
DAV:   3    -0.968250643095E+02    0.20697E-02   -0.18876E-02  1360   0.298E-01    0.401E-01
DAV:   4    -0.968210026007E+02    0.40617E-02   -0.56274E-03  1344   0.123E-01    0.216E-01
DAV:   5    -0.968203270434E+02    0.67556E-03   -0.48775E-03  1360   0.113E-01    0.688E-02
DAV:   6    -0.968203568215E+02   -0.29778E-04   -0.10226E-04   864   0.187E-02
  39 F= -.96820357E+02 E0= -.96820357E+02  d E =-.345883E-01  mag=     1.0000
       N       E                     dE             d eps       ncg     rms          rms(c)
DAV:   1    -0.968005923883E+02    0.19735E-01   -0.98943E+01  1280   0.151E+01    0.352E-01
DAV:   2    -0.968454619216E+02   -0.44870E-01   -0.44094E-01  1344   0.143E+00    0.333E-01
DAV:   3    -0.968448156339E+02    0.64629E-03   -0.66951E-03  1368   0.178E-01    0.250E-01
DAV:   4    -0.968433745750E+02    0.14411E-02   -0.19134E-03  1344   0.719E-02    0.139E-01
DAV:   5    -0.968431403329E+02    0.23424E-03   -0.21707E-03  1336   0.753E-02    0.462E-02
DAV:   6    -0.968431657944E+02   -0.25461E-04   -0.40970E-05   848   0.117E-02
  40 F= -.96843166E+02 E0= -.96843166E+02  d E =-.228090E-01  mag=     1.0000
       N       E                     dE             d eps       ncg     rms          rms(c)
DAV:   1    -0.968282219451E+02    0.14918E-01   -0.43536E+01  1280   0.100E+01    0.231E-01
DAV:   2    -0.968479657920E+02   -0.19744E-01   -0.19367E-01  1352   0.945E-01    0.221E-01
DAV:   3    -0.968476950125E+02    0.27078E-03   -0.29320E-03  1376   0.118E-01    0.166E-01
DAV:   4    -0.968470720950E+02    0.62292E-03   -0.84910E-04  1352   0.478E-02    0.919E-02
DAV:   5    -0.968469936400E+02    0.78455E-04   -0.98019E-04  1336   0.505E-02
  41 F= -.96846994E+02 E0= -.96846994E+02  d E =-.266368E-01  mag=     1.0000
       N       E                     dE             d eps       ncg     rms          rms(c)
DAV:   1    -0.968338724148E+02    0.13200E-01   -0.77321E+01  1280   0.134E+01    0.303E-01
DAV:   2    -0.968687884532E+02   -0.34916E-01   -0.34348E-01  1336   0.126E+00    0.299E-01
DAV:   3    -0.968683812836E+02    0.40717E-03   -0.54748E-03  1416   0.158E-01    0.228E-01
DAV:   4    -0.968672180304E+02    0.11633E-02   -0.13535E-03  1376   0.608E-02    0.133E-01
DAV:   5    -0.968669412904E+02    0.27674E-03   -0.19746E-03  1376   0.706E-02    0.454E-02
DAV:   6    -0.968670032642E+02   -0.61974E-04   -0.32133E-05   848   0.105E-02
  42 F= -.96867003E+02 E0= -.96867003E+02  d E =-.200096E-01  mag=     1.0000
       N       E                     dE             d eps       ncg     rms          rms(c)
DAV:   1    -0.968526106614E+02    0.14331E-01   -0.43159E+01  1280   0.100E+01    0.225E-01
DAV:   2    -0.968719826218E+02   -0.19372E-01   -0.19157E-01  1336   0.942E-01    0.222E-01
DAV:   3    -0.968717241437E+02    0.25848E-03   -0.30566E-03  1416   0.119E-01    0.169E-01
DAV:   4    -0.968710577446E+02    0.66640E-03   -0.75060E-04  1360   0.452E-02    0.985E-02
DAV:   5    -0.968709123334E+02    0.14541E-03   -0.11269E-03  1368   0.532E-02    0.338E-02
DAV:   6    -0.968709708635E+02   -0.58530E-04   -0.17716E-05   856   0.776E-03
  43 F= -.96870971E+02 E0= -.96870971E+02  d E =-.239772E-01  mag=     1.0000
       N       E                     dE             d eps       ncg     rms          rms(c)
DAV:   1    -0.968561305024E+02    0.14782E-01   -0.72458E+01  1280   0.130E+01    0.285E-01
DAV:   2    -0.968891889526E+02   -0.33058E-01   -0.32366E-01  1320   0.123E+00    0.288E-01
DAV:   3    -0.968888061695E+02    0.38278E-03   -0.52110E-03  1432   0.156E-01    0.218E-01
DAV:   4    -0.968877104275E+02    0.10957E-02   -0.11188E-03  1344   0.558E-02    0.135E-01
DAV:   5    -0.968873682233E+02    0.34220E-03   -0.20672E-03  1360   0.719E-02    0.454E-02
DAV:   6    -0.968874436233E+02   -0.75400E-04   -0.26584E-05   848   0.989E-03
  44 F= -.96887444E+02 E0= -.96887444E+02  d E =-.164728E-01  mag=     1.0000
       N       E                     dE             d eps       ncg     rms          rms(c)
DAV:   1    -0.968676402451E+02    0.19728E-01   -0.54640E+01  1280   0.113E+01    0.247E-01
DAV:   2    -0.968924775461E+02   -0.24837E-01   -0.24409E-01  1328   0.107E+00    0.250E-01
DAV:   3    -0.968921989818E+02    0.27856E-03   -0.39332E-03  1424   0.136E-01    0.187E-01
DAV:   4    -0.968913950571E+02    0.80392E-03   -0.82975E-04  1336   0.482E-02    0.117E-01
DAV:   5    -0.968911784997E+02    0.21656E-03   -0.15594E-03  1344   0.625E-02    0.397E-02
DAV:   6    -0.968912560037E+02   -0.77504E-04   -0.20204E-05   872   0.862E-03
  45 F= -.96891256E+02 E0= -.96891256E+02  d E =-.202851E-01  mag=     1.0000
       N       E                     dE             d eps       ncg     rms          rms(c)
DAV:   1    -0.968748360317E+02    0.16342E-01   -0.71578E+01  1280   0.129E+01    0.284E-01
DAV:   2    -0.969074756993E+02   -0.32640E-01   -0.32141E-01  1336   0.123E+00    0.294E-01
DAV:   3    -0.969070685096E+02    0.40719E-03   -0.50369E-03  1408   0.156E-01    0.219E-01
DAV:   4    -0.969059509006E+02    0.11176E-02   -0.11090E-03  1376   0.557E-02    0.139E-01
DAV:   5    -0.969055881541E+02    0.36275E-03   -0.20797E-03  1360   0.722E-02    0.475E-02
DAV:   6    -0.969056956061E+02   -0.10745E-03   -0.27770E-05   864   0.100E-02    0.317E-02
DAV:   7    -0.969058637043E+02   -0.16810E-03   -0.30282E-05   872   0.855E-03    0.128E-02
DAV:   8    -0.969060501478E+02   -0.18644E-03   -0.15155E-05   880   0.640E-03    0.298E-03
DAV:   9    -0.969061777019E+02   -0.12755E-03   -0.35582E-06   856   0.292E-03    0.200E-03
DAV:  10    -0.969063178957E+02   -0.14019E-03   -0.23229E-06   864   0.166E-03    0.145E-03
DAV:  11    -0.969064481639E+02   -0.13027E-03   -0.25708E-06   856   0.115E-03    0.905E-04
DAV:  12    -0.969065546512E+02   -0.10649E-03   -0.20245E-06   864   0.946E-04    0.547E-04
DAV:  13    -0.969066090657E+02   -0.54414E-04   -0.69713E-07   864   0.618E-04
  46 F= -.96906609E+02 E0= -.96906609E+02  d E =-.153531E-01  mag=     1.0000
       N       E                     dE             d eps       ncg     rms          rms(c)
DAV:   1    -0.968851204147E+02    0.21434E-01   -0.60002E+01  1280   0.118E+01    0.260E-01
DAV:   2    -0.969123662990E+02   -0.27246E-01   -0.26843E-01  1320   0.112E+00    0.269E-01
DAV:   3    -0.969120195624E+02    0.34674E-03   -0.43676E-03  1416   0.144E-01    0.202E-01
DAV:   4    -0.969110297691E+02    0.98979E-03   -0.94762E-04  1368   0.512E-02    0.127E-01
DAV:   5    -0.969106013622E+02    0.42841E-03   -0.17876E-03  1368   0.669E-02    0.436E-02
DAV:   6    -0.969106455481E+02   -0.44186E-04   -0.25138E-05   848   0.952E-03
  47 F= -.96910646E+02 E0= -.96910646E+02  d E =-.193895E-01  mag=     1.0000
       N       E                     dE             d eps       ncg     rms          rms(c)
DAV:   1    -0.968836129955E+02    0.26988E-01   -0.98654E+01  1280   0.151E+01    0.357E-01
DAV:   2    -0.969292208072E+02   -0.45608E-01   -0.45049E-01  1344   0.145E+00    0.342E-01
DAV:   3    -0.969286074250E+02    0.61338E-03   -0.71372E-03  1416   0.187E-01    0.249E-01
DAV:   4    -0.969270968328E+02    0.15106E-02   -0.16248E-03  1376   0.666E-02    0.150E-01
DAV:   5    -0.969266323232E+02    0.46451E-03   -0.24179E-03  1376   0.775E-02    0.488E-02
DAV:   6    -0.969267402256E+02   -0.10790E-03   -0.35266E-05   856   0.111E-02    0.328E-02
DAV:   7    -0.969269272798E+02   -0.18705E-03   -0.38830E-05   888   0.963E-03    0.127E-02
DAV:   8    -0.969271368945E+02   -0.20961E-03   -0.16020E-05   880   0.673E-03    0.339E-03
DAV:   9    -0.969272851508E+02   -0.14826E-03   -0.41157E-06   864   0.307E-03    0.223E-03
DAV:  10    -0.969274494319E+02   -0.16428E-03   -0.26027E-06   840   0.170E-03    0.165E-03
DAV:  11    -0.969276065602E+02   -0.15713E-03   -0.29328E-06   872   0.121E-03    0.108E-03
DAV:  12    -0.969277553164E+02   -0.14876E-03   -0.30665E-06   880   0.115E-03    0.648E-04
DAV:  13    -0.969278194675E+02   -0.64151E-04   -0.86735E-07   872   0.641E-04
  48 F= -.96927819E+02 E0= -.96927819E+02  d E =-.171739E-01  mag=     1.0000
       N       E                     dE             d eps       ncg     rms          rms(c)
DAV:   1    -0.969060680027E+02    0.21687E-01   -0.58213E+01  1280   0.116E+01    0.269E-01
DAV:   2    -0.969325952606E+02   -0.26527E-01   -0.26381E-01  1328   0.111E+00    0.263E-01
DAV:   3    -0.969321904569E+02    0.40480E-03   -0.41554E-03  1416   0.142E-01    0.194E-01
DAV:   4    -0.969312398620E+02    0.95059E-03   -0.99228E-04  1360   0.517E-02    0.116E-01
DAV:   5    -0.969308757644E+02    0.36410E-03   -0.14900E-03  1368   0.608E-02    0.385E-02
DAV:   6    -0.969309144389E+02   -0.38675E-04   -0.22575E-05   856   0.879E-03
  49 F= -.96930914E+02 E0= -.96930914E+02  d E =-.202689E-01  mag=     1.0000
       N       E                     dE             d eps       ncg     rms          rms(c)
DAV:   1    -0.968995365393E+02    0.31339E-01   -0.10468E+02  1280   0.155E+01    0.357E-01
DAV:   2    -0.969473383347E+02   -0.47802E-01   -0.47512E-01  1352   0.149E+00    0.339E-01
DAV:   3    -0.969466158033E+02    0.72253E-03   -0.73997E-03  1424   0.191E-01    0.248E-01
DAV:   4    -0.969451192324E+02    0.14966E-02   -0.15451E-03  1360   0.647E-02    0.152E-01
DAV:   5    -0.969446166055E+02    0.50263E-03   -0.26501E-03  1376   0.812E-02    0.470E-02
DAV:   6    -0.969447074053E+02   -0.90800E-04   -0.34422E-05   848   0.113E-02
  50 F= -.96944707E+02 E0= -.96944707E+02  d E =-.137930E-01  mag=     1.0000
       N       E                     dE             d eps       ncg     rms          rms(c)
DAV:   1    -0.969341778991E+02    0.10439E-01   -0.26977E+01  1280   0.787E+00    0.175E-01
DAV:   2    -0.969464355116E+02   -0.12258E-01   -0.12180E-01  1360   0.751E-01    0.172E-01
DAV:   3    -0.969462849828E+02    0.15053E-03   -0.18833E-03  1392   0.956E-02    0.127E-01
DAV:   4    -0.969459458460E+02    0.33914E-03   -0.38359E-04  1200   0.327E-02    0.794E-02
DAV:   5    -0.969459318494E+02    0.13997E-04   -0.78579E-04  1352   0.449E-02
  51 F= -.96945932E+02 E0= -.96945932E+02  d E =-.150174E-01  mag=     1.0000
       N       E                     dE             d eps       ncg     rms          rms(c)
DAV:   1    -0.969353438757E+02    0.10602E-01   -0.52789E+01  1280   0.110E+01    0.246E-01
DAV:   2    -0.969599504364E+02   -0.24607E-01   -0.23805E-01  1376   0.104E+00    0.237E-01
DAV:   3    -0.969597261589E+02    0.22428E-03   -0.35388E-03  1400   0.128E-01    0.179E-01
DAV:   4    -0.969591040604E+02    0.62210E-03   -0.86662E-04  1392   0.487E-02    0.105E-01
DAV:   5    -0.969590789346E+02    0.25126E-04   -0.12735E-03  1392   0.570E-02    0.350E-02
DAV:   6    -0.969591384305E+02   -0.59496E-04   -0.21778E-05   848   0.843E-03
  52 F= -.96959138E+02 E0= -.96959138E+02  d E =-.132066E-01  mag=     1.0000
       N       E                     dE             d eps       ncg     rms          rms(c)
DAV:   1    -0.969368728466E+02    0.22206E-01   -0.61222E+01  1280   0.119E+01    0.265E-01
DAV:   2    -0.969649069297E+02   -0.28034E-01   -0.27506E-01  1392   0.112E+00    0.256E-01
DAV:   3    -0.969645638217E+02    0.34311E-03   -0.40856E-03  1384   0.137E-01    0.194E-01
DAV:   4    -0.969637253214E+02    0.83850E-03   -0.10264E-03  1400   0.528E-02    0.113E-01
DAV:   5    -0.969635578921E+02    0.16743E-03   -0.14878E-03  1368   0.615E-02    0.375E-02
DAV:   6    -0.969635913125E+02   -0.33420E-04   -0.24243E-05   848   0.894E-03
  53 F= -.96963591E+02 E0= -.96963591E+02  d E =-.176595E-01  mag=     1.0000
       N       E                     dE             d eps       ncg     rms          rms(c)
DAV:   1    -0.969563743490E+02    0.71835E-02   -0.41905E+01  1280   0.980E+00    0.201E-01
DAV:   2    -0.969755980940E+02   -0.19224E-01   -0.18904E-01  1360   0.928E-01    0.206E-01
DAV:   3    -0.969753833356E+02    0.21476E-03   -0.28003E-03  1408   0.113E-01    0.158E-01
DAV:   4    -0.969748448457E+02    0.53849E-03   -0.52633E-04  1360   0.383E-02    0.102E-01
DAV:   5    -0.969746549606E+02    0.18989E-03   -0.12681E-03  1352   0.563E-02    0.318E-02
DAV:   6    -0.969746840163E+02   -0.29056E-04   -0.13675E-05   856   0.724E-03
  54 F= -.96974684E+02 E0= -.96974684E+02  d E =-.110927E-01  mag=     1.0000
       N       E                     dE             d eps       ncg     rms          rms(c)
DAV:   1    -0.969447205145E+02    0.29934E-01   -0.79981E+01  1280   0.135E+01    0.282E-01
DAV:   2    -0.969812924291E+02   -0.36572E-01   -0.36079E-01  1344   0.128E+00    0.285E-01
DAV:   3    -0.969808766393E+02    0.41579E-03   -0.55835E-03  1416   0.159E-01    0.218E-01
DAV:   4    -0.969798174783E+02    0.10592E-02   -0.99879E-04  1360   0.528E-02    0.140E-01
DAV:   5    -0.969793960773E+02    0.42140E-03   -0.23336E-03  1368   0.763E-02    0.428E-02
DAV:   6    -0.969794324964E+02   -0.36419E-04   -0.24540E-05   824   0.984E-03
  55 F= -.96979432E+02 E0= -.96979432E+02  d E =-.158412E-01  mag=     1.0000
       N       E                     dE             d eps       ncg     rms          rms(c)
DAV:   1    -0.969673634673E+02    0.12033E-01   -0.52707E+01  1280   0.110E+01    0.247E-01
DAV:   2    -0.969913930991E+02   -0.24030E-01   -0.23797E-01  1344   0.104E+00    0.249E-01
DAV:   3    -0.969910985774E+02    0.29452E-03   -0.35904E-03  1400   0.133E-01    0.185E-01
DAV:   4    -0.969903845798E+02    0.71400E-03   -0.84129E-04  1344   0.492E-02    0.116E-01
DAV:   5    -0.969902189120E+02    0.16567E-03   -0.14133E-03  1352   0.619E-02    0.380E-02
DAV:   6    -0.969902424235E+02   -0.23511E-04   -0.18895E-05   840   0.926E-03
  56 F= -.96990242E+02 E0= -.96990242E+02  d E =-.108099E-01  mag=     1.0000
       N       E                     dE             d eps       ncg     rms          rms(c)
DAV:   1    -0.969778229080E+02    0.12396E-01   -0.34205E+01  1280   0.883E+00    0.198E-01
DAV:   2    -0.969934940325E+02   -0.15671E-01   -0.15456E-01  1328   0.839E-01    0.199E-01
DAV:   3    -0.969933144790E+02    0.17955E-03   -0.23299E-03  1376   0.107E-01    0.148E-01
DAV:   4    -0.969928531696E+02    0.46131E-03   -0.53766E-04  1352   0.396E-02    0.932E-02
DAV:   5    -0.969927451182E+02    0.10805E-03   -0.94044E-04  1344   0.507E-02    0.308E-02
DAV:   6    -0.969927621863E+02   -0.17068E-04   -0.12565E-05   824   0.758E-03
  57 F= -.96992762E+02 E0= -.96992762E+02  d E =-.133297E-01  mag=     1.0000
       N       E                     dE             d eps       ncg     rms          rms(c)
DAV:   1    -0.969811818387E+02    0.11563E-01   -0.47282E+01  1280   0.104E+01    0.242E-01
DAV:   2    -0.970028578586E+02   -0.21676E-01   -0.21471E-01  1352   0.987E-01    0.233E-01
DAV:   3    -0.970025818041E+02    0.27605E-03   -0.32238E-03  1392   0.124E-01    0.172E-01
DAV:   4    -0.970019318683E+02    0.64994E-03   -0.85151E-04  1368   0.486E-02    0.102E-01
DAV:   5    -0.970018249421E+02    0.10693E-03   -0.10867E-03  1336   0.544E-02    0.342E-02
DAV:   6    -0.970018441491E+02   -0.19207E-04   -0.18161E-05   832   0.895E-03
  58 F= -.97001844E+02 E0= -.97001844E+02  d E =-.908196E-02  mag=     1.0000
       N       E                     dE             d eps       ncg     rms          rms(c)
DAV:   1    -0.969744289997E+02    0.27396E-01   -0.59476E+01  1280   0.116E+01    0.276E-01
DAV:   2    -0.970018782603E+02   -0.27449E-01   -0.27081E-01  1336   0.111E+00    0.263E-01
DAV:   3    -0.970015279299E+02    0.35033E-03   -0.40688E-03  1384   0.140E-01    0.193E-01
DAV:   4    -0.970007043079E+02    0.82362E-03   -0.11055E-03  1368   0.554E-02    0.112E-01
DAV:   5    -0.970005737577E+02    0.13055E-03   -0.13065E-03  1336   0.600E-02    0.376E-02
DAV:   6    -0.970005952138E+02   -0.21456E-04   -0.22564E-05   840   0.102E-02
  59 F= -.97000595E+02 E0= -.97000595E+02  d E =-.783303E-02  mag=     1.0000
       N       E                     dE             d eps       ncg     rms          rms(c)
DAV:   1    -0.969949194478E+02    0.56543E-02   -0.18202E+01  1280   0.644E+00    0.142E-01
DAV:   2    -0.970032543257E+02   -0.83349E-02   -0.81715E-02  1376   0.609E-01    0.146E-01
DAV:   3    -0.970031706329E+02    0.83693E-04   -0.12225E-03  1408   0.752E-02    0.113E-01
DAV:   4    -0.970029253586E+02    0.24527E-03   -0.30443E-04  1104   0.296E-02    0.694E-02
DAV:   5    -0.970028868276E+02    0.38531E-04   -0.57809E-04  1376   0.402E-02
  60 F= -.97002887E+02 E0= -.97002887E+02  d E =-.101246E-01  mag=     1.0000
       N       E                     dE             d eps       ncg     rms          rms(c)
DAV:   1    -0.969911316786E+02    0.11794E-01   -0.43715E+01  1280   0.100E+01    0.218E-01
DAV:   2    -0.970110289137E+02   -0.19897E-01   -0.19535E-01  1336   0.948E-01    0.222E-01
DAV:   3    -0.970107746264E+02    0.25429E-03   -0.30701E-03  1416   0.122E-01    0.169E-01
DAV:   4    -0.970101330421E+02    0.64158E-03   -0.67660E-04  1344   0.439E-02    0.107E-01
DAV:   5    -0.970099271485E+02    0.20589E-03   -0.13423E-03  1368   0.588E-02    0.348E-02
DAV:   6    -0.970099316094E+02   -0.44609E-05   -0.17086E-05   792   0.829E-03
  61 F= -.97009932E+02 E0= -.97009932E+02  d E =-.704478E-02  mag=     1.0000
       N       E                     dE             d eps       ncg     rms          rms(c)
DAV:   1    -0.970005474269E+02    0.93797E-02   -0.23062E+01  1280   0.727E+00    0.161E-01
DAV:   2    -0.970110713837E+02   -0.10524E-01   -0.10355E-01  1320   0.689E-01    0.160E-01
DAV:   3    -0.970109592083E+02    0.11218E-03   -0.16190E-03  1384   0.884E-02    0.119E-01
DAV:   4    -0.970106506445E+02    0.30856E-03   -0.34838E-04  1160   0.324E-02    0.756E-02
DAV:   5    -0.970105784790E+02    0.72166E-04   -0.69112E-04  1352   0.435E-02
  62 F= -.97010578E+02 E0= -.97010578E+02  d E =-.769165E-02  mag=     1.0000
       N       E                     dE             d eps       ncg     rms          rms(c)
DAV:   1    -0.969980129270E+02    0.12638E-01   -0.40427E+01  1280   0.965E+00    0.199E-01
DAV:   2    -0.970166044444E+02   -0.18592E-01   -0.18063E-01  1328   0.910E-01    0.201E-01
DAV:   3    -0.970164123553E+02    0.19209E-03   -0.27690E-03  1408   0.114E-01    0.153E-01
DAV:   4    -0.970158831109E+02    0.52924E-03   -0.53349E-04  1360   0.390E-02    0.981E-02
DAV:   5    -0.970157078775E+02    0.17523E-03   -0.12109E-03  1344   0.554E-02    0.319E-02
DAV:   6    -0.970157274092E+02   -0.19532E-04   -0.12568E-05   824   0.751E-03
  63 F= -.97015727E+02 E0= -.97015727E+02  d E =-.514893E-02  mag=     1.0000
       N       E                     dE             d eps       ncg     rms          rms(c)
DAV:   1    -0.970087759345E+02    0.69319E-02   -0.17661E+01  1280   0.637E+00    0.130E-01
DAV:   2    -0.970168232598E+02   -0.80473E-02   -0.78645E-02  1320   0.600E-01    0.133E-01
DAV:   3    -0.970167428886E+02    0.80371E-04   -0.12041E-03  1368   0.748E-02    0.102E-01
DAV:   4    -0.970165116700E+02    0.23122E-03   -0.21275E-04   816   0.256E-02    0.675E-02
DAV:   5    -0.970164449440E+02    0.66726E-04   -0.65491E-04  1336   0.424E-02
  64 F= -.97016445E+02 E0= -.97016445E+02  d E =-.586646E-02  mag=     1.0000
       N       E                     dE             d eps       ncg     rms          rms(c)
DAV:   1    -0.970119250622E+02    0.45866E-02   -0.22657E+01  1280   0.722E+00    0.161E-01
DAV:   2    -0.970222529509E+02   -0.10328E-01   -0.10138E-01  1336   0.680E-01    0.153E-01
DAV:   3    -0.970221225660E+02    0.13038E-03   -0.14882E-03  1400   0.830E-02    0.116E-01
DAV:   4    -0.970217992203E+02    0.32335E-03   -0.37394E-04  1200   0.327E-02    0.672E-02
DAV:   5    -0.970217186126E+02    0.80608E-04   -0.58134E-04  1368   0.394E-02
  65 F= -.97021719E+02 E0= -.97021719E+02  d E =-.527367E-02  mag=     1.0000
       N       E                     dE             d eps       ncg     rms          rms(c)
DAV:   1    -0.970098706613E+02    0.11929E-01   -0.30727E+01  1280   0.841E+00    0.189E-01
DAV:   2    -0.970238927123E+02   -0.14022E-01   -0.13781E-01  1352   0.793E-01    0.178E-01
DAV:   3    -0.970237021492E+02    0.19056E-03   -0.20306E-03  1416   0.973E-02    0.134E-01
DAV:   4    -0.970232668423E+02    0.43531E-03   -0.51128E-04  1384   0.379E-02    0.772E-02
DAV:   5    -0.970231637168E+02    0.10313E-03   -0.71044E-04  1368   0.427E-02    0.257E-02
DAV:   6    -0.970231933931E+02   -0.29676E-04   -0.87239E-06   824   0.625E-03
  66 F= -.97023193E+02 E0= -.97023193E+02  d E =-.674845E-02  mag=     1.0000
       N       E                     dE             d eps       ncg     rms          rms(c)
DAV:   1    -0.970149701818E+02    0.81935E-02   -0.27810E+01  1280   0.800E+00    0.174E-01
DAV:   2    -0.970276404720E+02   -0.12670E-01   -0.12482E-01  1312   0.759E-01    0.176E-01
DAV:   3    -0.970275183679E+02    0.12210E-03   -0.19768E-03  1408   0.970E-02    0.133E-01
DAV:   4    -0.970271222323E+02    0.39614E-03   -0.40016E-04  1216   0.349E-02    0.838E-02
DAV:   5    -0.970270008494E+02    0.12138E-03   -0.85273E-04  1344   0.471E-02    0.284E-02
DAV:   6    -0.970270270469E+02   -0.26198E-04   -0.95121E-06   832   0.655E-03
  67 F= -.97027027E+02 E0= -.97027027E+02  d E =-.383365E-02  mag=     1.0000
       N       E                     dE             d eps       ncg     rms          rms(c)
DAV:   1    -0.970258088969E+02    0.11920E-02   -0.32467E+00  1288   0.273E+00    0.614E-02
DAV:   2    -0.970273240653E+02   -0.15152E-02   -0.14671E-02  1328   0.260E-01    0.599E-02
DAV:   3    -0.970273170891E+02    0.69762E-05   -0.20902E-04   824   0.334E-02
  68 F= -.97027317E+02 E0= -.97027317E+02  d E =-.412370E-02  mag=     1.0000
       N       E                     dE             d eps       ncg     rms          rms(c)
DAV:   1    -0.970268170034E+02    0.50706E-03   -0.56173E+00  1280   0.361E+00    0.110E-01
DAV:   2    -0.970293334011E+02   -0.25164E-02   -0.25492E-02  1368   0.342E-01    0.922E-02
DAV:   3    -0.970292949855E+02    0.38416E-04   -0.42348E-04  1264   0.466E-02
  69 F= -.97029295E+02 E0= -.97029295E+02  d E =-.197790E-02  mag=     1.0000
       N       E                     dE             d eps       ncg     rms          rms(c)
DAV:   1    -0.970291938012E+02    0.13960E-03   -0.81112E-02  1328   0.432E-01    0.219E-02
DAV:   2    -0.970292520958E+02   -0.58295E-04   -0.40660E-04  1240   0.462E-02
  70 F= -.97029252E+02 E0= -.97029252E+02  d E =-.193501E-02  mag=     1.0000
       N       E                     dE             d eps       ncg     rms          rms(c)
DAV:   1    -0.970291282721E+02    0.65529E-04   -0.44992E+00  1280   0.323E+00    0.807E-02
DAV:   2    -0.970311194217E+02   -0.19911E-02   -0.20004E-02  1320   0.305E-01    0.720E-02
DAV:   3    -0.970310728477E+02    0.46574E-04   -0.28018E-04   880   0.389E-02
  71 F= -.97031073E+02 E0= -.97031073E+02  d E =-.182075E-02  mag=     1.0000
       N       E                     dE             d eps       ncg     rms          rms(c)
DAV:   1    -0.970309931233E+02    0.12630E-03   -0.21854E-04   816   0.246E-02    0.223E-02
DAV:   2    -0.970309997890E+02   -0.66657E-05   -0.28309E-05   808   0.114E-02
  72 F= -.97031000E+02 E0= -.97031000E+02  d E =-.174769E-02  mag=     1.0000
