 vasp.5.3.5 31Mar14 (build Feb 01 2018 12:10:03) gamma-only                     
  
 executed on             LinuxIFC date 2019.04.16  02:59:30
 running on   32 total cores
 distrk:  each k-point on   32 cores,    1 groups
 distr:  one band on NCORES_PER_BAND=   8 cores,    4 groups


--------------------------------------------------------------------------------------------------------


 INCAR:
 POTCAR:    PAW_PBE Ag 02Apr2005                  
 POTCAR:    PAW_PBE Ag 02Apr2005                  
   VRHFIN =Ag : s1 d10                                                          
   LEXCH  = PE                                                                  
   EATOM  =  1037.2675 eV,   76.2370 Ry                                         
                                                                                
   TITEL  = PAW_PBE Ag 02Apr2005                                                
   LULTRA =        F    use ultrasoft PP ?                                      
   IUNSCR =        1    unscreen: 0-lin 1-nonlin 2-no                           
   RPACOR =    2.000    partial core radius                                     
   POMASS =  107.868; ZVAL   =   11.000    mass and valenz                      
   RCORE  =    2.500    outmost cutoff radius                                   
   RWIGS  =    2.840; RWIGS  =    1.503    wigner-seitz radius (au A)           
   ENMAX  =  249.844; ENMIN  =  187.383 eV                                      
   ICORE  =        3    local potential                                         
   LCOR   =        T    correct aug charges                                     
   LPAW   =        T    paw PP                                                  
   EAUG   =  412.496                                                            
   DEXC   =    0.000                                                            
   RMAX   =    2.560    core radius for proj-oper                               
   RAUG   =    1.300    factor for augmentation sphere                          
   RDEP   =    2.576    radius for radial grids                                 
   RDEPT  =    2.072    core radius for aug-charge                              
                                                                                
   Atomic configuration                                                         
   12 entries                                                                   
     n  l   j            E        occ.                                          
     1  0  0.50    -25324.9161   2.0000                                         
     2  0  0.50     -3728.5341   2.0000                                         
     2  1  1.50     -3344.0404   6.0000                                         
     3  0  0.50      -683.5581   2.0000                                         
     3  1  1.50      -557.3225   6.0000                                         
     3  2  2.50      -358.3853  10.0000                                         
     4  0  0.50       -95.0341   2.0000                                         
     4  1  1.50       -58.5511   6.0000                                         
     4  2  2.50        -7.4440  10.0000                                         
     5  0  0.50        -4.4045   1.0000                                         
     5  1  0.50        -1.3606   0.0000                                         
     4  3  2.50        -1.3606   0.0000                                         
   Description                                                                  
     l       E           TYP  RCUT    TYP  RCUT                                 
     2     -7.4439781     23  2.400                                             
     2     -8.8045607     23  2.400                                             
     0     -4.4044681     23  2.400                                             
     0      1.9520038     23  2.400                                             
     1     -1.3605826     23  2.500                                             
     1     27.2116520     23  2.500                                             
     3     -4.0817478     23  2.400                                             
  local pseudopotential read in
  partial core-charges read in
  partial kinetic energy density read in
  atomic valenz-charges read in
  non local Contribution for L=           2  read in
    real space projection operators read in
  non local Contribution for L=           2  read in
    real space projection operators read in
  non local Contribution for L=           0  read in
    real space projection operators read in
  non local Contribution for L=           0  read in
    real space projection operators read in
  non local Contribution for L=           1  read in
    real space projection operators read in
  non local Contribution for L=           1  read in
    real space projection operators read in
    PAW grid and wavefunctions read in
 
   number of l-projection  operators is LMAX  =           6
   number of lm-projection operators is LMMAX =          18
 
  PAW_PBE Ag 02Apr2005                  :
 energy of atom  1       EATOM=-1037.2675
 kinetic energy error for atom=    0.0689 (will be added to EATOM!!)
 
 
 POSCAR: Pt8, -31.86853838 <s> Ag </s>           
  positions in direct lattice
  No initial velocities read in
 exchange correlation table for  LEXCH =        8
   RHO(1)=    0.500       N(1)  =     2000
   RHO(2)=  100.500       N(2)  =     4000
 


--------------------------------------------------------------------------------------------------------


 ion  position               nearest neighbor table
   1  0.530  0.414  0.484-   3 2.66   2 2.68   8 2.69   5 2.73   6 2.95
   2  0.649  0.491  0.422-   5 2.66   6 2.66   1 2.68
   3  0.531  0.522  0.593-   4 2.61   7 2.63   1 2.66   6 2.67   5 2.68
   4  0.455  0.621  0.678-   3 2.61   7 2.63
   5  0.661  0.442  0.567-   2 2.66   3 2.68   1 2.73
   6  0.527  0.581  0.450-   2 2.66   8 2.66   3 2.67   7 2.70   1 2.95
   7  0.401  0.582  0.541-   3 2.63   4 2.63   8 2.70   6 2.70
   8  0.410  0.487  0.418-   6 2.66   1 2.69   7 2.70
 
  LATTYP: Found a simple cubic cell.
 ALAT       =    17.3023290599
  
  Lattice vectors:
  
 A1 = (  17.3023290599,   0.0000000000,   0.0000000000)
 A2 = (   0.0000000000,  17.3023290599,   0.0000000000)
 A3 = (   0.0000000000,   0.0000000000,  17.3023290599)


Analysis of symmetry for initial positions (statically):
=====================================================================
 Subroutine PRICEL returns:
 Original cell was already a primitive cell.
 

 Routine SETGRP: Setting up the symmetry group for a 
 simple cubic supercell.


 Subroutine GETGRP returns: Found  1 space group operations
 (whereof  1 operations were pure point group operations)
 out of a pool of 48 trial point group operations.


The static configuration has the point symmetry C_1 .


Analysis of symmetry for dynamics (positions and initial velocities):
=====================================================================
 Subroutine PRICEL returns:
 Original cell was already a primitive cell.
 

 Routine SETGRP: Setting up the symmetry group for a 
 simple cubic supercell.


 Subroutine GETGRP returns: Found  1 space group operations
 (whereof  1 operations were pure point group operations)
 out of a pool of 48 trial point group operations.


The dynamic configuration has the point symmetry C_1 .


Analysis of magnetic symmetry:
=====================================================================
 Subroutine PRICEL returns:
 Original cell was already a primitive cell.
 

 Subroutine MAGSYM returns: Found  1 space group operations
 (whereof  1 operations were pure point group operations)
 out of a pool of  1 trial space group operations
 (whereof  1 operations were pure point group operations)
 and found also     1 'primitive' translations


The magnetic configuration has the point symmetry C_1 .
 
 
 KPOINTS: Gamma-point only                        
  k-points in reciprocal lattice
Space group operators:
 irot       det(A)        alpha          n_x          n_y          n_z        tau_x        tau_y        tau_z
    1     1.000000     0.000000     1.000000     0.000000     0.000000     0.000000     0.000000     0.000000


--------------------------------------------------------------------------------------------------------




 Dimension of arrays:
   k-points           NKPTS =      1   k-points in BZ     NKDIM =      1   number of bands    NBANDS=     56
   number of dos      NEDOS =    301   number of ions     NIONS =      8
   non local maximal  LDIM  =      6   non local SUM 2l+1 LMDIM =     18
   total plane-waves  NPLWV = 343000
   max r-space proj   IRMAX =      1   max aug-charges    IRDMAX=   3455
   dimension x,y,z NGX =    70 NGY =   70 NGZ =   70
   dimension x,y,z NGXF=   140 NGYF=  140 NGZF=  140
   support grid    NGXF=   140 NGYF=  140 NGZF=  140
   ions per type =               8
 NGX,Y,Z   is equivalent  to a cutoff of   6.73,  6.73,  6.73 a.u.
 NGXF,Y,Z  is equivalent  to a cutoff of  13.45, 13.45, 13.45 a.u.


 I would recommend the setting:
   dimension x,y,z NGX =    67 NGY =   67 NGZ =   67
 SYSTEM =  unknown system                          
 POSCAR =  Pt8, -31.86853838 <s> Ag </s>           

 Startparameter for this run:
   NWRITE =      2    write-flag & timer
   PREC   = normal    normal or accurate (medium, high low for compatibility)
   ISTART =      0    job   : 0-new  1-cont  2-samecut
   ICHARG =      2    charge: 1-file 2-atom 10-const
   ISPIN  =      2    spin polarized calculation?
   LNONCOLLINEAR =      F non collinear calculations
   LSORBIT =      F    spin-orbit coupling
   INIWAV =      1    electr: 0-lowe 1-rand  2-diag
   LASPH  =      F    aspherical Exc in radial PAW
   METAGGA=      F    non-selfconsistent MetaGGA calc.

 Electronic Relaxation 1
   ENCUT  =  249.8 eV  18.36 Ry    4.29 a.u.  22.30 22.30 22.30*2*pi/ulx,y,z
   ENINI  =  249.8     initial cutoff
   ENAUG  =  412.5 eV  augmentation charge cutoff
   NELM   =     60;   NELMIN=  2; NELMDL=  0     # of ELM steps 
   EDIFF  = 0.1E-03   stopping-criterion for ELM
   LREAL  =      F    real-space projection
   NLSPLINE    = F    spline interpolate recip. space projectors
   LCOMPAT=      F    compatible to vasp.4.4
   GGA_COMPAT  = T    GGA compatible to vasp.4.4-vasp.4.6
   LMAXPAW     = -100 max onsite density
   LMAXMIX     =    2 max onsite mixed and CHGCAR
   VOSKOWN=      0    Vosko Wilk Nusair interpolation
   ROPT   =    0.00000
 Ionic relaxation
   EDIFFG = 0.1E-02   stopping-criterion for IOM
   NSW    =   1000    number of steps for IOM
   NBLOCK =      1;   KBLOCK =   1000    inner block; outer block 
   IBRION =      2    ionic relax: 0-MD 1-quasi-New 2-CG
   NFREE  =      1    steps in history (QN), initial steepest desc. (CG)
   ISIF   =      2    stress and relaxation
   IWAVPR =     11    prediction:  0-non 1-charg 2-wave 3-comb
   ISYM   =      2    0-nonsym 1-usesym 2-fastsym
   LCORR  =      T    Harris-Foulkes like correction to forces

   POTIM  = 0.1000    time-step for ionic-motion
   TEIN   =    0.0    initial temperature
   TEBEG  =    0.0;   TEEND  =   0.0 temperature during run
   SMASS  =  -3.00    Nose mass-parameter (am)
   estimated Nose-frequenzy (Omega)   =  0.10E-29 period in steps =****** mass=  -0.684E-26a.u.
   SCALEE = 1.0000    scale energy and forces
   NPACO  =    256;   APACO  = 16.0  distance and # of slots for P.C.
   PSTRESS=    0.0 pullay stress

  Mass of Ions in am
   POMASS = 107.87
  Ionic Valenz
   ZVAL   =  11.00
  Atomic Wigner-Seitz radii
   RWIGS  =  -1.00
  virtual crystal weights 
   VCA    =   1.00
   NELECT =      88.0000    total number of electrons
   NUPDOWN=      -1.0000    fix difference up-down

 DOS related values:
   EMIN   =  10.00;   EMAX   =-10.00  energy-range for DOS
   EFERMI =   0.00
   ISMEAR =     0;   SIGMA  =   0.00  broadening in eV -4-tet -1-fermi 0-gaus

 Electronic relaxation 2 (details)
   IALGO  =     68    algorithm
   LDIAG  =      T    sub-space diagonalisation (order eigenvalues)
   LSUBROT=      F    optimize rotation matrix (better conditioning)
   TURBO    =      0    0=normal 1=particle mesh
   IRESTART =      0    0=no restart 2=restart with 2 vectors
   NREBOOT  =      0    no. of reboots
   NMIN     =      0    reboot dimension
   EREF     =   0.00    reference energy to select bands
   IMIX   =      4    mixing-type and parameters
     AMIX     =   0.40;   BMIX     =  1.00
     AMIX_MAG =   1.60;   BMIX_MAG =  1.00
     AMIN     =   0.10
     WC   =   100.;   INIMIX=   1;  MIXPRE=   1;  MAXMIX= -45

 Intra band minimization:
   WEIMIN = 0.0010     energy-eigenvalue tresh-hold
   EBREAK =  0.45E-06  absolut break condition
   DEPER  =   0.30     relativ break condition  

   TIME   =   0.40     timestep for ELM

  volume/ion in A,a.u.               =     647.48      4369.38
  Fermi-wavevector in a.u.,A,eV,Ry     =   0.420854  0.795298  2.409835  0.177118
  Thomas-Fermi vector in A             =   1.383310
 
 Write flags
   LWAVE  =      F    write WAVECAR
   LCHARG =      F    write CHGCAR
   LVTOT  =      F    write LOCPOT, total local potential
   LVHAR  =      F    write LOCPOT, Hartree potential only
   LELF   =      F    write electronic localiz. function (ELF)
   LORBIT =      0    0 simple, 1 ext, 2 COOP (PROOUT)


 Dipole corrections
   LMONO  =      F    monopole corrections only (constant potential shift)
   LDIPOL =      F    correct potential (dipole corrections)
   IDIPOL =      0    1-x, 2-y, 3-z, 4-all directions 
   EPSILON=  1.0000000 bulk dielectric constant

 Exchange correlation treatment:
   GGA     =    PE    GGA type
   LEXCH   =     8    internal setting for exchange type
   VOSKOWN=      0    Vosko Wilk Nusair interpolation
   LHFCALC =     F    Hartree Fock is set to
   LHFONE  =     F    Hartree Fock one center treatment
   AEXX    =    0.0000 exact exchange contribution

 Linear response parameters
   LEPSILON=     F    determine dielectric tensor
   LRPA    =     F    only Hartree local field effects (RPA)
   LNABLA  =     F    use nabla operator in PAW spheres
   LVEL    =     F    velocity operator in full k-point grid
   LINTERFAST=   F  fast interpolation
   KINTER  =     0    interpolate to denser k-point grid
   CSHIFT  =0.1000    complex shift for real part using Kramers Kronig
   OMEGAMAX=  -1.0    maximum frequency
   DEG_THRESHOLD= 0.2000000E-02 threshold for treating states as degnerate
   RTIME   =    0.100 relaxation time in fs

 Orbital magnetization related:
   ORBITALMAG=     F  switch on orbital magnetization
   LCHIMAG   =     F  perturbation theory with respect to B field
   DQ        =  0.001000  dq finite difference perturbation B field



--------------------------------------------------------------------------------------------------------


 conjugate gradient relaxation of ions
 charge density and potential will be updated during run
 spin polarized calculation
 RMM-DIIS sequential band-by-band and
  variant of blocked Davidson during initial phase
 perform sub-space diagonalisation
    before iterative eigenvector-optimisation
 modified Broyden-mixing scheme, WC =      100.0
 initial mixing is a Kerker type mixing with AMIX =  0.4000 and BMIX =      1.0000
 Hartree-type preconditioning will be used
 using additional bands           12
 reciprocal scheme for non local part
 use partial core corrections
 calculate Harris-corrections to forces 
   (improved forces if not selfconsistent)
 use gradient corrections 
 use of overlap-Matrix (Vanderbilt PP)
 Gauss-broadening in eV      SIGMA  =   0.00


--------------------------------------------------------------------------------------------------------


  energy-cutoff  :      249.84
  volume of cell :     5179.81
      direct lattice vectors                 reciprocal lattice vectors
    17.302329060  0.000000000  0.000000000     0.057795687  0.000000000  0.000000000
     0.000000000 17.302329060  0.000000000     0.000000000  0.057795687  0.000000000
     0.000000000  0.000000000 17.302329060     0.000000000  0.000000000  0.057795687

  length of vectors
    17.302329060 17.302329060 17.302329060     0.057795687  0.057795687  0.057795687


 
 k-points in units of 2pi/SCALE and weight: Gamma-point only                        
   0.00000000  0.00000000  0.00000000       1.000
 
 k-points in reciprocal lattice and weights: Gamma-point only                        
   0.00000000  0.00000000  0.00000000       1.000
 
 position of ions in fractional coordinates (direct lattice) 
   0.52956434  0.41350435  0.48395805
   0.64862065  0.49075550  0.42166725
   0.53072766  0.52228854  0.59271797
   0.45528601  0.62118834  0.67755393
   0.66059720  0.44239596  0.56701876
   0.52725150  0.58075910  0.44976338
   0.40085234  0.58167250  0.54130769
   0.40958025  0.48697408  0.41773581
 
 position of ions in cartesian coordinates  (Angst):
   9.16269653  7.15458838  8.37360142
  11.22264795  8.49121317  7.29582543
   9.18282468  9.03680812 10.25540137
   7.87750836 10.74800506 11.72326111
  11.42987012  7.65448046  9.81074511
   9.12267901 10.04848507  7.78195402
   6.93567901 10.06428897  9.36588386
   7.08669228  8.42578581  7.22780241
 


--------------------------------------------------------------------------------------------------------


 use parallel FFT for wavefunctions z direction half grid
 k-point  1 :   0.0000 0.0000 0.0000  plane waves:   23293

 maximum and minimum number of plane-waves per node :      2914     2909

 maximum number of plane-waves:     23293
 maximum index in each direction: 
   IXMAX=   22   IYMAX=   22   IZMAX=   22
   IXMIN=  -22   IYMIN=  -22   IZMIN=    0

 WARNING: aliasing errors must be expected set NGX to  90 to avoid them
 WARNING: aliasing errors must be expected set NGY to  90 to avoid them
 WARNING: aliasing errors must be expected set NGZ to  90 to avoid them
 aliasing errors are usually negligible using standard VASP settings
 and one can safely disregard these warnings

 parallel 3D FFT for wavefunctions:
    minimum data exchange during FFTs selected (reduces bandwidth)
 parallel 3D FFT for charge:
    minimum data exchange during FFTs selected (reduces bandwidth)


 total amount of memory used by VASP on root node    47000. kBytes
========================================================================

   base      :      30000. kBytes
   nonl-proj :        792. kBytes
   fftplans  :       4202. kBytes
   grid      :      10682. kBytes
   one-center:         15. kBytes
   wavefun   :       1309. kBytes
 
     INWAV:  cpu time    0.00: real time    0.00
 Broyden mixing: mesh for mixing (old mesh)
   NGX = 45   NGY = 45   NGZ = 45
  (NGX  =140   NGY  =140   NGZ  =140)
  gives a total of  91125 points

 initial charge density was supplied:
 charge density of overlapping atoms calculated
 number of electron      88.0000000 magnetization       8.0000000
 keeping initial charge density in first step


--------------------------------------------------------------------------------------------------------


 Maximum index for augmentation-charges          260 (set IRDMAX)


--------------------------------------------------------------------------------------------------------


 First call to EWALD:  gamma=   0.102
 Maximum number of real-space cells 3x 3x 3
 Maximum number of reciprocal cells 3x 3x 3

 FEWALD executed in parallel
    FEWALD:  cpu time    0.00: real time    0.00


----------------------------------------- Iteration    1(   1)  ---------------------------------------


    POTLOK:  cpu time    0.16: real time    0.16
    SETDIJ:  cpu time    0.01: real time    0.01
     EDDAV:  cpu time    0.32: real time    0.32
       DOS:  cpu time    0.00: real time    0.00
    --------------------------------------------
      LOOP:  cpu time    0.48: real time    0.55

 eigenvalue-minimisations  :   224
 total energy-change (2. order) : 0.7755749E+03  (-0.1326181E+04)
 number of electron      88.0000000 magnetization       8.0000000
 augmentation part       88.0000000 magnetization       8.0000000

 Free energy of the ion-electron system (eV)
  ---------------------------------------------------
  alpha Z        PSCENC =        10.50946124
  Ewald energy   TEWEN  =      5898.15662270
  -Hartree energ DENC   =    -13831.80090340
  -exchange      EXHF   =         0.00000000
  -V(xc)+E(xc)   XCENC  =       -89.87595944
  PAW double counting   =      8026.97742456    -7658.11687103
  entropy T*S    EENTRO =         0.00000000
  eigenvalues    EBANDS =       122.13612323
  atomic energy  EATOM  =      8297.58904069
  ---------------------------------------------------
  free energy    TOTEN  =       775.57493854 eV

  energy without entropy =      775.57493854  energy(sigma->0) =      775.57493854


--------------------------------------------------------------------------------------------------------




----------------------------------------- Iteration    1(   2)  ---------------------------------------


     EDDAV:  cpu time    0.53: real time    0.53
       DOS:  cpu time    0.00: real time    0.00
    --------------------------------------------
      LOOP:  cpu time    0.53: real time    0.53

 eigenvalue-minimisations  :   416
 total energy-change (2. order) :-0.4797766E+03  (-0.4311857E+03)
 number of electron      88.0000000 magnetization       8.0000000
 augmentation part       88.0000000 magnetization       8.0000000

 Free energy of the ion-electron system (eV)
  ---------------------------------------------------
  alpha Z        PSCENC =        10.50946124
  Ewald energy   TEWEN  =      5898.15662270
  -Hartree energ DENC   =    -13831.80090340
  -exchange      EXHF   =         0.00000000
  -V(xc)+E(xc)   XCENC  =       -89.87595944
  PAW double counting   =      8026.97742456    -7658.11687103
  entropy T*S    EENTRO =        -0.00000000
  eigenvalues    EBANDS =      -357.64043915
  atomic energy  EATOM  =      8297.58904069
  ---------------------------------------------------
  free energy    TOTEN  =       295.79837616 eV

  energy without entropy =      295.79837616  energy(sigma->0) =      295.79837616


--------------------------------------------------------------------------------------------------------




----------------------------------------- Iteration    1(   3)  ---------------------------------------


     EDDAV:  cpu time    0.44: real time    0.44
       DOS:  cpu time    0.00: real time    0.00
    --------------------------------------------
      LOOP:  cpu time    0.44: real time    0.46

 eigenvalue-minimisations  :   336
 total energy-change (2. order) :-0.2768871E+03  (-0.2627569E+03)
 number of electron      88.0000000 magnetization       8.0000000
 augmentation part       88.0000000 magnetization       8.0000000

 Free energy of the ion-electron system (eV)
  ---------------------------------------------------
  alpha Z        PSCENC =        10.50946124
  Ewald energy   TEWEN  =      5898.15662270
  -Hartree energ DENC   =    -13831.80090340
  -exchange      EXHF   =         0.00000000
  -V(xc)+E(xc)   XCENC  =       -89.87595944
  PAW double counting   =      8026.97742456    -7658.11687103
  entropy T*S    EENTRO =         0.00000000
  eigenvalues    EBANDS =      -634.52756251
  atomic energy  EATOM  =      8297.58904069
  ---------------------------------------------------
  free energy    TOTEN  =        18.91125280 eV

  energy without entropy =       18.91125280  energy(sigma->0) =       18.91125280


--------------------------------------------------------------------------------------------------------




----------------------------------------- Iteration    1(   4)  ---------------------------------------


     EDDAV:  cpu time    0.36: real time    0.36
       DOS:  cpu time    0.00: real time    0.00
    --------------------------------------------
      LOOP:  cpu time    0.36: real time    0.50

 eigenvalue-minimisations  :   256
 total energy-change (2. order) :-0.3100857E+02  (-0.3058237E+02)
 number of electron      88.0000000 magnetization       8.0000000
 augmentation part       88.0000000 magnetization       8.0000000

 Free energy of the ion-electron system (eV)
  ---------------------------------------------------
  alpha Z        PSCENC =        10.50946124
  Ewald energy   TEWEN  =      5898.15662270
  -Hartree energ DENC   =    -13831.80090340
  -exchange      EXHF   =         0.00000000
  -V(xc)+E(xc)   XCENC  =       -89.87595944
  PAW double counting   =      8026.97742456    -7658.11687103
  entropy T*S    EENTRO =         0.00000000
  eigenvalues    EBANDS =      -665.53612845
  atomic energy  EATOM  =      8297.58904069
  ---------------------------------------------------
  free energy    TOTEN  =       -12.09731314 eV

  energy without entropy =      -12.09731314  energy(sigma->0) =      -12.09731314


--------------------------------------------------------------------------------------------------------




----------------------------------------- Iteration    1(   5)  ---------------------------------------


     EDDAV:  cpu time    0.36: real time    0.35
       DOS:  cpu time    0.00: real time    0.00
    CHARGE:  cpu time    0.03: real time    0.03
    MIXING:  cpu time    0.00: real time    0.00
    --------------------------------------------
      LOOP:  cpu time    0.39: real time    0.44

 eigenvalue-minimisations  :   248
 total energy-change (2. order) :-0.5921482E+00  (-0.5914927E+00)
 number of electron      88.0000173 magnetization       6.5087053
 augmentation part       41.7149170 magnetization       6.6621738

 Broyden mixing:
  rms(total) = 0.15902E+01    rms(broyden)= 0.15899E+01
  rms(prec ) = 0.16302E+01
  weight for this iteration     100.00

 Free energy of the ion-electron system (eV)
  ---------------------------------------------------
  alpha Z        PSCENC =        10.50946124
  Ewald energy   TEWEN  =      5898.15662270
  -Hartree energ DENC   =    -13831.80090340
  -exchange      EXHF   =         0.00000000
  -V(xc)+E(xc)   XCENC  =       -89.87595944
  PAW double counting   =      8026.97742456    -7658.11687103
  entropy T*S    EENTRO =         0.00000000
  eigenvalues    EBANDS =      -666.12827668
  atomic energy  EATOM  =      8297.58904069
  ---------------------------------------------------
  free energy    TOTEN  =       -12.68946137 eV

  energy without entropy =      -12.68946137  energy(sigma->0) =      -12.68946137


--------------------------------------------------------------------------------------------------------




----------------------------------------- Iteration    1(   6)  ---------------------------------------


    POTLOK:  cpu time    0.15: real time    0.15
    SETDIJ:  cpu time    0.00: real time    0.01
    EDDIAG:  cpu time    0.06: real time    0.05
  RMM-DIIS:  cpu time    0.29: real time    0.29
    ORTHCH:  cpu time    0.01: real time    0.00
       DOS:  cpu time    0.00: real time    0.00
    CHARGE:  cpu time    0.03: real time    0.03
    MIXING:  cpu time    0.00: real time    0.00
    --------------------------------------------
      LOOP:  cpu time    0.54: real time    0.55

 eigenvalue-minimisations  :   224
 total energy-change (2. order) : 0.1253409E+02  (-0.3314119E+01)
 number of electron      88.0000175 magnetization       5.7214874
 augmentation part       42.3945294 magnetization       3.1923515

 Broyden mixing:
  rms(total) = 0.73532E+00    rms(broyden)= 0.73523E+00
  rms(prec ) = 0.76084E+00
  weight for this iteration     100.00

 eigenvalues of (default mixing * dielectric matrix)
  average eigenvalue GAMMA=   0.8490
  0.8490

 Free energy of the ion-electron system (eV)
  ---------------------------------------------------
  alpha Z        PSCENC =        10.50946124
  Ewald energy   TEWEN  =      5898.15662270
  -Hartree energ DENC   =    -13810.87303573
  -exchange      EXHF   =         0.00000000
  -V(xc)+E(xc)   XCENC  =       -82.38455430
  PAW double counting   =      8291.19544535    -7927.54163161
  entropy T*S    EENTRO =         0.00000000
  eigenvalues    EBANDS =      -676.80671872
  atomic energy  EATOM  =      8297.58904069
  ---------------------------------------------------
  free energy    TOTEN  =        -0.15537039 eV

  energy without entropy =       -0.15537039  energy(sigma->0) =       -0.15537039


--------------------------------------------------------------------------------------------------------




----------------------------------------- Iteration    1(   7)  ---------------------------------------


    POTLOK:  cpu time    0.15: real time    0.15
    SETDIJ:  cpu time    0.00: real time    0.01
    EDDIAG:  cpu time    0.06: real time    0.05
  RMM-DIIS:  cpu time    0.29: real time    0.29
    ORTHCH:  cpu time    0.00: real time    0.00
       DOS:  cpu time    0.00: real time    0.00
    CHARGE:  cpu time    0.03: real time    0.03
    MIXING:  cpu time    0.00: real time    0.00
    --------------------------------------------
      LOOP:  cpu time    0.54: real time    0.55

 eigenvalue-minimisations  :   224
 total energy-change (2. order) :-0.8118061E+00  (-0.1217851E+00)
 number of electron      88.0000176 magnetization       4.6282981
 augmentation part       42.3538431 magnetization       2.2153204

 Broyden mixing:
  rms(total) = 0.39028E+00    rms(broyden)= 0.39027E+00
  rms(prec ) = 0.40003E+00
  weight for this iteration     100.00

 eigenvalues of (default mixing * dielectric matrix)
  average eigenvalue GAMMA=   1.0473
  0.7726  1.3219

 Free energy of the ion-electron system (eV)
  ---------------------------------------------------
  alpha Z        PSCENC =        10.50946124
  Ewald energy   TEWEN  =      5898.15662270
  -Hartree energ DENC   =    -13828.33378766
  -exchange      EXHF   =         0.00000000
  -V(xc)+E(xc)   XCENC  =       -82.70439433
  PAW double counting   =      8470.01581265    -8109.77048728
  entropy T*S    EENTRO =         0.00000000
  eigenvalues    EBANDS =      -656.42944450
  atomic energy  EATOM  =      8297.58904069
  ---------------------------------------------------
  free energy    TOTEN  =        -0.96717649 eV

  energy without entropy =       -0.96717649  energy(sigma->0) =       -0.96717649


--------------------------------------------------------------------------------------------------------




----------------------------------------- Iteration    1(   8)  ---------------------------------------


    POTLOK:  cpu time    0.15: real time    0.15
    SETDIJ:  cpu time    0.00: real time    0.01
    EDDIAG:  cpu time    0.06: real time    0.05
  RMM-DIIS:  cpu time    0.29: real time    0.29
    ORTHCH:  cpu time    0.00: real time    0.00
       DOS:  cpu time    0.00: real time    0.00
    CHARGE:  cpu time    0.03: real time    0.03
    MIXING:  cpu time    0.01: real time    0.00
    --------------------------------------------
      LOOP:  cpu time    0.55: real time    0.55

 eigenvalue-minimisations  :   224
 total energy-change (2. order) :-0.3175536E+01  (-0.1898722E+00)
 number of electron      88.0000176 magnetization       4.0322304
 augmentation part       42.2717870 magnetization       1.7116763

 Broyden mixing:
  rms(total) = 0.17370E+00    rms(broyden)= 0.17369E+00
  rms(prec ) = 0.17892E+00
  weight for this iteration     100.00

 eigenvalues of (default mixing * dielectric matrix)
  average eigenvalue GAMMA=   1.1743
  1.9447  0.9272  0.6511

 Free energy of the ion-electron system (eV)
  ---------------------------------------------------
  alpha Z        PSCENC =        10.50946124
  Ewald energy   TEWEN  =      5898.15662270
  -Hartree energ DENC   =    -13842.17700110
  -exchange      EXHF   =         0.00000000
  -V(xc)+E(xc)   XCENC  =       -84.89877510
  PAW double counting   =      8634.98694384    -8278.11154164
  entropy T*S    EENTRO =         0.00000000
  eigenvalues    EBANDS =      -640.19746337
  atomic energy  EATOM  =      8297.58904069
  ---------------------------------------------------
  free energy    TOTEN  =        -4.14271274 eV

  energy without entropy =       -4.14271274  energy(sigma->0) =       -4.14271274


--------------------------------------------------------------------------------------------------------




----------------------------------------- Iteration    1(   9)  ---------------------------------------


    POTLOK:  cpu time    0.15: real time    0.15
    SETDIJ:  cpu time    0.00: real time    0.01
    EDDIAG:  cpu time    0.06: real time    0.05
  RMM-DIIS:  cpu time    0.29: real time    0.29
    ORTHCH:  cpu time    0.00: real time    0.00
       DOS:  cpu time    0.00: real time    0.00
    CHARGE:  cpu time    0.03: real time    0.03
    MIXING:  cpu time    0.00: real time    0.00
    --------------------------------------------
      LOOP:  cpu time    0.54: real time    0.55

 eigenvalue-minimisations  :   224
 total energy-change (2. order) :-0.2185996E+01  (-0.7050868E-01)
 number of electron      88.0000176 magnetization       3.3825676
 augmentation part       42.2679002 magnetization       1.1192287

 Broyden mixing:
  rms(total) = 0.93436E-01    rms(broyden)= 0.93432E-01
  rms(prec ) = 0.99077E-01
  weight for this iteration     100.00

 eigenvalues of (default mixing * dielectric matrix)
  average eigenvalue GAMMA=   1.2688
  2.1724  0.6345  0.8193  1.4491

 Free energy of the ion-electron system (eV)
  ---------------------------------------------------
  alpha Z        PSCENC =        10.50946124
  Ewald energy   TEWEN  =      5898.15662270
  -Hartree energ DENC   =    -13842.74588512
  -exchange      EXHF   =         0.00000000
  -V(xc)+E(xc)   XCENC  =       -86.64952153
  PAW double counting   =      8672.35702538    -8316.35786692
  entropy T*S    EENTRO =         0.00000000
  eigenvalues    EBANDS =      -639.18758543
  atomic energy  EATOM  =      8297.58904069
  ---------------------------------------------------
  free energy    TOTEN  =        -6.32870899 eV

  energy without entropy =       -6.32870899  energy(sigma->0) =       -6.32870899


--------------------------------------------------------------------------------------------------------




----------------------------------------- Iteration    1(  10)  ---------------------------------------


    POTLOK:  cpu time    0.15: real time    0.15
    SETDIJ:  cpu time    0.00: real time    0.01
    EDDIAG:  cpu time    0.05: real time    0.05
  RMM-DIIS:  cpu time    0.29: real time    0.29
    ORTHCH:  cpu time    0.00: real time    0.00
       DOS:  cpu time    0.00: real time    0.00
    CHARGE:  cpu time    0.03: real time    0.03
    MIXING:  cpu time    0.00: real time    0.00
    --------------------------------------------
      LOOP:  cpu time    0.54: real time    0.55

 eigenvalue-minimisations  :   224
 total energy-change (2. order) :-0.2649346E+01  (-0.9906298E-01)
 number of electron      88.0000176 magnetization       2.9741977
 augmentation part       42.2924171 magnetization       0.7888715

 Broyden mixing:
  rms(total) = 0.58204E-01    rms(broyden)= 0.58196E-01
  rms(prec ) = 0.61760E-01
  weight for this iteration     100.00

 eigenvalues of (default mixing * dielectric matrix)
  average eigenvalue GAMMA=   1.2786
  2.5352  1.5144  0.8525  0.8525  0.6382

 Free energy of the ion-electron system (eV)
  ---------------------------------------------------
  alpha Z        PSCENC =        10.50946124
  Ewald energy   TEWEN  =      5898.15662270
  -Hartree energ DENC   =    -13839.27862464
  -exchange      EXHF   =         0.00000000
  -V(xc)+E(xc)   XCENC  =       -88.89042923
  PAW double counting   =      8672.51942646    -8316.80720436
  entropy T*S    EENTRO =         0.00000000
  eigenvalues    EBANDS =      -642.77634800
  atomic energy  EATOM  =      8297.58904069
  ---------------------------------------------------
  free energy    TOTEN  =        -8.97805515 eV

  energy without entropy =       -8.97805515  energy(sigma->0) =       -8.97805515


--------------------------------------------------------------------------------------------------------




----------------------------------------- Iteration    1(  11)  ---------------------------------------


    POTLOK:  cpu time    0.15: real time    0.15
    SETDIJ:  cpu time    0.00: real time    0.01
    EDDIAG:  cpu time    0.06: real time    0.05
  RMM-DIIS:  cpu time    0.29: real time    0.29
    ORTHCH:  cpu time    0.00: real time    0.00
       DOS:  cpu time    0.00: real time    0.00
    CHARGE:  cpu time    0.03: real time    0.03
    MIXING:  cpu time    0.00: real time    0.00
    --------------------------------------------
      LOOP:  cpu time    0.55: real time    0.57

 eigenvalue-minimisations  :   224
 total energy-change (2. order) :-0.1391278E+01  (-0.3465875E-01)
 number of electron      88.0000177 magnetization       2.9841486
 augmentation part       42.3050352 magnetization       2.8321682

 Broyden mixing:
  rms(total) = 0.21992E+00    rms(broyden)= 0.21979E+00
  rms(prec ) = 0.25121E+00
  weight for this iteration     100.00

 eigenvalues of (default mixing * dielectric matrix)
  average eigenvalue GAMMA=   1.0703
  2.5485  1.5121  0.6378  0.8531  0.8531  0.0172

 Free energy of the ion-electron system (eV)
  ---------------------------------------------------
  alpha Z        PSCENC =        10.50946124
  Ewald energy   TEWEN  =      5898.15662270
  -Hartree energ DENC   =    -13837.48133133
  -exchange      EXHF   =         0.00000000
  -V(xc)+E(xc)   XCENC  =       -90.04078453
  PAW double counting   =      8664.82626000    -8309.19188824
  entropy T*S    EENTRO =         0.00000000
  eigenvalues    EBANDS =      -644.73671351
  atomic energy  EATOM  =      8297.58904069
  ---------------------------------------------------
  free energy    TOTEN  =       -10.36933298 eV

  energy without entropy =      -10.36933298  energy(sigma->0) =      -10.36933298


--------------------------------------------------------------------------------------------------------




----------------------------------------- Iteration    1(  12)  ---------------------------------------


    POTLOK:  cpu time    0.15: real time    0.15
    SETDIJ:  cpu time    0.00: real time    0.01
    EDDIAG:  cpu time    0.06: real time    0.05
  RMM-DIIS:  cpu time    0.29: real time    0.29
    ORTHCH:  cpu time    0.00: real time    0.00
       DOS:  cpu time    0.00: real time    0.00
    CHARGE:  cpu time    0.03: real time    0.03
    MIXING:  cpu time    0.00: real time    0.01
    --------------------------------------------
      LOOP:  cpu time    0.55: real time    0.55

 eigenvalue-minimisations  :   224
 total energy-change (2. order) : 0.1553865E-01  (-0.1169860E-02)
 number of electron      88.0000177 magnetization       2.9604143
 augmentation part       42.3021370 magnetization       2.8135027

 Broyden mixing:
  rms(total) = 0.22025E+00    rms(broyden)= 0.22024E+00
  rms(prec ) = 0.25195E+00
  weight for this iteration     100.00

 eigenvalues of (default mixing * dielectric matrix)
  average eigenvalue GAMMA=   0.9569
  2.5935  1.3603  0.6374  0.8766  0.8480  0.1911  0.1911

 Free energy of the ion-electron system (eV)
  ---------------------------------------------------
  alpha Z        PSCENC =        10.50946124
  Ewald energy   TEWEN  =      5898.15662270
  -Hartree energ DENC   =    -13837.46201316
  -exchange      EXHF   =         0.00000000
  -V(xc)+E(xc)   XCENC  =       -90.02294275
  PAW double counting   =      8664.78366569    -8309.14621503
  entropy T*S    EENTRO =         0.00000000
  eigenvalues    EBANDS =      -644.76141373
  atomic energy  EATOM  =      8297.58904069
  ---------------------------------------------------
  free energy    TOTEN  =       -10.35379434 eV

  energy without entropy =      -10.35379434  energy(sigma->0) =      -10.35379434


--------------------------------------------------------------------------------------------------------




----------------------------------------- Iteration    1(  13)  ---------------------------------------


    POTLOK:  cpu time    0.15: real time    0.15
    SETDIJ:  cpu time    0.01: real time    0.01
    EDDIAG:  cpu time    0.05: real time    0.05
  RMM-DIIS:  cpu time    0.30: real time    0.29
    ORTHCH:  cpu time    0.00: real time    0.00
       DOS:  cpu time    0.00: real time    0.00
    CHARGE:  cpu time    0.03: real time    0.03
    MIXING:  cpu time    0.01: real time    0.01
    --------------------------------------------
      LOOP:  cpu time    0.55: real time    0.55

 eigenvalue-minimisations  :   224
 total energy-change (2. order) : 0.7204960E-01  (-0.5280122E-03)
 number of electron      88.0000177 magnetization       2.8552947
 augmentation part       42.2929879 magnetization       2.7067597

 Broyden mixing:
  rms(total) = 0.21437E+00    rms(broyden)= 0.21437E+00
  rms(prec ) = 0.24619E+00
  weight for this iteration     100.00

 eigenvalues of (default mixing * dielectric matrix)
  average eigenvalue GAMMA=   0.9099
  2.6318  1.3304  0.9163  0.8360  0.6374  0.3746  0.3746  0.1784

 Free energy of the ion-electron system (eV)
  ---------------------------------------------------
  alpha Z        PSCENC =        10.50946124
  Ewald energy   TEWEN  =      5898.15662270
  -Hartree energ DENC   =    -13838.80142763
  -exchange      EXHF   =         0.00000000
  -V(xc)+E(xc)   XCENC  =       -89.95396596
  PAW double counting   =      8672.38891807    -8316.83445909
  entropy T*S    EENTRO =         0.00000000
  eigenvalues    EBANDS =      -643.33593475
  atomic energy  EATOM  =      8297.58904069
  ---------------------------------------------------
  free energy    TOTEN  =       -10.28174473 eV

  energy without entropy =      -10.28174473  energy(sigma->0) =      -10.28174473


--------------------------------------------------------------------------------------------------------




----------------------------------------- Iteration    1(  14)  ---------------------------------------


    POTLOK:  cpu time    0.15: real time    0.15
    SETDIJ:  cpu time    0.01: real time    0.01
    EDDIAG:  cpu time    0.05: real time    0.05
  RMM-DIIS:  cpu time    0.29: real time    0.29
    ORTHCH:  cpu time    0.00: real time    0.00
       DOS:  cpu time    0.00: real time    0.00
    CHARGE:  cpu time    0.03: real time    0.03
    MIXING:  cpu time    0.00: real time    0.01
    --------------------------------------------
      LOOP:  cpu time    0.54: real time    0.57

 eigenvalue-minimisations  :   224
 total energy-change (2. order) : 0.6327328E-01  (-0.2052758E-02)
 number of electron      88.0000177 magnetization       2.2439542
 augmentation part       42.2819684 magnetization       2.0948200

 Broyden mixing:
  rms(total) = 0.20217E+00    rms(broyden)= 0.20217E+00
  rms(prec ) = 0.23277E+00
  weight for this iteration     100.00

 eigenvalues of (default mixing * dielectric matrix)
  average eigenvalue GAMMA=   1.0458
  2.7279  1.5695  0.8642  0.8642  0.9434  0.9434  0.6454  0.5152  0.3394

 Free energy of the ion-electron system (eV)
  ---------------------------------------------------
  alpha Z        PSCENC =        10.50946124
  Ewald energy   TEWEN  =      5898.15662270
  -Hartree energ DENC   =    -13840.96535305
  -exchange      EXHF   =         0.00000000
  -V(xc)+E(xc)   XCENC  =       -89.90745794
  PAW double counting   =      8681.86168011    -8326.40087651
  entropy T*S    EENTRO =         0.00000000
  eigenvalues    EBANDS =      -641.06158870
  atomic energy  EATOM  =      8297.58904069
  ---------------------------------------------------
  free energy    TOTEN  =       -10.21847145 eV

  energy without entropy =      -10.21847145  energy(sigma->0) =      -10.21847145


--------------------------------------------------------------------------------------------------------




----------------------------------------- Iteration    1(  15)  ---------------------------------------


    POTLOK:  cpu time    0.15: real time    0.15
    SETDIJ:  cpu time    0.00: real time    0.01
    EDDIAG:  cpu time    0.06: real time    0.05
  RMM-DIIS:  cpu time    0.29: real time    0.29
    ORTHCH:  cpu time    0.00: real time    0.00
       DOS:  cpu time    0.00: real time    0.00
    CHARGE:  cpu time    0.03: real time    0.03
    MIXING:  cpu time    0.00: real time    0.01
    --------------------------------------------
      LOOP:  cpu time    0.55: real time    1.45

 eigenvalue-minimisations  :   224
 total energy-change (2. order) :-0.2545884E+00  (-0.1144729E-01)
 number of electron      88.0000176 magnetization       1.5704747
 augmentation part       42.2586147 magnetization       1.4435361

 Broyden mixing:
  rms(total) = 0.14956E+00    rms(broyden)= 0.14956E+00
  rms(prec ) = 0.17346E+00
  weight for this iteration     100.00

 eigenvalues of (default mixing * dielectric matrix)
  average eigenvalue GAMMA=   1.1727
  2.9870  2.1734  0.9505  0.9505  1.2156  0.8896  0.8896  0.6391  0.7247  0.3067

 Free energy of the ion-electron system (eV)
  ---------------------------------------------------
  alpha Z        PSCENC =        10.50946124
  Ewald energy   TEWEN  =      5898.15662270
  -Hartree energ DENC   =    -13847.54642480
  -exchange      EXHF   =         0.00000000
  -V(xc)+E(xc)   XCENC  =       -90.09408063
  PAW double counting   =      8698.48857339    -8343.16339117
  entropy T*S    EENTRO =         0.00000000
  eigenvalues    EBANDS =      -634.41286129
  atomic energy  EATOM  =      8297.58904069
  ---------------------------------------------------
  free energy    TOTEN  =       -10.47305987 eV

  energy without entropy =      -10.47305987  energy(sigma->0) =      -10.47305987


--------------------------------------------------------------------------------------------------------




----------------------------------------- Iteration    1(  16)  ---------------------------------------


    POTLOK:  cpu time    0.15: real time    0.15
    SETDIJ:  cpu time    0.00: real time    0.01
    EDDIAG:  cpu time    0.06: real time    0.05
  RMM-DIIS:  cpu time    0.29: real time    0.29
    ORTHCH:  cpu time    0.00: real time    0.00
       DOS:  cpu time    0.00: real time    0.00
    CHARGE:  cpu time    0.03: real time    0.03
    MIXING:  cpu time    0.00: real time    0.01
    --------------------------------------------
      LOOP:  cpu time    0.55: real time    0.57

 eigenvalue-minimisations  :   224
 total energy-change (2. order) :-0.6947596E+00  (-0.2028165E-01)
 number of electron      88.0000176 magnetization       1.2750952
 augmentation part       42.2507522 magnetization       1.1845200

 Broyden mixing:
  rms(total) = 0.10751E+00    rms(broyden)= 0.10750E+00
  rms(prec ) = 0.12638E+00
  weight for this iteration     100.00

 eigenvalues of (default mixing * dielectric matrix)
  average eigenvalue GAMMA=   1.2057
  3.5051  2.2598  1.5521  0.9230  0.9230  0.9188  0.9188  0.7639  0.6407  0.5474
  0.3101

 Free energy of the ion-electron system (eV)
  ---------------------------------------------------
  alpha Z        PSCENC =        10.50946124
  Ewald energy   TEWEN  =      5898.15662270
  -Hartree energ DENC   =    -13850.64816077
  -exchange      EXHF   =         0.00000000
  -V(xc)+E(xc)   XCENC  =       -90.58475076
  PAW double counting   =      8697.87793248    -8342.51408442
  entropy T*S    EENTRO =         0.00000000
  eigenvalues    EBANDS =      -631.55388066
  atomic energy  EATOM  =      8297.58904069
  ---------------------------------------------------
  free energy    TOTEN  =       -11.16781951 eV

  energy without entropy =      -11.16781951  energy(sigma->0) =      -11.16781951


--------------------------------------------------------------------------------------------------------




----------------------------------------- Iteration    1(  17)  ---------------------------------------


    POTLOK:  cpu time    0.15: real time    0.15
    SETDIJ:  cpu time    0.00: real time    0.01
    EDDIAG:  cpu time    0.06: real time    0.05
  RMM-DIIS:  cpu time    0.29: real time    0.29
    ORTHCH:  cpu time    0.00: real time    0.00
       DOS:  cpu time    0.00: real time    0.00
    CHARGE:  cpu time    0.03: real time    0.03
    MIXING:  cpu time    0.00: real time    0.01
    --------------------------------------------
      LOOP:  cpu time    0.55: real time    0.57

 eigenvalue-minimisations  :   224
 total energy-change (2. order) :-0.2634220E+00  (-0.6050494E-02)
 number of electron      88.0000176 magnetization       0.7672404
 augmentation part       42.2472856 magnetization       0.6928495

 Broyden mixing:
  rms(total) = 0.97961E-01    rms(broyden)= 0.97960E-01
  rms(prec ) = 0.11302E+00
  weight for this iteration     100.00

 eigenvalues of (default mixing * dielectric matrix)
  average eigenvalue GAMMA=   1.3922
  4.5611  2.4184  2.4184  0.9228  0.9228  1.2114  0.9685  0.9685  0.7519  0.6269
  0.6269  0.3090

 Free energy of the ion-electron system (eV)
  ---------------------------------------------------
  alpha Z        PSCENC =        10.50946124
  Ewald energy   TEWEN  =      5898.15662270
  -Hartree energ DENC   =    -13851.24672250
  -exchange      EXHF   =         0.00000000
  -V(xc)+E(xc)   XCENC  =       -90.78113336
  PAW double counting   =      8697.75928691    -8342.36601407
  entropy T*S    EENTRO =         0.00000000
  eigenvalues    EBANDS =      -631.05178311
  atomic energy  EATOM  =      8297.58904069
  ---------------------------------------------------
  free energy    TOTEN  =       -11.43124151 eV

  energy without entropy =      -11.43124151  energy(sigma->0) =      -11.43124151


--------------------------------------------------------------------------------------------------------




----------------------------------------- Iteration    1(  18)  ---------------------------------------


    POTLOK:  cpu time    0.15: real time    0.15
    SETDIJ:  cpu time    0.00: real time    0.01
    EDDIAG:  cpu time    0.06: real time    0.05
  RMM-DIIS:  cpu time    0.29: real time    0.29
    ORTHCH:  cpu time    0.00: real time    0.00
       DOS:  cpu time    0.00: real time    0.00
    CHARGE:  cpu time    0.03: real time    0.03
    MIXING:  cpu time    0.01: real time    0.01
    --------------------------------------------
      LOOP:  cpu time    0.55: real time    0.57

 eigenvalue-minimisations  :   224
 total energy-change (2. order) :-0.4863759E+00  (-0.2894577E-01)
 number of electron      88.0000176 magnetization       0.5350828
 augmentation part       42.2681740 magnetization       0.4905790

 Broyden mixing:
  rms(total) = 0.65710E-01    rms(broyden)= 0.65707E-01
  rms(prec ) = 0.74781E-01
  weight for this iteration     100.00

 eigenvalues of (default mixing * dielectric matrix)
  average eigenvalue GAMMA=   1.4791
  5.3230  2.8896  2.8896  0.9230  0.9230  1.3251  0.9701  0.9701  0.8268  0.6306
  0.6241  0.6241  0.3090

 Free energy of the ion-electron system (eV)
  ---------------------------------------------------
  alpha Z        PSCENC =        10.50946124
  Ewald energy   TEWEN  =      5898.15662270
  -Hartree energ DENC   =    -13846.35756498
  -exchange      EXHF   =         0.00000000
  -V(xc)+E(xc)   XCENC  =       -91.23015065
  PAW double counting   =      8679.14506999    -8323.49479222
  entropy T*S    EENTRO =         0.00000000
  eigenvalues    EBANDS =      -636.23530416
  atomic energy  EATOM  =      8297.58904069
  ---------------------------------------------------
  free energy    TOTEN  =       -11.91761739 eV

  energy without entropy =      -11.91761739  energy(sigma->0) =      -11.91761739


--------------------------------------------------------------------------------------------------------




----------------------------------------- Iteration    1(  19)  ---------------------------------------


    POTLOK:  cpu time    0.15: real time    0.15
    SETDIJ:  cpu time    0.00: real time    0.01
    EDDIAG:  cpu time    0.06: real time    0.05
  RMM-DIIS:  cpu time    0.30: real time    0.29
    ORTHCH:  cpu time    0.00: real time    0.00
       DOS:  cpu time    0.00: real time    0.00
    CHARGE:  cpu time    0.03: real time    0.03
    MIXING:  cpu time    0.01: real time    0.01
    --------------------------------------------
      LOOP:  cpu time    0.55: real time    0.57

 eigenvalue-minimisations  :   224
 total energy-change (2. order) :-0.2725769E+00  (-0.8194862E-02)
 number of electron      88.0000176 magnetization       0.3160434
 augmentation part       42.2892202 magnetization       0.2889000

 Broyden mixing:
  rms(total) = 0.40783E-01    rms(broyden)= 0.40778E-01
  rms(prec ) = 0.46775E-01
  weight for this iteration     100.00

 eigenvalues of (default mixing * dielectric matrix)
  average eigenvalue GAMMA=   1.4972
  5.7195  2.9747  2.9747  0.9224  0.9224  1.2014  1.2014  1.1768  0.8558  0.7286
  0.7286  0.6230  0.6230  0.3090

 Free energy of the ion-electron system (eV)
  ---------------------------------------------------
  alpha Z        PSCENC =        10.50946124
  Ewald energy   TEWEN  =      5898.15662270
  -Hartree energ DENC   =    -13841.53644896
  -exchange      EXHF   =         0.00000000
  -V(xc)+E(xc)   XCENC  =       -91.56213938
  PAW double counting   =      8661.70092690    -8305.86183495
  entropy T*S    EENTRO =         0.00000000
  eigenvalues    EBANDS =      -641.18582257
  atomic energy  EATOM  =      8297.58904069
  ---------------------------------------------------
  free energy    TOTEN  =       -12.19019433 eV

  energy without entropy =      -12.19019433  energy(sigma->0) =      -12.19019433


--------------------------------------------------------------------------------------------------------




----------------------------------------- Iteration    1(  20)  ---------------------------------------


    POTLOK:  cpu time    0.16: real time    0.15
    SETDIJ:  cpu time    0.00: real time    0.01
    EDDIAG:  cpu time    0.06: real time    0.05
  RMM-DIIS:  cpu time    0.29: real time    0.29
    ORTHCH:  cpu time    0.00: real time    0.00
       DOS:  cpu time    0.00: real time    0.00
    CHARGE:  cpu time    0.03: real time    0.03
    MIXING:  cpu time    0.00: real time    0.01
    --------------------------------------------
      LOOP:  cpu time    0.55: real time    0.55

 eigenvalue-minimisations  :   224
 total energy-change (2. order) :-0.2192479E+00  (-0.3750358E-02)
 number of electron      88.0000176 magnetization       0.1247269
 augmentation part       42.3021766 magnetization       0.1107333

 Broyden mixing:
  rms(total) = 0.19651E-01    rms(broyden)= 0.19646E-01
  rms(prec ) = 0.24022E-01
  weight for this iteration     100.00

 eigenvalues of (default mixing * dielectric matrix)
  average eigenvalue GAMMA=   1.5828
  6.5350  3.4325  2.4339  1.8004  1.8004  0.9219  0.9219  1.0542  0.9424  0.9424
  0.3090  0.7632  0.6227  0.6227  0.6387

 Free energy of the ion-electron system (eV)
  ---------------------------------------------------
  alpha Z        PSCENC =        10.50946124
  Ewald energy   TEWEN  =      5898.15662270
  -Hartree energ DENC   =    -13838.16037989
  -exchange      EXHF   =         0.00000000
  -V(xc)+E(xc)   XCENC  =       -91.83227665
  PAW double counting   =      8646.86477905    -8290.88820407
  entropy T*S    EENTRO =         0.00000000
  eigenvalues    EBANDS =      -644.64848531
  atomic energy  EATOM  =      8297.58904069
  ---------------------------------------------------
  free energy    TOTEN  =       -12.40944223 eV

  energy without entropy =      -12.40944223  energy(sigma->0) =      -12.40944223


--------------------------------------------------------------------------------------------------------




----------------------------------------- Iteration    1(  21)  ---------------------------------------


    POTLOK:  cpu time    0.15: real time    0.15
    SETDIJ:  cpu time    0.00: real time    0.01
    EDDIAG:  cpu time    0.06: real time    0.05
  RMM-DIIS:  cpu time    0.29: real time    0.29
    ORTHCH:  cpu time    0.00: real time    0.00
       DOS:  cpu time    0.00: real time    0.00
    CHARGE:  cpu time    0.03: real time    0.03
    MIXING:  cpu time    0.01: real time    0.01
    --------------------------------------------
      LOOP:  cpu time    0.55: real time    0.60

 eigenvalue-minimisations  :   224
 total energy-change (2. order) :-0.1200921E+00  (-0.2104482E-02)
 number of electron      88.0000176 magnetization       0.1032580
 augmentation part       42.3116434 magnetization       0.0989603

 Broyden mixing:
  rms(total) = 0.58633E-02    rms(broyden)= 0.58533E-02
  rms(prec ) = 0.91828E-02
  weight for this iteration     100.00

 eigenvalues of (default mixing * dielectric matrix)
  average eigenvalue GAMMA=   1.5792
  6.2874  3.7182  2.8319  1.9867  0.9219  0.9219  1.3920  1.3920  1.1167  0.3090
  0.8881  0.8881  0.7211  0.6471  0.6228  0.6228

 Free energy of the ion-electron system (eV)
  ---------------------------------------------------
  alpha Z        PSCENC =        10.50946124
  Ewald energy   TEWEN  =      5898.15662270
  -Hartree energ DENC   =    -13835.07021424
  -exchange      EXHF   =         0.00000000
  -V(xc)+E(xc)   XCENC  =       -92.00217534
  PAW double counting   =      8635.29100060    -8279.21589602
  entropy T*S    EENTRO =         0.00000000
  eigenvalues    EBANDS =      -647.78737398
  atomic energy  EATOM  =      8297.58904069
  ---------------------------------------------------
  free energy    TOTEN  =       -12.52953435 eV

  energy without entropy =      -12.52953435  energy(sigma->0) =      -12.52953435


--------------------------------------------------------------------------------------------------------




----------------------------------------- Iteration    1(  22)  ---------------------------------------


    POTLOK:  cpu time    0.15: real time    0.15
    SETDIJ:  cpu time    0.01: real time    0.01
    EDDIAG:  cpu time    0.05: real time    0.05
  RMM-DIIS:  cpu time    0.26: real time    0.26
    ORTHCH:  cpu time    0.00: real time    0.00
       DOS:  cpu time    0.00: real time    0.00
    CHARGE:  cpu time    0.03: real time    0.03
    MIXING:  cpu time    0.00: real time    0.01
    --------------------------------------------
      LOOP:  cpu time    0.52: real time    0.52

 eigenvalue-minimisations  :   213
 total energy-change (2. order) :-0.3263664E-01  (-0.5278968E-03)
 number of electron      88.0000176 magnetization       0.0866229
 augmentation part       42.3151214 magnetization       0.0828554

 Broyden mixing:
  rms(total) = 0.61566E-02    rms(broyden)= 0.61542E-02
  rms(prec ) = 0.83103E-02
  weight for this iteration     100.00

 eigenvalues of (default mixing * dielectric matrix)
  average eigenvalue GAMMA=   1.6139
  5.3536  5.3536  3.0407  2.1383  0.9220  0.9220  1.5374  1.5374  0.3090  0.9802
  0.9802  0.9148  0.7991  0.7690  0.6166  0.6166  0.6450

 Free energy of the ion-electron system (eV)
  ---------------------------------------------------
  alpha Z        PSCENC =        10.50946124
  Ewald energy   TEWEN  =      5898.15662270
  -Hartree energ DENC   =    -13833.52832018
  -exchange      EXHF   =         0.00000000
  -V(xc)+E(xc)   XCENC  =       -92.05272104
  PAW double counting   =      8633.14796650    -8277.07621643
  entropy T*S    EENTRO =         0.00000000
  eigenvalues    EBANDS =      -649.30800448
  atomic energy  EATOM  =      8297.58904069
  ---------------------------------------------------
  free energy    TOTEN  =       -12.56217099 eV

  energy without entropy =      -12.56217099  energy(sigma->0) =      -12.56217099


--------------------------------------------------------------------------------------------------------




----------------------------------------- Iteration    1(  23)  ---------------------------------------


    POTLOK:  cpu time    0.15: real time    0.15
    SETDIJ:  cpu time    0.00: real time    0.01
    EDDIAG:  cpu time    0.06: real time    0.05
  RMM-DIIS:  cpu time    0.23: real time    0.23
    ORTHCH:  cpu time    0.00: real time    0.01
       DOS:  cpu time    0.00: real time    0.00
    CHARGE:  cpu time    0.03: real time    0.03
    MIXING:  cpu time    0.01: real time    0.01
    --------------------------------------------
      LOOP:  cpu time    0.48: real time    0.52

 eigenvalue-minimisations  :   176
 total energy-change (2. order) :-0.1564777E-01  (-0.2580727E-03)
 number of electron      88.0000176 magnetization       0.0496691
 augmentation part       42.3159542 magnetization       0.0456843

 Broyden mixing:
  rms(total) = 0.78026E-02    rms(broyden)= 0.78019E-02
  rms(prec ) = 0.92452E-02
  weight for this iteration     100.00

 eigenvalues of (default mixing * dielectric matrix)
  average eigenvalue GAMMA=   1.6616
  5.5730  5.5730  3.5943  2.3930  1.6546  1.6546  0.9220  0.9220  1.0946  1.0946
  0.3090  0.8800  0.8800  0.7489  0.7489  0.6139  0.6139  0.6383

 Free energy of the ion-electron system (eV)
  ---------------------------------------------------
  alpha Z        PSCENC =        10.50946124
  Ewald energy   TEWEN  =      5898.15662270
  -Hartree energ DENC   =    -13832.32959108
  -exchange      EXHF   =         0.00000000
  -V(xc)+E(xc)   XCENC  =       -92.08005089
  PAW double counting   =      8633.30428924    -8277.23196756
  entropy T*S    EENTRO =         0.00000000
  eigenvalues    EBANDS =      -650.49562310
  atomic energy  EATOM  =      8297.58904069
  ---------------------------------------------------
  free energy    TOTEN  =       -12.57781877 eV

  energy without entropy =      -12.57781877  energy(sigma->0) =      -12.57781877


--------------------------------------------------------------------------------------------------------




----------------------------------------- Iteration    1(  24)  ---------------------------------------


    POTLOK:  cpu time    0.15: real time    0.15
    SETDIJ:  cpu time    0.01: real time    0.01
    EDDIAG:  cpu time    0.05: real time    0.05
  RMM-DIIS:  cpu time    0.19: real time    0.19
    ORTHCH:  cpu time    0.00: real time    0.00
       DOS:  cpu time    0.00: real time    0.00
    CHARGE:  cpu time    0.03: real time    0.03
    MIXING:  cpu time    0.01: real time    0.01
    --------------------------------------------
      LOOP:  cpu time    0.44: real time    0.49

 eigenvalue-minimisations  :   143
 total energy-change (2. order) :-0.6159801E-02  (-0.7139426E-04)
 number of electron      88.0000176 magnetization       0.0255002
 augmentation part       42.3158642 magnetization       0.0225518

 Broyden mixing:
  rms(total) = 0.52891E-02    rms(broyden)= 0.52890E-02
  rms(prec ) = 0.64507E-02
  weight for this iteration     100.00

 eigenvalues of (default mixing * dielectric matrix)
  average eigenvalue GAMMA=   1.6759
  5.7309  5.7309  3.9757  2.4482  1.6904  1.6904  0.9220  0.9220  1.2091  1.2091
  0.3090  0.9894  0.8544  0.8544  0.7561  0.6797  0.6378  0.6159  0.6159

 Free energy of the ion-electron system (eV)
  ---------------------------------------------------
  alpha Z        PSCENC =        10.50946124
  Ewald energy   TEWEN  =      5898.15662270
  -Hartree energ DENC   =    -13832.05240860
  -exchange      EXHF   =         0.00000000
  -V(xc)+E(xc)   XCENC  =       -92.08685691
  PAW double counting   =      8634.48055877    -8278.40596069
  entropy T*S    EENTRO =         0.00000000
  eigenvalues    EBANDS =      -650.77443576
  atomic energy  EATOM  =      8297.58904069
  ---------------------------------------------------
  free energy    TOTEN  =       -12.58397857 eV

  energy without entropy =      -12.58397857  energy(sigma->0) =      -12.58397857


--------------------------------------------------------------------------------------------------------




----------------------------------------- Iteration    1(  25)  ---------------------------------------


    POTLOK:  cpu time    0.15: real time    0.15
    SETDIJ:  cpu time    0.00: real time    0.01
    EDDIAG:  cpu time    0.06: real time    0.05
  RMM-DIIS:  cpu time    0.18: real time    0.18
    ORTHCH:  cpu time    0.00: real time    0.00
       DOS:  cpu time    0.00: real time    0.00
    CHARGE:  cpu time    0.03: real time    0.03
    MIXING:  cpu time    0.01: real time    0.01
    --------------------------------------------
      LOOP:  cpu time    0.44: real time    0.45

 eigenvalue-minimisations  :   142
 total energy-change (2. order) :-0.1705350E-02  (-0.3281798E-04)
 number of electron      88.0000176 magnetization       0.0037337
 augmentation part       42.3148361 magnetization       0.0018749

 Broyden mixing:
  rms(total) = 0.30578E-02    rms(broyden)= 0.30576E-02
  rms(prec ) = 0.38953E-02
  weight for this iteration     100.00

 eigenvalues of (default mixing * dielectric matrix)
  average eigenvalue GAMMA=   1.6768
  5.6684  5.6684  4.3201  2.5822  1.9427  0.9220  0.9220  1.5732  1.5732  1.1736
  0.9924  0.9924  0.3090  0.8202  0.8202  0.7177  0.6096  0.6096  0.6800  0.6389

 Free energy of the ion-electron system (eV)
  ---------------------------------------------------
  alpha Z        PSCENC =        10.50946124
  Ewald energy   TEWEN  =      5898.15662270
  -Hartree energ DENC   =    -13832.04520831
  -exchange      EXHF   =         0.00000000
  -V(xc)+E(xc)   XCENC  =       -92.08578787
  PAW double counting   =      8635.88239741    -8279.80941631
  entropy T*S    EENTRO =         0.00000000
  eigenvalues    EBANDS =      -650.78279346
  atomic energy  EATOM  =      8297.58904069
  ---------------------------------------------------
  free energy    TOTEN  =       -12.58568392 eV

  energy without entropy =      -12.58568392  energy(sigma->0) =      -12.58568392


--------------------------------------------------------------------------------------------------------




----------------------------------------- Iteration    1(  26)  ---------------------------------------


    POTLOK:  cpu time    0.15: real time    0.15
    SETDIJ:  cpu time    0.01: real time    0.01
    EDDIAG:  cpu time    0.05: real time    0.05
  RMM-DIIS:  cpu time    0.20: real time    0.19
    ORTHCH:  cpu time    0.00: real time    0.00
       DOS:  cpu time    0.00: real time    0.00
    CHARGE:  cpu time    0.03: real time    0.03
    MIXING:  cpu time    0.01: real time    0.01
    --------------------------------------------
      LOOP:  cpu time    0.45: real time    0.48

 eigenvalue-minimisations  :   141
 total energy-change (2. order) :-0.4968204E-03  (-0.2076103E-04)
 number of electron      88.0000176 magnetization      -0.0054291
 augmentation part       42.3151920 magnetization      -0.0062621

 Broyden mixing:
  rms(total) = 0.13267E-02    rms(broyden)= 0.13264E-02
  rms(prec ) = 0.17420E-02
  weight for this iteration     100.00

 eigenvalues of (default mixing * dielectric matrix)
  average eigenvalue GAMMA=   1.6854
  5.5313  5.5313  4.9188  2.6731  2.3567  0.9220  0.9220  1.5892  1.5892  1.2188
  1.0503  1.0503  0.3090  0.8620  0.8274  0.8274  0.6943  0.6108  0.6108  0.6491
  0.6491

 Free energy of the ion-electron system (eV)
  ---------------------------------------------------
  alpha Z        PSCENC =        10.50946124
  Ewald energy   TEWEN  =      5898.15662270
  -Hartree energ DENC   =    -13831.80261693
  -exchange      EXHF   =         0.00000000
  -V(xc)+E(xc)   XCENC  =       -92.08915499
  PAW double counting   =      8635.97440851    -8279.89438775
  entropy T*S    EENTRO =         0.00000000
  eigenvalues    EBANDS =      -651.02955420
  atomic energy  EATOM  =      8297.58904069
  ---------------------------------------------------
  free energy    TOTEN  =       -12.58618074 eV

  energy without entropy =      -12.58618074  energy(sigma->0) =      -12.58618074


--------------------------------------------------------------------------------------------------------




----------------------------------------- Iteration    1(  27)  ---------------------------------------


    POTLOK:  cpu time    0.15: real time    0.15
    SETDIJ:  cpu time    0.00: real time    0.01
    EDDIAG:  cpu time    0.06: real time    0.05
  RMM-DIIS:  cpu time    0.19: real time    0.19
    ORTHCH:  cpu time    0.00: real time    0.00
       DOS:  cpu time    0.00: real time    0.00
    CHARGE:  cpu time    0.03: real time    0.03
    MIXING:  cpu time    0.01: real time    0.01
    --------------------------------------------
      LOOP:  cpu time    0.44: real time    0.45

 eigenvalue-minimisations  :   138
 total energy-change (2. order) :-0.6669224E-03  (-0.8213406E-05)
 number of electron      88.0000176 magnetization      -0.0040783
 augmentation part       42.3154816 magnetization      -0.0041477

 Broyden mixing:
  rms(total) = 0.78067E-03    rms(broyden)= 0.78047E-03
  rms(prec ) = 0.10030E-02
  weight for this iteration     100.00

 eigenvalues of (default mixing * dielectric matrix)
  average eigenvalue GAMMA=   1.7045
  5.8427  5.8427  4.5383  2.9403  2.7284  0.9220  0.9220  1.6840  1.6840  1.3118
  1.1031  1.1031  0.3090  0.9623  0.8356  0.8356  0.7187  0.7187  0.6119  0.6119
  0.6362  0.6362

 Free energy of the ion-electron system (eV)
  ---------------------------------------------------
  alpha Z        PSCENC =        10.50946124
  Ewald energy   TEWEN  =      5898.15662270
  -Hartree energ DENC   =    -13831.70983135
  -exchange      EXHF   =         0.00000000
  -V(xc)+E(xc)   XCENC  =       -92.09070211
  PAW double counting   =      8635.76695885    -8279.68828489
  entropy T*S    EENTRO =         0.00000000
  eigenvalues    EBANDS =      -651.12011279
  atomic energy  EATOM  =      8297.58904069
  ---------------------------------------------------
  free energy    TOTEN  =       -12.58684766 eV

  energy without entropy =      -12.58684766  energy(sigma->0) =      -12.58684766


--------------------------------------------------------------------------------------------------------




----------------------------------------- Iteration    1(  28)  ---------------------------------------


    POTLOK:  cpu time    0.15: real time    0.15
    SETDIJ:  cpu time    0.01: real time    0.01
    EDDIAG:  cpu time    0.06: real time    0.05
  RMM-DIIS:  cpu time    0.16: real time    0.17
    ORTHCH:  cpu time    0.00: real time    0.00
       DOS:  cpu time    0.00: real time    0.00
    CHARGE:  cpu time    0.03: real time    0.03
    MIXING:  cpu time    0.01: real time    0.01
    --------------------------------------------
      LOOP:  cpu time    0.42: real time    0.45

 eigenvalue-minimisations  :   102
 total energy-change (2. order) :-0.5154764E-03  (-0.4722411E-05)
 number of electron      88.0000176 magnetization      -0.0005023
 augmentation part       42.3157476 magnetization      -0.0004105

 Broyden mixing:
  rms(total) = 0.38520E-03    rms(broyden)= 0.38507E-03
  rms(prec ) = 0.54772E-03
  weight for this iteration     100.00

 eigenvalues of (default mixing * dielectric matrix)
  average eigenvalue GAMMA=   1.7485
  6.2745  6.2745  4.0059  4.0059  2.7648  0.9220  0.9220  1.7205  1.7205  1.5507
  0.3090  1.1217  1.1217  1.0821  0.8530  0.8353  0.8353  0.7149  0.7149  0.6111
  0.6111  0.6214  0.6214

 Free energy of the ion-electron system (eV)
  ---------------------------------------------------
  alpha Z        PSCENC =        10.50946124
  Ewald energy   TEWEN  =      5898.15662270
  -Hartree energ DENC   =    -13831.58249165
  -exchange      EXHF   =         0.00000000
  -V(xc)+E(xc)   XCENC  =       -92.09278630
  PAW double counting   =      8635.20330037    -8279.12498576
  entropy T*S    EENTRO =         0.00000000
  eigenvalues    EBANDS =      -651.24552442
  atomic energy  EATOM  =      8297.58904069
  ---------------------------------------------------
  free energy    TOTEN  =       -12.58736314 eV

  energy without entropy =      -12.58736314  energy(sigma->0) =      -12.58736314


--------------------------------------------------------------------------------------------------------




----------------------------------------- Iteration    1(  29)  ---------------------------------------


    POTLOK:  cpu time    0.15: real time    0.15
    SETDIJ:  cpu time    0.00: real time    0.01
    EDDIAG:  cpu time    0.06: real time    0.05
  RMM-DIIS:  cpu time    0.14: real time    0.14
    ORTHCH:  cpu time    0.01: real time    0.01
       DOS:  cpu time    0.00: real time    0.00
    CHARGE:  cpu time    0.03: real time    0.03
    MIXING:  cpu time    0.01: real time    0.01
    --------------------------------------------
      LOOP:  cpu time    0.40: real time    0.40

 eigenvalue-minimisations  :    57
 total energy-change (2. order) :-0.1483814E-03  (-0.1451141E-05)
 number of electron      88.0000176 magnetization      -0.0000542
 augmentation part       42.3157528 magnetization       0.0000234

 Broyden mixing:
  rms(total) = 0.21144E-03    rms(broyden)= 0.21142E-03
  rms(prec ) = 0.30960E-03
  weight for this iteration     100.00

 eigenvalues of (default mixing * dielectric matrix)
  average eigenvalue GAMMA=   1.7815
  6.6908  6.6908  4.2328  4.2328  2.8523  0.9220  0.9220  1.6968  1.6968  1.7239
  1.2663  1.2663  0.3090  0.9811  0.9811  0.8081  0.8081  0.8082  0.6935  0.6935
  0.6088  0.6088  0.6307  0.6307

 Free energy of the ion-electron system (eV)
  ---------------------------------------------------
  alpha Z        PSCENC =        10.50946124
  Ewald energy   TEWEN  =      5898.15662270
  -Hartree energ DENC   =    -13831.58204505
  -exchange      EXHF   =         0.00000000
  -V(xc)+E(xc)   XCENC  =       -92.09242403
  PAW double counting   =      8635.10080048    -8279.02433683
  entropy T*S    EENTRO =         0.00000000
  eigenvalues    EBANDS =      -651.24463073
  atomic energy  EATOM  =      8297.58904069
  ---------------------------------------------------
  free energy    TOTEN  =       -12.58751152 eV

  energy without entropy =      -12.58751152  energy(sigma->0) =      -12.58751152


--------------------------------------------------------------------------------------------------------




----------------------------------------- Iteration    1(  30)  ---------------------------------------


    POTLOK:  cpu time    0.15: real time    0.15
    SETDIJ:  cpu time    0.00: real time    0.01
    EDDIAG:  cpu time    0.06: real time    0.05
  RMM-DIIS:  cpu time    0.14: real time    0.14
    ORTHCH:  cpu time    0.01: real time    0.01
       DOS:  cpu time    0.00: real time    0.00
    --------------------------------------------
      LOOP:  cpu time    0.36: real time    1.33

 eigenvalue-minimisations  :    57
 total energy-change (2. order) :-0.6944424E-04  (-0.2728437E-06)
 number of electron      88.0000176 magnetization      -0.0000542
 augmentation part       42.3157528 magnetization       0.0000234

 Free energy of the ion-electron system (eV)
  ---------------------------------------------------
  alpha Z        PSCENC =        10.50946124
  Ewald energy   TEWEN  =      5898.15662270
  -Hartree energ DENC   =    -13831.56568292
  -exchange      EXHF   =         0.00000000
  -V(xc)+E(xc)   XCENC  =       -92.09264944
  PAW double counting   =      8635.02131193    -8278.94440580
  entropy T*S    EENTRO =         0.00000000
  eigenvalues    EBANDS =      -651.26127937
  atomic energy  EATOM  =      8297.58904069
  ---------------------------------------------------
  free energy    TOTEN  =       -12.58758096 eV

  energy without entropy =      -12.58758096  energy(sigma->0) =      -12.58758096


--------------------------------------------------------------------------------------------------------




 average (electrostatic) potential at core
  the test charge radii are     1.1249
  (the norm of the test charge is              1.0000)
       1 -82.3844       2 -82.1017       3 -82.4953       4 -82.3387       5 -82.3832
       6 -82.2063       7 -82.6201       8 -82.2920
 
 
 
 E-fermi :  -3.6381     XC(G=0):  -0.7694     alpha+bet : -0.3545


 spin component 1

 k-point     1 :       0.0000    0.0000    0.0000
  band No.  band energies     occupation 
      1      -9.3874      1.00000
      2      -9.1807      1.00000
      3      -9.1145      1.00000
      4      -8.8912      1.00000
      5      -8.7207      1.00000
      6      -8.6670      1.00000
      7      -8.5644      1.00000
      8      -8.5244      1.00000
      9      -8.4618      1.00000
     10      -8.2650      1.00000
     11      -8.2428      1.00000
     12      -8.1507      1.00000
     13      -8.0059      1.00000
     14      -7.9249      1.00000
     15      -7.8726      1.00000
     16      -7.7439      1.00000
     17      -7.7100      1.00000
     18      -7.6368      1.00000
     19      -7.6126      1.00000
     20      -7.5229      1.00000
     21      -7.4908      1.00000
     22      -7.4691      1.00000
     23      -7.3188      1.00000
     24      -7.2601      1.00000
     25      -7.2061      1.00000
     26      -7.1473      1.00000
     27      -7.1031      1.00000
     28      -7.0389      1.00000
     29      -7.0123      1.00000
     30      -6.9884      1.00000
     31      -6.9709      1.00000
     32      -6.8958      1.00000
     33      -6.8475      1.00000
     34      -6.8165      1.00000
     35      -6.7365      1.00000
     36      -6.6949      1.00000
     37      -6.6340      1.00000
     38      -6.5787      1.00000
     39      -6.3998      1.00000
     40      -6.3533      1.00000
     41      -6.2878      1.00000
     42      -5.6202      1.00000
     43      -4.9033      1.00000
     44      -3.6567      1.00000
     45      -3.2426      0.00000
     46      -3.0304      0.00000
     47      -2.4805      0.00000
     48      -1.8416      0.00000
     49      -1.2319      0.00000
     50      -1.1087      0.00000
     51      -0.8974      0.00000
     52      -0.8540      0.00000
     53      -0.6473      0.00000
     54      -0.2578      0.00000
     55       0.0129      0.00000
     56       0.2551      0.00000

 spin component 2

 k-point     1 :       0.0000    0.0000    0.0000
  band No.  band energies     occupation 
      1      -9.3874      1.00000
      2      -9.1807      1.00000
      3      -9.1145      1.00000
      4      -8.8912      1.00000
      5      -8.7207      1.00000
      6      -8.6670      1.00000
      7      -8.5644      1.00000
      8      -8.5244      1.00000
      9      -8.4617      1.00000
     10      -8.2650      1.00000
     11      -8.2428      1.00000
     12      -8.1507      1.00000
     13      -8.0058      1.00000
     14      -7.9248      1.00000
     15      -7.8725      1.00000
     16      -7.7439      1.00000
     17      -7.7100      1.00000
     18      -7.6368      1.00000
     19      -7.6126      1.00000
     20      -7.5229      1.00000
     21      -7.4908      1.00000
     22      -7.4690      1.00000
     23      -7.3188      1.00000
     24      -7.2601      1.00000
     25      -7.2060      1.00000
     26      -7.1473      1.00000
     27      -7.1031      1.00000
     28      -7.0389      1.00000
     29      -7.0123      1.00000
     30      -6.9883      1.00000
     31      -6.9709      1.00000
     32      -6.8957      1.00000
     33      -6.8474      1.00000
     34      -6.8165      1.00000
     35      -6.7365      1.00000
     36      -6.6949      1.00000
     37      -6.6340      1.00000
     38      -6.5787      1.00000
     39      -6.3998      1.00000
     40      -6.3533      1.00000
     41      -6.2878      1.00000
     42      -5.6203      1.00000
     43      -4.9033      1.00000
     44      -3.6567      1.00000
     45      -3.2427      0.00000
     46      -3.0304      0.00000
     47      -2.4804      0.00000
     48      -1.8418      0.00000
     49      -1.2320      0.00000
     50      -1.1087      0.00000
     51      -0.8977      0.00000
[...]
 number of electron      88.0000027 magnetization      -0.0000000
 augmentation part       42.3817338 magnetization      -0.0000000

 Free energy of the ion-electron system (eV)
  ---------------------------------------------------
  alpha Z        PSCENC =        10.50946124
  Ewald energy   TEWEN  =      5817.07626470
  -Hartree energ DENC   =    -13765.18024848
  -exchange      EXHF   =         0.00000000
  -V(xc)+E(xc)   XCENC  =       -92.55836416
  PAW double counting   =      8529.39621741    -8171.50986080
  entropy T*S    EENTRO =         0.00000000
  eigenvalues    EBANDS =      -638.91247728
  atomic energy  EATOM  =      8297.58904069
  ---------------------------------------------------
  free energy    TOTEN  =       -13.58996668 eV

  energy without entropy =      -13.58996668  energy(sigma->0) =      -13.58996668


--------------------------------------------------------------------------------------------------------




 average (electrostatic) potential at core
  the test charge radii are     1.1249
  (the norm of the test charge is              1.0000)
       1 -82.3469       2 -82.0288       3 -82.3132       4 -82.1215       5 -82.3257
       6 -82.0803       7 -82.3720       8 -82.1432
 
 
 
 E-fermi :  -3.9864     XC(G=0):  -0.7742     alpha+bet : -0.3545


 spin component 1

 k-point     1 :       0.0000    0.0000    0.0000
  band No.  band energies     occupation 
      1      -9.0283      1.00000
      2      -8.9514      1.00000
      3      -8.7824      1.00000
      4      -8.7280      1.00000
      5      -8.5281      1.00000
      6      -8.3888      1.00000
      7      -8.3277      1.00000
      8      -8.2494      1.00000
      9      -8.1423      1.00000
     10      -8.0697      1.00000
     11      -8.0403      1.00000
     12      -7.8712      1.00000
     13      -7.8498      1.00000
     14      -7.7727      1.00000
     15      -7.5834      1.00000
     16      -7.5696      1.00000
     17      -7.4935      1.00000
     18      -7.4369      1.00000
     19      -7.4135      1.00000
     20      -7.3171      1.00000
     21      -7.2867      1.00000
     22      -7.2460      1.00000
     23      -7.1547      1.00000
     24      -7.1219      1.00000
     25      -7.0797      1.00000
     26      -7.0576      1.00000
     27      -7.0176      1.00000
     28      -6.9905      1.00000
     29      -6.9338      1.00000
     30      -6.9025      1.00000
     31      -6.8411      1.00000
     32      -6.8119      1.00000
     33      -6.7661      1.00000
     34      -6.7118      1.00000
     35      -6.6599      1.00000
     36      -6.6383      1.00000
     37      -6.6077      1.00000
     38      -6.5584      1.00000
     39      -6.5008      1.00000
     40      -6.4175      1.00000
     41      -6.4020      1.00000
     42      -5.2807      1.00000
     43      -4.9162      1.00000
     44      -4.0089      1.00000
     45      -2.8154      0.00000
     46      -2.6199      0.00000
     47      -2.4627      0.00000
     48      -2.3303      0.00000
     49      -1.2545      0.00000
     50      -1.1879      0.00000
     51      -0.8154      0.00000
     52      -0.7749      0.00000
     53      -0.3479      0.00000
     54      -0.1782      0.00000
     55      -0.0623      0.00000
     56       0.2244      0.00000

 spin component 2

 k-point     1 :       0.0000    0.0000    0.0000
  band No.  band energies     occupation 
      1      -9.0283      1.00000
      2      -8.9514      1.00000
      3      -8.7824      1.00000
      4      -8.7280      1.00000
      5      -8.5281      1.00000
      6      -8.3888      1.00000
      7      -8.3277      1.00000
      8      -8.2494      1.00000
      9      -8.1423      1.00000
     10      -8.0697      1.00000
     11      -8.0403      1.00000
     12      -7.8712      1.00000
     13      -7.8498      1.00000
     14      -7.7727      1.00000
     15      -7.5834      1.00000
     16      -7.5696      1.00000
     17      -7.4935      1.00000
     18      -7.4369      1.00000
     19      -7.4135      1.00000
     20      -7.3171      1.00000
     21      -7.2867      1.00000
     22      -7.2460      1.00000
     23      -7.1547      1.00000
     24      -7.1219      1.00000
     25      -7.0797      1.00000
     26      -7.0576      1.00000
     27      -7.0176      1.00000
     28      -6.9905      1.00000
     29      -6.9338      1.00000
     30      -6.9025      1.00000
     31      -6.8411      1.00000
     32      -6.8119      1.00000
     33      -6.7661      1.00000
     34      -6.7118      1.00000
     35      -6.6599      1.00000
     36      -6.6383      1.00000
     37      -6.6077      1.00000
     38      -6.5584      1.00000
     39      -6.5008      1.00000
     40      -6.4175      1.00000
     41      -6.4020      1.00000
     42      -5.2807      1.00000
     43      -4.9162      1.00000
     44      -4.0089      1.00000
     45      -2.8154      0.00000
     46      -2.6199      0.00000
     47      -2.4627      0.00000
     48      -2.3303      0.00000
     49      -1.2545      0.00000
     50      -1.1879      0.00000
     51      -0.8154      0.00000
     52      -0.7749      0.00000
     53      -0.3479      0.00000
     54      -0.1782      0.00000
     55      -0.0623      0.00000
     56       0.2244      0.00000


--------------------------------------------------------------------------------------------------------


 soft charge-density along one line, spin component           1
         0         1         2         3         4         5         6         7         8         9
 total charge-density along one line
 
 soft charge-density along one line, spin component           2
         0         1         2         3         4         5         6         7         8         9
 total charge-density along one line
 
 pseudopotential strength for first ion, spin component:           1
-10.390  -0.007  -0.011  -0.007   0.001 -10.361  -0.007  -0.011
 -0.007 -10.390  -0.004   0.009   0.010  -0.007 -10.362  -0.004
 -0.011  -0.004 -10.398  -0.002   0.006  -0.011  -0.004 -10.369
 -0.007   0.009  -0.002 -10.396  -0.012  -0.007   0.009  -0.002
  0.001   0.010   0.006  -0.012 -10.392   0.001   0.009   0.006
-10.361  -0.007  -0.011  -0.007   0.001 -10.308  -0.006  -0.010
 -0.007 -10.362  -0.004   0.009   0.009  -0.006 -10.309  -0.004
 -0.011  -0.004 -10.369  -0.002   0.006  -0.010  -0.004 -10.316
 -0.007   0.009  -0.002 -10.367  -0.012  -0.006   0.009  -0.002
  0.001   0.009   0.006  -0.012 -10.364   0.001   0.009   0.006
 -0.005   0.001  -0.000   0.008   0.005  -0.005   0.001  -0.000
 -0.008   0.002  -0.000   0.012   0.008  -0.008   0.002  -0.000
  0.004  -0.010   0.010   0.000   0.017   0.004  -0.010   0.010
  0.000  -0.017  -0.013   0.005  -0.000   0.000  -0.016  -0.012
 -0.017   0.000  -0.002  -0.011   0.005  -0.017   0.000  -0.002
  0.005  -0.013   0.012   0.000   0.021   0.005  -0.013   0.012
  0.000  -0.021  -0.015   0.006  -0.000   0.000  -0.020  -0.015
 -0.022   0.000  -0.003  -0.014   0.006  -0.020   0.000  -0.003
 pseudopotential strength for first ion, spin component:           2
-10.390  -0.007  -0.011  -0.007   0.001 -10.361  -0.007  -0.011
 -0.007 -10.390  -0.004   0.009   0.010  -0.007 -10.362  -0.004
 -0.011  -0.004 -10.398  -0.002   0.006  -0.011  -0.004 -10.369
 -0.007   0.009  -0.002 -10.396  -0.012  -0.007   0.009  -0.002
  0.001   0.010   0.006  -0.012 -10.392   0.001   0.009   0.006
-10.361  -0.007  -0.011  -0.007   0.001 -10.308  -0.006  -0.010
 -0.007 -10.362  -0.004   0.009   0.009  -0.006 -10.309  -0.004
 -0.011  -0.004 -10.369  -0.002   0.006  -0.010  -0.004 -10.316
 -0.007   0.009  -0.002 -10.367  -0.012  -0.006   0.009  -0.002
  0.001   0.009   0.006  -0.012 -10.364   0.001   0.009   0.006
 -0.005   0.001  -0.000   0.008   0.005  -0.005   0.001  -0.000
 -0.008   0.002  -0.000   0.012   0.008  -0.008   0.002  -0.000
  0.004  -0.010   0.010   0.000   0.017   0.004  -0.010   0.010
  0.000  -0.017  -0.013   0.005  -0.000   0.000  -0.016  -0.012
 -0.017   0.000  -0.002  -0.011   0.005  -0.017   0.000  -0.002
  0.005  -0.013   0.012   0.000   0.021   0.005  -0.013   0.012
  0.000  -0.021  -0.015   0.006  -0.000   0.000  -0.020  -0.015
 -0.022   0.000  -0.003  -0.014   0.006  -0.020   0.000  -0.003
 total augmentation occupancy for first ion, spin component:           1
  2.989   0.056  -0.010  -0.076  -0.151  -0.980  -0.094  -0.032   0.087   0.158   0.354  -0.044  -0.021  -0.022  -0.219   0.002
  0.056   2.929   0.151  -0.008   0.032  -0.094  -0.886  -0.147   0.039  -0.008  -0.011   0.034   0.016  -0.181  -0.020  -0.006
 -0.010   0.151   2.695   0.080   0.115  -0.032  -0.147  -0.712  -0.073  -0.044   0.135  -0.032   0.088  -0.086  -0.016  -0.001
 -0.076  -0.008   0.080   2.885   0.289   0.087   0.039  -0.073  -0.886  -0.392  -0.778   0.114   0.020  -0.057  -0.044   0.002
 -0.151   0.032   0.115   0.289   3.078   0.158  -0.008  -0.044  -0.392  -1.095  -0.354  -0.004   0.166  -0.060   0.002  -0.001
 -0.980  -0.094  -0.032   0.087   0.158   0.943   0.126   0.070  -0.097  -0.166  -0.294   0.028   0.016   0.017   0.215   0.000
 -0.094  -0.886  -0.147   0.039  -0.008   0.126   0.819   0.146  -0.066  -0.015  -0.009  -0.013  -0.002   0.192   0.014  -0.001
 -0.032  -0.147  -0.712  -0.073  -0.044   0.070   0.146   0.694   0.067  -0.014  -0.141   0.041  -0.089   0.095   0.017   0.006
  0.087   0.039  -0.073  -0.886  -0.392  -0.097  -0.066   0.067   0.860   0.482   0.691  -0.107  -0.018   0.050   0.049  -0.001
  0.158  -0.008  -0.044  -0.392  -1.095  -0.166  -0.015  -0.014   0.482   1.080   0.308   0.003  -0.174   0.048  -0.003   0.010
  0.354  -0.011   0.135  -0.778  -0.354  -0.294  -0.009  -0.141   0.691   0.308   1.870  -0.302   0.170   0.074  -0.006  -0.018
 -0.044   0.034  -0.032   0.114  -0.004   0.028  -0.013   0.041  -0.107   0.003  -0.302   0.062  -0.052  -0.012  -0.007   0.004
 -0.021   0.016   0.088   0.020   0.166   0.016  -0.002  -0.089  -0.018  -0.174   0.170  -0.052   0.089  -0.018  -0.007  -0.006
 -0.022  -0.181  -0.086  -0.057  -0.060   0.017   0.192   0.095   0.050   0.048   0.074  -0.012  -0.018   0.089   0.041   0.000
 -0.219  -0.020  -0.016  -0.044   0.002   0.215   0.014   0.017   0.049  -0.003  -0.006  -0.007  -0.007   0.041   0.142   0.001
  0.002  -0.006  -0.001   0.002  -0.001   0.000  -0.001   0.006  -0.001   0.010  -0.018   0.004  -0.006   0.000   0.001   0.001
  0.002   0.002  -0.003   0.007   0.002  -0.002  -0.012  -0.005  -0.004  -0.002  -0.007   0.001   0.000  -0.005  -0.002   0.000
  0.004   0.002  -0.000  -0.004   0.004  -0.012  -0.002  -0.002  -0.003  -0.001  -0.000   0.000   0.001  -0.002  -0.008  -0.000
 total augmentation occupancy for first ion, spin component:           2
  0.000  -0.000   0.000  -0.000   0.000   0.000   0.000  -0.000   0.000  -0.000   0.000  -0.000  -0.000   0.000   0.000   0.000
 -0.000   0.000  -0.000   0.000  -0.000   0.000  -0.000   0.000  -0.000   0.000   0.000  -0.000  -0.000  -0.000   0.000   0.000
  0.000  -0.000  -0.000   0.000   0.000   0.000   0.000   0.000  -0.000  -0.000   0.000  -0.000  -0.000  -0.000  -0.000   0.000
 -0.000   0.000   0.000   0.000  -0.000   0.000  -0.000  -0.000  -0.000   0.000  -0.000  -0.000   0.000  -0.000   0.000  -0.000
  0.000  -0.000   0.000  -0.000   0.000  -0.000   0.000  -0.000   0.000  -0.000   0.000  -0.000   0.000  -0.000   0.000  -0.000
  0.000   0.000   0.000   0.000  -0.000  -0.000  -0.000  -0.000  -0.000  -0.000  -0.000  -0.000   0.000  -0.000   0.000  -0.000
  0.000  -0.000   0.000  -0.000   0.000  -0.000   0.000  -0.000   0.000  -0.000  -0.000   0.000   0.000   0.000  -0.000  -0.000
 -0.000   0.000   0.000  -0.000  -0.000  -0.000  -0.000  -0.000   0.000  -0.000  -0.000   0.000  -0.000   0.000   0.000   0.000
  0.000  -0.000  -0.000  -0.000   0.000  -0.000   0.000   0.000   0.000   0.000   0.000  -0.000  -0.000   0.000  -0.000   0.000
 -0.000   0.000  -0.000   0.000  -0.000  -0.000  -0.000  -0.000   0.000  -0.000  -0.000   0.000  -0.000   0.000  -0.000   0.000
  0.000   0.000   0.000  -0.000   0.000  -0.000  -0.000  -0.000   0.000  -0.000  -0.000   0.000  -0.000  -0.000  -0.000   0.000
 -0.000  -0.000  -0.000  -0.000  -0.000  -0.000   0.000   0.000  -0.000   0.000   0.000  -0.000  -0.000   0.000   0.000   0.000
 -0.000  -0.000  -0.000   0.000   0.000   0.000   0.000  -0.000  -0.000  -0.000  -0.000  -0.000   0.000  -0.000   0.000  -0.000
  0.000  -0.000  -0.000  -0.000  -0.000  -0.000   0.000   0.000   0.000   0.000  -0.000   0.000  -0.000   0.000  -0.000  -0.000
  0.000   0.000  -0.000   0.000   0.000   0.000  -0.000   0.000  -0.000  -0.000  -0.000   0.000   0.000  -0.000   0.000  -0.000
  0.000   0.000   0.000  -0.000  -0.000  -0.000  -0.000   0.000   0.000   0.000   0.000   0.000  -0.000  -0.000  -0.000   0.000
 -0.000   0.000   0.000   0.000   0.000   0.000  -0.000  -0.000  -0.000  -0.000  -0.000  -0.000   0.000  -0.000   0.000   0.000
  0.000  -0.000  -0.000   0.000  -0.000  -0.000   0.000   0.000  -0.000  -0.000  -0.000   0.000  -0.000   0.000  -0.000   0.000


------------------------ aborting loop because EDIFF is reached ----------------------------------------


    CHARGE:  cpu time    0.03: real time    0.03
    FORLOC:  cpu time    0.00: real time    0.00
    FORNL :  cpu time    0.10: real time    0.11
    STRESS:  cpu time    0.14: real time    0.14
    FORCOR:  cpu time    0.15: real time    0.15
    FORHAR:  cpu time    0.02: real time    0.02
    MIXING:  cpu time    0.00: real time    0.00
    OFIELD:  cpu time    0.00: real time    0.00

  FORCE on cell =-STRESS in cart. coord.  units (eV):
  Direction    XX          YY          ZZ          XY          YZ          ZX
  --------------------------------------------------------------------------------------
  Alpha Z    10.50946    10.50946    10.50946
  Ewald    1980.64081  1340.25646  2496.17460  -654.85221   432.57000   797.95920
  Hartree  4616.06997  4074.31633  5074.78736  -529.28870   351.92276   640.77180
  E(xc)    -463.42528  -463.70050  -463.35555    -0.34144     0.24799     0.49044
  Local   -7885.30768 -6706.66621 -8857.72669  1178.52557  -780.05273 -1431.84479
  n-local   -92.79743   -92.19791   -93.11400     1.15404    -0.75575    -1.26948
  augment   733.94546   734.78190   733.55852     1.30067    -1.13285    -1.63553
  Kinetic  1097.65075  1099.99144  1096.49430     3.58715    -2.75620    -4.47435
  Fock        0.00000     0.00000     0.00000     0.00000     0.00000     0.00000
  -------------------------------------------------------------------------------------
  Total      -2.71394    -2.70904    -2.67200     0.08507     0.04322    -0.00271
  in kB      -0.83945    -0.83794    -0.82648     0.02631     0.01337    -0.00084
  external pressure =       -0.83 kB  Pullay stress =        0.00 kB


 VOLUME and BASIS-vectors are now :
 -----------------------------------------------------------------------------
  energy-cutoff  :      249.84
  volume of cell :     5179.81
      direct lattice vectors                 reciprocal lattice vectors
    17.302329060  0.000000000  0.000000000     0.057795687  0.000000000  0.000000000
     0.000000000 17.302329060  0.000000000     0.000000000  0.057795687  0.000000000
     0.000000000  0.000000000 17.302329060     0.000000000  0.000000000  0.057795687

  length of vectors
    17.302329060 17.302329060 17.302329060     0.057795687  0.057795687  0.057795687


 FORCES acting on ions
    electron-ion (+dipol)            ewald-force                    non-local-force                 convergence-correction
 -----------------------------------------------------------------------------------------------
   0.503E+02 0.686E+03 0.224E+03   -.512E+02 -.684E+03 -.222E+03   0.896E+00 -.199E+01 -.185E+01   -.105E-01 0.166E-02 -.997E-02
   -.659E+03 -.418E+03 0.115E+03   0.655E+03 0.416E+03 -.117E+03   0.336E+01 0.185E+01 0.254E+01   -.304E-02 0.190E-01 0.721E-03
   -.178E+02 0.242E+03 -.704E+03   0.177E+02 -.240E+03 0.701E+03   0.102E+00 -.180E+01 0.321E+01   -.186E-01 -.992E-02 0.150E-01
   0.117E+03 -.503E+03 -.520E+03   -.117E+03 0.497E+03 0.515E+03   -.125E+00 0.590E+01 0.481E+01   0.183E-01 0.694E-02 0.109E-01
   -.609E+03 0.483E+03 -.132E+03   0.602E+03 -.479E+03 0.132E+03   0.654E+01 -.372E+01 0.632E+00   0.147E-01 0.911E-02 -.435E-02
   -.618E+02 -.293E+03 0.752E+03   0.630E+02 0.292E+03 -.745E+03   -.115E+01 0.528E+00 -.633E+01   -.382E-02 -.166E-01 0.997E-02
   0.516E+03 -.435E+03 -.568E+02   -.514E+03 0.434E+03 0.576E+02   -.224E+01 0.139E+01 -.706E+00   -.140E-01 -.187E-01 -.483E-01
   0.662E+03 0.236E+03 0.325E+03   -.657E+03 -.235E+03 -.322E+03   -.592E+01 -.101E+01 -.329E+01   0.903E-02 0.485E-02 0.126E-01
 -----------------------------------------------------------------------------------------------
   -.149E+01 -.117E+01 0.994E+00   0.000E+00 0.000E+00 -.568E-13   0.147E+01 0.115E+01 -.970E+00   -.795E-02 -.369E-02 -.134E-01
 
 
 POSITION                                       TOTAL-FORCE (eV/Angst)
 -----------------------------------------------------------------------------------
      8.93979      7.42898      8.32536         0.013665     -0.005047      0.002936
     10.66502      9.74568      8.64562        -0.014349      0.028346      0.018728
      9.32836      8.48223     10.90271        -0.028021     -0.021189     -0.000254
      8.45559     10.98040     11.40699         0.027654     -0.007253     -0.017302
     11.30670      7.14580      9.60085         0.008556      0.030728     -0.007232
      8.95200      9.73658      6.55526         0.004936     -0.032546     -0.009137
      7.81772      9.94302      9.03486        -0.002146      0.010388      0.004333
      6.55542      8.16096      7.36281        -0.010295     -0.003428      0.007927
 -----------------------------------------------------------------------------------
    total drift:                               -0.025312     -0.018955      0.010533


--------------------------------------------------------------------------------------------------------



  FREE ENERGIE OF THE ION-ELECTRON SYSTEM (eV)
  ---------------------------------------------------
  free  energy   TOTEN  =       -13.58996668 eV

  energy  without entropy=      -13.58996668  energy(sigma->0) =      -13.58996668
 
 d Force = 0.2679427E-03[ 0.993E-04, 0.437E-03]  d Energy = 0.3494065E-03-0.815E-04
 d Force = 0.5452435E+00[ 0.539E+00, 0.551E+00]  d Ewald  = 0.5452423E+00 0.116E-05


--------------------------------------------------------------------------------------------------------


    POTLOK:  cpu time    0.16: real time    0.16


--------------------------------------------------------------------------------------------------------




--------------------------------------------------------------------------------------------------------


  
 reached required accuracy - stopping structural energy minimisation
     LOOP+:  cpu time    2.06: real time    2.19
    4ORBIT:  cpu time    0.00: real time    0.00

 total amount of memory used by VASP on root node    47000. kBytes
========================================================================

   base      :      30000. kBytes
   nonl-proj :        792. kBytes
   fftplans  :       4202. kBytes
   grid      :      10682. kBytes
   one-center:         15. kBytes
   wavefun   :       1309. kBytes
 
  
  
 General timing and accounting informations for this job:
 ========================================================
  
                  Total CPU time used (sec):      348.778
                            User time (sec):      336.525
                          System time (sec):       12.253
                         Elapsed time (sec):      462.686
  
                   Maximum memory used (kb):       55220.
                   Average memory used (kb):           0.
  
                          Minor page faults:      2107709
                          Major page faults:            0
                 Voluntary context switches:        16121
