       N       E                     dE             d eps       ncg     rms          rms(c)
DAV:   1     0.855746643123E+03    0.85575E+03   -0.22960E+04   352   0.608E+02
DAV:   2     0.151687800512E+03   -0.70406E+03   -0.63126E+03   368   0.216E+02
DAV:   3    -0.921031089177E+01   -0.16090E+03   -0.15233E+03   440   0.120E+02
DAV:   4    -0.320865663945E+02   -0.22876E+02   -0.20817E+02   416   0.771E+01
DAV:   5    -0.330973626649E+02   -0.10108E+01   -0.10012E+01   424   0.141E+01    0.277E+01
DAV:   6    -0.105552517454E+02    0.22542E+02   -0.12378E+02   376   0.840E+01    0.119E+01
DAV:   7    -0.878176828254E+01    0.17735E+01   -0.32065E+01   424   0.625E+01    0.629E+00
DAV:   8    -0.562992218208E+01    0.31518E+01   -0.66065E+00   464   0.465E+01    0.494E+00
DAV:   9    -0.880453411791E+01   -0.31746E+01   -0.15885E+00   440   0.254E+01    0.288E+00
DAV:  10    -0.164318074918E+02   -0.76273E+01   -0.43514E+00   488   0.183E+01    0.363E+00
DAV:  11    -0.188148235243E+02   -0.23830E+01   -0.14953E+00   448   0.101E+01    0.274E+00
DAV:  12    -0.204100475756E+02   -0.15952E+01   -0.66393E-01   472   0.814E+00    0.188E+00
DAV:  13    -0.237159392617E+02   -0.33059E+01   -0.16244E+00   536   0.741E+00    0.101E+00
DAV:  14    -0.264334323862E+02   -0.27175E+01   -0.11369E+00   440   0.520E+00    0.741E-01
DAV:  15    -0.274270131799E+02   -0.99358E+00   -0.22095E-01   432   0.468E+00    0.720E-01
DAV:  16    -0.283777473775E+02   -0.95073E+00   -0.14383E-01   440   0.405E+00    0.329E-01
DAV:  17    -0.293975295334E+02   -0.10198E+01   -0.11289E-01   472   0.166E+00    0.310E-01
DAV:  18    -0.296151302379E+02   -0.21760E+00   -0.15671E-02   480   0.216E+00    0.142E-01
DAV:  19    -0.297808178383E+02   -0.16569E+00   -0.80160E-03   520   0.101E+00    0.861E-02
DAV:  20    -0.298718434802E+02   -0.91026E-01   -0.49776E-03   496   0.473E-01    0.427E-02
DAV:  21    -0.298928931480E+02   -0.21050E-01   -0.87860E-04   400   0.334E-01    0.397E-02
DAV:  22    -0.299000817714E+02   -0.71886E-02   -0.12705E-03   440   0.162E-01    0.292E-02
DAV:  23    -0.299003577171E+02   -0.27595E-03   -0.18319E-04   304   0.150E-01    0.179E-02
DAV:  24    -0.299018831215E+02   -0.15254E-02   -0.12524E-04   272   0.134E-01    0.109E-02
DAV:  25    -0.299035886873E+02   -0.17056E-02   -0.18311E-04   256   0.751E-02    0.728E-03
DAV:  26    -0.299044098289E+02   -0.82114E-03   -0.52633E-05   248   0.576E-02    0.661E-03
DAV:  27    -0.299047697006E+02   -0.35987E-03   -0.28345E-05   264   0.588E-02    0.540E-03
DAV:  28    -0.299047958622E+02   -0.26162E-04   -0.18048E-05   256   0.344E-02
   1 F= -.29904796E+02 E0= -.29904796E+02  d E =-.299048E+02  mag=    -0.0002
       N       E                     dE             d eps       ncg     rms          rms(c)
DAV:   1    -0.299339783045E+02   -0.29209E-01   -0.18720E+00   400   0.464E+00    0.109E-01
DAV:   2    -0.299368143045E+02   -0.28360E-02   -0.30106E-02   536   0.977E-01    0.811E-02
DAV:   3    -0.299367649663E+02    0.49338E-04   -0.56909E-04   336   0.243E-01
   2 F= -.29936765E+02 E0= -.29936765E+02  d E =-.319691E-01  mag=    -0.0001
       N       E                     dE             d eps       ncg     rms          rms(c)
DAV:   1    -0.299928375834E+02   -0.56023E-01   -0.16909E+01   368   0.140E+01    0.357E-01
DAV:   2    -0.300175142805E+02   -0.24677E-01   -0.27176E-01   520   0.302E+00    0.309E-01
DAV:   3    -0.300164590868E+02    0.10552E-02   -0.72158E-03   408   0.136E+00    0.206E-01
DAV:   4    -0.300162567527E+02    0.20233E-03   -0.16999E-03   408   0.867E-01    0.165E-01
DAV:   5    -0.300162265151E+02    0.30238E-04   -0.18863E-03   536   0.498E-01    0.380E-02
DAV:   6    -0.300162406209E+02   -0.14106E-04   -0.26990E-04   344   0.382E-01
   3 F= -.30016241E+02 E0= -.30016241E+02  d E =-.111445E+00  mag=    -0.0000
       N       E                     dE             d eps       ncg     rms          rms(c)
DAV:   1    -0.299971974120E+02    0.19029E-01   -0.68013E+01   368   0.288E+01    0.867E-01
DAV:   2    -0.301015787469E+02   -0.10438E+00   -0.12309E+00   536   0.643E+00    0.754E-01
DAV:   3    -0.300924667581E+02    0.91120E-02   -0.46356E-02   448   0.258E+00    0.384E-01
DAV:   4    -0.300917304317E+02    0.73633E-03   -0.69765E-03   416   0.130E+00    0.312E-01
DAV:   5    -0.300910593971E+02    0.67103E-03   -0.24937E-03   552   0.993E-01    0.205E-01
DAV:   6    -0.300908516217E+02    0.20778E-03   -0.30958E-03   616   0.567E-01    0.683E-02
DAV:   7    -0.300907807152E+02    0.70907E-04   -0.56567E-04   408   0.303E-01
   4 F= -.30090781E+02 E0= -.30090781E+02  d E =-.185985E+00  mag=    -0.0000
       N       E                     dE             d eps       ncg     rms          rms(c)
DAV:   1    -0.300941765671E+02   -0.33249E-02   -0.75697E-01   384   0.295E+00    0.715E-02
DAV:   2    -0.300952716183E+02   -0.10951E-02   -0.11824E-02   536   0.902E-01    0.722E-02
DAV:   3    -0.300952380289E+02    0.33589E-04   -0.76062E-04   384   0.581E-01
   5 F= -.30095238E+02 E0= -.30095238E+02  d E =-.445731E-02  mag=    -0.0000
       N       E                     dE             d eps       ncg     rms          rms(c)
DAV:   1    -0.300934616836E+02    0.18099E-02   -0.68315E+00   384   0.885E+00    0.214E-01
DAV:   2    -0.301038604920E+02   -0.10399E-01   -0.11291E-01   528   0.303E+00    0.262E-01
DAV:   3    -0.301033169790E+02    0.54351E-03   -0.79479E-03   432   0.180E+00    0.141E-01
DAV:   4    -0.301032779316E+02    0.39047E-04   -0.14761E-03   384   0.440E-01    0.120E-01
DAV:   5    -0.301031347348E+02    0.14320E-03   -0.64022E-04   432   0.261E-01    0.412E-02
DAV:   6    -0.301031418696E+02   -0.71348E-05   -0.19049E-04   272   0.288E-01
   6 F= -.30103142E+02 E0= -.30103142E+02  d E =-.123612E-01  mag=    -0.0000
       N       E                     dE             d eps       ncg     rms          rms(c)
DAV:   1    -0.301048181873E+02   -0.16835E-02   -0.91525E-01   384   0.323E+00    0.720E-02
DAV:   2    -0.301060717736E+02   -0.12536E-02   -0.13050E-02   552   0.927E-01    0.738E-02
DAV:   3    -0.301060607908E+02    0.10983E-04   -0.90187E-04   384   0.565E-01
   7 F= -.30106061E+02 E0= -.30106061E+02  d E =-.291892E-02  mag=    -0.0000
       N       E                     dE             d eps       ncg     rms          rms(c)
DAV:   1    -0.301030961728E+02    0.29756E-02   -0.58149E+00   384   0.812E+00    0.218E-01
DAV:   2    -0.301112179523E+02   -0.81218E-02   -0.90111E-02   544   0.297E+00    0.255E-01
DAV:   3    -0.301107006718E+02    0.51728E-03   -0.77359E-03   400   0.180E+00    0.138E-01
DAV:   4    -0.301106454856E+02    0.55186E-04   -0.14689E-03   400   0.437E-01    0.114E-01
DAV:   5    -0.301104660222E+02    0.17946E-03   -0.78884E-04   496   0.264E-01    0.271E-02
DAV:   6    -0.301104793495E+02   -0.13327E-04   -0.11919E-04   256   0.248E-01
   8 F= -.30110479E+02 E0= -.30110479E+02  d E =-.733748E-02  mag=    -0.0000
       N       E                     dE             d eps       ncg     rms          rms(c)
DAV:   1    -0.301109568674E+02   -0.49085E-03   -0.11499E+00   384   0.360E+00    0.800E-02
DAV:   2    -0.301126242681E+02   -0.16674E-02   -0.17553E-02   528   0.123E+00    0.102E-01
DAV:   3    -0.301125541048E+02    0.70163E-04   -0.13712E-03   400   0.720E-01    0.521E-02
DAV:   4    -0.301125547703E+02   -0.66544E-06   -0.23977E-04   320   0.154E-01
   9 F= -.30112555E+02 E0= -.30112555E+02  d E =-.207542E-02  mag=    -0.0000
       N       E                     dE             d eps       ncg     rms          rms(c)
DAV:   1    -0.301063616837E+02    0.61924E-02   -0.59966E+00   384   0.825E+00    0.185E-01
DAV:   2    -0.301152093999E+02   -0.88477E-02   -0.94258E-02   528   0.277E+00    0.246E-01
DAV:   3    -0.301147446931E+02    0.46471E-03   -0.65211E-03   416   0.149E+00    0.143E-01
DAV:   4    -0.301147052861E+02    0.39407E-04   -0.12024E-03   400   0.343E-01    0.125E-01
DAV:   5    -0.301144903902E+02    0.21490E-03   -0.42237E-04   384   0.297E-01    0.702E-02
DAV:   6    -0.301144459915E+02    0.44399E-04   -0.79982E-04   528   0.458E-01
  10 F= -.30114446E+02 E0= -.30114446E+02  d E =-.396664E-02  mag=    -0.0000
       N       E                     dE             d eps       ncg     rms          rms(c)
DAV:   1    -0.301137071516E+02    0.78324E-03   -0.15074E+00   384   0.413E+00    0.944E-02
DAV:   2    -0.301158885220E+02   -0.21814E-02   -0.22863E-02   544   0.135E+00    0.110E-01
DAV:   3    -0.301158149061E+02    0.73616E-04   -0.17294E-03   400   0.816E-01    0.582E-02
DAV:   4    -0.301158144882E+02    0.41793E-06   -0.27836E-04   336   0.182E-01
  11 F= -.30115814E+02 E0= -.30115814E+02  d E =-.136850E-02  mag=    -0.0000
       N       E                     dE             d eps       ncg     rms          rms(c)
DAV:   1    -0.301102062237E+02    0.56087E-02   -0.46216E+00   384   0.723E+00    0.173E-01
DAV:   2    -0.301168017974E+02   -0.65956E-02   -0.70916E-02   544   0.248E+00    0.212E-01
DAV:   3    -0.301164818714E+02    0.31993E-03   -0.54909E-03   416   0.137E+00    0.121E-01
DAV:   4    -0.301164598084E+02    0.22063E-04   -0.97270E-04   384   0.339E-01
  12 F= -.30116460E+02 E0= -.30116460E+02  d E =-.201382E-02  mag=    -0.0000
       N       E                     dE             d eps       ncg     rms          rms(c)
DAV:   1    -0.301157951241E+02    0.68675E-03   -0.64940E-01   384   0.263E+00    0.732E-02
DAV:   2    -0.301165877369E+02   -0.79261E-03   -0.87027E-03   560   0.731E-01    0.710E-02
DAV:   3    -0.301165660262E+02    0.21711E-04   -0.56928E-04   352   0.377E-01
  13 F= -.30116566E+02 E0= -.30116566E+02  d E =-.106218E-03  mag=    -0.0000
       N       E                     dE             d eps       ncg     rms          rms(c)
DAV:   1    -0.301164703370E+02    0.11740E-03   -0.90453E-02   400   0.101E+00    0.393E-02
DAV:   2    -0.301165742618E+02   -0.10392E-03   -0.12467E-03   544   0.215E-01    0.361E-02
DAV:   3    -0.301165627831E+02    0.11479E-04   -0.45642E-05   224   0.157E-01
  14 F= -.30116563E+02 E0= -.30116563E+02  d E =-.102975E-03  mag=    -0.0000
