14
Energy = -112.42769199 eV
Nb 10.496167814565755 12.990215666781799 8.79036050071462
Nb 7.560380163329986 9.95994656086569 7.809577622275288
Nb 9.8996847052623 10.676997355426648 7.5839383990224984
Nb 10.897339631956187 10.352073322342957 10.01877420722581
Nb 8.379104454202974 12.016341225232138 9.72562275111539
Nb 10.776152155297359 12.813063121698395 11.22294378469158
Nb 11.759122055319224 8.286104447419405 8.467992055952367
Nb 11.859685355175914 10.29962056398594 12.372643823295599
Nb 9.351302261683731 7.977703975442362 7.931261096714236
Nb 12.281115480420706 8.075053800210574 11.023812482837522
Nb 9.134996919286547 11.297013764764753 12.358910463108177
Nb 8.19796877029262 9.432171054739582 10.244722510339141
Nb 9.76892862770291 8.831430519948013 12.467694929186711
Nb 9.943058595709257 7.26528861760478 10.361873639268616
