13
Energy = -103.04582212 eV
Nb 9.844608370596402 11.716995059864562 7.482811402184379
Nb 8.132474991421837 9.709229116407707 12.377156982908636
Nb 11.895720068977253 9.826817917896484 8.677424913706208
Nb 9.61709032167944 7.793937452578743 11.758289887552063
Nb 8.452847143545613 7.80972449529633 7.320078366521037
Nb 7.867581361125269 8.83797874713822 9.755343388372102
Nb 10.351665759432962 9.366253457484957 6.705159377524261
Nb 11.907096998149008 8.987351595420714 11.47755395954896
Nb 10.388852352979402 7.830324058066165 9.14465909153078
Nb 7.61157110065385 10.179992617939964 7.15410947456162
Nb 10.432837195450146 10.169882092209214 13.021133040261375
Nb 7.881101443993069 11.584154827943866 9.174482828164631
Nb 9.942020391996035 10.512826185111095 10.27726454044768
