14
Energy = -114.23931995 eV
Nb 11.856833600302616 7.947590530165805 10.251235432981694
Nb 9.60347656577798 9.55765765062318 9.86469424816559
Nb 9.77125598123332 6.604037293300721 9.021657798351567
Nb 7.9559832933076 11.673914668283738 10.656276174131555
Nb 7.997578894520008 11.310886699129224 7.9122292626040105
Nb 10.407353963863462 10.487151777308126 7.055966970976259
Nb 8.371986214858241 8.529098997776734 7.469318941757571
Nb 7.382084189595183 7.444648902317587 9.917095488762437
Nb 6.553893162121626 9.698026295508495 9.193305606713169
Nb 11.106216101330451 8.125660799642414 7.5284060599290274
Nb 7.600784085737959 9.561388152770654 11.7692563881182
Nb 12.22824036895392 10.073917473838993 9.171201223349783
Nb 9.487903535369648 7.537413629469806 11.539112867756733
Nb 10.248852043027995 12.02104912986426 9.222685536402684
