12
Energy = -95.35998016 eV
Nb 12.364582922021217 11.136785427593706 10.259921337568766
Nb 11.134589170825555 11.01119909756328 12.292945017871094
Nb 12.195405890266196 9.239822644621245 8.686101886707705
Nb 8.779847959683062 10.171227814744157 12.15046792728889
Nb 9.777742852773278 10.6849439688814 9.681105704635927
Nb 11.165565562851139 8.608901498499105 11.141762178014778
Nb 10.177496040154347 7.7694990333290885 8.626353173759068
Nb 9.879296958857932 9.9432095427699 7.030921213013662
Nb 8.595578226186015 8.01890047640926 10.800801140609058
Nb 7.935990077445954 11.27642955050818 7.7917423375418355
Nb 7.0073060252752315 10.195299318802501 10.066866371014124
Nb 7.712200329516849 8.66976291439969 8.225702048753329
