13
Energy = -103.86195838 eV
Nb 11.468439551915523 9.400459769376246 8.091051316627746
Nb 13.734073586759639 9.751853788918597 9.077176459630383
Nb 12.23029537399827 11.708930852542515 9.621718867769347
Nb 9.72510306123324 10.751165060260892 9.539915299903237
Nb 10.394924207494665 13.388507037939263 10.543607697906602
Nb 11.57372221901546 8.66542223212144 10.470523552048379
Nb 12.886618723154234 12.559350894883504 12.108793153725902
Nb 10.644723460120645 10.79571903810038 11.976170684628679
Nb 8.531196983740346 12.400360605265277 11.903812628058025
Nb 13.416462370483966 9.957301829485148 11.646069164855161
Nb 10.724088228551706 13.743190446460753 13.136898878137092
Nb 11.913192608842735 11.481517520743832 14.21221913448612
Nb 9.394234111701468 12.033295410914016 14.309117649234958
