4
Energy = -26.80220844 eV
Nb 11.438111297502001 9.910325350761763 9.218008358262287
Nb 9.237201023907852 11.019597514574635 9.573297973036109
Nb 11.077784576199189 11.19469332793464 11.307159979049612
Nb 9.578536014278772 9.20791529568093 11.232340144559156
