8
Energy = -62.23792691 eV
Nb 13.031581708189549 10.077281307566706 11.8030244242143
Nb 12.355212897419205 11.330607112388408 9.061195705666641
Nb 11.207361704705356 9.4010029697878 10.204648991356201
Nb 10.779319980517872 10.257500819741587 12.925300741562452
Nb 8.93291816406468 10.063375739894857 11.066566875143591
Nb 12.003631767915548 12.334047885760386 11.341775367742885
Nb 9.916035842612558 11.854629885702671 9.4163157619652
Nb 9.568194345762864 12.387641588924668 11.967136386976374
