 vasp.5.3.5 31Mar14 (build Feb 01 2018 12:10:03) gamma-only                     
  
 executed on             LinuxIFC date 2019.03.21  20:01:08
 running on   32 total cores
 distrk:  each k-point on   32 cores,    1 groups
 distr:  one band on NCORES_PER_BAND=   8 cores,    4 groups


--------------------------------------------------------------------------------------------------------


 INCAR:
 POTCAR:    PAW_PBE Ag 02Apr2005                  
 POTCAR:    PAW_PBE Ag 02Apr2005                  
   VRHFIN =Ag : s1 d10                                                          
   LEXCH  = PE                                                                  
   EATOM  =  1037.2675 eV,   76.2370 Ry                                         
                                                                                
   TITEL  = PAW_PBE Ag 02Apr2005                                                
   LULTRA =        F    use ultrasoft PP ?                                      
   IUNSCR =        1    unscreen: 0-lin 1-nonlin 2-no                           
   RPACOR =    2.000    partial core radius                                     
   POMASS =  107.868; ZVAL   =   11.000    mass and valenz                      
   RCORE  =    2.500    outmost cutoff radius                                   
   RWIGS  =    2.840; RWIGS  =    1.503    wigner-seitz radius (au A)           
   ENMAX  =  249.844; ENMIN  =  187.383 eV                                      
   ICORE  =        3    local potential                                         
   LCOR   =        T    correct aug charges                                     
   LPAW   =        T    paw PP                                                  
   EAUG   =  412.496                                                            
   DEXC   =    0.000                                                            
   RMAX   =    2.560    core radius for proj-oper                               
   RAUG   =    1.300    factor for augmentation sphere                          
   RDEP   =    2.576    radius for radial grids                                 
   RDEPT  =    2.072    core radius for aug-charge                              
                                                                                
   Atomic configuration                                                         
   12 entries                                                                   
     n  l   j            E        occ.                                          
     1  0  0.50    -25324.9161   2.0000                                         
     2  0  0.50     -3728.5341   2.0000                                         
     2  1  1.50     -3344.0404   6.0000                                         
     3  0  0.50      -683.5581   2.0000                                         
     3  1  1.50      -557.3225   6.0000                                         
     3  2  2.50      -358.3853  10.0000                                         
     4  0  0.50       -95.0341   2.0000                                         
     4  1  1.50       -58.5511   6.0000                                         
     4  2  2.50        -7.4440  10.0000                                         
     5  0  0.50        -4.4045   1.0000                                         
     5  1  0.50        -1.3606   0.0000                                         
     4  3  2.50        -1.3606   0.0000                                         
   Description                                                                  
     l       E           TYP  RCUT    TYP  RCUT                                 
     2     -7.4439781     23  2.400                                             
     2     -8.8045607     23  2.400                                             
     0     -4.4044681     23  2.400                                             
     0      1.9520038     23  2.400                                             
     1     -1.3605826     23  2.500                                             
     1     27.2116520     23  2.500                                             
     3     -4.0817478     23  2.400                                             
  local pseudopotential read in
  partial core-charges read in
  partial kinetic energy density read in
  atomic valenz-charges read in
  non local Contribution for L=           2  read in
    real space projection operators read in
  non local Contribution for L=           2  read in
    real space projection operators read in
  non local Contribution for L=           0  read in
    real space projection operators read in
  non local Contribution for L=           0  read in
    real space projection operators read in
  non local Contribution for L=           1  read in
    real space projection operators read in
  non local Contribution for L=           1  read in
    real space projection operators read in
    PAW grid and wavefunctions read in
 
   number of l-projection  operators is LMAX  =           6
   number of lm-projection operators is LMMAX =          18
 
  PAW_PBE Ag 02Apr2005                  :
 energy of atom  1       EATOM=-1037.2675
 kinetic energy error for atom=    0.0689 (will be added to EATOM!!)
 
 
 POSCAR: Ag15, -28.57151528 <s> Ag </s>          
  positions in direct lattice
  No initial velocities read in
 exchange correlation table for  LEXCH =        8
   RHO(1)=    0.500       N(1)  =     2000
   RHO(2)=  100.500       N(2)  =     4000
 


--------------------------------------------------------------------------------------------------------


 ion  position               nearest neighbor table
   1  0.673  0.445  0.530-   4 2.73   3 2.75   2 2.86   5 2.87
   2  0.578  0.333  0.528-   6 2.77   4 2.78   1 2.86   8 2.87   3 2.88
   3  0.571  0.446  0.432-   1 2.75  11 2.78   6 2.79   7 2.82   2 2.88   5 2.90   4 2.93
   4  0.543  0.462  0.579-   1 2.73  12 2.73   8 2.77   2 2.78   5 2.84  14 2.86   3 2.93   9 2.93
                             6 3.37
   5  0.603  0.573  0.505-  13 2.76   7 2.81   4 2.84   1 2.87   3 2.90  14 2.95
   6  0.456  0.367  0.463-   2 2.77   3 2.79   8 2.79   9 2.79  11 2.82   4 3.37
   7  0.558  0.575  0.368-  10 2.77  11 2.80  13 2.81   5 2.81   3 2.82
   8  0.454  0.354  0.605-   4 2.77   6 2.79   2 2.87   9 2.88  12 2.88
   9  0.398  0.473  0.539-   6 2.79  12 2.81  11 2.82  15 2.83  14 2.87   8 2.88   4 2.93
  10  0.429  0.630  0.347-   7 2.77  15 2.79  11 2.79  13 2.83
  11  0.442  0.499  0.404-   3 2.78  15 2.78  10 2.79   7 2.80   6 2.82   9 2.82
  12  0.443  0.483  0.676-   4 2.73   9 2.81  14 2.86   8 2.88
  13  0.503  0.665  0.466-  14 2.74   5 2.76  15 2.81   7 2.81  10 2.83
  14  0.474  0.592  0.583-  13 2.74  15 2.85  12 2.86   4 2.86   9 2.87   5 2.95
  15  0.374  0.602  0.476-  11 2.78  10 2.79  13 2.81   9 2.83  14 2.85
 
  LATTYP: Found a simple cubic cell.
 ALAT       =    19.4616264680
  
  Lattice vectors:
  
 A1 = (  19.4616264680,   0.0000000000,   0.0000000000)
 A2 = (   0.0000000000,  19.4616264680,   0.0000000000)
 A3 = (   0.0000000000,   0.0000000000,  19.4616264680)


Analysis of symmetry for initial positions (statically):
=====================================================================
 Subroutine PRICEL returns:
 Original cell was already a primitive cell.
 

 Routine SETGRP: Setting up the symmetry group for a 
 simple cubic supercell.


 Subroutine GETGRP returns: Found  1 space group operations
 (whereof  1 operations were pure point group operations)
 out of a pool of 48 trial point group operations.


The static configuration has the point symmetry C_1 .


Analysis of symmetry for dynamics (positions and initial velocities):
=====================================================================
 Subroutine PRICEL returns:
 Original cell was already a primitive cell.
 

 Routine SETGRP: Setting up the symmetry group for a 
 simple cubic supercell.


 Subroutine GETGRP returns: Found  1 space group operations
 (whereof  1 operations were pure point group operations)
 out of a pool of 48 trial point group operations.


The dynamic configuration has the point symmetry C_1 .


Analysis of magnetic symmetry:
=====================================================================
 Subroutine PRICEL returns:
 Original cell was already a primitive cell.
 

 Subroutine MAGSYM returns: Found  1 space group operations
 (whereof  1 operations were pure point group operations)
 out of a pool of  1 trial space group operations
 (whereof  1 operations were pure point group operations)
 and found also     1 'primitive' translations


The magnetic configuration has the point symmetry C_1 .
 
 
 KPOINTS: Gamma-point only                        
  k-points in reciprocal lattice
Space group operators:
 irot       det(A)        alpha          n_x          n_y          n_z        tau_x        tau_y        tau_z
    1     1.000000     0.000000     1.000000     0.000000     0.000000     0.000000     0.000000     0.000000


--------------------------------------------------------------------------------------------------------




 Dimension of arrays:
   k-points           NKPTS =      1   k-points in BZ     NKDIM =      1   number of bands    NBANDS=    108
   number of dos      NEDOS =    301   number of ions     NIONS =     15
   non local maximal  LDIM  =      6   non local SUM 2l+1 LMDIM =     18
   total plane-waves  NPLWV = 512000
   max r-space proj   IRMAX =      1   max aug-charges    IRDMAX=   3614
   dimension x,y,z NGX =    80 NGY =   80 NGZ =   80
   dimension x,y,z NGXF=   160 NGYF=  160 NGZF=  160
   support grid    NGXF=   160 NGYF=  160 NGZF=  160
   ions per type =              15
 NGX,Y,Z   is equivalent  to a cutoff of   6.83,  6.83,  6.83 a.u.
 NGXF,Y,Z  is equivalent  to a cutoff of  13.67, 13.67, 13.67 a.u.


 I would recommend the setting:
   dimension x,y,z NGX =    75 NGY =   75 NGZ =   75
 SYSTEM =  unknown system                          
 POSCAR =  Ag15, -28.57151528 <s> Ag </s>          

 Startparameter for this run:
   NWRITE =      2    write-flag & timer
   PREC   = normal    normal or accurate (medium, high low for compatibility)
   ISTART =      0    job   : 0-new  1-cont  2-samecut
   ICHARG =      2    charge: 1-file 2-atom 10-const
   ISPIN  =      2    spin polarized calculation?
   LNONCOLLINEAR =      F non collinear calculations
   LSORBIT =      F    spin-orbit coupling
   INIWAV =      1    electr: 0-lowe 1-rand  2-diag
   LASPH  =      F    aspherical Exc in radial PAW
   METAGGA=      F    non-selfconsistent MetaGGA calc.

 Electronic Relaxation 1
   ENCUT  =  249.8 eV  18.36 Ry    4.29 a.u.  25.08 25.08 25.08*2*pi/ulx,y,z
   ENINI  =  249.8     initial cutoff
   ENAUG  =  412.5 eV  augmentation charge cutoff
   NELM   =     60;   NELMIN=  2; NELMDL= -5     # of ELM steps 
   EDIFF  = 0.1E-03   stopping-criterion for ELM
   LREAL  =      F    real-space projection
   NLSPLINE    = F    spline interpolate recip. space projectors
   LCOMPAT=      F    compatible to vasp.4.4
   GGA_COMPAT  = T    GGA compatible to vasp.4.4-vasp.4.6
   LMAXPAW     = -100 max onsite density
   LMAXMIX     =    2 max onsite mixed and CHGCAR
   VOSKOWN=      0    Vosko Wilk Nusair interpolation
   ROPT   =    0.00000
 Ionic relaxation
   EDIFFG = 0.1E-02   stopping-criterion for IOM
   NSW    =   1000    number of steps for IOM
   NBLOCK =      1;   KBLOCK =   1000    inner block; outer block 
   IBRION =      2    ionic relax: 0-MD 1-quasi-New 2-CG
   NFREE  =      1    steps in history (QN), initial steepest desc. (CG)
   ISIF   =      2    stress and relaxation
   IWAVPR =     11    prediction:  0-non 1-charg 2-wave 3-comb
   ISYM   =      2    0-nonsym 1-usesym 2-fastsym
   LCORR  =      T    Harris-Foulkes like correction to forces

   POTIM  = 0.1000    time-step for ionic-motion
   TEIN   =    0.0    initial temperature
   TEBEG  =    0.0;   TEEND  =   0.0 temperature during run
   SMASS  =  -3.00    Nose mass-parameter (am)
   estimated Nose-frequenzy (Omega)   =  0.10E-29 period in steps =****** mass=  -0.866E-26a.u.
   SCALEE = 1.0000    scale energy and forces
   NPACO  =    256;   APACO  = 16.0  distance and # of slots for P.C.
   PSTRESS=    0.0 pullay stress

  Mass of Ions in am
   POMASS = 107.87
  Ionic Valenz
   ZVAL   =  11.00
  Atomic Wigner-Seitz radii
   RWIGS  =  -1.00
  virtual crystal weights 
   VCA    =   1.00
   NELECT =     165.0000    total number of electrons
   NUPDOWN=      -1.0000    fix difference up-down

 DOS related values:
   EMIN   =  10.00;   EMAX   =-10.00  energy-range for DOS
   EFERMI =   0.00
   ISMEAR =     0;   SIGMA  =   0.00  broadening in eV -4-tet -1-fermi 0-gaus

 Electronic relaxation 2 (details)
   IALGO  =     38    algorithm
   LDIAG  =      T    sub-space diagonalisation (order eigenvalues)
   LSUBROT=      F    optimize rotation matrix (better conditioning)
   TURBO    =      0    0=normal 1=particle mesh
   IRESTART =      0    0=no restart 2=restart with 2 vectors
   NREBOOT  =      0    no. of reboots
   NMIN     =      0    reboot dimension
   EREF     =   0.00    reference energy to select bands
   IMIX   =      4    mixing-type and parameters
     AMIX     =   0.40;   BMIX     =  1.00
     AMIX_MAG =   1.60;   BMIX_MAG =  1.00
     AMIN     =   0.10
     WC   =   100.;   INIMIX=   1;  MIXPRE=   1;  MAXMIX= -45

 Intra band minimization:
   WEIMIN = 0.0010     energy-eigenvalue tresh-hold
   EBREAK =  0.23E-06  absolut break condition
   DEPER  =   0.30     relativ break condition  

   TIME   =   0.40     timestep for ELM

  volume/ion in A,a.u.               =     491.41      3316.21
  Fermi-wavevector in a.u.,A,eV,Ry     =   0.461378  0.871878  2.896269  0.212870
  Thomas-Fermi vector in A             =   1.448380
 
 Write flags
   LWAVE  =      F    write WAVECAR
   LCHARG =      F    write CHGCAR
   LVTOT  =      F    write LOCPOT, total local potential
   LVHAR  =      F    write LOCPOT, Hartree potential only
   LELF   =      F    write electronic localiz. function (ELF)
   LORBIT =      0    0 simple, 1 ext, 2 COOP (PROOUT)


 Dipole corrections
   LMONO  =      F    monopole corrections only (constant potential shift)
   LDIPOL =      F    correct potential (dipole corrections)
   IDIPOL =      0    1-x, 2-y, 3-z, 4-all directions 
   EPSILON=  1.0000000 bulk dielectric constant

 Exchange correlation treatment:
   GGA     =    PE    GGA type
   LEXCH   =     8    internal setting for exchange type
   VOSKOWN=      0    Vosko Wilk Nusair interpolation
   LHFCALC =     F    Hartree Fock is set to
   LHFONE  =     F    Hartree Fock one center treatment
   AEXX    =    0.0000 exact exchange contribution

 Linear response parameters
   LEPSILON=     F    determine dielectric tensor
   LRPA    =     F    only Hartree local field effects (RPA)
   LNABLA  =     F    use nabla operator in PAW spheres
   LVEL    =     F    velocity operator in full k-point grid
   LINTERFAST=   F  fast interpolation
   KINTER  =     0    interpolate to denser k-point grid
   CSHIFT  =0.1000    complex shift for real part using Kramers Kronig
   OMEGAMAX=  -1.0    maximum frequency
   DEG_THRESHOLD= 0.2000000E-02 threshold for treating states as degnerate
   RTIME   =    0.100 relaxation time in fs

 Orbital magnetization related:
   ORBITALMAG=     F  switch on orbital magnetization
   LCHIMAG   =     F  perturbation theory with respect to B field
   DQ        =  0.001000  dq finite difference perturbation B field



--------------------------------------------------------------------------------------------------------


 conjugate gradient relaxation of ions
 charge density and potential will be updated during run
 spin polarized calculation
 Variant of blocked Davidson
 Davidson routine will perform the subspace rotation
 perform sub-space diagonalisation
    after iterative eigenvector-optimisation
 modified Broyden-mixing scheme, WC =      100.0
 initial mixing is a Kerker type mixing with AMIX =  0.4000 and BMIX =      1.0000
 Hartree-type preconditioning will be used
 using additional bands           25
 reciprocal scheme for non local part
 use partial core corrections
 calculate Harris-corrections to forces 
   (improved forces if not selfconsistent)
 use gradient corrections 
 use of overlap-Matrix (Vanderbilt PP)
 Gauss-broadening in eV      SIGMA  =   0.00


--------------------------------------------------------------------------------------------------------


  energy-cutoff  :      249.84
  volume of cell :     7371.19
      direct lattice vectors                 reciprocal lattice vectors
    19.461626468  0.000000000  0.000000000     0.051383167  0.000000000  0.000000000
     0.000000000 19.461626468  0.000000000     0.000000000  0.051383167  0.000000000
     0.000000000  0.000000000 19.461626468     0.000000000  0.000000000  0.051383167

  length of vectors
    19.461626468 19.461626468 19.461626468     0.051383167  0.051383167  0.051383167


 
 k-points in units of 2pi/SCALE and weight: Gamma-point only                        
   0.00000000  0.00000000  0.00000000       1.000
 
 k-points in reciprocal lattice and weights: Gamma-point only                        
   0.00000000  0.00000000  0.00000000       1.000
 
 position of ions in fractional coordinates (direct lattice) 
   0.67328254  0.44527089  0.52999069
   0.57831911  0.33335309  0.52760262
   0.57131381  0.44637595  0.43213577
   0.54260707  0.46198518  0.57884813
   0.60289886  0.57260587  0.50511020
   0.45601313  0.36729464  0.46267839
   0.55820708  0.57549980  0.36761550
   0.45441431  0.35350864  0.60518493
   0.39782940  0.47326801  0.53949498
   0.42867913  0.63003992  0.34663560
   0.44160979  0.49890810  0.40362966
   0.44349579  0.48290276  0.67624530
   0.50323149  0.66537193  0.46630235
   0.47398352  0.59167715  0.58260715
   0.37411499  0.60193807  0.47591874
 
 position of ions in cartesian coordinates  (Angst):
  13.10317326  8.66569582 10.31448091
  11.25503048  6.48759341 10.26800516
  11.11869602  8.68720208  8.41006496
  10.56001605  8.99098296 11.26532609
  11.73339233 11.14384150  9.83026600
   8.87475718  7.14815100  9.00447406
  10.86361771 11.20016207  7.15439550
   8.84364152  6.87985309 11.77788298
   7.74240712  9.21056522 10.49944977
   8.34279314 12.26160162  6.74609255
   8.59444477  9.70956314  7.85528959
   8.63114931  9.39807316 13.16083342
   9.79370324 12.94921987  9.07500213
   9.22449014 11.51499960 11.33848275
   7.28088625 11.71469396  9.26215267
 


--------------------------------------------------------------------------------------------------------


 use parallel FFT for wavefunctions z direction half grid
 k-point  1 :   0.0000 0.0000 0.0000  plane waves:   33150

 maximum and minimum number of plane-waves per node :      4147     4141

 maximum number of plane-waves:     33150
 maximum index in each direction: 
   IXMAX=   25   IYMAX=   25   IZMAX=   25
   IXMIN=  -25   IYMIN=  -25   IZMIN=    0

 WARNING: aliasing errors must be expected set NGX to 102 to avoid them
 WARNING: aliasing errors must be expected set NGY to 102 to avoid them
 WARNING: aliasing errors must be expected set NGZ to 102 to avoid them
 aliasing errors are usually negligible using standard VASP settings
 and one can safely disregard these warnings

 parallel 3D FFT for wavefunctions:
    minimum data exchange during FFTs selected (reduces bandwidth)
 parallel 3D FFT for charge:
    minimum data exchange during FFTs selected (reduces bandwidth)


 total amount of memory used by VASP on root node    55436. kBytes
========================================================================

   base      :      30000. kBytes
   nonl-proj :       1591. kBytes
   fftplans  :       5768. kBytes
   grid      :      14451. kBytes
   one-center:         31. kBytes
   wavefun   :       3595. kBytes
 
     INWAV:  cpu time    0.00: real time    0.00
 Broyden mixing: mesh for mixing (old mesh)
   NGX = 51   NGY = 51   NGZ = 51
  (NGX  =160   NGY  =160   NGZ  =160)
  gives a total of 132651 points

 initial charge density was supplied:
 charge density of overlapping atoms calculated
 number of electron     165.0000000 magnetization      15.0000000
 keeping initial charge density in first step


--------------------------------------------------------------------------------------------------------


 Maximum index for augmentation-charges          269 (set IRDMAX)


--------------------------------------------------------------------------------------------------------


 First call to EWALD:  gamma=   0.091
 Maximum number of real-space cells 3x 3x 3
 Maximum number of reciprocal cells 3x 3x 3

 FEWALD executed in parallel
    FEWALD:  cpu time    0.00: real time    0.00


----------------------------------------- Iteration    1(   1)  ---------------------------------------


    POTLOK:  cpu time    0.23: real time    0.23
    SETDIJ:  cpu time    0.01: real time    0.01
     EDDAV:  cpu time    1.10: real time    1.10
       DOS:  cpu time    0.00: real time    0.00
    --------------------------------------------
      LOOP:  cpu time    1.34: real time    1.61

 eigenvalue-minimisations  :   432
 total energy-change (2. order) : 0.1458807E+04  (-0.2739900E+04)
 number of electron     165.0000000 magnetization      15.0000000
 augmentation part      165.0000000 magnetization      15.0000000

 Free energy of the ion-electron system (eV)
  ---------------------------------------------------
  alpha Z        PSCENC =        25.96326467
  Ewald energy   TEWEN  =     20051.26339652
  -Hartree energ DENC   =    -34948.58182171
  -exchange      EXHF   =         0.00000000
  -V(xc)+E(xc)   XCENC  =      -166.94251712
  PAW double counting   =     15050.58267104   -14358.96913318
  entropy T*S    EENTRO =         0.00000000
  eigenvalues    EBANDS =       247.51137457
  atomic energy  EATOM  =     15557.97945130
  ---------------------------------------------------
  free energy    TOTEN  =      1458.80668609 eV

  energy without entropy =     1458.80668609  energy(sigma->0) =     1458.80668609


--------------------------------------------------------------------------------------------------------




----------------------------------------- Iteration    1(   2)  ---------------------------------------


     EDDAV:  cpu time    1.78: real time    1.78
       DOS:  cpu time    0.00: real time    0.00
    --------------------------------------------
      LOOP:  cpu time    1.78: real time    1.79

 eigenvalue-minimisations  :   792
 total energy-change (2. order) :-0.1018586E+04  (-0.9038059E+03)
 number of electron     165.0000000 magnetization      15.0000000
 augmentation part      165.0000000 magnetization      15.0000000

 Free energy of the ion-electron system (eV)
  ---------------------------------------------------
  alpha Z        PSCENC =        25.96326467
  Ewald energy   TEWEN  =     20051.26339652
  -Hartree energ DENC   =    -34948.58182171
  -exchange      EXHF   =         0.00000000
  -V(xc)+E(xc)   XCENC  =      -166.94251712
  PAW double counting   =     15050.58267104   -14358.96913318
  entropy T*S    EENTRO =         0.00000000
  eigenvalues    EBANDS =      -771.07464708
  atomic energy  EATOM  =     15557.97945130
  ---------------------------------------------------
  free energy    TOTEN  =       440.22066444 eV

  energy without entropy =      440.22066444  energy(sigma->0) =      440.22066444


--------------------------------------------------------------------------------------------------------




----------------------------------------- Iteration    1(   3)  ---------------------------------------


     EDDAV:  cpu time    1.43: real time    1.43
       DOS:  cpu time    0.00: real time    0.00
    --------------------------------------------
      LOOP:  cpu time    1.43: real time    1.44

 eigenvalue-minimisations  :   608
 total energy-change (2. order) :-0.4376880E+03  (-0.4015724E+03)
 number of electron     165.0000000 magnetization      15.0000000
 augmentation part      165.0000000 magnetization      15.0000000

 Free energy of the ion-electron system (eV)
  ---------------------------------------------------
  alpha Z        PSCENC =        25.96326467
  Ewald energy   TEWEN  =     20051.26339652
  -Hartree energ DENC   =    -34948.58182171
  -exchange      EXHF   =         0.00000000
  -V(xc)+E(xc)   XCENC  =      -166.94251712
  PAW double counting   =     15050.58267104   -14358.96913318
  entropy T*S    EENTRO =         0.00000000
  eigenvalues    EBANDS =     -1208.76269481
  atomic energy  EATOM  =     15557.97945130
  ---------------------------------------------------
  free energy    TOTEN  =         2.53261671 eV

  energy without entropy =        2.53261671  energy(sigma->0) =        2.53261671


--------------------------------------------------------------------------------------------------------




----------------------------------------- Iteration    1(   4)  ---------------------------------------


     EDDAV:  cpu time    1.15: real time    1.15
       DOS:  cpu time    0.00: real time    0.00
    --------------------------------------------
      LOOP:  cpu time    1.15: real time    1.95

 eigenvalue-minimisations  :   464
 total energy-change (2. order) :-0.3086662E+02  (-0.3049519E+02)
 number of electron     165.0000000 magnetization      15.0000000
 augmentation part      165.0000000 magnetization      15.0000000

 Free energy of the ion-electron system (eV)
  ---------------------------------------------------
  alpha Z        PSCENC =        25.96326467
  Ewald energy   TEWEN  =     20051.26339652
  -Hartree energ DENC   =    -34948.58182171
  -exchange      EXHF   =         0.00000000
  -V(xc)+E(xc)   XCENC  =      -166.94251712
  PAW double counting   =     15050.58267104   -14358.96913318
  entropy T*S    EENTRO =         0.00000000
  eigenvalues    EBANDS =     -1239.62931514
  atomic energy  EATOM  =     15557.97945130
  ---------------------------------------------------
  free energy    TOTEN  =       -28.33400362 eV

  energy without entropy =      -28.33400362  energy(sigma->0) =      -28.33400362


--------------------------------------------------------------------------------------------------------




----------------------------------------- Iteration    1(   5)  ---------------------------------------


     EDDAV:  cpu time    1.22: real time    1.22
       DOS:  cpu time    0.00: real time    0.00
    CHARGE:  cpu time    0.06: real time    0.06
    MIXING:  cpu time    0.00: real time    0.01
    --------------------------------------------
      LOOP:  cpu time    1.29: real time    1.29

 eigenvalue-minimisations  :   496
 total energy-change (2. order) :-0.4656718E+00  (-0.4650170E+00)
 number of electron     164.9999704 magnetization      12.8855904
 augmentation part       77.9229400 magnetization      12.2106854

 Broyden mixing:
  rms(total) = 0.21065E+01    rms(broyden)= 0.21062E+01
  rms(prec ) = 0.21538E+01
  weight for this iteration     100.00

 Free energy of the ion-electron system (eV)
  ---------------------------------------------------
  alpha Z        PSCENC =        25.96326467
  Ewald energy   TEWEN  =     20051.26339652
  -Hartree energ DENC   =    -34948.58182171
  -exchange      EXHF   =         0.00000000
  -V(xc)+E(xc)   XCENC  =      -166.94251712
  PAW double counting   =     15050.58267104   -14358.96913318
  entropy T*S    EENTRO =         0.00000000
  eigenvalues    EBANDS =     -1240.09498693
  atomic energy  EATOM  =     15557.97945130
  ---------------------------------------------------
  free energy    TOTEN  =       -28.79967540 eV

  energy without entropy =      -28.79967540  energy(sigma->0) =      -28.79967540


--------------------------------------------------------------------------------------------------------




----------------------------------------- Iteration    1(   6)  ---------------------------------------


    POTLOK:  cpu time    0.22: real time    0.22
    SETDIJ:  cpu time    0.00: real time    0.01
     EDDAV:  cpu time    1.09: real time    1.09
       DOS:  cpu time    0.00: real time    0.00
    CHARGE:  cpu time    0.06: real time    0.06
    MIXING:  cpu time    0.01: real time    0.01
    --------------------------------------------
      LOOP:  cpu time    1.39: real time    1.39

 eigenvalue-minimisations  :   432
 total energy-change (2. order) : 0.2090521E+02  (-0.5910713E+01)
 number of electron     164.9999695 magnetization      11.5184968
 augmentation part       79.5055187 magnetization       7.4047808

 Broyden mixing:
  rms(total) = 0.10466E+01    rms(broyden)= 0.10465E+01
  rms(prec ) = 0.10723E+01
  weight for this iteration     100.00

 eigenvalues of (default mixing * dielectric matrix)
  average eigenvalue GAMMA=   0.8448
  0.8448

 Free energy of the ion-electron system (eV)
  ---------------------------------------------------
  alpha Z        PSCENC =        25.96326467
  Ewald energy   TEWEN  =     20051.26339652
  -Hartree energ DENC   =    -34900.76514191
  -exchange      EXHF   =         0.00000000
  -V(xc)+E(xc)   XCENC  =      -156.17571392
  PAW double counting   =     15492.46690637   -14810.53317546
  entropy T*S    EENTRO =         0.00000000
  eigenvalues    EBANDS =     -1268.09345286
  atomic energy  EATOM  =     15557.97945130
  ---------------------------------------------------
  free energy    TOTEN  =        -7.89446528 eV

  energy without entropy =       -7.89446528  energy(sigma->0) =       -7.89446528


--------------------------------------------------------------------------------------------------------




----------------------------------------- Iteration    1(   7)  ---------------------------------------


    POTLOK:  cpu time    0.22: real time    0.22
    SETDIJ:  cpu time    0.00: real time    0.01
     EDDAV:  cpu time    1.20: real time    1.20
       DOS:  cpu time    0.00: real time    0.00
    CHARGE:  cpu time    0.06: real time    0.06
    MIXING:  cpu time    0.00: real time    0.01
    --------------------------------------------
      LOOP:  cpu time    1.50: real time    1.50

 eigenvalue-minimisations  :   488
 total energy-change (2. order) : 0.3514603E+01  (-0.3468927E+00)
 number of electron     164.9999695 magnetization       9.6129329
 augmentation part       79.4466209 magnetization       5.6765592

 Broyden mixing:
  rms(total) = 0.60360E+00    rms(broyden)= 0.60359E+00
  rms(prec ) = 0.61768E+00
  weight for this iteration     100.00

 eigenvalues of (default mixing * dielectric matrix)
  average eigenvalue GAMMA=   0.9409
  0.7434  1.1383

 Free energy of the ion-electron system (eV)
  ---------------------------------------------------
  alpha Z        PSCENC =        25.96326467
  Ewald energy   TEWEN  =     20051.26339652
  -Hartree energ DENC   =    -34936.03539347
  -exchange      EXHF   =         0.00000000
  -V(xc)+E(xc)   XCENC  =      -152.95999534
  PAW double counting   =     15759.51815937   -15083.70598810
  entropy T*S    EENTRO =         0.00000000
  eigenvalues    EBANDS =     -1226.40275769
  atomic energy  EATOM  =     15557.97945130
  ---------------------------------------------------
  free energy    TOTEN  =        -4.37986274 eV

  energy without entropy =       -4.37986274  energy(sigma->0) =       -4.37986274


--------------------------------------------------------------------------------------------------------




----------------------------------------- Iteration    1(   8)  ---------------------------------------


    POTLOK:  cpu time    0.22: real time    0.22
    SETDIJ:  cpu time    0.01: real time    0.01
     EDDAV:  cpu time    1.18: real time    1.18
       DOS:  cpu time    0.00: real time    0.00
    CHARGE:  cpu time    0.06: real time    0.06
    MIXING:  cpu time    0.01: real time    0.01
    --------------------------------------------
      LOOP:  cpu time    1.48: real time    1.48

 eigenvalue-minimisations  :   476
 total energy-change (2. order) :-0.3162123E+01  (-0.1601393E+00)
 number of electron     164.9999695 magnetization       8.2053342
 augmentation part       79.3109137 magnetization       4.4271837

 Broyden mixing:
  rms(total) = 0.31410E+00    rms(broyden)= 0.31410E+00
  rms(prec ) = 0.31913E+00
  weight for this iteration     100.00

 eigenvalues of (default mixing * dielectric matrix)
  average eigenvalue GAMMA=   1.2014
  2.0648  0.9178  0.6217

 Free energy of the ion-electron system (eV)
  ---------------------------------------------------
  alpha Z        PSCENC =        25.96326467
  Ewald energy   TEWEN  =     20051.26339652
  -Hartree energ DENC   =    -34973.35873173
  -exchange      EXHF   =         0.00000000
  -V(xc)+E(xc)   XCENC  =      -155.05579574
  PAW double counting   =     16047.00651582   -15377.10699848
  entropy T*S    EENTRO =         0.00000000
  eigenvalues    EBANDS =     -1184.23308775
  atomic energy  EATOM  =     15557.97945130
  ---------------------------------------------------
  free energy    TOTEN  =        -7.54198539 eV

  energy without entropy =       -7.54198539  energy(sigma->0) =       -7.54198539


--------------------------------------------------------------------------------------------------------




----------------------------------------- Iteration    1(   9)  ---------------------------------------


    POTLOK:  cpu time    0.22: real time    0.22
    SETDIJ:  cpu time    0.01: real time    0.01
     EDDAV:  cpu time    1.18: real time    1.18
       DOS:  cpu time    0.00: real time    0.00
    CHARGE:  cpu time    0.06: real time    0.06
    MIXING:  cpu time    0.01: real time    0.01
    --------------------------------------------
      LOOP:  cpu time    1.48: real time    1.48

 eigenvalue-minimisations  :   480
 total energy-change (2. order) :-0.3816694E+01  (-0.1092553E+00)
 number of electron     164.9999695 magnetization       6.8435408
 augmentation part       79.2778675 magnetization       3.2015121

 Broyden mixing:
  rms(total) = 0.17978E+00    rms(broyden)= 0.17978E+00
  rms(prec ) = 0.18531E+00
  weight for this iteration     100.00

 eigenvalues of (default mixing * dielectric matrix)
  average eigenvalue GAMMA=   1.2195
  2.0756  0.6184  0.8124  1.3715

 Free energy of the ion-electron system (eV)
  ---------------------------------------------------
  alpha Z        PSCENC =        25.96326467
  Ewald energy   TEWEN  =     20051.26339652
  -Hartree energ DENC   =    -34985.61929887
  -exchange      EXHF   =         0.00000000
  -V(xc)+E(xc)   XCENC  =      -157.87080298
  PAW double counting   =     16168.28539986   -15500.79332650
  entropy T*S    EENTRO =         0.00000000
  eigenvalues    EBANDS =     -1170.56676323
  atomic energy  EATOM  =     15557.97945130
  ---------------------------------------------------
  free energy    TOTEN  =       -11.35867923 eV

  energy without entropy =      -11.35867923  energy(sigma->0) =      -11.35867923


--------------------------------------------------------------------------------------------------------




----------------------------------------- Iteration    1(  10)  ---------------------------------------


    POTLOK:  cpu time    0.22: real time    0.22
    SETDIJ:  cpu time    0.01: real time    0.01
     EDDAV:  cpu time    1.09: real time    1.09
       DOS:  cpu time    0.00: real time    0.00
    CHARGE:  cpu time    0.06: real time    0.06
    MIXING:  cpu time    0.01: real time    0.01
    --------------------------------------------
      LOOP:  cpu time    1.40: real time    1.40

 eigenvalue-minimisations  :   432
 total energy-change (2. order) :-0.6096645E+01  (-0.2409464E+00)
 number of electron     164.9999697 magnetization       6.5922369
 augmentation part       79.2958726 magnetization       5.1123816

 Broyden mixing:
  rms(total) = 0.23431E+00    rms(broyden)= 0.23418E+00
  rms(prec ) = 0.25113E+00
  weight for this iteration     100.00

 eigenvalues of (default mixing * dielectric matrix)
  average eigenvalue GAMMA=   1.0227
  2.1247  1.3988  0.6200  0.8199  0.1500

 Free energy of the ion-electron system (eV)
  ---------------------------------------------------
  alpha Z        PSCENC =        25.96326467
  Ewald energy   TEWEN  =     20051.26339652
  -Hartree energ DENC   =    -34982.79060565
  -exchange      EXHF   =         0.00000000
  -V(xc)+E(xc)   XCENC  =      -162.46904505
  PAW double counting   =     16172.23230927   -15504.96804478
  entropy T*S    EENTRO =         0.00000000
  eigenvalues    EBANDS =     -1174.66605010
  atomic energy  EATOM  =     15557.97945130
  ---------------------------------------------------
  free energy    TOTEN  =       -17.45532381 eV

  energy without entropy =      -17.45532381  energy(sigma->0) =      -17.45532381


--------------------------------------------------------------------------------------------------------




----------------------------------------- Iteration    1(  11)  ---------------------------------------


    POTLOK:  cpu time    0.22: real time    0.22
    SETDIJ:  cpu time    0.01: real time    0.01
     EDDAV:  cpu time    1.28: real time    1.29
       DOS:  cpu time    0.00: real time    0.00
    CHARGE:  cpu time    0.06: real time    0.06
    MIXING:  cpu time    0.01: real time    0.01
    --------------------------------------------
      LOOP:  cpu time    1.59: real time    1.59

 eigenvalue-minimisations  :   536
 total energy-change (2. order) :-0.3308978E+00  (-0.7753442E-02)
 number of electron     164.9999697 magnetization       5.8111023
 augmentation part       79.2812150 magnetization       4.3736653

 Broyden mixing:
  rms(total) = 0.21363E+00    rms(broyden)= 0.21362E+00
  rms(prec ) = 0.22881E+00
  weight for this iteration     100.00

 eigenvalues of (default mixing * dielectric matrix)
  average eigenvalue GAMMA=   0.9902
  2.0918  1.4573  0.7962  0.6128  0.4916  0.4916

 Free energy of the ion-electron system (eV)
  ---------------------------------------------------
  alpha Z        PSCENC =        25.96326467
  Ewald energy   TEWEN  =     20051.26339652
  -Hartree energ DENC   =    -34983.49591847
  -exchange      EXHF   =         0.00000000
  -V(xc)+E(xc)   XCENC  =      -162.67180887
  PAW double counting   =     16176.52327739   -15509.38269423
  entropy T*S    EENTRO =         0.00000000
  eigenvalues    EBANDS =     -1173.96518987
  atomic energy  EATOM  =     15557.97945130
  ---------------------------------------------------
  free energy    TOTEN  =       -17.78622156 eV

  energy without entropy =      -17.78622156  energy(sigma->0) =      -17.78622156


--------------------------------------------------------------------------------------------------------




----------------------------------------- Iteration    1(  12)  ---------------------------------------


    POTLOK:  cpu time    0.22: real time    0.22
    SETDIJ:  cpu time    0.01: real time    0.01
     EDDAV:  cpu time    1.12: real time    1.12
       DOS:  cpu time    0.00: real time    0.00
    CHARGE:  cpu time    0.06: real time    0.06
    MIXING:  cpu time    0.01: real time    0.01
    --------------------------------------------
      LOOP:  cpu time    1.43: real time    1.43

 eigenvalue-minimisations  :   448
 total energy-change (2. order) :-0.1787615E+01  (-0.4520178E-01)
 number of electron     164.9999697 magnetization       3.5889701
 augmentation part       79.2866451 magnetization       2.2327461

 Broyden mixing:
  rms(total) = 0.17154E+00    rms(broyden)= 0.17154E+00
  rms(prec ) = 0.18089E+00
  weight for this iteration     100.00

 eigenvalues of (default mixing * dielectric matrix)
  average eigenvalue GAMMA=   1.2301
  2.7225  1.6089  1.6089  0.9790  0.6571  0.5173  0.5173

 Free energy of the ion-electron system (eV)
  ---------------------------------------------------
  alpha Z        PSCENC =        25.96326467
  Ewald energy   TEWEN  =     20051.26339652
  -Hartree energ DENC   =    -34982.66557624
  -exchange      EXHF   =         0.00000000
  -V(xc)+E(xc)   XCENC  =      -163.98711848
  PAW double counting   =     16156.94722184   -15489.88123281
  entropy T*S    EENTRO =         0.00000000
  eigenvalues    EBANDS =     -1175.19324296
  atomic energy  EATOM  =     15557.97945130
  ---------------------------------------------------
  free energy    TOTEN  =       -19.57383615 eV

  energy without entropy =      -19.57383615  energy(sigma->0) =      -19.57383615


--------------------------------------------------------------------------------------------------------




----------------------------------------- Iteration    1(  13)  ---------------------------------------


    POTLOK:  cpu time    0.22: real time    0.22
    SETDIJ:  cpu time    0.01: real time    0.01
     EDDAV:  cpu time    1.12: real time    1.12
       DOS:  cpu time    0.00: real time    0.00
    CHARGE:  cpu time    0.06: real time    0.06
    MIXING:  cpu time    0.01: real time    0.01
    --------------------------------------------
      LOOP:  cpu time    1.42: real time    2.38

 eigenvalue-minimisations  :   448
 total energy-change (2. order) :-0.4311302E+01  (-0.2157381E+00)
 number of electron     164.9999697 magnetization       2.7747059
 augmentation part       79.2984295 magnetization       1.6071637

 Broyden mixing:
  rms(total) = 0.79306E-01    rms(broyden)= 0.79293E-01
  rms(prec ) = 0.81542E-01
  weight for this iteration     100.00

 eigenvalues of (default mixing * dielectric matrix)
  average eigenvalue GAMMA=   1.3558
  3.8716  1.5358  1.5358  1.3165  0.8720  0.6476  0.5334  0.5334

 Free energy of the ion-electron system (eV)
  ---------------------------------------------------
  alpha Z        PSCENC =        25.96326467
  Ewald energy   TEWEN  =     20051.26339652
  -Hartree energ DENC   =    -34981.95620107
  -exchange      EXHF   =         0.00000000
  -V(xc)+E(xc)   XCENC  =      -167.39136302
  PAW double counting   =     16125.12485518   -15458.40687012
  entropy T*S    EENTRO =         0.00000000
  eigenvalues    EBANDS =     -1176.46167205
  atomic energy  EATOM  =     15557.97945130
  ---------------------------------------------------
  free energy    TOTEN  =       -23.88513859 eV

  energy without entropy =      -23.88513859  energy(sigma->0) =      -23.88513859


--------------------------------------------------------------------------------------------------------




----------------------------------------- Iteration    1(  14)  ---------------------------------------


    POTLOK:  cpu time    0.22: real time    0.22
    SETDIJ:  cpu time    0.01: real time    0.01
     EDDAV:  cpu time    1.12: real time    1.12
       DOS:  cpu time    0.00: real time    0.00
    CHARGE:  cpu time    0.06: real time    0.06
    MIXING:  cpu time    0.01: real time    0.01
    --------------------------------------------
      LOOP:  cpu time    1.43: real time    1.43

 eigenvalue-minimisations  :   448
 total energy-change (2. order) :-0.2016964E+01  (-0.5690118E-01)
 number of electron     164.9999697 magnetization       2.2880629
 augmentation part       79.2689315 magnetization       1.1731018

 Broyden mixing:
  rms(total) = 0.57623E-01    rms(broyden)= 0.57617E-01
  rms(prec ) = 0.62331E-01
  weight for this iteration     100.00

 eigenvalues of (default mixing * dielectric matrix)
  average eigenvalue GAMMA=   1.3929
  4.3347  2.0171  1.4212  1.4212  0.7637  0.7637  0.7173  0.5866  0.5108

 Free energy of the ion-electron system (eV)
  ---------------------------------------------------
  alpha Z        PSCENC =        25.96326467
  Ewald energy   TEWEN  =     20051.26339652
  -Hartree energ DENC   =    -34981.65031825
  -exchange      EXHF   =         0.00000000
  -V(xc)+E(xc)   XCENC  =      -169.04851027
  PAW double counting   =     16132.12760272   -15465.43850609
  entropy T*S    EENTRO =         0.00000000
  eigenvalues    EBANDS =     -1177.09848344
  atomic energy  EATOM  =     15557.97945130
  ---------------------------------------------------
  free energy    TOTEN  =       -25.90210284 eV

  energy without entropy =      -25.90210284  energy(sigma->0) =      -25.90210284


--------------------------------------------------------------------------------------------------------




----------------------------------------- Iteration    1(  15)  ---------------------------------------


    POTLOK:  cpu time    0.22: real time    0.23
    SETDIJ:  cpu time    0.01: real time    0.01
     EDDAV:  cpu time    1.12: real time    1.13
       DOS:  cpu time    0.00: real time    0.00
    CHARGE:  cpu time    0.06: real time    0.06
    MIXING:  cpu time    0.01: real time    0.01
    --------------------------------------------
      LOOP:  cpu time    1.43: real time    2.15

 eigenvalue-minimisations  :   448
 total energy-change (2. order) :-0.9062537E+00  (-0.1277376E-01)
 number of electron     164.9999697 magnetization       1.7460091
 augmentation part       79.2881537 magnetization       0.6599611

 Broyden mixing:
  rms(total) = 0.40932E-01    rms(broyden)= 0.40929E-01
  rms(prec ) = 0.44682E-01
  weight for this iteration     100.00

 eigenvalues of (default mixing * dielectric matrix)
  average eigenvalue GAMMA=   1.5122
  4.4727  2.6996  1.7220  1.7220  0.9891  0.9891  0.8177  0.6218  0.5650  0.5228

 Free energy of the ion-electron system (eV)
  ---------------------------------------------------
  alpha Z        PSCENC =        25.96326467
  Ewald energy   TEWEN  =     20051.26339652
  -Hartree energ DENC   =    -34975.20685095
  -exchange      EXHF   =         0.00000000
  -V(xc)+E(xc)   XCENC  =      -169.93578657
  PAW double counting   =     16112.31683104   -15445.19855751
  entropy T*S    EENTRO =         0.00000000
  eigenvalues    EBANDS =     -1183.99010507
  atomic energy  EATOM  =     15557.97945130
  ---------------------------------------------------
  free energy    TOTEN  =       -26.80835657 eV

  energy without entropy =      -26.80835657  energy(sigma->0) =      -26.80835657


--------------------------------------------------------------------------------------------------------




----------------------------------------- Iteration    1(  16)  ---------------------------------------


    POTLOK:  cpu time    0.22: real time    0.22
    SETDIJ:  cpu time    0.01: real time    0.01
     EDDAV:  cpu time    1.11: real time    1.11
       DOS:  cpu time    0.00: real time    0.00
    CHARGE:  cpu time    0.06: real time    0.06
    MIXING:  cpu time    0.01: real time    0.01
    --------------------------------------------
      LOOP:  cpu time    1.42: real time    1.72

 eigenvalue-minimisations  :   440
 total energy-change (2. order) :-0.1060173E+01  (-0.2002893E-01)
 number of electron     164.9999697 magnetization       1.3577005
 augmentation part       79.2918248 magnetization       0.2801129

 Broyden mixing:
  rms(total) = 0.25969E-01    rms(broyden)= 0.25958E-01
  rms(prec ) = 0.29722E-01
  weight for this iteration     100.00

 eigenvalues of (default mixing * dielectric matrix)
  average eigenvalue GAMMA=   1.5583
  5.3948  2.9948  1.8086  1.4009  1.4009  0.9604  0.8029  0.5018  0.6154  0.6154
  0.6459

 Free energy of the ion-electron system (eV)
  ---------------------------------------------------
  alpha Z        PSCENC =        25.96326467
  Ewald energy   TEWEN  =     20051.26339652
  -Hartree energ DENC   =    -34964.56632081
  -exchange      EXHF   =         0.00000000
  -V(xc)+E(xc)   XCENC  =      -171.03612537
  PAW double counting   =     16100.15681017   -15432.58604539
  entropy T*S    EENTRO =         0.00000000
  eigenvalues    EBANDS =     -1195.04296030
  atomic energy  EATOM  =     15557.97945130
  ---------------------------------------------------
  free energy    TOTEN  =       -27.86852920 eV

  energy without entropy =      -27.86852920  energy(sigma->0) =      -27.86852920


--------------------------------------------------------------------------------------------------------




----------------------------------------- Iteration    1(  17)  ---------------------------------------


    POTLOK:  cpu time    0.22: real time    0.22
    SETDIJ:  cpu time    0.00: real time    0.01
     EDDAV:  cpu time    1.11: real time    1.11
       DOS:  cpu time    0.00: real time    0.00
    CHARGE:  cpu time    0.06: real time    0.06
    MIXING:  cpu time    0.01: real time    0.01
    --------------------------------------------
      LOOP:  cpu time    1.42: real time    1.42

 eigenvalue-minimisations  :   440
 total energy-change (2. order) :-0.3523176E+00  (-0.2677145E-02)
 number of electron     164.9999697 magnetization       1.1342769
 augmentation part       79.3014479 magnetization       0.0744723

 Broyden mixing:
  rms(total) = 0.14282E-01    rms(broyden)= 0.14276E-01
  rms(prec ) = 0.16533E-01
  weight for this iteration     100.00

 eigenvalues of (default mixing * dielectric matrix)
  average eigenvalue GAMMA=   1.5990
  6.0749  3.0332  2.0679  1.5064  1.5064  0.9366  0.8725  0.8725  0.5061  0.6374
  0.5870  0.5870

 Free energy of the ion-electron system (eV)
  ---------------------------------------------------
  alpha Z        PSCENC =        25.96326467
  Ewald energy   TEWEN  =     20051.26339652
  -Hartree energ DENC   =    -34959.85404810
  -exchange      EXHF   =         0.00000000
  -V(xc)+E(xc)   XCENC  =      -171.44494244
  PAW double counting   =     16094.07744627   -15426.47743341
  entropy T*S    EENTRO =         0.00000000
  eigenvalues    EBANDS =     -1199.72798165
  atomic energy  EATOM  =     15557.97945130
  ---------------------------------------------------
  free energy    TOTEN  =       -28.22084684 eV

  energy without entropy =      -28.22084684  energy(sigma->0) =      -28.22084684


--------------------------------------------------------------------------------------------------------




----------------------------------------- Iteration    1(  18)  ---------------------------------------


    POTLOK:  cpu time    0.22: real time    0.22
    SETDIJ:  cpu time    0.01: real time    0.01
     EDDAV:  cpu time    1.15: real time    1.15
       DOS:  cpu time    0.00: real time    0.00
    CHARGE:  cpu time    0.06: real time    0.06
    MIXING:  cpu time    0.01: real time    0.01
    --------------------------------------------
      LOOP:  cpu time    1.46: real time    1.46

 eigenvalue-minimisations  :   464
 total energy-change (2. order) :-0.1394304E+00  (-0.7940110E-03)
 number of electron     164.9999697 magnetization       1.0645539
 augmentation part       79.3044399 magnetization       0.0155059

 Broyden mixing:
  rms(total) = 0.83730E-02    rms(broyden)= 0.83705E-02
  rms(prec ) = 0.10758E-01
  weight for this iteration     100.00

 eigenvalues of (default mixing * dielectric matrix)
  average eigenvalue GAMMA=   1.6425
  6.5086  2.9798  2.3716  1.5704  1.5704  1.3653  1.0672  0.8624  0.5088  0.6738
  0.6738  0.6283  0.5720

 Free energy of the ion-electron system (eV)
  ---------------------------------------------------
  alpha Z        PSCENC =        25.96326467
  Ewald energy   TEWEN  =     20051.26339652
  -Hartree energ DENC   =    -34957.27996558
  -exchange      EXHF   =         0.00000000
  -V(xc)+E(xc)   XCENC  =      -171.60865240
  PAW double counting   =     16094.54518060   -15426.99568520
  entropy T*S    EENTRO =         0.00000000
  eigenvalues    EBANDS =     -1202.22726717
  atomic energy  EATOM  =     15557.97945130
  ---------------------------------------------------
  free energy    TOTEN  =       -28.36027727 eV

  energy without entropy =      -28.36027727  energy(sigma->0) =      -28.36027727


--------------------------------------------------------------------------------------------------------




----------------------------------------- Iteration    1(  19)  ---------------------------------------


    POTLOK:  cpu time    0.22: real time    0.22
    SETDIJ:  cpu time    0.01: real time    0.01
     EDDAV:  cpu time    1.11: real time    1.11
       DOS:  cpu time    0.00: real time    0.00
    CHARGE:  cpu time    0.06: real time    0.06
    MIXING:  cpu time    0.01: real time    0.01
    --------------------------------------------
      LOOP:  cpu time    1.42: real time    1.42

 eigenvalue-minimisations  :   440
 total energy-change (2. order) :-0.7954043E-01  (-0.3011707E-03)
 number of electron     164.9999697 magnetization       1.0409006
 augmentation part       79.3001206 magnetization      -0.0085963

 Broyden mixing:
  rms(total) = 0.50963E-02    rms(broyden)= 0.50955E-02
  rms(prec ) = 0.70219E-02
  weight for this iteration     100.00

 eigenvalues of (default mixing * dielectric matrix)
  average eigenvalue GAMMA=   1.6556
  6.5537  3.4419  2.3514  2.0978  1.5013  1.5013  0.9456  0.8915  0.8915  0.5060
  0.6852  0.5927  0.5927  0.6257

 Free energy of the ion-electron system (eV)
  ---------------------------------------------------
  alpha Z        PSCENC =        25.96326467
  Ewald energy   TEWEN  =     20051.26339652
  -Hartree energ DENC   =    -34955.20688717
  -exchange      EXHF   =         0.00000000
  -V(xc)+E(xc)   XCENC  =      -171.69579796
  PAW double counting   =     16101.15424913   -15433.65452563
  entropy T*S    EENTRO =         0.00000000
  eigenvalues    EBANDS =     -1204.24296856
  atomic energy  EATOM  =     15557.97945130
  ---------------------------------------------------
  free energy    TOTEN  =       -28.43981769 eV

  energy without entropy =      -28.43981769  energy(sigma->0) =      -28.43981769


--------------------------------------------------------------------------------------------------------




----------------------------------------- Iteration    1(  20)  ---------------------------------------


    POTLOK:  cpu time    0.22: real time    0.22
    SETDIJ:  cpu time    0.00: real time    0.01
     EDDAV:  cpu time    1.07: real time    1.07
       DOS:  cpu time    0.00: real time    0.00
    CHARGE:  cpu time    0.06: real time    0.06
    MIXING:  cpu time    0.01: real time    0.01
    --------------------------------------------
      LOOP:  cpu time    1.38: real time    1.38

 eigenvalue-minimisations  :   416
 total energy-change (2. order) :-0.3037233E-01  (-0.1757883E-03)
 number of electron     164.9999697 magnetization       1.0157641
 augmentation part       79.3008227 magnetization      -0.0357150

 Broyden mixing:
  rms(total) = 0.24730E-02    rms(broyden)= 0.24723E-02
  rms(prec ) = 0.40192E-02
  weight for this iteration     100.00

 eigenvalues of (default mixing * dielectric matrix)
  average eigenvalue GAMMA=   1.6782
  6.6910  3.8611  2.4115  2.4115  1.5203  1.5203  1.0482  0.9056  0.9056  0.9079
  0.5067  0.6533  0.6218  0.6038  0.6038

 Free energy of the ion-electron system (eV)
  ---------------------------------------------------
  alpha Z        PSCENC =        25.96326467
  Ewald energy   TEWEN  =     20051.26339652
  -Hartree energ DENC   =    -34952.99426450
  -exchange      EXHF   =         0.00000000
  -V(xc)+E(xc)   XCENC  =      -171.74206817
  PAW double counting   =     16104.23393254   -15436.72226055
  entropy T*S    EENTRO =         0.00000000
  eigenvalues    EBANDS =     -1206.45164183
  atomic energy  EATOM  =     15557.97945130
  ---------------------------------------------------
  free energy    TOTEN  =       -28.47019002 eV

  energy without entropy =      -28.47019002  energy(sigma->0) =      -28.47019002


--------------------------------------------------------------------------------------------------------




----------------------------------------- Iteration    1(  21)  ---------------------------------------


    POTLOK:  cpu time    0.22: real time    0.22
    SETDIJ:  cpu time    0.01: real time    0.01
     EDDAV:  cpu time    0.89: real time    0.89
       DOS:  cpu time    0.00: real time    0.00
    CHARGE:  cpu time    0.06: real time    0.06
    MIXING:  cpu time    0.01: real time    0.01
    --------------------------------------------
      LOOP:  cpu time    1.20: real time    1.26

 eigenvalue-minimisations  :   316
 total energy-change (2. order) : 0.6863661E-03  (-0.4333610E-04)
 number of electron     164.9999697 magnetization       1.0116980
 augmentation part       79.3029930 magnetization      -0.0389371

 Broyden mixing:
  rms(total) = 0.14580E-02    rms(broyden)= 0.14576E-02
  rms(prec ) = 0.26557E-02
  weight for this iteration     100.00

 eigenvalues of (default mixing * dielectric matrix)
  average eigenvalue GAMMA=   1.6610
  6.7182  4.0900  2.6980  2.1730  1.5166  1.5166  1.3165  1.0522  0.8780  0.8780
  0.5067  0.7616  0.5986  0.5986  0.6366  0.6366

 Free energy of the ion-electron system (eV)
  ---------------------------------------------------
  alpha Z        PSCENC =        25.96326467
  Ewald energy   TEWEN  =     20051.26339652
  -Hartree energ DENC   =    -34951.52830417
  -exchange      EXHF   =         0.00000000
  -V(xc)+E(xc)   XCENC  =      -171.75436367
  PAW double counting   =     16104.00650958   -15436.48704545
  entropy T*S    EENTRO =         0.00000000
  eigenvalues    EBANDS =     -1207.91241244
  atomic energy  EATOM  =     15557.97945130
  ---------------------------------------------------
  free energy    TOTEN  =       -28.46950366 eV

  energy without entropy =      -28.46950366  energy(sigma->0) =      -28.46950366


--------------------------------------------------------------------------------------------------------




----------------------------------------- Iteration    1(  22)  ---------------------------------------


    POTLOK:  cpu time    0.22: real time    0.22
    SETDIJ:  cpu time    0.00: real time    0.01
     EDDAV:  cpu time    0.89: real time    0.90
       DOS:  cpu time    0.00: real time    0.00
    CHARGE:  cpu time    0.06: real time    0.06
    MIXING:  cpu time    0.01: real time    0.01
    --------------------------------------------
      LOOP:  cpu time    1.20: real time    1.21

 eigenvalue-minimisations  :   320
 total energy-change (2. order) :-0.2146126E-02  (-0.2461765E-04)
 number of electron     164.9999697 magnetization       1.0057788
 augmentation part       79.3033162 magnetization      -0.0448719

 Broyden mixing:
  rms(total) = 0.10687E-02    rms(broyden)= 0.10686E-02
  rms(prec ) = 0.18618E-02
  weight for this iteration     100.00

 eigenvalues of (default mixing * dielectric matrix)
  average eigenvalue GAMMA=   1.7013
  6.6654  4.5609  2.8548  2.1406  2.1406  1.5071  1.5071  1.1386  0.9153  0.9153
  0.8831  0.5065  0.7045  0.6501  0.6501  0.5908  0.5908

 Free energy of the ion-electron system (eV)
  ---------------------------------------------------
  alpha Z        PSCENC =        25.96326467
  Ewald energy   TEWEN  =     20051.26339652
  -Hartree energ DENC   =    -34950.46546991
  -exchange      EXHF   =         0.00000000
  -V(xc)+E(xc)   XCENC  =      -171.76290978
  PAW double counting   =     16104.08618612   -15436.57584177
  entropy T*S    EENTRO =         0.00000000
  eigenvalues    EBANDS =     -1208.95972694
  atomic energy  EATOM  =     15557.97945130
  ---------------------------------------------------
  free energy    TOTEN  =       -28.47164978 eV

  energy without entropy =      -28.47164978  energy(sigma->0) =      -28.47164978


--------------------------------------------------------------------------------------------------------




----------------------------------------- Iteration    1(  23)  ---------------------------------------


    POTLOK:  cpu time    0.22: real time    0.22
    SETDIJ:  cpu time    0.01: real time    0.01
     EDDAV:  cpu time    0.89: real time    0.89
       DOS:  cpu time    0.00: real time    0.00
    CHARGE:  cpu time    0.06: real time    0.06
    MIXING:  cpu time    0.02: real time    0.01
    --------------------------------------------
      LOOP:  cpu time    1.20: real time    1.28

 eigenvalue-minimisations  :   316
 total energy-change (2. order) :-0.2671545E-02  (-0.2336153E-04)
 number of electron     164.9999697 magnetization       1.0038948
 augmentation part       79.3042722 magnetization      -0.0464817

 Broyden mixing:
  rms(total) = 0.79814E-03    rms(broyden)= 0.79807E-03
  rms(prec ) = 0.11656E-02
  weight for this iteration     100.00

 eigenvalues of (default mixing * dielectric matrix)
  average eigenvalue GAMMA=   1.7375
  6.4886  5.3958  3.0085  2.4116  2.4116  1.5049  1.5049  1.2197  0.9676  0.9676
  0.8567  0.8567  0.7218  0.5066  0.6312  0.6312  0.5952  0.5952

 Free energy of the ion-electron system (eV)
  ---------------------------------------------------
  alpha Z        PSCENC =        25.96326467
  Ewald energy   TEWEN  =     20051.26339652
  -Hartree energ DENC   =    -34949.29672997
  -exchange      EXHF   =         0.00000000
  -V(xc)+E(xc)   XCENC  =      -171.77344454
  PAW double counting   =     16103.50628645   -15435.99311718
  entropy T*S    EENTRO =         0.00000000
  eigenvalues    EBANDS =     -1210.12342858
  atomic energy  EATOM  =     15557.97945130
  ---------------------------------------------------
  free energy    TOTEN  =       -28.47432133 eV

  energy without entropy =      -28.47432133  energy(sigma->0) =      -28.47432133


--------------------------------------------------------------------------------------------------------




----------------------------------------- Iteration    1(  24)  ---------------------------------------


    POTLOK:  cpu time    0.22: real time    0.22
    SETDIJ:  cpu time    0.01: real time    0.01
     EDDAV:  cpu time    0.90: real time    0.90
       DOS:  cpu time    0.00: real time    0.00
    CHARGE:  cpu time    0.06: real time    0.06
    MIXING:  cpu time    0.01: real time    0.01
    --------------------------------------------
      LOOP:  cpu time    1.21: real time    1.23

 eigenvalue-minimisations  :   324
 total energy-change (2. order) :-0.1471119E-02  (-0.4751192E-05)
 number of electron     164.9999697 magnetization       1.0013581
 augmentation part       79.3041242 magnetization      -0.0489815

 Broyden mixing:
  rms(total) = 0.57235E-03    rms(broyden)= 0.57230E-03
  rms(prec ) = 0.80589E-03
  weight for this iteration     100.00

 eigenvalues of (default mixing * dielectric matrix)
  average eigenvalue GAMMA=   1.7643
  6.2412  6.2412  3.3292  2.3823  2.3823  1.5104  1.5104  1.6479  1.0397  1.0397
  0.8734  0.8734  0.8151  0.5066  0.6596  0.6596  0.5909  0.5909  0.6278

 Free energy of the ion-electron system (eV)
  ---------------------------------------------------
  alpha Z        PSCENC =        25.96326467
  Ewald energy   TEWEN  =     20051.26339652
  -Hartree energ DENC   =    -34948.83258024
  -exchange      EXHF   =         0.00000000
  -V(xc)+E(xc)   XCENC  =      -171.77714278
  PAW double counting   =     16103.56319852   -15436.04916836
  entropy T*S    EENTRO =         0.00000000
  eigenvalues    EBANDS =     -1210.58621207
  atomic energy  EATOM  =     15557.97945130
  ---------------------------------------------------
  free energy    TOTEN  =       -28.47579245 eV

  energy without entropy =      -28.47579245  energy(sigma->0) =      -28.47579245


--------------------------------------------------------------------------------------------------------




----------------------------------------- Iteration    1(  25)  ---------------------------------------


    POTLOK:  cpu time    0.22: real time    0.22
    SETDIJ:  cpu time    0.00: real time    0.01
     EDDAV:  cpu time    0.87: real time    0.87
       DOS:  cpu time    0.00: real time    0.00
    CHARGE:  cpu time    0.06: real time    0.06
    MIXING:  cpu time    0.02: real time    0.01
    --------------------------------------------
      LOOP:  cpu time    1.18: real time    1.19

 eigenvalue-minimisations  :   304
 total energy-change (2. order) :-0.2928282E-03  (-0.1327412E-05)
 number of electron     164.9999697 magnetization       0.9995095
 augmentation part       79.3040816 magnetization      -0.0505982

 Broyden mixing:
  rms(total) = 0.27904E-03    rms(broyden)= 0.27898E-03
  rms(prec ) = 0.46062E-03
  weight for this iteration     100.00

 eigenvalues of (default mixing * dielectric matrix)
  average eigenvalue GAMMA=   1.8066
  6.5339  6.5339  3.7509  2.3456  2.3456  2.3593  1.5153  1.5153  1.1781  1.0171
  0.9077  0.9077  0.8774  0.5066  0.6949  0.6949  0.5947  0.5947  0.6295  0.6295

 Free energy of the ion-electron system (eV)
  ---------------------------------------------------
  alpha Z        PSCENC =        25.96326467
  Ewald energy   TEWEN  =     20051.26339652
  -Hartree energ DENC   =    -34948.68088370
  -exchange      EXHF   =         0.00000000
  -V(xc)+E(xc)   XCENC  =      -171.77784530
  PAW double counting   =     16103.80516150   -15436.29143980
  entropy T*S    EENTRO =         0.00000000
  eigenvalues    EBANDS =     -1210.73719047
  atomic energy  EATOM  =     15557.97945130
  ---------------------------------------------------
  free energy    TOTEN  =       -28.47608528 eV

  energy without entropy =      -28.47608528  energy(sigma->0) =      -28.47608528


--------------------------------------------------------------------------------------------------------




----------------------------------------- Iteration    1(  26)  ---------------------------------------


    POTLOK:  cpu time    0.22: real time    0.22
    SETDIJ:  cpu time    0.01: real time    0.01
     EDDAV:  cpu time    0.88: real time    0.88
       DOS:  cpu time    0.00: real time    0.00
    --------------------------------------------
      LOOP:  cpu time    1.12: real time    1.13

 eigenvalue-minimisations  :   312
 total energy-change (2. order) : 0.2455068E-05  (-0.7558105E-06)
 number of electron     164.9999697 magnetization       0.9995095
 augmentation part       79.3040816 magnetization      -0.0505982

 Free energy of the ion-electron system (eV)
  ---------------------------------------------------
  alpha Z        PSCENC =        25.96326467
  Ewald energy   TEWEN  =     20051.26339652
  -Hartree energ DENC   =    -34948.60522978
  -exchange      EXHF   =         0.00000000
  -V(xc)+E(xc)   XCENC  =      -171.77789816
  PAW double counting   =     16104.04366424   -15436.53069422
  entropy T*S    EENTRO =         0.00000000
  eigenvalues    EBANDS =     -1210.81203740
  atomic energy  EATOM  =     15557.97945130
  ---------------------------------------------------
  free energy    TOTEN  =       -28.47608282 eV

  energy without entropy =      -28.47608282  energy(sigma->0) =      -28.47608282


--------------------------------------------------------------------------------------------------------




 average (electrostatic) potential at core
  the test charge radii are     1.1249
  (the norm of the test charge is              1.0000)
       1 -82.3359       2 -82.2865       3 -82.4461       4 -82.6589       5 -82.2409
       6 -82.2876       7 -82.1490       8 -82.2882       9 -82.4314      10 -82.1383
      11 -82.2794      12 -82.3117      13 -82.0450      14 -82.2421      15 -82.1376
 
 
 
 E-fermi :  -3.5265     XC(G=0):  -0.8435     alpha+bet : -0.4671


 spin component 1

 k-point     1 :       0.0000    0.0000    0.0000
  band No.  band energies     occupation 
      1      -9.3867      1.00000
      2      -9.0454      1.00000
      3      -8.9829      1.00000
      4      -8.9134      1.00000
      5      -8.8361      1.00000
      6      -8.7252      1.00000
      7      -8.6488      1.00000
      8      -8.6345      1.00000
      9      -8.6008      1.00000
     10      -8.5772      1.00000
     11      -8.5708      1.00000
     12      -8.5176      1.00000
     13      -8.5120      1.00000
     14      -8.4633      1.00000
     15      -8.3579      1.00000
     16      -8.3370      1.00000
     17      -8.3153      1.00000
     18      -8.2343      1.00000
     19      -8.2167      1.00000
     20      -8.2051      1.00000
     21      -8.1423      1.00000
     22      -8.1178      1.00000
     23      -8.0615      1.00000
     24      -8.0424      1.00000
     25      -7.9709      1.00000
     26      -7.9471      1.00000
     27      -7.9182      1.00000
     28      -7.8944      1.00000
     29      -7.8255      1.00000
     30      -7.7990      1.00000
     31      -7.7766      1.00000
     32      -7.7304      1.00000
     33      -7.6692      1.00000
     34      -7.6391      1.00000
     35      -7.6079      1.00000
     36      -7.5682      1.00000
     37      -7.4456      1.00000
     38      -7.4299      1.00000
     39      -7.4277      1.00000
     40      -7.3334      1.00000
     41      -7.3240      1.00000
     42      -7.3039      1.00000
     43      -7.2700      1.00000
     44      -7.2299      1.00000
     45      -7.2054      1.00000
     46      -7.1788      1.00000
     47      -7.1514      1.00000
     48      -7.1424      1.00000
     49      -7.1240      1.00000
     50      -7.0382      1.00000
     51      -7.0271      1.00000
     52      -7.0224      1.00000
     53      -7.0029      1.00000
     54      -6.9760      1.00000
     55      -6.9538      1.00000
     56      -6.9291      1.00000
     57      -6.8874      1.00000
     58      -6.8456      1.00000
     59      -6.8045      1.00000
     60      -6.7818      1.00000
     61      -6.7644      1.00000
     62      -6.7269      1.00000
     63      -6.6960      1.00000
     64      -6.6911      1.00000
     65      -6.6817      1.00000
     66      -6.6720      1.00000
     67      -6.6109      1.00000
     68      -6.5981      1.00000
     69      -6.5491      1.00000
     70      -6.5395      1.00000
     71      -6.5244      1.00000
     72      -6.4677      1.00000
     73      -6.4509      1.00000
     74      -6.4208      1.00000
     75      -6.3467      1.00000
     76      -6.3024      1.00000
     77      -6.2842      1.00000
     78      -5.9029      1.00000
     79      -5.4339      1.00000
     80      -4.5774      1.00000
     81      -4.4774      1.00000
     82      -4.0830      1.00000
     83      -3.5344      1.00000
     84      -3.2697      0.00000
     85      -2.7625      0.00000
     86      -2.4768      0.00000
     87      -2.4041      0.00000
     88      -2.2361      0.00000
     89      -1.8785      0.00000
     90      -1.6715      0.00000
     91      -1.3512      0.00000
     92      -1.1154      0.00000
     93      -0.8974      0.00000
     94      -0.8696      0.00000
     95      -0.6496      0.00000
     96      -0.5755      0.00000
     97      -0.3702      0.00000
     98      -0.2148      0.00000
     99      -0.1266      0.00000
    100       0.0729      0.00000
    101       0.2163      0.00000
    102       0.3858      0.00000
    103       0.4210      0.00000
    104       0.5465      0.00000
    105       0.6413      0.00000
    106       0.7197      0.00000
    107       0.7452      0.00000
    108       0.7983      0.00000

 spin component 2

 k-point     1 :       0.0000    0.0000    0.0000
  band No.  band energies     occupation 
      1      -9.3692      1.00000
      2      -9.0175      1.00000
      3      -8.9686      1.00000
      4      -8.8949      1.00000
      5      -8.8236      1.00000
      6      -8.7033      1.00000
      7      -8.6296      1.00000
      8      -8.6173      1.00000
      9      -8.5776      1.00000
     10      -8.5649      1.00000
     11      -8.5428      1.00000
     12      -8.4924      1.00000
     13      -8.4826      1.00000
     14      -8.4403      1.00000
     15      -8.3415      1.00000
     16      -8.3240      1.00000
     17      -8.2978      1.00000
     18      -8.2227      1.00000
     19      -8.1996      1.00000
     20      -8.1882      1.00000
     21      -8.1278      1.00000
     22      -8.1079      1.00000
     23      -8.0448      1.00000
     24      -8.0180      1.00000
     25      -7.9547      1.00000
     26      -7.9275      1.00000
     27      -7.9000      1.00000
     28      -7.8750      1.00000
     29      -7.8054      1.00000
     30      -7.7781      1.00000
     31      -7.7583      1.00000
     32      -7.7099      1.00000
     33      -7.6535      1.00000
     34      -7.6228      1.00000
     35      -7.5912      1.00000
     36      -7.5499      1.00000
     37      -7.4311      1.00000
     38      -7.4131      1.00000
     39      -7.4067      1.00000
     40      -7.3198      1.00000
     41      -7.3053      1.00000
     42      -7.2893      1.00000
     43      -7.2497      1.00000
     44      -7.2112      1.00000
     45      -7.1843      1.00000
     46      -7.1638      1.00000
     47      -7.1321      1.00000
     48      -7.1258      1.00000
     49      -7.1050      1.00000
     50      -7.0230      1.00000
     51      -7.0128      1.00000
     52      -7.0015      1.00000
     53      -6.9810      1.00000
     54      -6.9628      1.00000
     55      -6.9509      1.00000
     56      -6.9081      1.00000
     57      -6.8732      1.00000
     58      -6.8294      1.00000
     59      -6.7915      1.00000
     60      -6.7728      1.00000
     61      -6.7440      1.00000
     62      -6.7032      1.00000
     63      -6.6819      1.00000
     64      -6.6666      1.00000
     65      -6.6627      1.00000
     66      -6.6539      1.00000
     67      -6.5977      1.00000
     68      -6.5799      1.00000
     69      -6.5357      1.00000
     70      -6.5303      1.00000
     71      -6.5073      1.00000
     72      -6.4594      1.00000
     73      -6.4403      1.00000
     74      -6.4123      1.00000
     75      -6.3396      1.00000
     76      -6.2891      1.00000
     77      -6.2630      1.00000
     78      -5.8382      1.00000
     79      -5.3531      1.00000
     80      -4.5493      1.00000
     81      -4.4347      1.00000
     82      -4.0397      1.00000
     83      -3.3389      0.00000
     84      -3.2214      0.00000
     85      -2.6828      0.00000
     86      -2.4401      0.00000
     87      -2.3567      0.00000
     88      -2.1949      0.00000
     89      -1.7812      0.00000
     90      -1.6297      0.00000
     91      -1.2831      0.00000
     92      -1.0450      0.00000
     93      -0.7729      0.00000
     94      -0.7459      0.00000
     95      -0.6197      0.00000
     96      -0.5202      0.00000
     97      -0.3331      0.00000
     98      -0.1492      0.00000
     99      -0.0558      0.00000
    100       0.1282      0.00000
    101       0.2676      0.00000
    102       0.4236      0.00000
    103       0.4565      0.00000
    104       0.5933      0.00000
    105       0.6916      0.00000
    106       0.7059      0.00000
    107       0.7702      0.00000
    108       0.8021      0.00000


--------------------------------------------------------------------------------------------------------


 soft charge-density along one line, spin component           1
         0         1         2         3         4         5         6         7         8         9
 total charge-density along one line
 
 soft charge-density along one line, spin component           2
         0         1         2         3         4         5         6         7         8         9
 total charge-density along one line
 
 pseudopotential strength for first ion, spin component:           1
-10.393  -0.002  -0.006  -0.005   0.001 -10.365  -0.002  -0.006
 -0.002 -10.372  -0.002   0.005   0.001  -0.002 -10.344  -0.002
 -0.006  -0.002 -10.386  -0.005   0.012  -0.006  -0.002 -10.358
 -0.005   0.005  -0.005 -10.406   0.001  -0.005   0.005  -0.005
  0.001   0.001   0.012   0.001 -10.397   0.001   0.001   0.011
-10.365  -0.002  -0.006  -0.005   0.001 -10.312  -0.002  -0.006
 -0.002 -10.344  -0.002   0.005   0.001  -0.002 -10.292  -0.002
 -0.006  -0.002 -10.358  -0.005   0.011  -0.006  -0.002 -10.305
 -0.005   0.005  -0.005 -10.377   0.001  -0.004   0.004  -0.005
  0.001   0.001   0.011   0.001 -10.368   0.001   0.001   0.011
 -0.002   0.001  -0.004   0.001   0.005  -0.002   0.001  -0.004
 -0.003   0.001  -0.006   0.002   0.008  -0.003   0.001  -0.006
  0.033   0.002   0.002  -0.000   0.004   0.032   0.002   0.002
 -0.000  -0.004   0.002   0.032  -0.000  -0.000  -0.004   0.002
 -0.004  -0.000  -0.019   0.002   0.032  -0.003  -0.000  -0.018
  0.039   0.002   0.002  -0.000   0.004   0.038   0.002   0.002
 -0.000  -0.005   0.002   0.039  -0.000  -0.000  -0.004   0.002
 -0.004  -0.000  -0.022   0.002   0.038  -0.004  -0.000  -0.022
 pseudopotential strength for first ion, spin component:           2
-10.393  -0.001  -0.006  -0.004   0.002 -10.364  -0.001  -0.005
 -0.001 -10.372  -0.002   0.006   0.002  -0.001 -10.344  -0.002
 -0.006  -0.002 -10.387  -0.005   0.012  -0.005  -0.002 -10.358
 -0.004   0.006  -0.005 -10.407   0.001  -0.004   0.005  -0.005
  0.002   0.002   0.012   0.001 -10.399   0.002   0.001   0.011
-10.364  -0.001  -0.005  -0.004   0.002 -10.312  -0.001  -0.005
 -0.001 -10.344  -0.002   0.005   0.001  -0.001 -10.292  -0.002
 -0.005  -0.002 -10.358  -0.005   0.011  -0.005  -0.002 -10.306
 -0.004   0.005  -0.005 -10.377   0.001  -0.004   0.005  -0.005
  0.002   0.001   0.011   0.001 -10.370   0.002   0.001   0.011
 -0.001   0.001  -0.003   0.001   0.005  -0.001   0.001  -0.003
 -0.002   0.001  -0.006   0.001   0.008  -0.002   0.001  -0.006
  0.033   0.002   0.002   0.000   0.005   0.032   0.002   0.002
  0.000  -0.004   0.002   0.032  -0.000   0.000  -0.004   0.002
 -0.004   0.000  -0.019   0.002   0.032  -0.004   0.000  -0.018
  0.040   0.003   0.003   0.000   0.006   0.039   0.002   0.003
  0.000  -0.005   0.002   0.039  -0.000   0.000  -0.005   0.002
 -0.005   0.000  -0.023   0.002   0.038  -0.005   0.000  -0.022
 total augmentation occupancy for first ion, spin component:           1
  2.814   0.095  -0.027  -0.069   0.075  -0.819  -0.100   0.019   0.046  -0.055   0.068  -0.016   0.170  -0.018   0.013   0.012
  0.095   2.431  -0.020  -0.004   0.007  -0.100  -0.351   0.012   0.015  -0.025   0.024   0.003   0.045  -0.006   0.005  -0.001
 -0.027  -0.020   2.459  -0.033  -0.145   0.019   0.012  -0.433  -0.027   0.129   0.382  -0.071  -0.004   0.009  -0.077   0.001
 -0.069  -0.004  -0.033   2.515   0.082   0.047   0.015  -0.027  -0.594  -0.059  -0.111   0.041  -0.015   0.077   0.039   0.001
  0.075   0.007  -0.145   0.082   2.505  -0.055  -0.025   0.129  -0.059  -0.577  -0.324   0.104   0.026   0.011   0.101   0.002
 -0.819  -0.100   0.019   0.047  -0.055   0.800   0.105  -0.012  -0.029   0.039  -0.046   0.004  -0.200   0.013  -0.006   0.011
 -0.100  -0.351   0.012   0.015  -0.025   0.105   0.258  -0.004  -0.024   0.040  -0.032   0.005  -0.045   0.010  -0.005   0.002
  0.019   0.012  -0.433  -0.027   0.129  -0.012  -0.004   0.389   0.077  -0.117  -0.337   0.066  -0.001  -0.024   0.093   0.000
  0.046   0.015  -0.027  -0.594  -0.059  -0.029  -0.024   0.077   0.639   0.042   0.108  -0.040   0.010  -0.126  -0.035  -0.000
 -0.055  -0.025   0.129  -0.059  -0.577   0.039   0.040  -0.117   0.042   0.614   0.262  -0.073  -0.027  -0.006  -0.136   0.001
  0.068   0.024   0.382  -0.111  -0.324  -0.046  -0.032  -0.337   0.108   0.262   1.803  -0.204   0.021  -0.039  -0.267  -0.002
 -0.016   0.003  -0.071   0.041   0.104   0.004   0.005   0.066  -0.040  -0.073  -0.204   0.043  -0.001   0.011   0.051   0.000
  0.170   0.045  -0.004  -0.015   0.026  -0.200  -0.045  -0.001   0.010  -0.027   0.021  -0.001   0.068  -0.005   0.005  -0.004
 -0.018  -0.006   0.009   0.077   0.011   0.013   0.010  -0.024  -0.126  -0.006  -0.039   0.011  -0.005   0.030   0.009   0.000
  0.013   0.005  -0.077   0.039   0.101  -0.006  -0.005   0.093  -0.035  -0.136  -0.267   0.051   0.005   0.009   0.070   0.000
  0.012  -0.001   0.001   0.001   0.002   0.011   0.002   0.000  -0.000   0.001  -0.002   0.000  -0.004   0.000   0.000   0.000
  0.001  -0.002   0.001   0.014  -0.001  -0.001  -0.001   0.002   0.008   0.000   0.004  -0.001   0.000  -0.002  -0.001  -0.000
[...]
    107       0.7421      0.00000
    108       0.7744      0.00000

 spin component 2

 k-point     1 :       0.0000    0.0000    0.0000
  band No.  band energies     occupation 
      1      -9.3583      1.00000
      2      -9.0110      1.00000
      3      -8.9592      1.00000
      4      -8.8808      1.00000
      5      -8.8197      1.00000
      6      -8.7022      1.00000
      7      -8.6241      1.00000
      8      -8.5985      1.00000
      9      -8.5820      1.00000
     10      -8.5594      1.00000
     11      -8.5405      1.00000
     12      -8.4935      1.00000
     13      -8.4758      1.00000
     14      -8.4373      1.00000
     15      -8.3301      1.00000
     16      -8.3213      1.00000
     17      -8.2860      1.00000
     18      -8.2164      1.00000
     19      -8.1966      1.00000
     20      -8.1838      1.00000
     21      -8.1304      1.00000
     22      -8.1041      1.00000
     23      -8.0479      1.00000
     24      -8.0143      1.00000
     25      -7.9428      1.00000
     26      -7.9220      1.00000
     27      -7.8926      1.00000
     28      -7.8724      1.00000
     29      -7.7892      1.00000
     30      -7.7760      1.00000
     31      -7.7569      1.00000
     32      -7.7144      1.00000
     33      -7.6499      1.00000
     34      -7.6244      1.00000
     35      -7.5944      1.00000
     36      -7.5402      1.00000
     37      -7.4248      1.00000
     38      -7.4103      1.00000
     39      -7.4026      1.00000
     40      -7.3182      1.00000
     41      -7.3079      1.00000
     42      -7.2814      1.00000
     43      -7.2435      1.00000
     44      -7.2101      1.00000
     45      -7.1775      1.00000
     46      -7.1612      1.00000
     47      -7.1324      1.00000
     48      -7.1241      1.00000
     49      -7.1039      1.00000
     50      -7.0186      1.00000
     51      -7.0137      1.00000
     52      -7.0028      1.00000
     53      -6.9841      1.00000
     54      -6.9620      1.00000
     55      -6.9516      1.00000
     56      -6.9096      1.00000
     57      -6.8765      1.00000
     58      -6.8331      1.00000
     59      -6.7912      1.00000
     60      -6.7746      1.00000
     61      -6.7480      1.00000
     62      -6.7038      1.00000
     63      -6.6807      1.00000
     64      -6.6701      1.00000
     65      -6.6643      1.00000
     66      -6.6541      1.00000
     67      -6.6013      1.00000
     68      -6.5797      1.00000
     69      -6.5365      1.00000
     70      -6.5276      1.00000
     71      -6.5047      1.00000
     72      -6.4599      1.00000
     73      -6.4386      1.00000
     74      -6.4118      1.00000
     75      -6.3426      1.00000
     76      -6.2929      1.00000
     77      -6.2601      1.00000
     78      -5.8375      1.00000
     79      -5.3566      1.00000
     80      -4.5440      1.00000
     81      -4.4349      1.00000
     82      -4.0432      1.00000
     83      -3.3444      0.00000
     84      -3.2235      0.00000
     85      -2.6836      0.00000
     86      -2.4367      0.00000
     87      -2.3548      0.00000
     88      -2.1942      0.00000
     89      -1.7868      0.00000
     90      -1.6306      0.00000
     91      -1.2884      0.00000
     92      -1.0430      0.00000
     93      -0.7734      0.00000
     94      -0.7553      0.00000
     95      -0.6130      0.00000
     96      -0.5190      0.00000
     97      -0.3344      0.00000
     98      -0.1559      0.00000
     99      -0.0573      0.00000
    100       0.1236      0.00000
    101       0.2591      0.00000
    102       0.4254      0.00000
    103       0.4515      0.00000
    104       0.5752      0.00000
    105       0.6687      0.00000
    106       0.7048      0.00000
    107       0.7588      0.00000
    108       0.7904      0.00000


--------------------------------------------------------------------------------------------------------


 soft charge-density along one line, spin component           1
         0         1         2         3         4         5         6         7         8         9
 total charge-density along one line
 
 soft charge-density along one line, spin component           2
         0         1         2         3         4         5         6         7         8         9
 total charge-density along one line
 
 pseudopotential strength for first ion, spin component:           1
-10.383  -0.002  -0.006  -0.005   0.001 -10.355  -0.002  -0.006
 -0.002 -10.361  -0.002   0.005   0.001  -0.002 -10.334  -0.002
 -0.006  -0.002 -10.375  -0.005   0.012  -0.006  -0.002 -10.347
 -0.005   0.005  -0.005 -10.394   0.001  -0.004   0.005  -0.005
  0.001   0.001   0.012   0.001 -10.387   0.001   0.001   0.011
-10.355  -0.002  -0.006  -0.004   0.001 -10.303  -0.002  -0.006
 -0.002 -10.334  -0.002   0.005   0.001  -0.002 -10.283  -0.002
 -0.006  -0.002 -10.347  -0.005   0.011  -0.006  -0.002 -10.295
 -0.004   0.005  -0.005 -10.365   0.001  -0.004   0.004  -0.005
  0.001   0.001   0.011   0.001 -10.358   0.001   0.001   0.011
 -0.002   0.001  -0.004   0.001   0.005  -0.002   0.000  -0.004
 -0.003   0.001  -0.006   0.002   0.007  -0.003   0.001  -0.006
  0.033   0.001   0.002  -0.000   0.004   0.032   0.001   0.002
 -0.000  -0.004   0.001   0.032   0.000  -0.000  -0.004   0.001
 -0.004  -0.000  -0.019   0.001   0.032  -0.004  -0.000  -0.018
  0.039   0.001   0.003  -0.000   0.005   0.038   0.001   0.003
 -0.000  -0.005   0.001   0.039   0.000  -0.000  -0.005   0.001
 -0.005  -0.000  -0.022   0.001   0.038  -0.005  -0.000  -0.021
 pseudopotential strength for first ion, spin component:           2
-10.382  -0.001  -0.006  -0.004   0.002 -10.354  -0.000  -0.005
 -0.001 -10.361  -0.002   0.006   0.001  -0.000 -10.334  -0.002
 -0.006  -0.002 -10.376  -0.005   0.012  -0.005  -0.002 -10.348
 -0.004   0.006  -0.005 -10.395   0.002  -0.004   0.005  -0.005
  0.002   0.001   0.012   0.002 -10.388   0.002   0.001   0.011
-10.354  -0.000  -0.005  -0.004   0.002 -10.302  -0.000  -0.005
 -0.000 -10.334  -0.002   0.005   0.001  -0.000 -10.283  -0.002
 -0.005  -0.002 -10.348  -0.005   0.011  -0.005  -0.002 -10.296
 -0.004   0.005  -0.005 -10.366   0.001  -0.004   0.005  -0.004
  0.002   0.001   0.011   0.001 -10.360   0.002   0.001   0.011
 -0.001   0.001  -0.004   0.001   0.005  -0.001   0.001  -0.004
 -0.002   0.001  -0.006   0.001   0.008  -0.002   0.001  -0.006
  0.033   0.002   0.003   0.000   0.005   0.032   0.002   0.003
  0.000  -0.005   0.001   0.032  -0.000   0.000  -0.004   0.001
 -0.004   0.000  -0.019   0.001   0.032  -0.004   0.000  -0.018
  0.040   0.002   0.003   0.000   0.006   0.039   0.002   0.003
  0.000  -0.006   0.001   0.039  -0.000   0.000  -0.005   0.001
 -0.005   0.000  -0.023   0.001   0.038  -0.005   0.000  -0.022
 total augmentation occupancy for first ion, spin component:           1
  2.781   0.092  -0.028  -0.064   0.072  -0.788  -0.099   0.018   0.043  -0.054   0.069  -0.015   0.163  -0.017   0.012   0.012
  0.092   2.413  -0.020  -0.005   0.007  -0.099  -0.334   0.012   0.014  -0.024   0.023   0.003   0.044  -0.006   0.005  -0.001
 -0.028  -0.020   2.437  -0.036  -0.138   0.018   0.012  -0.412  -0.022   0.125   0.385  -0.070  -0.004   0.008  -0.075   0.001
 -0.064  -0.005  -0.036   2.485   0.077   0.043   0.014  -0.022  -0.555  -0.052  -0.106   0.040  -0.014   0.071   0.036   0.001
  0.072   0.007  -0.138   0.077   2.478  -0.054  -0.024   0.125  -0.051  -0.548  -0.320   0.101   0.025   0.010   0.096   0.002
 -0.788  -0.099   0.018   0.043  -0.054   0.770   0.105  -0.010  -0.026   0.038  -0.048   0.004  -0.193   0.012  -0.005   0.011
 -0.099  -0.334   0.012   0.014  -0.024   0.105   0.243  -0.004  -0.022   0.039  -0.031   0.004  -0.045   0.009  -0.005   0.002
  0.018   0.012  -0.412  -0.022   0.125  -0.010  -0.004   0.369   0.070  -0.116  -0.339   0.065  -0.001  -0.022   0.092   0.000
  0.043   0.014  -0.022  -0.555  -0.051  -0.026  -0.022   0.070   0.591   0.031   0.101  -0.038   0.010  -0.118  -0.032  -0.000
 -0.054  -0.024   0.125  -0.052  -0.548   0.038   0.039  -0.116   0.031   0.584   0.257  -0.070  -0.026  -0.004  -0.130   0.001
  0.069   0.023   0.385  -0.106  -0.320  -0.048  -0.031  -0.339   0.101   0.257   1.783  -0.200   0.021  -0.038  -0.262  -0.002
 -0.015   0.003  -0.070   0.040   0.101   0.004   0.004   0.065  -0.038  -0.070  -0.200   0.041  -0.001   0.011   0.049   0.000
  0.163   0.044  -0.004  -0.014   0.025  -0.193  -0.045  -0.001   0.010  -0.026   0.021  -0.001   0.065  -0.005   0.004  -0.004
 -0.017  -0.006   0.008   0.071   0.010   0.012   0.009  -0.022  -0.118  -0.004  -0.038   0.011  -0.005   0.029   0.009   0.000
  0.012   0.005  -0.075   0.036   0.096  -0.005  -0.005   0.092  -0.032  -0.130  -0.262   0.049   0.004   0.009   0.068   0.000
  0.012  -0.001   0.001   0.001   0.002   0.011   0.002   0.000  -0.000   0.001  -0.002   0.000  -0.004   0.000   0.000   0.000
  0.001  -0.002   0.001   0.015  -0.001  -0.000  -0.001   0.002   0.008   0.000   0.003  -0.001   0.000  -0.002  -0.001  -0.000
 -0.002   0.000  -0.005  -0.001   0.011  -0.000  -0.000  -0.007   0.002   0.010   0.023  -0.004   0.000  -0.001  -0.006  -0.000
 total augmentation occupancy for first ion, spin component:           2
  0.008   0.030   0.023   0.015   0.018  -0.013  -0.023  -0.017  -0.013  -0.014   0.038   0.006   0.023   0.005   0.010  -0.001
  0.030  -0.003   0.009   0.007   0.016  -0.023  -0.006  -0.007  -0.006  -0.012   0.028   0.006   0.018   0.006   0.006  -0.000
  0.023   0.009  -0.020   0.004   0.005  -0.017  -0.007   0.008  -0.003  -0.005   0.018   0.002   0.008   0.002   0.002  -0.000
  0.015   0.007   0.004  -0.018   0.003  -0.012  -0.006  -0.003   0.009  -0.002   0.015   0.004   0.009   0.003   0.004  -0.000
  0.018   0.016   0.005   0.003  -0.027  -0.014  -0.012  -0.005  -0.002   0.011   0.025   0.002   0.007   0.001   0.002  -0.000
 -0.013  -0.023  -0.017  -0.012  -0.014   0.020   0.019   0.011   0.011   0.011  -0.028  -0.004  -0.017  -0.004  -0.006   0.001
 -0.023  -0.006  -0.007  -0.006  -0.012   0.019   0.015   0.006   0.006   0.008  -0.022  -0.003  -0.014  -0.003  -0.005   0.000
 -0.017  -0.007   0.008  -0.003  -0.005   0.011   0.006   0.003   0.003   0.006  -0.016  -0.001  -0.007  -0.001  -0.002   0.000
 -0.013  -0.006  -0.003   0.009  -0.002   0.011   0.006   0.003   0.001   0.002  -0.012  -0.002  -0.007  -0.001  -0.002   0.000
 -0.014  -0.012  -0.005  -0.002   0.011   0.011   0.008   0.006   0.002   0.003  -0.023   0.000  -0.008  -0.001  -0.001   0.000
  0.038   0.028   0.018   0.015   0.025  -0.028  -0.022  -0.016  -0.012  -0.023   0.056   0.001   0.028   0.006   0.009  -0.001
  0.006   0.006   0.002   0.004   0.002  -0.004  -0.003  -0.001  -0.002   0.000   0.001   0.002   0.002   0.001   0.001  -0.000
  0.023   0.018   0.008   0.009   0.007  -0.017  -0.014  -0.007  -0.007  -0.008   0.028   0.002   0.012   0.003   0.003  -0.000
  0.005   0.006   0.002   0.003   0.001  -0.004  -0.003  -0.001  -0.001  -0.001   0.006   0.001   0.003   0.001   0.001  -0.000
  0.010   0.006   0.002   0.004   0.002  -0.006  -0.005  -0.002  -0.002  -0.001   0.009   0.001   0.003   0.001   0.001  -0.000
 -0.001  -0.000  -0.000  -0.000  -0.000   0.001   0.000   0.000   0.000   0.000  -0.001  -0.000  -0.000  -0.000  -0.000   0.000
 -0.000   0.000   0.000  -0.000  -0.000   0.000   0.000   0.000   0.000  -0.000  -0.000  -0.000  -0.000  -0.000  -0.000   0.000
  0.000   0.000   0.000   0.000   0.000  -0.000  -0.000  -0.000   0.000   0.000   0.000  -0.000   0.000   0.000   0.000  -0.000


------------------------ aborting loop because EDIFF is reached ----------------------------------------


    CHARGE:  cpu time    0.06: real time    0.06
    FORLOC:  cpu time    0.01: real time    0.01
    FORNL :  cpu time    0.52: real time    0.52
    STRESS:  cpu time    0.62: real time    0.62
    FORCOR:  cpu time    0.22: real time    0.22
    FORHAR:  cpu time    0.03: real time    0.03
    MIXING:  cpu time    0.01: real time    0.01
    OFIELD:  cpu time    0.00: real time    0.00

  FORCE on cell =-STRESS in cart. coord.  units (eV):
  Direction    XX          YY          ZZ          XY          YZ          ZX
  --------------------------------------------------------------------------------------
  Alpha Z    25.96326    25.96326    25.96326
  Ewald    5300.67776  8616.90694  6113.90375 -1392.65757 -2819.16782  -373.94374
  Hartree 10381.67456 13401.08758 11146.55798 -1216.52652 -2476.41802  -302.69478
  E(xc)    -869.67433  -868.96199  -869.59507    -0.45621    -0.87521    -0.21956
  Local  -18112.47038-24447.36000-19692.06705  2605.33060  5289.74839   673.11387
  n-local  -165.91676  -164.08986  -165.21644    -0.01991    -0.59810     0.68852
  augment  1377.66483  1376.57442  1377.84102     1.28986     2.21186     0.89561
  Kinetic  2056.91347  2054.47675  2057.31014     3.03231     5.16309     2.19514
  Fock        0.00000     0.00000     0.00000     0.00000     0.00000     0.00000
  -------------------------------------------------------------------------------------
  Total      -5.16759    -5.40289    -5.30241    -0.00744     0.06420     0.03506
  in kB      -1.12321    -1.17435    -1.15252    -0.00162     0.01395     0.00762
  external pressure =       -1.15 kB  Pullay stress =        0.00 kB


 VOLUME and BASIS-vectors are now :
 -----------------------------------------------------------------------------
  energy-cutoff  :      249.84
  volume of cell :     7371.19
      direct lattice vectors                 reciprocal lattice vectors
    19.461626468  0.000000000  0.000000000     0.051383167  0.000000000  0.000000000
     0.000000000 19.461626468  0.000000000     0.000000000  0.051383167  0.000000000
     0.000000000  0.000000000 19.461626468     0.000000000  0.000000000  0.051383167

  length of vectors
    19.461626468 19.461626468 19.461626468     0.051383167  0.051383167  0.051383167


 FORCES acting on ions
    electron-ion (+dipol)            ewald-force                    non-local-force                 convergence-correction
 -----------------------------------------------------------------------------------------------
   -.106E+04 0.174E+03 -.190E+03   0.105E+04 -.173E+03 0.190E+03   0.636E+01 -.779E+00 0.505E+00   0.825E-01 0.518E-01 0.156E+00
   -.494E+03 0.976E+03 -.790E+02   0.492E+03 -.972E+03 0.785E+02   0.262E+01 -.446E+01 0.527E+00   0.221E-01 0.299E-01 -.613E-01
   -.537E+03 0.395E+03 0.710E+03   0.534E+03 -.394E+03 -.709E+03   0.267E+01 -.136E+01 -.106E+01   0.638E-01 -.321E-02 -.397E-01
   -.400E+03 0.886E+02 -.662E+03   0.400E+03 -.886E+02 0.662E+03   0.198E-01 0.335E-01 -.293E-01   -.361E-01 -.125E-01 -.153E-01
   -.834E+03 -.571E+03 -.160E+03   0.831E+03 0.570E+03 0.158E+03   0.314E+01 0.995E+00 0.139E+01   -.118E-01 -.238E-01 -.641E-02
   0.446E+03 0.872E+03 0.492E+03   -.444E+03 -.869E+03 -.489E+03   -.216E+01 -.347E+01 -.257E+01   -.114E-01 0.471E-01 0.156E-02
   -.546E+03 -.306E+03 0.869E+03   0.542E+03 0.304E+03 -.866E+03   0.345E+01 0.133E+01 -.311E+01   -.669E-01 -.772E-01 -.538E-01
   0.358E+03 0.843E+03 -.609E+03   -.356E+03 -.839E+03 0.606E+03   -.165E+01 -.380E+01 0.319E+01   -.720E-01 0.278E-01 -.178E-02
   0.937E+03 0.165E+03 -.202E+03   -.935E+03 -.164E+03 0.200E+03   -.238E+01 -.575E+00 0.206E+01   0.239E-02 0.412E-01 -.400E-02
   0.410E+03 -.546E+03 0.820E+03   -.408E+03 0.543E+03 -.815E+03   -.236E+01 0.310E+01 -.479E+01   -.636E-01 0.401E-02 0.609E-01
   0.499E+03 0.241E+03 0.760E+03   -.497E+03 -.241E+03 -.758E+03   -.126E+01 0.326E-01 -.199E+01   -.499E-01 -.415E-01 -.570E-01
   0.312E+03 -.457E+02 -.104E+04   -.310E+03 0.452E+02 0.104E+04   -.229E+01 0.556E+00 0.601E+01   -.233E-02 -.942E-02 -.323E-01
   -.140E+03 -.105E+04 0.242E+02   0.140E+03 0.105E+04 -.226E+02   -.403E+00 0.411E+01 -.161E+01   0.454E-01 -.175E-01 -.165E-01
   0.110E+03 -.715E+03 -.721E+03   -.110E+03 0.713E+03 0.718E+03   -.986E-01 0.151E+01 0.315E+01   0.739E-01 0.126E-01 0.147E-01
   0.937E+03 -.519E+03 -.122E+02   -.933E+03 0.517E+03 0.109E+02   -.395E+01 0.245E+01 0.129E+01   0.158E-01 -.320E-01 0.439E-01
 -----------------------------------------------------------------------------------------------
   -.170E+01 0.337E+00 -.299E+01   0.000E+00 0.227E-12 -.767E-12   0.170E+01 -.322E+00 0.297E+01   -.817E-02 -.256E-02 -.110E-01
 
 
 POSITION                                       TOTAL-FORCE (eV/Angst)
 -----------------------------------------------------------------------------------
     13.12415      8.67366     10.34273        -0.006566      0.011345      0.027893
     11.25870      6.49475     10.25697         0.002916      0.014033     -0.010788
     11.12741      8.68597      8.40001         0.016121     -0.002681      0.006277
     10.56000      8.98906     11.26115         0.013308     -0.010059     -0.015258
     11.72935     11.14000      9.83469         0.002242     -0.010409     -0.002649
      8.87074      7.15556      9.00512         0.002485      0.007129      0.002089
     10.85456     11.18499      7.14398        -0.012350     -0.010951     -0.010491
      8.82968      6.88626     11.78051        -0.010249      0.002101     -0.004764
      7.74207      9.21710     10.49718        -0.001967      0.004394     -0.002445
      8.33199     12.26137      6.75676        -0.012841      0.003604      0.010583
      8.58402      9.70773      7.84704        -0.007525     -0.008633     -0.007011
      8.62947      9.39398     13.15538        -0.005580      0.000609      0.002758
      9.80222     12.94876      9.07317         0.006205     -0.002856     -0.006441
      9.23791     11.51715     11.34021         0.010198      0.004793      0.001629
      7.27993     11.70586      9.26729         0.003603     -0.002418      0.008617
 -----------------------------------------------------------------------------------
    total drift:                               -0.002837      0.013173     -0.024966


--------------------------------------------------------------------------------------------------------



  FREE ENERGIE OF THE ION-ELECTRON SYSTEM (eV)
  ---------------------------------------------------
  free  energy   TOTEN  =       -28.48402048 eV

  energy  without entropy=      -28.48402048  energy(sigma->0) =      -28.48402048
 
 d Force = 0.7173237E-03[ 0.582E-03, 0.852E-03]  d Energy = 0.1027387E-02-0.310E-03
 d Force = 0.6628299E+00[ 0.677E+00, 0.649E+00]  d Ewald  = 0.6628390E+00-0.911E-05


--------------------------------------------------------------------------------------------------------


    POTLOK:  cpu time    0.24: real time    0.24


--------------------------------------------------------------------------------------------------------




--------------------------------------------------------------------------------------------------------


  
 reached required accuracy - stopping structural energy minimisation
     LOOP+:  cpu time    5.61: real time    5.70
    4ORBIT:  cpu time    0.00: real time    0.00

 total amount of memory used by VASP on root node    55436. kBytes
========================================================================

   base      :      30000. kBytes
   nonl-proj :       1591. kBytes
   fftplans  :       5768. kBytes
   grid      :      14451. kBytes
   one-center:         31. kBytes
   wavefun   :       3595. kBytes
 
  
  
 General timing and accounting informations for this job:
 ========================================================
  
                  Total CPU time used (sec):       89.582
                            User time (sec):       88.222
                          System time (sec):        1.360
                         Elapsed time (sec):       98.395
  
                   Maximum memory used (kb):       63152.
                   Average memory used (kb):           0.
  
                          Minor page faults:       204858
                          Major page faults:            0
                 Voluntary context switches:         3633
