 vasp.5.3.5 31Mar14 (build Feb 01 2018 12:10:03) gamma-only                     
  
 executed on             LinuxIFC date 2019.03.23  18:47:28
 running on   32 total cores
 distrk:  each k-point on   32 cores,    1 groups
 distr:  one band on NCORES_PER_BAND=   8 cores,    4 groups


--------------------------------------------------------------------------------------------------------


 INCAR:
 POTCAR:    PAW_PBE Ag 02Apr2005                  
 POTCAR:    PAW_PBE Ag 02Apr2005                  
   VRHFIN =Ag : s1 d10                                                          
   LEXCH  = PE                                                                  
   EATOM  =  1037.2675 eV,   76.2370 Ry                                         
                                                                                
   TITEL  = PAW_PBE Ag 02Apr2005                                                
   LULTRA =        F    use ultrasoft PP ?                                      
   IUNSCR =        1    unscreen: 0-lin 1-nonlin 2-no                           
   RPACOR =    2.000    partial core radius                                     
   POMASS =  107.868; ZVAL   =   11.000    mass and valenz                      
   RCORE  =    2.500    outmost cutoff radius                                   
   RWIGS  =    2.840; RWIGS  =    1.503    wigner-seitz radius (au A)           
   ENMAX  =  249.844; ENMIN  =  187.383 eV                                      
   ICORE  =        3    local potential                                         
   LCOR   =        T    correct aug charges                                     
   LPAW   =        T    paw PP                                                  
   EAUG   =  412.496                                                            
   DEXC   =    0.000                                                            
   RMAX   =    2.560    core radius for proj-oper                               
   RAUG   =    1.300    factor for augmentation sphere                          
   RDEP   =    2.576    radius for radial grids                                 
   RDEPT  =    2.072    core radius for aug-charge                              
                                                                                
   Atomic configuration                                                         
   12 entries                                                                   
     n  l   j            E        occ.                                          
     1  0  0.50    -25324.9161   2.0000                                         
     2  0  0.50     -3728.5341   2.0000                                         
     2  1  1.50     -3344.0404   6.0000                                         
     3  0  0.50      -683.5581   2.0000                                         
     3  1  1.50      -557.3225   6.0000                                         
     3  2  2.50      -358.3853  10.0000                                         
     4  0  0.50       -95.0341   2.0000                                         
     4  1  1.50       -58.5511   6.0000                                         
     4  2  2.50        -7.4440  10.0000                                         
     5  0  0.50        -4.4045   1.0000                                         
     5  1  0.50        -1.3606   0.0000                                         
     4  3  2.50        -1.3606   0.0000                                         
   Description                                                                  
     l       E           TYP  RCUT    TYP  RCUT                                 
     2     -7.4439781     23  2.400                                             
     2     -8.8045607     23  2.400                                             
     0     -4.4044681     23  2.400                                             
     0      1.9520038     23  2.400                                             
     1     -1.3605826     23  2.500                                             
     1     27.2116520     23  2.500                                             
     3     -4.0817478     23  2.400                                             
  local pseudopotential read in
  partial core-charges read in
  partial kinetic energy density read in
  atomic valenz-charges read in
  non local Contribution for L=           2  read in
    real space projection operators read in
  non local Contribution for L=           2  read in
    real space projection operators read in
  non local Contribution for L=           0  read in
    real space projection operators read in
  non local Contribution for L=           0  read in
    real space projection operators read in
  non local Contribution for L=           1  read in
    real space projection operators read in
  non local Contribution for L=           1  read in
    real space projection operators read in
    PAW grid and wavefunctions read in
 
   number of l-projection  operators is LMAX  =           6
   number of lm-projection operators is LMMAX =          18
 
  PAW_PBE Ag 02Apr2005                  :
 energy of atom  1       EATOM=-1037.2675
 kinetic energy error for atom=    0.0689 (will be added to EATOM!!)
 
 
 POSCAR: Pt8, -32.08078458 <s> Ag </s>           
  positions in direct lattice
  No initial velocities read in
 exchange correlation table for  LEXCH =        8
   RHO(1)=    0.500       N(1)  =     2000
   RHO(2)=  100.500       N(2)  =     4000
 


--------------------------------------------------------------------------------------------------------


 ion  position               nearest neighbor table
   1  0.665  0.533  0.630-   3 2.57   2 2.58
   2  0.562  0.445  0.607-   1 2.58   5 2.58   3 2.69   6 2.71
   3  0.577  0.566  0.531-   4 2.57   1 2.57   2 2.69   7 2.71   6 2.84
   4  0.587  0.672  0.446-   3 2.57   7 2.57
   5  0.472  0.350  0.566-   6 2.56   2 2.58
   6  0.460  0.473  0.509-   5 2.56   8 2.56   7 2.70   2 2.71   3 2.84
   7  0.474  0.595  0.434-   4 2.57   8 2.58   6 2.70   3 2.71
   8  0.358  0.522  0.433-   6 2.56   7 2.58
 
  LATTYP: Found a simple cubic cell.
 ALAT       =    18.7968130193
  
  Lattice vectors:
  
 A1 = (  18.7968130193,   0.0000000000,   0.0000000000)
 A2 = (   0.0000000000,  18.7968130193,   0.0000000000)
 A3 = (   0.0000000000,   0.0000000000,  18.7968130193)


Analysis of symmetry for initial positions (statically):
=====================================================================
 Subroutine PRICEL returns:
 Original cell was already a primitive cell.
 

 Routine SETGRP: Setting up the symmetry group for a 
 simple cubic supercell.


 Subroutine GETGRP returns: Found  1 space group operations
 (whereof  1 operations were pure point group operations)
 out of a pool of 48 trial point group operations.


The static configuration has the point symmetry C_1 .


Analysis of symmetry for dynamics (positions and initial velocities):
=====================================================================
 Subroutine PRICEL returns:
 Original cell was already a primitive cell.
 

 Routine SETGRP: Setting up the symmetry group for a 
 simple cubic supercell.


 Subroutine GETGRP returns: Found  1 space group operations
 (whereof  1 operations were pure point group operations)
 out of a pool of 48 trial point group operations.


The dynamic configuration has the point symmetry C_1 .


Analysis of magnetic symmetry:
=====================================================================
 Subroutine PRICEL returns:
 Original cell was already a primitive cell.
 

 Subroutine MAGSYM returns: Found  1 space group operations
 (whereof  1 operations were pure point group operations)
 out of a pool of  1 trial space group operations
 (whereof  1 operations were pure point group operations)
 and found also     1 'primitive' translations


The magnetic configuration has the point symmetry C_1 .
 
 
 KPOINTS: Gamma-point only                        
  k-points in reciprocal lattice
Space group operators:
 irot       det(A)        alpha          n_x          n_y          n_z        tau_x        tau_y        tau_z
    1     1.000000     0.000000     1.000000     0.000000     0.000000     0.000000     0.000000     0.000000


--------------------------------------------------------------------------------------------------------




 Dimension of arrays:
   k-points           NKPTS =      1   k-points in BZ     NKDIM =      1   number of bands    NBANDS=     56
   number of dos      NEDOS =    301   number of ions     NIONS =      8
   non local maximal  LDIM  =      6   non local SUM 2l+1 LMDIM =     18
   total plane-waves  NPLWV = 512000
   max r-space proj   IRMAX =      1   max aug-charges    IRDMAX=   3990
   dimension x,y,z NGX =    80 NGY =   80 NGZ =   80
   dimension x,y,z NGXF=   160 NGYF=  160 NGZF=  160
   support grid    NGXF=   160 NGYF=  160 NGZF=  160
   ions per type =               8
 NGX,Y,Z   is equivalent  to a cutoff of   7.08,  7.08,  7.08 a.u.
 NGXF,Y,Z  is equivalent  to a cutoff of  14.15, 14.15, 14.15 a.u.


 I would recommend the setting:
   dimension x,y,z NGX =    73 NGY =   73 NGZ =   73
 SYSTEM =  unknown system                          
 POSCAR =  Pt8, -32.08078458 <s> Ag </s>           

 Startparameter for this run:
   NWRITE =      2    write-flag & timer
   PREC   = normal    normal or accurate (medium, high low for compatibility)
   ISTART =      0    job   : 0-new  1-cont  2-samecut
   ICHARG =      2    charge: 1-file 2-atom 10-const
   ISPIN  =      2    spin polarized calculation?
   LNONCOLLINEAR =      F non collinear calculations
   LSORBIT =      F    spin-orbit coupling
   INIWAV =      1    electr: 0-lowe 1-rand  2-diag
   LASPH  =      F    aspherical Exc in radial PAW
   METAGGA=      F    non-selfconsistent MetaGGA calc.

 Electronic Relaxation 1
   ENCUT  =  249.8 eV  18.36 Ry    4.29 a.u.  24.23 24.23 24.23*2*pi/ulx,y,z
   ENINI  =  249.8     initial cutoff
   ENAUG  =  412.5 eV  augmentation charge cutoff
   NELM   =     60;   NELMIN=  2; NELMDL= -5     # of ELM steps 
   EDIFF  = 0.1E-03   stopping-criterion for ELM
   LREAL  =      F    real-space projection
   NLSPLINE    = F    spline interpolate recip. space projectors
   LCOMPAT=      F    compatible to vasp.4.4
   GGA_COMPAT  = T    GGA compatible to vasp.4.4-vasp.4.6
   LMAXPAW     = -100 max onsite density
   LMAXMIX     =    2 max onsite mixed and CHGCAR
   VOSKOWN=      0    Vosko Wilk Nusair interpolation
   ROPT   =    0.00000
 Ionic relaxation
   EDIFFG = 0.1E-02   stopping-criterion for IOM
   NSW    =   1000    number of steps for IOM
   NBLOCK =      1;   KBLOCK =   1000    inner block; outer block 
   IBRION =      2    ionic relax: 0-MD 1-quasi-New 2-CG
   NFREE  =      1    steps in history (QN), initial steepest desc. (CG)
   ISIF   =      2    stress and relaxation
   IWAVPR =     11    prediction:  0-non 1-charg 2-wave 3-comb
   ISYM   =      2    0-nonsym 1-usesym 2-fastsym
   LCORR  =      T    Harris-Foulkes like correction to forces

   POTIM  = 0.1000    time-step for ionic-motion
   TEIN   =    0.0    initial temperature
   TEBEG  =    0.0;   TEEND  =   0.0 temperature during run
   SMASS  =  -3.00    Nose mass-parameter (am)
   estimated Nose-frequenzy (Omega)   =  0.10E-29 period in steps =****** mass=  -0.807E-26a.u.
   SCALEE = 1.0000    scale energy and forces
   NPACO  =    256;   APACO  = 16.0  distance and # of slots for P.C.
   PSTRESS=    0.0 pullay stress

  Mass of Ions in am
   POMASS = 107.87
  Ionic Valenz
   ZVAL   =  11.00
  Atomic Wigner-Seitz radii
   RWIGS  =  -1.00
  virtual crystal weights 
   VCA    =   1.00
   NELECT =      88.0000    total number of electrons
   NUPDOWN=      -1.0000    fix difference up-down

 DOS related values:
   EMIN   =  10.00;   EMAX   =-10.00  energy-range for DOS
   EFERMI =   0.00
   ISMEAR =     0;   SIGMA  =   0.00  broadening in eV -4-tet -1-fermi 0-gaus

 Electronic relaxation 2 (details)
   IALGO  =     38    algorithm
   LDIAG  =      T    sub-space diagonalisation (order eigenvalues)
   LSUBROT=      F    optimize rotation matrix (better conditioning)
   TURBO    =      0    0=normal 1=particle mesh
   IRESTART =      0    0=no restart 2=restart with 2 vectors
   NREBOOT  =      0    no. of reboots
   NMIN     =      0    reboot dimension
   EREF     =   0.00    reference energy to select bands
   IMIX   =      4    mixing-type and parameters
     AMIX     =   0.40;   BMIX     =  1.00
     AMIX_MAG =   1.60;   BMIX_MAG =  1.00
     AMIN     =   0.10
     WC   =   100.;   INIMIX=   1;  MIXPRE=   1;  MAXMIX= -45

 Intra band minimization:
   WEIMIN = 0.0010     energy-eigenvalue tresh-hold
   EBREAK =  0.45E-06  absolut break condition
   DEPER  =   0.30     relativ break condition  

   TIME   =   0.40     timestep for ELM

  volume/ion in A,a.u.               =     830.16      5602.21
  Fermi-wavevector in a.u.,A,eV,Ry     =   0.387393  0.732066  2.041869  0.150073
  Thomas-Fermi vector in A             =   1.327179
 
 Write flags
   LWAVE  =      F    write WAVECAR
   LCHARG =      F    write CHGCAR
   LVTOT  =      F    write LOCPOT, total local potential
   LVHAR  =      F    write LOCPOT, Hartree potential only
   LELF   =      F    write electronic localiz. function (ELF)
   LORBIT =      0    0 simple, 1 ext, 2 COOP (PROOUT)


 Dipole corrections
   LMONO  =      F    monopole corrections only (constant potential shift)
   LDIPOL =      F    correct potential (dipole corrections)
   IDIPOL =      0    1-x, 2-y, 3-z, 4-all directions 
   EPSILON=  1.0000000 bulk dielectric constant

 Exchange correlation treatment:
   GGA     =    PE    GGA type
   LEXCH   =     8    internal setting for exchange type
   VOSKOWN=      0    Vosko Wilk Nusair interpolation
   LHFCALC =     F    Hartree Fock is set to
   LHFONE  =     F    Hartree Fock one center treatment
   AEXX    =    0.0000 exact exchange contribution

 Linear response parameters
   LEPSILON=     F    determine dielectric tensor
   LRPA    =     F    only Hartree local field effects (RPA)
   LNABLA  =     F    use nabla operator in PAW spheres
   LVEL    =     F    velocity operator in full k-point grid
   LINTERFAST=   F  fast interpolation
   KINTER  =     0    interpolate to denser k-point grid
   CSHIFT  =0.1000    complex shift for real part using Kramers Kronig
   OMEGAMAX=  -1.0    maximum frequency
   DEG_THRESHOLD= 0.2000000E-02 threshold for treating states as degnerate
   RTIME   =    0.100 relaxation time in fs

 Orbital magnetization related:
   ORBITALMAG=     F  switch on orbital magnetization
   LCHIMAG   =     F  perturbation theory with respect to B field
   DQ        =  0.001000  dq finite difference perturbation B field



--------------------------------------------------------------------------------------------------------


 conjugate gradient relaxation of ions
 charge density and potential will be updated during run
 spin polarized calculation
 Variant of blocked Davidson
 Davidson routine will perform the subspace rotation
 perform sub-space diagonalisation
    after iterative eigenvector-optimisation
 modified Broyden-mixing scheme, WC =      100.0
 initial mixing is a Kerker type mixing with AMIX =  0.4000 and BMIX =      1.0000
 Hartree-type preconditioning will be used
 using additional bands           12
 reciprocal scheme for non local part
 use partial core corrections
 calculate Harris-corrections to forces 
   (improved forces if not selfconsistent)
 use gradient corrections 
 use of overlap-Matrix (Vanderbilt PP)
 Gauss-broadening in eV      SIGMA  =   0.00


--------------------------------------------------------------------------------------------------------


  energy-cutoff  :      249.84
  volume of cell :     6641.29
      direct lattice vectors                 reciprocal lattice vectors
    18.796813019  0.000000000  0.000000000     0.053200508  0.000000000  0.000000000
     0.000000000 18.796813019  0.000000000     0.000000000  0.053200508  0.000000000
     0.000000000  0.000000000 18.796813019     0.000000000  0.000000000  0.053200508

  length of vectors
    18.796813019 18.796813019 18.796813019     0.053200508  0.053200508  0.053200508


 
 k-points in units of 2pi/SCALE and weight: Gamma-point only                        
   0.00000000  0.00000000  0.00000000       1.000
 
 k-points in reciprocal lattice and weights: Gamma-point only                        
   0.00000000  0.00000000  0.00000000       1.000
 
 position of ions in fractional coordinates (direct lattice) 
   0.66489914  0.53289789  0.63030286
   0.56220092  0.44502404  0.60662638
   0.57696144  0.56573025  0.53100692
   0.58670722  0.67194619  0.44567715
   0.47217284  0.34970915  0.56578490
   0.45981566  0.47274266  0.50899443
   0.47444736  0.59482278  0.43429150
   0.35802626  0.52170348  0.43299387
 
 position of ions in cartesian coordinates  (Angst):
  12.49798488 10.01678196 11.84768495
  10.56758563  8.36503374 11.40264259
  10.84503631 10.63392572  9.98123784
  11.02822598 12.63044689  8.37731002
   8.87534460  6.57341750 10.63495303
   8.64306902  8.88605544  9.56747307
   8.91809834 11.18077252  8.16329617
   6.72975274  9.80636283  8.13890479
 


--------------------------------------------------------------------------------------------------------


 use parallel FFT for wavefunctions z direction half grid
 k-point  1 :   0.0000 0.0000 0.0000  plane waves:   29795

 maximum and minimum number of plane-waves per node :      3733     3718

 maximum number of plane-waves:     29795
 maximum index in each direction: 
   IXMAX=   24   IYMAX=   24   IZMAX=   24
   IXMIN=  -24   IYMIN=  -24   IZMIN=    0

 WARNING: aliasing errors must be expected set NGX to  98 to avoid them
 WARNING: aliasing errors must be expected set NGY to  98 to avoid them
 WARNING: aliasing errors must be expected set NGZ to  98 to avoid them
 aliasing errors are usually negligible using standard VASP settings
 and one can safely disregard these warnings

 parallel 3D FFT for wavefunctions:
    minimum data exchange during FFTs selected (reduces bandwidth)
 parallel 3D FFT for charge:
    minimum data exchange during FFTs selected (reduces bandwidth)


 total amount of memory used by VASP on root node    52913. kBytes
========================================================================

   base      :      30000. kBytes
   nonl-proj :       1012. kBytes
   fftplans  :       5763. kBytes
   grid      :      14451. kBytes
   one-center:         15. kBytes
   wavefun   :       1672. kBytes
 
     INWAV:  cpu time    0.00: real time    0.00
 Broyden mixing: mesh for mixing (old mesh)
   NGX = 49   NGY = 49   NGZ = 49
  (NGX  =160   NGY  =160   NGZ  =160)
  gives a total of 117649 points

 initial charge density was supplied:
 charge density of overlapping atoms calculated
 number of electron      88.0000000 magnetization       8.0000000
 keeping initial charge density in first step


--------------------------------------------------------------------------------------------------------


 Maximum index for augmentation-charges          271 (set IRDMAX)


--------------------------------------------------------------------------------------------------------


 First call to EWALD:  gamma=   0.094
 Maximum number of real-space cells 3x 3x 3
 Maximum number of reciprocal cells 3x 3x 3

 FEWALD executed in parallel
    FEWALD:  cpu time    0.00: real time    0.00


----------------------------------------- Iteration    1(   1)  ---------------------------------------


    POTLOK:  cpu time    0.23: real time    0.23
    SETDIJ:  cpu time    0.00: real time    0.01
     EDDAV:  cpu time    0.46: real time    0.46
       DOS:  cpu time    0.00: real time    0.00
    --------------------------------------------
      LOOP:  cpu time    0.70: real time    0.73

 eigenvalue-minimisations  :   224
 total energy-change (2. order) : 0.7772825E+03  (-0.1234398E+04)
 number of electron      88.0000000 magnetization       8.0000000
 augmentation part       88.0000000 magnetization       8.0000000

 Free energy of the ion-electron system (eV)
  ---------------------------------------------------
  alpha Z        PSCENC =         8.19674625
  Ewald energy   TEWEN  =      5636.11880312
  -Hartree energ DENC   =    -13561.44873894
  -exchange      EXHF   =         0.00000000
  -V(xc)+E(xc)   XCENC  =       -90.23007001
  PAW double counting   =      8026.97742456    -7658.11687103
  entropy T*S    EENTRO =         0.00000000
  eigenvalues    EBANDS =       118.19620521
  atomic energy  EATOM  =      8297.58904069
  ---------------------------------------------------
  free energy    TOTEN  =       777.28253985 eV

  energy without entropy =      777.28253985  energy(sigma->0) =      777.28253985


--------------------------------------------------------------------------------------------------------




----------------------------------------- Iteration    1(   2)  ---------------------------------------


     EDDAV:  cpu time    0.74: real time    0.74
       DOS:  cpu time    0.00: real time    0.00
    --------------------------------------------
      LOOP:  cpu time    0.74: real time    0.74

 eigenvalue-minimisations  :   416
 total energy-change (2. order) :-0.4141943E+03  (-0.3716123E+03)
 number of electron      88.0000000 magnetization       8.0000000
 augmentation part       88.0000000 magnetization       8.0000000

 Free energy of the ion-electron system (eV)
  ---------------------------------------------------
  alpha Z        PSCENC =         8.19674625
  Ewald energy   TEWEN  =      5636.11880312
  -Hartree energ DENC   =    -13561.44873894
  -exchange      EXHF   =         0.00000000
  -V(xc)+E(xc)   XCENC  =       -90.23007001
  PAW double counting   =      8026.97742456    -7658.11687103
  entropy T*S    EENTRO =         0.00000000
  eigenvalues    EBANDS =      -295.99808085
  atomic energy  EATOM  =      8297.58904069
  ---------------------------------------------------
  free energy    TOTEN  =       363.08825379 eV

  energy without entropy =      363.08825379  energy(sigma->0) =      363.08825379


--------------------------------------------------------------------------------------------------------




----------------------------------------- Iteration    1(   3)  ---------------------------------------


     EDDAV:  cpu time    0.66: real time    0.66
       DOS:  cpu time    0.00: real time    0.00
    --------------------------------------------
      LOOP:  cpu time    0.66: real time    0.67

 eigenvalue-minimisations  :   360
 total energy-change (2. order) :-0.3146327E+03  (-0.2985854E+03)
 number of electron      88.0000000 magnetization       8.0000000
 augmentation part       88.0000000 magnetization       8.0000000

 Free energy of the ion-electron system (eV)
  ---------------------------------------------------
  alpha Z        PSCENC =         8.19674625
  Ewald energy   TEWEN  =      5636.11880312
  -Hartree energ DENC   =    -13561.44873894
  -exchange      EXHF   =         0.00000000
  -V(xc)+E(xc)   XCENC  =       -90.23007001
  PAW double counting   =      8026.97742456    -7658.11687103
  entropy T*S    EENTRO =         0.00000000
  eigenvalues    EBANDS =      -610.63081056
  atomic energy  EATOM  =      8297.58904069
  ---------------------------------------------------
  free energy    TOTEN  =        48.45552408 eV

  energy without entropy =       48.45552408  energy(sigma->0) =       48.45552408


--------------------------------------------------------------------------------------------------------




----------------------------------------- Iteration    1(   4)  ---------------------------------------


     EDDAV:  cpu time    0.56: real time    0.56
       DOS:  cpu time    0.00: real time    0.00
    --------------------------------------------
      LOOP:  cpu time    0.56: real time    0.57

 eigenvalue-minimisations  :   288
 total energy-change (2. order) :-0.5950805E+02  (-0.5845307E+02)
 number of electron      88.0000000 magnetization       8.0000000
 augmentation part       88.0000000 magnetization       8.0000000

 Free energy of the ion-electron system (eV)
  ---------------------------------------------------
  alpha Z        PSCENC =         8.19674625
  Ewald energy   TEWEN  =      5636.11880312
  -Hartree energ DENC   =    -13561.44873894
  -exchange      EXHF   =         0.00000000
  -V(xc)+E(xc)   XCENC  =       -90.23007001
  PAW double counting   =      8026.97742456    -7658.11687103
  entropy T*S    EENTRO =         0.00000000
  eigenvalues    EBANDS =      -670.13886457
  atomic energy  EATOM  =      8297.58904069
  ---------------------------------------------------
  free energy    TOTEN  =       -11.05252993 eV

  energy without entropy =      -11.05252993  energy(sigma->0) =      -11.05252993


--------------------------------------------------------------------------------------------------------




----------------------------------------- Iteration    1(   5)  ---------------------------------------


     EDDAV:  cpu time    0.46: real time    0.46
       DOS:  cpu time    0.00: real time    0.00
    CHARGE:  cpu time    0.04: real time    0.04
    MIXING:  cpu time    0.00: real time    0.01
    --------------------------------------------
      LOOP:  cpu time    0.51: real time    0.52

 eigenvalue-minimisations  :   224
 total energy-change (2. order) :-0.1870548E+01  (-0.1865711E+01)
 number of electron      88.0000096 magnetization       6.7135297
 augmentation part       41.6619226 magnetization       6.8717170

 Broyden mixing:
  rms(total) = 0.15954E+01    rms(broyden)= 0.15952E+01
  rms(prec ) = 0.16251E+01
  weight for this iteration     100.00

 Free energy of the ion-electron system (eV)
  ---------------------------------------------------
  alpha Z        PSCENC =         8.19674625
  Ewald energy   TEWEN  =      5636.11880312
  -Hartree energ DENC   =    -13561.44873894
  -exchange      EXHF   =         0.00000000
  -V(xc)+E(xc)   XCENC  =       -90.23007001
  PAW double counting   =      8026.97742456    -7658.11687103
  entropy T*S    EENTRO =         0.00000000
  eigenvalues    EBANDS =      -672.00941212
  atomic energy  EATOM  =      8297.58904069
  ---------------------------------------------------
  free energy    TOTEN  =       -12.92307748 eV

  energy without entropy =      -12.92307748  energy(sigma->0) =      -12.92307748


--------------------------------------------------------------------------------------------------------




----------------------------------------- Iteration    1(   6)  ---------------------------------------


    POTLOK:  cpu time    0.22: real time    0.23
    SETDIJ:  cpu time    0.01: real time    0.01
     EDDAV:  cpu time    0.48: real time    0.48
       DOS:  cpu time    0.00: real time    0.00
    CHARGE:  cpu time    0.04: real time    0.04
    MIXING:  cpu time    0.01: real time    0.01
    --------------------------------------------
      LOOP:  cpu time    0.76: real time    0.77

 eigenvalue-minimisations  :   232
 total energy-change (2. order) : 0.1477643E+02  (-0.3795260E+01)
 number of electron      88.0000097 magnetization       6.0020669
 augmentation part       42.3813979 magnetization       3.4114756

 Broyden mixing:
  rms(total) = 0.75205E+00    rms(broyden)= 0.75196E+00
  rms(prec ) = 0.76673E+00
  weight for this iteration     100.00

 eigenvalues of (default mixing * dielectric matrix)
  average eigenvalue GAMMA=   0.8587
  0.8587

 Free energy of the ion-electron system (eV)
  ---------------------------------------------------
  alpha Z        PSCENC =         8.19674625
  Ewald energy   TEWEN  =      5636.11880312
  -Hartree energ DENC   =    -13542.77767090
  -exchange      EXHF   =         0.00000000
  -V(xc)+E(xc)   XCENC  =       -81.17763683
  PAW double counting   =      8317.19447748    -7954.24806359
  entropy T*S    EENTRO =        -0.00000000
  eigenvalues    EBANDS =      -679.04234454
  atomic energy  EATOM  =      8297.58904069
  ---------------------------------------------------
  free energy    TOTEN  =         1.85335168 eV

  energy without entropy =        1.85335168  energy(sigma->0) =        1.85335168


--------------------------------------------------------------------------------------------------------




----------------------------------------- Iteration    1(   7)  ---------------------------------------


    POTLOK:  cpu time    0.22: real time    0.23
    SETDIJ:  cpu time    0.01: real time    0.01
     EDDAV:  cpu time    0.50: real time    0.50
       DOS:  cpu time    0.00: real time    0.00
    CHARGE:  cpu time    0.04: real time    0.04
    MIXING:  cpu time    0.01: real time    0.01
    --------------------------------------------
      LOOP:  cpu time    0.78: real time    0.79

 eigenvalue-minimisations  :   248
 total energy-change (2. order) :-0.1938977E+01  (-0.1608640E+00)
 number of electron      88.0000097 magnetization       4.7100046
 augmentation part       42.2180264 magnetization       4.2827759

 Broyden mixing:
  rms(total) = 0.46677E+00    rms(broyden)= 0.46673E+00
  rms(prec ) = 0.48001E+00
  weight for this iteration     100.00

 eigenvalues of (default mixing * dielectric matrix)
  average eigenvalue GAMMA=   0.9296
  0.7187  1.1405

 Free energy of the ion-electron system (eV)
  ---------------------------------------------------
  alpha Z        PSCENC =         8.19674625
  Ewald energy   TEWEN  =      5636.11880312
  -Hartree energ DENC   =    -13561.01922243
  -exchange      EXHF   =         0.00000000
  -V(xc)+E(xc)   XCENC  =       -82.06414962
  PAW double counting   =      8486.96040310    -8127.60788315
  entropy T*S    EENTRO =         0.00000000
  eigenvalues    EBANDS =      -658.25936317
  atomic energy  EATOM  =      8297.58904069
  ---------------------------------------------------
  free energy    TOTEN  =        -0.08562521 eV

  energy without entropy =       -0.08562521  energy(sigma->0) =       -0.08562521


--------------------------------------------------------------------------------------------------------




----------------------------------------- Iteration    1(   8)  ---------------------------------------


    POTLOK:  cpu time    0.23: real time    0.23
    SETDIJ:  cpu time    0.00: real time    0.01
     EDDAV:  cpu time    0.50: real time    0.50
       DOS:  cpu time    0.00: real time    0.00
    CHARGE:  cpu time    0.04: real time    0.04
    MIXING:  cpu time    0.01: real time    0.01
    --------------------------------------------
      LOOP:  cpu time    0.78: real time    0.79

 eigenvalue-minimisations  :   248
 total energy-change (2. order) : 0.8275833E+00  (-0.8847987E-01)
 number of electron      88.0000096 magnetization       3.6275910
 augmentation part       42.1822973 magnetization       3.3268574

 Broyden mixing:
  rms(total) = 0.23697E+00    rms(broyden)= 0.23696E+00
  rms(prec ) = 0.24505E+00
  weight for this iteration     100.00

 eigenvalues of (default mixing * dielectric matrix)
  average eigenvalue GAMMA=   1.1483
  1.9010  0.9060  0.6380

 Free energy of the ion-electron system (eV)
  ---------------------------------------------------
  alpha Z        PSCENC =         8.19674625
  Ewald energy   TEWEN  =      5636.11880312
  -Hartree energ DENC   =    -13578.40930992
  -exchange      EXHF   =         0.00000000
  -V(xc)+E(xc)   XCENC  =       -80.87268468
  PAW double counting   =      8663.60685839    -8307.94365451
  entropy T*S    EENTRO =         0.00000000
  eigenvalues    EBANDS =      -637.54384121
  atomic energy  EATOM  =      8297.58904069
  ---------------------------------------------------
  free energy    TOTEN  =         0.74195813 eV

  energy without entropy =        0.74195813  energy(sigma->0) =        0.74195813


--------------------------------------------------------------------------------------------------------




----------------------------------------- Iteration    1(   9)  ---------------------------------------


    POTLOK:  cpu time    0.23: real time    0.23
    SETDIJ:  cpu time    0.00: real time    0.01
     EDDAV:  cpu time    0.49: real time    0.49
       DOS:  cpu time    0.00: real time    0.00
    CHARGE:  cpu time    0.04: real time    0.04
    MIXING:  cpu time    0.01: real time    0.01
    --------------------------------------------
      LOOP:  cpu time    0.77: real time    0.78

 eigenvalue-minimisations  :   240
 total energy-change (2. order) :-0.4632814E+01  (-0.1790922E+00)
 number of electron      88.0000096 magnetization       2.9237802
 augmentation part       42.1363302 magnetization       2.7208280

 Broyden mixing:
  rms(total) = 0.14352E+00    rms(broyden)= 0.14352E+00
  rms(prec ) = 0.14818E+00
  weight for this iteration     100.00

 eigenvalues of (default mixing * dielectric matrix)
  average eigenvalue GAMMA=   1.1203
  1.9096  0.6861  0.6861  1.1995

 Free energy of the ion-electron system (eV)
  ---------------------------------------------------
  alpha Z        PSCENC =         8.19674625
  Ewald energy   TEWEN  =      5636.11880312
  -Hartree energ DENC   =    -13588.71223953
  -exchange      EXHF   =         0.00000000
  -V(xc)+E(xc)   XCENC  =       -84.19011519
  PAW double counting   =      8750.64259654    -8396.75872575
  entropy T*S    EENTRO =         0.00000000
  eigenvalues    EBANDS =      -626.77696236
  atomic energy  EATOM  =      8297.58904069
  ---------------------------------------------------
  free energy    TOTEN  =        -3.89085622 eV

  energy without entropy =       -3.89085622  energy(sigma->0) =       -3.89085622


--------------------------------------------------------------------------------------------------------




----------------------------------------- Iteration    1(  10)  ---------------------------------------


    POTLOK:  cpu time    0.23: real time    0.23
    SETDIJ:  cpu time    0.00: real time    0.01
     EDDAV:  cpu time    0.48: real time    0.48
       DOS:  cpu time    0.00: real time    0.00
    CHARGE:  cpu time    0.04: real time    0.04
    MIXING:  cpu time    0.01: real time    0.01
    --------------------------------------------
      LOOP:  cpu time    0.76: real time    0.77

 eigenvalue-minimisations  :   232
 total energy-change (2. order) :-0.3335625E+01  (-0.1230774E+00)
 number of electron      88.0000096 magnetization       2.0562805
 augmentation part       42.1628521 magnetization       1.9269336

 Broyden mixing:
  rms(total) = 0.99552E-01    rms(broyden)= 0.99547E-01
  rms(prec ) = 0.10292E+00
  weight for this iteration     100.00

 eigenvalues of (default mixing * dielectric matrix)
  average eigenvalue GAMMA=   1.2634
  2.0747  2.0747  0.7653  0.7653  0.6370

 Free energy of the ion-electron system (eV)
  ---------------------------------------------------
  alpha Z        PSCENC =         8.19674625
  Ewald energy   TEWEN  =      5636.11880312
  -Hartree energ DENC   =    -13586.67558645
  -exchange      EXHF   =         0.00000000
  -V(xc)+E(xc)   XCENC  =       -86.75886780
  PAW double counting   =      8747.65509515    -8393.69482294
  entropy T*S    EENTRO =         0.00000000
  eigenvalues    EBANDS =      -629.65688926
  atomic energy  EATOM  =      8297.58904069
  ---------------------------------------------------
  free energy    TOTEN  =        -7.22648125 eV

  energy without entropy =       -7.22648125  energy(sigma->0) =       -7.22648125


--------------------------------------------------------------------------------------------------------




----------------------------------------- Iteration    1(  11)  ---------------------------------------


    POTLOK:  cpu time    0.23: real time    0.23
    SETDIJ:  cpu time    0.00: real time    0.01
     EDDAV:  cpu time    0.50: real time    0.50
       DOS:  cpu time    0.00: real time    0.00
    CHARGE:  cpu time    0.04: real time    0.04
    MIXING:  cpu time    0.01: real time    0.01
    --------------------------------------------
      LOOP:  cpu time    0.78: real time    0.80

 eigenvalue-minimisations  :   248
 total energy-change (2. order) :-0.2433250E+01  (-0.7475344E-01)
 number of electron      88.0000096 magnetization       1.4043356
 augmentation part       42.1984142 magnetization       1.3386564

 Broyden mixing:
  rms(total) = 0.71021E-01    rms(broyden)= 0.71016E-01
  rms(prec ) = 0.73535E-01
  weight for this iteration     100.00

 eigenvalues of (default mixing * dielectric matrix)
  average eigenvalue GAMMA=   1.2860
  2.8162  1.3314  1.3314  0.9106  0.6516  0.6748

 Free energy of the ion-electron system (eV)
  ---------------------------------------------------
  alpha Z        PSCENC =         8.19674625
  Ewald energy   TEWEN  =      5636.11880312
  -Hartree energ DENC   =    -13584.48440882
  -exchange      EXHF   =         0.00000000
  -V(xc)+E(xc)   XCENC  =       -88.76816225
  PAW double counting   =      8742.21519199    -8388.26053284
  entropy T*S    EENTRO =         0.00000000
  eigenvalues    EBANDS =      -632.26640917
  atomic energy  EATOM  =      8297.58904069
  ---------------------------------------------------
  free energy    TOTEN  =        -9.65973103 eV

  energy without entropy =       -9.65973103  energy(sigma->0) =       -9.65973103


--------------------------------------------------------------------------------------------------------




----------------------------------------- Iteration    1(  12)  ---------------------------------------


    POTLOK:  cpu time    0.23: real time    0.23
    SETDIJ:  cpu time    0.00: real time    0.01
     EDDAV:  cpu time    0.49: real time    0.49
       DOS:  cpu time    0.00: real time    0.00
    CHARGE:  cpu time    0.04: real time    0.04
    MIXING:  cpu time    0.01: real time    0.01
    --------------------------------------------
      LOOP:  cpu time    0.77: real time    0.78

 eigenvalue-minimisations  :   240
 total energy-change (2. order) :-0.1237705E+01  (-0.2372373E-01)
 number of electron      88.0000096 magnetization       0.6030695
 augmentation part       42.1942826 magnetization       0.5694272

 Broyden mixing:
  rms(total) = 0.48320E-01    rms(broyden)= 0.48318E-01
  rms(prec ) = 0.51340E-01
  weight for this iteration     100.00

 eigenvalues of (default mixing * dielectric matrix)
  average eigenvalue GAMMA=   1.4908
  3.6393  2.2294  1.2736  1.1950  0.7562  0.7207  0.6216

 Free energy of the ion-electron system (eV)
  ---------------------------------------------------
  alpha Z        PSCENC =         8.19674625
  Ewald energy   TEWEN  =      5636.11880312
  -Hartree energ DENC   =    -13584.20257304
  -exchange      EXHF   =         0.00000000
  -V(xc)+E(xc)   XCENC  =       -89.82743826
  PAW double counting   =      8734.60744295    -8380.69200877
  entropy T*S    EENTRO =        -0.00000000
  eigenvalues    EBANDS =      -632.68744863
  atomic energy  EATOM  =      8297.58904069
  ---------------------------------------------------
  free energy    TOTEN  =       -10.89743569 eV

  energy without entropy =      -10.89743569  energy(sigma->0) =      -10.89743569


--------------------------------------------------------------------------------------------------------




----------------------------------------- Iteration    1(  13)  ---------------------------------------


    POTLOK:  cpu time    0.23: real time    0.23
    SETDIJ:  cpu time    0.00: real time    0.01
     EDDAV:  cpu time    0.49: real time    0.49
       DOS:  cpu time    0.00: real time    0.00
    CHARGE:  cpu time    0.04: real time    0.04
    MIXING:  cpu time    0.01: real time    0.01
    --------------------------------------------
      LOOP:  cpu time    0.77: real time    0.79

 eigenvalue-minimisations  :   240
 total energy-change (2. order) :-0.1382946E+01  (-0.3401374E-01)
 number of electron      88.0000096 magnetization       0.3874505
 augmentation part       42.2138435 magnetization       0.3744986

 Broyden mixing:
  rms(total) = 0.22169E-01    rms(broyden)= 0.22162E-01
  rms(prec ) = 0.24048E-01
  weight for this iteration     100.00

 eigenvalues of (default mixing * dielectric matrix)
  average eigenvalue GAMMA=   1.5143
  4.0395  2.4785  1.6022  1.0612  0.8385  0.8385  0.6419  0.6142

 Free energy of the ion-electron system (eV)
  ---------------------------------------------------
  alpha Z        PSCENC =         8.19674625
  Ewald energy   TEWEN  =      5636.11880312
  -Hartree energ DENC   =    -13579.46020956
  -exchange      EXHF   =         0.00000000
  -V(xc)+E(xc)   XCENC  =       -91.17207629
  PAW double counting   =      8695.60655851    -8341.15733886
  entropy T*S    EENTRO =         0.00000000
  eigenvalues    EBANDS =      -638.00190599
  atomic energy  EATOM  =      8297.58904069
  ---------------------------------------------------
  free energy    TOTEN  =       -12.28038213 eV

  energy without entropy =      -12.28038213  energy(sigma->0) =      -12.28038213


--------------------------------------------------------------------------------------------------------




----------------------------------------- Iteration    1(  14)  ---------------------------------------


    POTLOK:  cpu time    0.23: real time    0.23
    SETDIJ:  cpu time    0.01: real time    0.01
     EDDAV:  cpu time    0.51: real time    0.51
       DOS:  cpu time    0.00: real time    0.00
    CHARGE:  cpu time    0.04: real time    0.04
    MIXING:  cpu time    0.01: real time    0.01
    --------------------------------------------
      LOOP:  cpu time    0.80: real time    1.59

 eigenvalue-minimisations  :   256
 total energy-change (2. order) :-0.3210410E+00  (-0.2464196E-02)
 number of electron      88.0000096 magnetization       0.1966772
 augmentation part       42.2113332 magnetization       0.1903423

 Broyden mixing:
  rms(total) = 0.15235E-01    rms(broyden)= 0.15232E-01
  rms(prec ) = 0.16898E-01
  weight for this iteration     100.00

 eigenvalues of (default mixing * dielectric matrix)
  average eigenvalue GAMMA=   1.5368
  4.6329  2.5890  1.4507  1.4507  0.9668  0.7674  0.7674  0.6278  0.5787

 Free energy of the ion-electron system (eV)
  ---------------------------------------------------
  alpha Z        PSCENC =         8.19674625
  Ewald energy   TEWEN  =      5636.11880312
  -Hartree energ DENC   =    -13577.87195636
  -exchange      EXHF   =         0.00000000
  -V(xc)+E(xc)   XCENC  =       -91.50702698
  PAW double counting   =      8691.43338315    -8336.89256839
  entropy T*S    EENTRO =         0.00000000
  eigenvalues    EBANDS =      -639.66784465
  atomic energy  EATOM  =      8297.58904069
  ---------------------------------------------------
  free energy    TOTEN  =       -12.60142317 eV

  energy without entropy =      -12.60142317  energy(sigma->0) =      -12.60142317


--------------------------------------------------------------------------------------------------------




----------------------------------------- Iteration    1(  15)  ---------------------------------------


    POTLOK:  cpu time    0.23: real time    0.23
    SETDIJ:  cpu time    0.01: real time    0.01
     EDDAV:  cpu time    0.47: real time    0.47
       DOS:  cpu time    0.00: real time    0.00
    CHARGE:  cpu time    0.04: real time    0.04
    MIXING:  cpu time    0.01: real time    0.01
    --------------------------------------------
      LOOP:  cpu time    0.76: real time    0.76

 eigenvalue-minimisations  :   232
 total energy-change (2. order) :-0.2367768E+00  (-0.1652150E-02)
 number of electron      88.0000096 magnetization       0.0786498
 augmentation part       42.2185143 magnetization       0.0762756

 Broyden mixing:
  rms(total) = 0.78739E-02    rms(broyden)= 0.78718E-02
  rms(prec ) = 0.94348E-02
  weight for this iteration     100.00

 eigenvalues of (default mixing * dielectric matrix)
  average eigenvalue GAMMA=   1.6387
  5.2680  2.7746  2.1453  1.5503  1.0421  0.8624  0.8624  0.6623  0.6365  0.5830

 Free energy of the ion-electron system (eV)
  ---------------------------------------------------
  alpha Z        PSCENC =         8.19674625
  Ewald energy   TEWEN  =      5636.11880312
  -Hartree energ DENC   =    -13575.93511630
  -exchange      EXHF   =         0.00000000
  -V(xc)+E(xc)   XCENC  =       -91.77180842
  PAW double counting   =      8691.15931480    -8336.55652898
  entropy T*S    EENTRO =         0.00000000
  eigenvalues    EBANDS =      -641.63865114
  atomic energy  EATOM  =      8297.58904069
  ---------------------------------------------------
  free energy    TOTEN  =       -12.83819998 eV

  energy without entropy =      -12.83819998  energy(sigma->0) =      -12.83819998


--------------------------------------------------------------------------------------------------------




----------------------------------------- Iteration    1(  16)  ---------------------------------------


    POTLOK:  cpu time    0.23: real time    0.23
    SETDIJ:  cpu time    0.01: real time    0.01
     EDDAV:  cpu time    0.46: real time    0.46
       DOS:  cpu time    0.00: real time    0.00
    CHARGE:  cpu time    0.04: real time    0.04
    MIXING:  cpu time    0.01: real time    0.01
    --------------------------------------------
      LOOP:  cpu time    0.75: real time    0.75

 eigenvalue-minimisations  :   224
 total energy-change (2. order) :-0.1334741E+00  (-0.5104124E-03)
 number of electron      88.0000096 magnetization       0.0281038
 augmentation part       42.2174771 magnetization       0.0270662

 Broyden mixing:
  rms(total) = 0.33430E-02    rms(broyden)= 0.33416E-02
  rms(prec ) = 0.46641E-02
  weight for this iteration     100.00

 eigenvalues of (default mixing * dielectric matrix)
  average eigenvalue GAMMA=   1.6916
  5.7639  3.1673  2.3595  1.5966  1.2021  1.0305  0.8092  0.8092  0.6550  0.6310
  0.5829

 Free energy of the ion-electron system (eV)
  ---------------------------------------------------
  alpha Z        PSCENC =         8.19674625
  Ewald energy   TEWEN  =      5636.11880312
  -Hartree energ DENC   =    -13574.60254445
  -exchange      EXHF   =         0.00000000
  -V(xc)+E(xc)   XCENC  =       -91.92234586
  PAW double counting   =      8693.97030560    -8339.36949614
  entropy T*S    EENTRO =         0.00000000
  eigenvalues    EBANDS =      -642.95218333
  atomic energy  EATOM  =      8297.58904069
  ---------------------------------------------------
  free energy    TOTEN  =       -12.97167412 eV

  energy without entropy =      -12.97167412  energy(sigma->0) =      -12.97167412


--------------------------------------------------------------------------------------------------------




----------------------------------------- Iteration    1(  17)  ---------------------------------------


    POTLOK:  cpu time    0.23: real time    0.23
    SETDIJ:  cpu time    0.01: real time    0.01
     EDDAV:  cpu time    0.44: real time    0.44
       DOS:  cpu time    0.00: real time    0.00
    CHARGE:  cpu time    0.04: real time    0.04
    MIXING:  cpu time    0.01: real time    0.01
    --------------------------------------------
      LOOP:  cpu time    0.73: real time    3.31

 eigenvalue-minimisations  :   208
 total energy-change (2. order) :-0.3055320E-01  (-0.1798157E-03)
 number of electron      88.0000096 magnetization       0.0108516
 augmentation part       42.2183812 magnetization       0.0102232

 Broyden mixing:
  rms(total) = 0.18196E-02    rms(broyden)= 0.18191E-02
  rms(prec ) = 0.28383E-02
  weight for this iteration     100.00

 eigenvalues of (default mixing * dielectric matrix)
  average eigenvalue GAMMA=   1.6742
  5.9268  3.2273  2.3869  1.8349  1.1851  1.1851  0.9320  0.7804  0.7804  0.5727
  0.6238  0.6547

 Free energy of the ion-electron system (eV)
  ---------------------------------------------------
  alpha Z        PSCENC =         8.19674625
  Ewald energy   TEWEN  =      5636.11880312
  -Hartree energ DENC   =    -13573.71940668
  -exchange      EXHF   =         0.00000000
  -V(xc)+E(xc)   XCENC  =       -91.96285932
  PAW double counting   =      8695.00124953    -8340.40557610
  entropy T*S    EENTRO =         0.00000000
  eigenvalues    EBANDS =      -643.82022481
  atomic energy  EATOM  =      8297.58904069
  ---------------------------------------------------
  free energy    TOTEN  =       -13.00222732 eV

  energy without entropy =      -13.00222732  energy(sigma->0) =      -13.00222732


--------------------------------------------------------------------------------------------------------




----------------------------------------- Iteration    1(  18)  ---------------------------------------


    POTLOK:  cpu time    0.23: real time    0.23
    SETDIJ:  cpu time    0.00: real time    0.01
     EDDAV:  cpu time    0.38: real time    0.38
       DOS:  cpu time    0.00: real time    0.00
    CHARGE:  cpu time    0.04: real time    0.04
    MIXING:  cpu time    0.01: real time    0.01
    --------------------------------------------
      LOOP:  cpu time    0.67: real time    0.67

 eigenvalue-minimisations  :   168
 total energy-change (2. order) :-0.3197707E-02  (-0.4952167E-04)
 number of electron      88.0000096 magnetization       0.0039553
 augmentation part       42.2188483 magnetization       0.0036466

 Broyden mixing:
  rms(total) = 0.11174E-02    rms(broyden)= 0.11173E-02
  rms(prec ) = 0.18862E-02
  weight for this iteration     100.00

 eigenvalues of (default mixing * dielectric matrix)
  average eigenvalue GAMMA=   1.7024
  6.0225  3.3739  2.6959  2.0541  1.6117  1.1598  0.9956  0.8432  0.8112  0.7267
  0.5720  0.6196  0.6447

 Free energy of the ion-electron system (eV)
  ---------------------------------------------------
  alpha Z        PSCENC =         8.19674625
  Ewald energy   TEWEN  =      5636.11880312
  -Hartree energ DENC   =    -13573.20945171
  -exchange      EXHF   =         0.00000000
  -V(xc)+E(xc)   XCENC  =       -91.97014003
  PAW double counting   =      8694.87058884    -8340.28277893
  entropy T*S    EENTRO =         0.00000000
  eigenvalues    EBANDS =      -644.31823325
  atomic energy  EATOM  =      8297.58904069
  ---------------------------------------------------
  free energy    TOTEN  =       -13.00542503 eV

  energy without entropy =      -13.00542503  energy(sigma->0) =      -13.00542503


--------------------------------------------------------------------------------------------------------




----------------------------------------- Iteration    1(  19)  ---------------------------------------


    POTLOK:  cpu time    0.23: real time    0.23
    SETDIJ:  cpu time    0.00: real time    0.01
     EDDAV:  cpu time    0.41: real time    0.41
       DOS:  cpu time    0.00: real time    0.00
    CHARGE:  cpu time    0.04: real time    0.04
    MIXING:  cpu time    0.01: real time    0.01
    --------------------------------------------
      LOOP:  cpu time    0.69: real time    0.70

 eigenvalue-minimisations  :   184
 total energy-change (2. order) :-0.7039382E-03  (-0.2850482E-04)
 number of electron      88.0000096 magnetization       0.0021506
 augmentation part       42.2185074 magnetization       0.0018620

 Broyden mixing:
  rms(total) = 0.76569E-03    rms(broyden)= 0.76565E-03
  rms(prec ) = 0.12003E-02
  weight for this iteration     100.00

 eigenvalues of (default mixing * dielectric matrix)
  average eigenvalue GAMMA=   1.7239
  6.0438  3.9698  2.7454  2.2798  1.7083  1.2216  1.0216  1.0216  0.7997  0.7997
  0.6830  0.6431  0.6174  0.5798

 Free energy of the ion-electron system (eV)
  ---------------------------------------------------
  alpha Z        PSCENC =         8.19674625
  Ewald energy   TEWEN  =      5636.11880312
  -Hartree energ DENC   =    -13572.75379949
  -exchange      EXHF   =         0.00000000
  -V(xc)+E(xc)   XCENC  =       -91.97385494
  PAW double counting   =      8694.70774507    -8340.12714774
  entropy T*S    EENTRO =         0.00000000
  eigenvalues    EBANDS =      -644.76366193
  atomic energy  EATOM  =      8297.58904069
  ---------------------------------------------------
  free energy    TOTEN  =       -13.00612897 eV

  energy without entropy =      -13.00612897  energy(sigma->0) =      -13.00612897


--------------------------------------------------------------------------------------------------------




----------------------------------------- Iteration    1(  20)  ---------------------------------------


    POTLOK:  cpu time    0.22: real time    0.23
    SETDIJ:  cpu time    0.01: real time    0.01
     EDDAV:  cpu time    0.36: real time    0.36
       DOS:  cpu time    0.00: real time    0.00
    CHARGE:  cpu time    0.04: real time    0.04
    MIXING:  cpu time    0.01: real time    0.01
    --------------------------------------------
      LOOP:  cpu time    0.65: real time    0.65

 eigenvalue-minimisations  :   152
 total energy-change (2. order) :-0.7975850E-03  (-0.6185666E-05)
 number of electron      88.0000096 magnetization       0.0000399
 augmentation part       42.2188892 magnetization      -0.0001610

 Broyden mixing:
  rms(total) = 0.41421E-03    rms(broyden)= 0.41418E-03
  rms(prec ) = 0.73858E-03
  weight for this iteration     100.00

 eigenvalues of (default mixing * dielectric matrix)
  average eigenvalue GAMMA=   1.7400
  6.0658  4.3714  2.7302  2.5598  1.7888  1.5093  1.0430  1.0430  0.8900  0.7979
  0.7979  0.5770  0.6679  0.6369  0.6210

 Free energy of the ion-electron system (eV)
  ---------------------------------------------------
  alpha Z        PSCENC =         8.19674625
  Ewald energy   TEWEN  =      5636.11880312
  -Hartree energ DENC   =    -13572.45256233
  -exchange      EXHF   =         0.00000000
  -V(xc)+E(xc)   XCENC  =       -91.97815481
  PAW double counting   =      8694.40862740    -8339.82268561
  entropy T*S    EENTRO =         0.00000000
  eigenvalues    EBANDS =      -645.06674126
  atomic energy  EATOM  =      8297.58904069
  ---------------------------------------------------
  free energy    TOTEN  =       -13.00692656 eV

  energy without entropy =      -13.00692656  energy(sigma->0) =      -13.00692656


--------------------------------------------------------------------------------------------------------




----------------------------------------- Iteration    1(  21)  ---------------------------------------


    POTLOK:  cpu time    0.22: real time    0.23
    SETDIJ:  cpu time    0.01: real time    0.01
     EDDAV:  cpu time    0.35: real time    0.35
       DOS:  cpu time    0.00: real time    0.00
    CHARGE:  cpu time    0.04: real time    0.04
    MIXING:  cpu time    0.01: real time    0.01
    --------------------------------------------
      LOOP:  cpu time    0.64: real time    0.64

 eigenvalue-minimisations  :   144
 total energy-change (2. order) :-0.9399719E-03  (-0.3687619E-05)
 number of electron      88.0000096 magnetization       0.0003814
 augmentation part       42.2193014 magnetization       0.0003377

 Broyden mixing:
  rms(total) = 0.27896E-03    rms(broyden)= 0.27893E-03
  rms(prec ) = 0.46316E-03
  weight for this iteration     100.00

 eigenvalues of (default mixing * dielectric matrix)
  average eigenvalue GAMMA=   1.8008
  6.0800  5.1694  3.0899  2.5503  2.2072  1.5614  1.2092  1.0426  1.0426  0.8109
  0.8109  0.7500  0.5760  0.6252  0.6376  0.6499

 Free energy of the ion-electron system (eV)
  ---------------------------------------------------
  alpha Z        PSCENC =         8.19674625
  Ewald energy   TEWEN  =      5636.11880312
  -Hartree energ DENC   =    -13572.19895887
  -exchange      EXHF   =         0.00000000
  -V(xc)+E(xc)   XCENC  =       -91.98235930
  PAW double counting   =      8694.15650632    -8339.56568956
  entropy T*S    EENTRO =         0.00000000
  eigenvalues    EBANDS =      -645.32195518
  atomic energy  EATOM  =      8297.58904069
  ---------------------------------------------------
  free energy    TOTEN  =       -13.00786653 eV

  energy without entropy =      -13.00786653  energy(sigma->0) =      -13.00786653


--------------------------------------------------------------------------------------------------------




----------------------------------------- Iteration    1(  22)  ---------------------------------------


    POTLOK:  cpu time    0.22: real time    0.23
    SETDIJ:  cpu time    0.01: real time    0.01
     EDDAV:  cpu time    0.37: real time    0.37
       DOS:  cpu time    0.00: real time    0.00
    CHARGE:  cpu time    0.04: real time    0.04
    MIXING:  cpu time    0.01: real time    0.01
    --------------------------------------------
      LOOP:  cpu time    0.66: real time    0.66

 eigenvalue-minimisations  :   160
 total energy-change (2. order) :-0.1919942E-03  (-0.1521975E-05)
 number of electron      88.0000096 magnetization       0.0006085
 augmentation part       42.2192985 magnetization       0.0005887

 Broyden mixing:
  rms(total) = 0.15772E-03    rms(broyden)= 0.15769E-03
  rms(prec ) = 0.29378E-03
  weight for this iteration     100.00

 eigenvalues of (default mixing * dielectric matrix)
  average eigenvalue GAMMA=   1.8350
  6.0483  6.0483  3.1833  2.6935  2.3894  1.6708  1.2936  1.1485  0.9304  0.9304
  0.8221  0.7803  0.7803  0.6569  0.5765  0.6211  0.6211

 Free energy of the ion-electron system (eV)
  ---------------------------------------------------
  alpha Z        PSCENC =         8.19674625
  Ewald energy   TEWEN  =      5636.11880312
  -Hartree energ DENC   =    -13572.10228094
  -exchange      EXHF   =         0.00000000
  -V(xc)+E(xc)   XCENC  =       -91.98331800
  PAW double counting   =      8694.28495590    -8339.69531442
  entropy T*S    EENTRO =         0.00000000
  eigenvalues    EBANDS =      -645.41669112
  atomic energy  EATOM  =      8297.58904069
  ---------------------------------------------------
  free energy    TOTEN  =       -13.00805852 eV

  energy without entropy =      -13.00805852  energy(sigma->0) =      -13.00805852


--------------------------------------------------------------------------------------------------------




----------------------------------------- Iteration    1(  23)  ---------------------------------------


    POTLOK:  cpu time    0.23: real time    0.23
    SETDIJ:  cpu time    0.00: real time    0.01
     EDDAV:  cpu time    0.37: real time    0.37
       DOS:  cpu time    0.00: real time    0.00
    --------------------------------------------
      LOOP:  cpu time    0.60: real time    0.61

 eigenvalue-minimisations  :   160
 total energy-change (2. order) :-0.3446981E-04  (-0.3084696E-06)
 number of electron      88.0000096 magnetization       0.0006085
 augmentation part       42.2192985 magnetization       0.0005887

 Free energy of the ion-electron system (eV)
  ---------------------------------------------------
  alpha Z        PSCENC =         8.19674625
  Ewald energy   TEWEN  =      5636.11880312
  -Hartree energ DENC   =    -13572.06409233
  -exchange      EXHF   =         0.00000000
  -V(xc)+E(xc)   XCENC  =       -91.98349926
  PAW double counting   =      8694.42678864    -8339.83811538
  entropy T*S    EENTRO =         0.00000000
  eigenvalues    EBANDS =      -645.45376472
  atomic energy  EATOM  =      8297.58904069
  ---------------------------------------------------
  free energy    TOTEN  =       -13.00809299 eV

  energy without entropy =      -13.00809299  energy(sigma->0) =      -13.00809299


--------------------------------------------------------------------------------------------------------




 average (electrostatic) potential at core
  the test charge radii are     1.1249
  (the norm of the test charge is              1.0000)
       1 -82.1289       2 -82.4219       3 -82.4051       4 -82.1373       5 -82.1389
       6 -82.4135       7 -82.4193       8 -82.1326
 
 
 
 E-fermi :  -4.2736     XC(G=0):  -0.5981     alpha+bet : -0.2765


 spin component 1

 k-point     1 :       0.0000    0.0000    0.0000
  band No.  band energies     occupation 
      1      -9.4112      1.00000
      2      -9.3873      1.00000
      3      -9.0329      1.00000
      4      -8.8682      1.00000
      5      -8.8662      1.00000
      6      -8.5607      1.00000
      7      -8.4469      1.00000
      8      -8.3771      1.00000
      9      -8.2608      1.00000
     10      -8.2144      1.00000
     11      -8.1072      1.00000
     12      -8.0981      1.00000
     13      -7.7486      1.00000
     14      -7.6845      1.00000
     15      -7.6110      1.00000
     16      -7.5687      1.00000
     17      -7.5404      1.00000
     18      -7.4715      1.00000
     19      -7.4017      1.00000
     20      -7.3867      1.00000
     21      -7.3829      1.00000
     22      -7.3530      1.00000
     23      -7.3053      1.00000
     24      -7.2405      1.00000
     25      -7.1603      1.00000
     26      -6.9852      1.00000
     27      -6.9719      1.00000
     28      -6.9122      1.00000
     29      -6.8874      1.00000
     30      -6.8360      1.00000
     31      -6.8070      1.00000
     32      -6.8012      1.00000
     33      -6.7386      1.00000
     34      -6.6708      1.00000
     35      -6.6683      1.00000
     36      -6.6658      1.00000
     37      -6.6225      1.00000
     38      -6.5573      1.00000
     39      -6.5259      1.00000
     40      -6.2775      1.00000
     41      -6.1386      1.00000
     42      -5.5792      1.00000
     43      -5.2978      1.00000
     44      -4.2977      1.00000
     45      -3.1753      0.00000
     46      -2.6675      0.00000
     47      -2.1107      0.00000
     48      -1.9145      0.00000
     49      -1.6807      0.00000
     50      -0.9852      0.00000
     51      -0.8362      0.00000
     52      -0.6892      0.00000
     53      -0.6110      0.00000
     54      -0.5202      0.00000
     55      -0.1352      0.00000
     56       0.1457      0.00000

 spin component 2

 k-point     1 :       0.0000    0.0000    0.0000
  band No.  band energies     occupation 
      1      -9.4112      1.00000
      2      -9.3873      1.00000
      3      -9.0329      1.00000
      4      -8.8682      1.00000
      5      -8.8662      1.00000
      6      -8.5607      1.00000
      7      -8.4469      1.00000
      8      -8.3771      1.00000
      9      -8.2608      1.00000
     10      -8.2144      1.00000
     11      -8.1072      1.00000
     12      -8.0981      1.00000
     13      -7.7486      1.00000
     14      -7.6845      1.00000
     15      -7.6110      1.00000
     16      -7.5687      1.00000
     17      -7.5404      1.00000
     18      -7.4715      1.00000
     19      -7.4017      1.00000
     20      -7.3867      1.00000
     21      -7.3829      1.00000
     22      -7.3530      1.00000
     23      -7.3053      1.00000
     24      -7.2405      1.00000
     25      -7.1603      1.00000
     26      -6.9852      1.00000
     27      -6.9719      1.00000
     28      -6.9122      1.00000
     29      -6.8874      1.00000
     30      -6.8360      1.00000
     31      -6.8070      1.00000
     32      -6.8012      1.00000
     33      -6.7385      1.00000
     34      -6.6708      1.00000
     35      -6.6683      1.00000
     36      -6.6658      1.00000
     37      -6.6225      1.00000
     38      -6.5573      1.00000
     39      -6.5259      1.00000
     40      -6.2774      1.00000
     41      -6.1386      1.00000
     42      -5.5791      1.00000
     43      -5.2978      1.00000
     44      -4.2976      1.00000
     45      -3.1750      0.00000
     46      -2.6673      0.00000
     47      -2.1103      0.00000
     48      -1.9139      0.00000
     49      -1.6801      0.00000
     50      -0.9838      0.00000
     51      -0.8346      0.00000
     52      -0.6875      0.00000
     53      -0.6091      0.00000
     54      -0.5180      0.00000
     55      -0.1313      0.00000
     56       0.1449      0.00000


--------------------------------------------------------------------------------------------------------


 soft charge-density along one line, spin component           1
         0         1         2         3         4         5         6         7         8         9
 total charge-density along one line
 
 soft charge-density along one line, spin component           2
         0         1         2         3         4         5         6         7         8         9
 total charge-density along one line
 
 pseudopotential strength for first ion, spin component:           1
-10.288  -0.023   0.020   0.008   0.001 -10.264  -0.022   0.019
 -0.023 -10.267   0.005  -0.010  -0.005  -0.022 -10.244   0.005
  0.020   0.005 -10.273  -0.014   0.006   0.019   0.005 -10.250
  0.008  -0.010  -0.014 -10.284  -0.023   0.008  -0.009  -0.014
  0.001  -0.005   0.006  -0.023 -10.280   0.001  -0.005   0.006
-10.264  -0.022   0.019   0.008   0.001 -10.216  -0.021   0.019
 -0.022 -10.244   0.005  -0.009  -0.005  -0.021 -10.196   0.005
  0.019   0.005 -10.250  -0.014   0.006   0.019   0.005 -10.202
  0.008  -0.009  -0.014 -10.260  -0.022   0.008  -0.009  -0.013
  0.001  -0.005   0.006  -0.022 -10.256   0.001  -0.005   0.005
  0.007  -0.003  -0.002   0.011   0.004   0.007  -0.003  -0.002
  0.011  -0.004  -0.004   0.018   0.006   0.011  -0.004  -0.004
  0.030   0.016  -0.006   0.000  -0.012   0.029   0.015  -0.005
  0.000   0.012   0.018   0.030  -0.001   0.000   0.012   0.018
  0.011   0.000  -0.018   0.014   0.031   0.010   0.000  -0.017
  0.036   0.019  -0.007   0.000  -0.014   0.035   0.018  -0.007
  0.000   0.015   0.022   0.036  -0.001   0.000   0.014   0.021
  0.013   0.000  -0.022   0.017   0.037   0.012   0.000  -0.021
 pseudopotential strength for first ion, spin component:           2
-10.288  -0.023   0.020   0.008   0.001 -10.264  -0.022   0.019
 -0.023 -10.267   0.005  -0.010  -0.005  -0.022 -10.244   0.005
  0.020   0.005 -10.273  -0.014   0.006   0.019   0.005 -10.250
  0.008  -0.010  -0.014 -10.284  -0.023   0.008  -0.009  -0.014
  0.001  -0.005   0.006  -0.023 -10.280   0.001  -0.005   0.006
-10.264  -0.022   0.019   0.008   0.001 -10.216  -0.021   0.019
 -0.022 -10.244   0.005  -0.009  -0.005  -0.021 -10.196   0.005
  0.019   0.005 -10.250  -0.014   0.006   0.019   0.005 -10.202
  0.008  -0.009  -0.014 -10.260  -0.022   0.008  -0.009  -0.013
  0.001  -0.005   0.006  -0.022 -10.256   0.001  -0.005   0.005
  0.007  -0.003  -0.002   0.011   0.004   0.007  -0.003  -0.002
  0.011  -0.004  -0.004   0.018   0.006   0.011  -0.004  -0.004
  0.030   0.016  -0.006   0.000  -0.012   0.029   0.015  -0.005
  0.000   0.012   0.018   0.030  -0.001   0.000   0.012   0.018
  0.011   0.000  -0.018   0.014   0.031   0.010   0.000  -0.017
  0.036   0.019  -0.007   0.000  -0.014   0.035   0.018  -0.007
  0.000   0.015   0.022   0.036  -0.001   0.000   0.014   0.021
  0.013   0.000  -0.022   0.017   0.037   0.012   0.000  -0.021
 total augmentation occupancy for first ion, spin component:           1
  2.485   0.111  -0.084   0.114   0.072  -0.606  -0.186   0.184  -0.071  -0.058  -0.511   0.081   0.083   0.011   0.064   0.012
  0.111   2.371  -0.032   0.006   0.006  -0.186  -0.366   0.061   0.001  -0.000   0.107  -0.021   0.045  -0.016  -0.004   0.007
 -0.084  -0.032   2.393   0.012  -0.069   0.183   0.061  -0.430  -0.069   0.075   0.177  -0.022  -0.034   0.032  -0.034  -0.000
  0.114   0.006   0.012   2.639   0.172  -0.072   0.001  -0.069  -0.722  -0.241  -0.837   0.158   0.015   0.107   0.125  -0.001
  0.072   0.006  -0.069   0.172   2.429  -0.058  -0.000   0.075  -0.241  -0.447  -0.362   0.063   0.010   0.029   0.075  -0.008
 -0.606  -0.186   0.183  -0.072  -0.058   0.698   0.253  -0.271   0.036   0.047   0.424  -0.055  -0.131  -0.002  -0.083   0.010
 -0.186  -0.366   0.061   0.001  -0.000   0.253   0.348  -0.085  -0.007  -0.006  -0.089   0.011  -0.065   0.013   0.007   0.005
  0.184   0.061  -0.430  -0.069   0.075  -0.271  -0.085   0.449   0.119  -0.081  -0.143   0.012   0.054  -0.056   0.053  -0.004
 -0.071   0.001  -0.069  -0.722  -0.241   0.036  -0.007   0.119   0.784   0.301   0.707  -0.116  -0.006  -0.148  -0.149   0.001
 -0.058  -0.000   0.075  -0.241  -0.447   0.047  -0.006  -0.081   0.301   0.448   0.305  -0.049   0.004  -0.034  -0.104  -0.000
 -0.511   0.107   0.177  -0.837  -0.362   0.424  -0.089  -0.143   0.707   0.305   1.867  -0.169  -0.081  -0.149  -0.250   0.006
  0.081  -0.021  -0.022   0.158   0.063  -0.055   0.011   0.012  -0.116  -0.049  -0.169   0.029   0.008   0.023   0.034  -0.001
  0.083   0.045  -0.034   0.015   0.010  -0.131  -0.065   0.054  -0.006   0.004  -0.081   0.008   0.030  -0.002   0.014  -0.003
  0.011  -0.016   0.032   0.107   0.029  -0.002   0.013  -0.056  -0.148  -0.034  -0.149   0.023  -0.002   0.036   0.026   0.000
  0.064  -0.004  -0.034   0.125   0.075  -0.083   0.007   0.053  -0.149  -0.104  -0.250   0.034   0.014   0.026   0.054  -0.001
  0.012   0.007  -0.000  -0.001  -0.008   0.010   0.005  -0.004   0.001  -0.000   0.006  -0.001  -0.003   0.000  -0.001   0.000
 -0.001   0.009   0.009   0.010  -0.004   0.000  -0.001   0.004   0.012   0.003   0.011  -0.001   0.000  -0.003  -0.002   0.000
  0.001   0.000  -0.008  -0.002   0.013   0.007  -0.000  -0.004   0.012   0.008   0.019  -0.002  -0.001  -0.002  -0.005   0.000
 total augmentation occupancy for first ion, spin component:           2
 -0.000  -0.000   0.000  -0.000   0.000   0.000   0.000   0.000  -0.000  -0.000   0.000  -0.000   0.000  -0.000  -0.000  -0.000
 -0.000  -0.000  -0.000   0.000   0.000   0.000   0.000   0.000  -0.000  -0.000  -0.000   0.000   0.000   0.000   0.000   0.000
  0.000  -0.000  -0.000  -0.000   0.000   0.000   0.000   0.000   0.000  -0.000  -0.000   0.000   0.000   0.000  -0.000  -0.000
 -0.000   0.000  -0.000  -0.000   0.000  -0.000  -0.000   0.000   0.000  -0.000   0.000  -0.000  -0.000  -0.000  -0.000  -0.000
  0.000   0.000   0.000   0.000  -0.000  -0.000  -0.000  -0.000  -0.000   0.000   0.000  -0.000  -0.000  -0.000   0.000  -0.000
  0.000   0.000   0.000  -0.000  -0.000   0.000  -0.000  -0.000   0.000   0.000  -0.000   0.000   0.000   0.000   0.000   0.000
  0.000   0.000   0.000  -0.000  -0.000  -0.000  -0.000  -0.000   0.000   0.000   0.000  -0.000   0.000  -0.000  -0.000   0.000
  0.000   0.000   0.000   0.000  -0.000  -0.000  -0.000  -0.000  -0.000   0.000   0.000  -0.000  -0.000  -0.000  -0.000  -0.000
 -0.000  -0.000   0.000   0.000  -0.000   0.000   0.000  -0.000  -0.000   0.000  -0.000   0.000   0.000   0.000   0.000   0.000
 -0.000  -0.000  -0.000  -0.000   0.000   0.000   0.000   0.000   0.000  -0.000   0.000  -0.000   0.000  -0.000  -0.000   0.000
  0.000  -0.000  -0.000   0.000   0.000  -0.000   0.000   0.000  -0.000   0.000  -0.000   0.000   0.000   0.000   0.000  -0.000
 -0.000   0.000   0.000  -0.000  -0.000   0.000  -0.000  -0.000   0.000  -0.000   0.000  -0.000  -0.000  -0.000  -0.000   0.000
  0.000   0.000   0.000  -0.000  -0.000   0.000   0.000  -0.000   0.000   0.000   0.000  -0.000  -0.000  -0.000  -0.000   0.000
 -0.000   0.000   0.000  -0.000  -0.000   0.000  -0.000  -0.000   0.000  -0.000   0.000  -0.000  -0.000  -0.000  -0.000   0.000
 -0.000   0.000  -0.000  -0.000   0.000   0.000  -0.000  -0.000   0.000  -0.000   0.000  -0.000  -0.000  -0.000  -0.000  -0.000
 -0.000   0.000  -0.000  -0.000  -0.000   0.000   0.000  -0.000   0.000   0.000  -0.000   0.000   0.000   0.000  -0.000   0.000
 -0.000  -0.000  -0.000  -0.000  -0.000   0.000   0.000   0.000   0.000   0.000  -0.000   0.000   0.000   0.000   0.000  -0.000
 -0.000  -0.000   0.000   0.000  -0.000   0.000   0.000  -0.000   0.000   0.000  -0.000   0.000   0.000  -0.000  -0.000  -0.000


------------------------ aborting loop because EDIFF is reached ----------------------------------------


    CHARGE:  cpu time    0.04: real time    0.04
    FORLOC:  cpu time    0.00: real time    0.01
    FORNL :  cpu time    0.14: real time    0.14
    STRESS:  cpu time    0.18: real time    0.18
    FORCOR:  cpu time    0.22: real time    0.22
    FORHAR:  cpu time    0.03: real time    0.03
    MIXING:  cpu time    0.01: real time    0.01
    OFIELD:  cpu time    0.00: real time    0.00

  FORCE on cell =-STRESS in cart. coord.  units (eV):
  Direction    XX          YY          ZZ          XY          YZ          ZX
  --------------------------------------------------------------------------------------
  Alpha Z     8.19675     8.19675     8.19675
  Ewald    2472.95625  2640.79146   522.36737  1551.10020 -2084.17597  2290.27072
  Hartree  4997.09157  5152.19328  3422.72290  1227.13717 -1696.80938  1852.30191
  E(xc)    -464.09791  -464.12113  -465.34338     1.07903    -1.12730     1.32716
  Local   -8759.43203 -9082.37723 -5247.65394 -2766.90431  3768.63684 -4128.28005
  n-local   -79.55387   -79.12548   -79.16728    -0.35026    -0.62850     0.37102
  augment   731.58052   731.45914   735.32946    -3.25876     3.84240    -4.34561
  Kinetic  1096.40751  1096.36985  1104.30032    -6.91657     7.71155    -8.86385
  Fock        0.00000     0.00000     0.00000     0.00000     0.00000     0.00000
  -------------------------------------------------------------------------------------
  Total       3.14880     3.38664     0.75220     1.88649    -2.55036     2.78129
  in kB       0.75963     0.81701     0.18147     0.45511    -0.61526     0.67097
  external pressure =        0.59 kB  Pullay stress =        0.00 kB


 VOLUME and BASIS-vectors are now :
 -----------------------------------------------------------------------------
  energy-cutoff  :      249.84
  volume of cell :     6641.29
      direct lattice vectors                 reciprocal lattice vectors
    18.796813019  0.000000000  0.000000000     0.053200508  0.000000000  0.000000000
     0.000000000 18.796813019  0.000000000     0.000000000  0.053200508  0.000000000
     0.000000000  0.000000000 18.796813019     0.000000000  0.000000000  0.053200508

  length of vectors
    18.796813019 18.796813019 18.796813019     0.053200508  0.053200508  0.053200508


 FORCES acting on ions
    electron-ion (+dipol)            ewald-force                    non-local-force                 convergence-correction
 -----------------------------------------------------------------------------------------------
   -.563E+03 -.109E+03 -.407E+03   0.557E+03 0.106E+03 0.404E+03   0.714E+01 0.254E+01 0.394E+01   0.199E-02 0.383E-03 0.126E-02
   -.184E+03 0.344E+03 -.444E+03   0.183E+03 -.342E+03 0.441E+03   0.108E+01 -.246E+01 0.346E+01   0.562E-03 -.838E-03 0.106E-02
   -.273E+03 -.227E+03 -.573E+02   0.274E+03 0.227E+03 0.573E+02   -.542E+00 -.283E+00 -.446E-01   0.122E-02 0.103E-02 0.296E-03
   -.319E+03 -.570E+03 0.265E+03   0.314E+03 0.564E+03 -.263E+03   0.501E+01 0.663E+01 -.211E+01   0.993E-03 0.198E-02 -.430E-03
   0.201E+03 0.665E+03 -.111E+03   -.198E+03 -.658E+03 0.111E+03   -.322E+01 -.792E+01 0.336E-01   -.116E-02 -.202E-02 0.670E-03
   0.286E+03 0.224E+03 0.483E+02   -.287E+03 -.224E+03 -.484E+02   0.362E+00 0.328E+00 0.127E+00   -.125E-02 -.101E-02 -.218E-03
   0.208E+03 -.351E+03 0.425E+03   -.206E+03 0.348E+03 -.423E+03   -.153E+01 0.240E+01 -.326E+01   -.486E-03 0.869E-03 -.889E-03
   0.645E+03 0.225E+02 0.282E+03   -.637E+03 -.211E+02 -.280E+03   -.806E+01 -.142E+01 -.244E+01   -.202E-02 -.587E-03 -.123E-02
 -----------------------------------------------------------------------------------------------
   -.238E+00 0.193E+00 0.297E+00   -.114E-12 -.171E-12 0.171E-12   0.243E+00 -.182E+00 -.288E+00   -.143E-03 -.199E-03 0.518E-03
 
 
 POSITION                                       TOTAL-FORCE (eV/Angst)
 -----------------------------------------------------------------------------------
     12.49798     10.01678     11.84768         0.763571      0.147904      0.614568
     10.56759      8.36503     11.40264         0.112168     -0.265271      0.292929
     10.84504     10.63393      9.98124        -0.002250      0.034328     -0.011042
     11.02823     12.63045      8.37731         0.486173      0.829424     -0.411338
      8.87534      6.57342     10.63495        -0.239023     -0.997290      0.198211
      8.64307      8.88606      9.56747         0.016826      0.018577      0.018110
      8.91810     11.18077      8.16330        -0.209802      0.189267     -0.272566
      6.72975      9.80636      8.13890        -0.927664      0.043060     -0.428871
 -----------------------------------------------------------------------------------
    total drift:                                0.004440      0.010324      0.008862


--------------------------------------------------------------------------------------------------------



  FREE ENERGIE OF THE ION-ELECTRON SYSTEM (eV)
  ---------------------------------------------------
  free  energy   TOTEN  =       -13.00809299 eV

  energy  without entropy=      -13.00809299  energy(sigma->0) =      -13.00809299
 


--------------------------------------------------------------------------------------------------------


    POTLOK:  cpu time    0.24: real time    0.24


--------------------------------------------------------------------------------------------------------




--------------------------------------------------------------------------------------------------------


    WAVPRE:  cpu time    0.02: real time    0.02
 FEWALD executed in parallel
    FEWALD:  cpu time    0.00: real time    0.00
    ORTHCH:  cpu time    0.02: real time    0.02
     LOOP+:  cpu time   17.21: real time   20.76


----------------------------------------- Iteration    2(   1)  ---------------------------------------


    POTLOK:  cpu time    0.22: real time    0.23
    SETDIJ:  cpu time    0.00: real time    0.01
     EDDAV:  cpu time    0.46: real time    0.46
       DOS:  cpu time    0.00: real time    0.00
    CHARGE:  cpu time    0.04: real time    0.04
    MIXING:  cpu time    0.01: real time    0.01
    --------------------------------------------
      LOOP:  cpu time    0.75: real time    0.77

 eigenvalue-minimisations  :   224
 total energy-change (2. order) :-0.4062994E-01  (-0.2936395E+00)
 number of electron      88.0000081 magnetization       0.0001447
 augmentation part       42.2307094 magnetization       0.0001447

 Broyden mixing:
  rms(total) = 0.18060E-01    rms(broyden)= 0.18015E-01
  rms(prec ) = 0.18279E-01
  weight for this iteration     100.00

 Free energy of the ion-electron system (eV)
  ---------------------------------------------------
  alpha Z        PSCENC =         8.19674625
  Ewald energy   TEWEN  =      5604.21756163
  -Hartree energ DENC   =    -13540.43787043
  -exchange      EXHF   =         0.00000000
  -V(xc)+E(xc)   XCENC  =       -92.06802651
  PAW double counting   =      8694.49774522    -8339.90974102
  entropy T*S    EENTRO =         0.00000000
  eigenvalues    EBANDS =      -645.13414430
  atomic energy  EATOM  =      8297.58904069
  ---------------------------------------------------
  free energy    TOTEN  =       -13.04868846 eV

  energy without entropy =      -13.04868846  energy(sigma->0) =      -13.04868846


--------------------------------------------------------------------------------------------------------




----------------------------------------- Iteration    2(   2)  ---------------------------------------


    POTLOK:  cpu time    0.23: real time    0.23
    SETDIJ:  cpu time    0.00: real time    0.01
     EDDAV:  cpu time    0.50: real time    0.50
       DOS:  cpu time    0.00: real time    0.00
    CHARGE:  cpu time    0.04: real time    0.04
    MIXING:  cpu time    0.01: real time    0.01
    --------------------------------------------
      LOOP:  cpu time    0.78: real time    0.79

 eigenvalue-minimisations  :   248
 total energy-change (2. order) :-0.1318471E-02  (-0.1427171E-02)
 number of electron      88.0000081 magnetization       0.0001167
 augmentation part       42.2269713 magnetization       0.0001198

 Broyden mixing:
[...]
 number of electron      87.9999872 magnetization       0.0000000
 augmentation part       42.3399041 magnetization      -0.0000001

 Free energy of the ion-electron system (eV)
  ---------------------------------------------------
  alpha Z        PSCENC =         8.19674625
  Ewald energy   TEWEN  =      5024.31588126
  -Hartree energ DENC   =    -12974.58865490
  -exchange      EXHF   =         0.00000000
  -V(xc)+E(xc)   XCENC  =       -92.99135263
  PAW double counting   =      8511.52617721    -8153.73228942
  entropy T*S    EENTRO =         0.00000000
  eigenvalues    EBANDS =      -633.67553287
  atomic energy  EATOM  =      8297.58904069
  ---------------------------------------------------
  free energy    TOTEN  =       -13.35998441 eV

  energy without entropy =      -13.35998441  energy(sigma->0) =      -13.35998441


--------------------------------------------------------------------------------------------------------




 average (electrostatic) potential at core
  the test charge radii are     1.1249
  (the norm of the test charge is              1.0000)
       1 -82.0676       2 -82.2931       3 -82.2307       4 -82.0691       5 -82.0676
       6 -82.2278       7 -82.2921       8 -82.0666
 
 
 
 E-fermi :  -4.4232     XC(G=0):  -0.6358     alpha+bet : -0.2765


 spin component 1

 k-point     1 :       0.0000    0.0000    0.0000
  band No.  band energies     occupation 
      1      -9.0307      1.00000
      2      -8.8900      1.00000
      3      -8.6613      1.00000
      4      -8.3777      1.00000
      5      -8.3242      1.00000
      6      -8.3216      1.00000
      7      -8.1609      1.00000
      8      -7.9803      1.00000
      9      -7.9351      1.00000
     10      -7.9101      1.00000
     11      -7.8896      1.00000
     12      -7.7769      1.00000
     13      -7.5487      1.00000
     14      -7.4655      1.00000
     15      -7.4409      1.00000
     16      -7.4293      1.00000
     17      -7.3711      1.00000
     18      -7.3618      1.00000
     19      -7.3381      1.00000
     20      -7.3292      1.00000
     21      -7.3167      1.00000
     22      -7.2488      1.00000
     23      -7.1959      1.00000
     24      -7.1517      1.00000
     25      -7.0466      1.00000
     26      -7.0276      1.00000
     27      -7.0005      1.00000
     28      -6.9698      1.00000
     29      -6.8416      1.00000
     30      -6.7985      1.00000
     31      -6.7981      1.00000
     32      -6.7845      1.00000
     33      -6.7389      1.00000
     34      -6.6892      1.00000
     35      -6.6752      1.00000
     36      -6.6726      1.00000
     37      -6.6122      1.00000
     38      -6.5119      1.00000
     39      -6.4778      1.00000
     40      -6.3203      1.00000
     41      -6.2640      1.00000
     42      -5.4580      1.00000
     43      -5.2594      1.00000
     44      -4.4352      1.00000
     45      -3.2045      0.00000
     46      -2.6436      0.00000
     47      -2.1034      0.00000
     48      -1.9196      0.00000
     49      -1.9044      0.00000
     50      -0.9680      0.00000
     51      -0.8420      0.00000
     52      -0.7274      0.00000
     53      -0.6660      0.00000
     54      -0.6523      0.00000
     55      -0.2415      0.00000
     56       0.0840      0.00000

 spin component 2

 k-point     1 :       0.0000    0.0000    0.0000
  band No.  band energies     occupation 
      1      -9.0307      1.00000
      2      -8.8900      1.00000
      3      -8.6613      1.00000
      4      -8.3777      1.00000
      5      -8.3242      1.00000
      6      -8.3216      1.00000
      7      -8.1609      1.00000
      8      -7.9803      1.00000
      9      -7.9351      1.00000
     10      -7.9101      1.00000
     11      -7.8896      1.00000
     12      -7.7769      1.00000
     13      -7.5487      1.00000
     14      -7.4655      1.00000
     15      -7.4409      1.00000
     16      -7.4293      1.00000
     17      -7.3711      1.00000
     18      -7.3618      1.00000
     19      -7.3381      1.00000
     20      -7.3292      1.00000
     21      -7.3167      1.00000
     22      -7.2488      1.00000
     23      -7.1959      1.00000
     24      -7.1517      1.00000
     25      -7.0466      1.00000
     26      -7.0276      1.00000
     27      -7.0005      1.00000
     28      -6.9698      1.00000
     29      -6.8416      1.00000
     30      -6.7985      1.00000
     31      -6.7981      1.00000
     32      -6.7845      1.00000
     33      -6.7389      1.00000
     34      -6.6892      1.00000
     35      -6.6752      1.00000
     36      -6.6726      1.00000
     37      -6.6122      1.00000
     38      -6.5119      1.00000
     39      -6.4778      1.00000
     40      -6.3203      1.00000
     41      -6.2640      1.00000
     42      -5.4580      1.00000
     43      -5.2594      1.00000
     44      -4.4352      1.00000
     45      -3.2045      0.00000
     46      -2.6436      0.00000
     47      -2.1034      0.00000
     48      -1.9196      0.00000
     49      -1.9044      0.00000
     50      -0.9680      0.00000
     51      -0.8420      0.00000
     52      -0.7274      0.00000
     53      -0.6660      0.00000
     54      -0.6523      0.00000
     55      -0.2415      0.00000
     56       0.0840      0.00000


--------------------------------------------------------------------------------------------------------


 soft charge-density along one line, spin component           1
         0         1         2         3         4         5         6         7         8         9
 total charge-density along one line
 
 soft charge-density along one line, spin component           2
         0         1         2         3         4         5         6         7         8         9
 total charge-density along one line
 
 pseudopotential strength for first ion, spin component:           1
-10.254  -0.021   0.016   0.005   0.000 -10.232  -0.020   0.015
 -0.021 -10.246   0.005  -0.008  -0.003  -0.020 -10.224   0.005
  0.016   0.005 -10.248  -0.012   0.002   0.015   0.005 -10.225
  0.005  -0.008  -0.012 -10.252  -0.018   0.004  -0.007  -0.011
  0.000  -0.003   0.002  -0.018 -10.247   0.000  -0.003   0.002
-10.232  -0.020   0.015   0.004   0.000 -10.185  -0.020   0.015
 -0.020 -10.224   0.005  -0.007  -0.003  -0.020 -10.177   0.005
  0.015   0.005 -10.225  -0.011   0.002   0.015   0.005 -10.179
  0.004  -0.007  -0.011 -10.229  -0.018   0.004  -0.007  -0.011
  0.000  -0.003   0.002  -0.018 -10.225   0.000  -0.003   0.002
  0.006  -0.002  -0.000   0.010   0.002   0.005  -0.002  -0.000
  0.009  -0.003  -0.001   0.017   0.003   0.009  -0.003  -0.001
  0.031   0.025  -0.005   0.000  -0.010   0.030   0.024  -0.005
  0.000   0.010   0.029   0.031  -0.000   0.000   0.010   0.028
  0.009   0.000  -0.018   0.024   0.032   0.009   0.000  -0.018
  0.038   0.030  -0.006   0.000  -0.012   0.036   0.029  -0.006
  0.000   0.012   0.035   0.038  -0.000   0.000   0.012   0.034
  0.011   0.000  -0.022   0.030   0.039   0.010   0.000  -0.022
 pseudopotential strength for first ion, spin component:           2
-10.254  -0.021   0.016   0.005   0.000 -10.232  -0.020   0.015
 -0.021 -10.246   0.005  -0.008  -0.003  -0.020 -10.224   0.005
  0.016   0.005 -10.248  -0.012   0.002   0.015   0.005 -10.225
  0.005  -0.008  -0.012 -10.252  -0.018   0.004  -0.007  -0.011
  0.000  -0.003   0.002  -0.018 -10.247   0.000  -0.003   0.002
-10.232  -0.020   0.015   0.004   0.000 -10.185  -0.020   0.015
 -0.020 -10.224   0.005  -0.007  -0.003  -0.020 -10.177   0.005
  0.015   0.005 -10.225  -0.011   0.002   0.015   0.005 -10.179
  0.004  -0.007  -0.011 -10.229  -0.018   0.004  -0.007  -0.011
  0.000  -0.003   0.002  -0.018 -10.225   0.000  -0.003   0.002
  0.006  -0.002  -0.000   0.010   0.002   0.005  -0.002  -0.000
  0.009  -0.003  -0.001   0.017   0.003   0.009  -0.003  -0.001
  0.031   0.025  -0.005   0.000  -0.010   0.030   0.024  -0.005
  0.000   0.010   0.029   0.031  -0.000   0.000   0.010   0.028
  0.009   0.000  -0.018   0.024   0.032   0.009   0.000  -0.018
  0.038   0.030  -0.006   0.000  -0.012   0.036   0.029  -0.006
  0.000   0.012   0.035   0.038  -0.000   0.000   0.012   0.034
  0.011   0.000  -0.022   0.030   0.039   0.010   0.000  -0.022
 total augmentation occupancy for first ion, spin component:           1
  2.300   0.039  -0.008   0.100   0.042  -0.380  -0.126   0.089  -0.085  -0.037  -0.389   0.061   0.042   0.017   0.042   0.015
  0.039   2.263   0.001   0.017   0.007  -0.126  -0.275   0.039  -0.011  -0.003   0.041  -0.012   0.027  -0.010   0.002   0.012
 -0.008   0.001   2.265   0.016  -0.025   0.089   0.039  -0.293  -0.059   0.030   0.015   0.000  -0.016   0.020  -0.007  -0.001
  0.100   0.017   0.016   2.483   0.099  -0.085  -0.011  -0.059  -0.528  -0.148  -0.803   0.132   0.016   0.078   0.090  -0.001
  0.042   0.007  -0.025   0.099   2.289  -0.037  -0.003   0.029  -0.148  -0.280  -0.226   0.035   0.008   0.020   0.036  -0.007
 -0.380  -0.126   0.089  -0.085  -0.037   0.435   0.201  -0.158   0.073   0.033   0.320  -0.040  -0.086  -0.012  -0.058   0.007
 -0.126  -0.275   0.039  -0.011  -0.003   0.201   0.271  -0.072   0.006  -0.001  -0.032   0.005  -0.056   0.009  -0.001   0.004
  0.089   0.039  -0.293  -0.059   0.029  -0.158  -0.072   0.303   0.096  -0.034  -0.010  -0.002   0.034  -0.047   0.024  -0.003
 -0.085  -0.011  -0.059  -0.528  -0.148   0.073   0.006   0.096   0.555   0.190   0.663  -0.093  -0.012  -0.115  -0.117   0.001
 -0.037  -0.003   0.030  -0.148  -0.280   0.033  -0.001  -0.034   0.190   0.258   0.188  -0.028   0.002  -0.022  -0.061   0.000
 -0.389   0.041   0.015  -0.803  -0.226   0.320  -0.032  -0.010   0.663   0.188   1.744  -0.149  -0.059  -0.161  -0.203   0.004
  0.061  -0.012   0.000   0.132   0.035  -0.040   0.005  -0.002  -0.093  -0.028  -0.149   0.023   0.006   0.021   0.025  -0.000
  0.042   0.027  -0.016   0.016   0.008  -0.086  -0.056   0.034  -0.012   0.002  -0.059   0.006   0.022   0.001   0.010  -0.002
  0.017  -0.010   0.020   0.078   0.020  -0.012   0.009  -0.047  -0.115  -0.022  -0.161   0.021   0.001   0.031   0.023  -0.000
  0.042   0.002  -0.007   0.090   0.036  -0.058  -0.001   0.024  -0.117  -0.061  -0.203   0.025   0.010   0.023   0.038  -0.001
  0.015   0.012  -0.001  -0.001  -0.007   0.007   0.004  -0.003   0.001   0.000   0.004  -0.000  -0.002  -0.000  -0.001   0.001
 -0.001   0.007   0.016   0.012  -0.002   0.001  -0.001   0.003   0.009   0.002   0.013  -0.001  -0.000  -0.003  -0.002   0.000
  0.002  -0.001  -0.011   0.007   0.017   0.005   0.000  -0.002   0.010   0.005   0.016  -0.002  -0.001  -0.002  -0.004   0.000
 total augmentation occupancy for first ion, spin component:           2
 -0.000  -0.000  -0.000  -0.000  -0.000   0.000   0.000   0.000   0.000   0.000   0.000  -0.000   0.000   0.000  -0.000  -0.000
 -0.000   0.000  -0.000  -0.000  -0.000   0.000  -0.000   0.000   0.000   0.000   0.000   0.000   0.000   0.000   0.000  -0.000
 -0.000  -0.000  -0.000   0.000   0.000   0.000   0.000   0.000  -0.000  -0.000  -0.000   0.000   0.000   0.000   0.000  -0.000
 -0.000  -0.000   0.000   0.000  -0.000   0.000   0.000  -0.000  -0.000   0.000   0.000  -0.000  -0.000  -0.000  -0.000   0.000
 -0.000  -0.000   0.000  -0.000  -0.000   0.000   0.000  -0.000   0.000   0.000   0.000   0.000   0.000  -0.000  -0.000  -0.000
  0.000   0.000   0.000   0.000   0.000  -0.000  -0.000  -0.000  -0.000  -0.000  -0.000   0.000  -0.000  -0.000   0.000   0.000
  0.000  -0.000   0.000   0.000   0.000  -0.000   0.000  -0.000  -0.000  -0.000   0.000  -0.000  -0.000  -0.000  -0.000   0.000
  0.000   0.000   0.000  -0.000  -0.000  -0.000  -0.000   0.000   0.000  -0.000   0.000   0.000   0.000  -0.000   0.000  -0.000
  0.000   0.000  -0.000  -0.000   0.000  -0.000  -0.000   0.000  -0.000  -0.000  -0.000   0.000   0.000   0.000   0.000  -0.000
  0.000   0.000  -0.000   0.000   0.000  -0.000  -0.000  -0.000  -0.000  -0.000  -0.000   0.000  -0.000   0.000  -0.000   0.000
  0.000   0.000  -0.000   0.000   0.000  -0.000   0.000   0.000  -0.000  -0.000  -0.000   0.000   0.000   0.000   0.000  -0.000
 -0.000   0.000   0.000  -0.000   0.000   0.000  -0.000   0.000   0.000   0.000   0.000  -0.000  -0.000  -0.000  -0.000   0.000
  0.000   0.000   0.000  -0.000   0.000  -0.000  -0.000   0.000   0.000  -0.000   0.000  -0.000   0.000  -0.000  -0.000  -0.000
  0.000   0.000   0.000  -0.000  -0.000  -0.000  -0.000  -0.000   0.000   0.000   0.000  -0.000  -0.000  -0.000  -0.000   0.000
 -0.000   0.000   0.000  -0.000  -0.000   0.000  -0.000   0.000   0.000  -0.000   0.000  -0.000  -0.000  -0.000  -0.000   0.000
 -0.000  -0.000  -0.000   0.000  -0.000   0.000   0.000  -0.000  -0.000   0.000  -0.000   0.000  -0.000   0.000   0.000   0.000
 -0.000  -0.000  -0.000   0.000   0.000   0.000   0.000   0.000  -0.000  -0.000  -0.000   0.000  -0.000   0.000   0.000  -0.000
 -0.000  -0.000  -0.000   0.000   0.000  -0.000   0.000  -0.000  -0.000   0.000  -0.000   0.000   0.000   0.000   0.000  -0.000


------------------------ aborting loop because EDIFF is reached ----------------------------------------


    CHARGE:  cpu time    0.04: real time    0.04
    FORLOC:  cpu time    0.00: real time    0.01
    FORNL :  cpu time    0.14: real time    0.14
    STRESS:  cpu time    0.18: real time    0.19
    FORCOR:  cpu time    0.22: real time    0.22
    FORHAR:  cpu time    0.03: real time    0.03
    MIXING:  cpu time    0.01: real time    0.01
    OFIELD:  cpu time    0.00: real time    0.00

  FORCE on cell =-STRESS in cart. coord.  units (eV):
  Direction    XX          YY          ZZ          XY          YZ          ZX
  --------------------------------------------------------------------------------------
  Alpha Z     8.19675     8.19675     8.19675
  Ewald    2231.31475  2442.58770   350.40976  1416.09836 -1982.90332  2159.83053
  Hartree  4780.27643  4968.68630  3225.72481  1146.31667 -1636.74750  1774.11041
  E(xc)    -463.18599  -463.13843  -464.30635     0.93741    -1.12203     1.27501
  Local   -8296.56322 -8695.78252 -4871.23318 -2553.92730  3609.39438 -3922.31327
  n-local   -91.61438   -91.53154   -90.27786    -1.10121     0.92636    -1.18638
  augment   732.63005   732.42105   735.52099    -2.43373     3.11489    -3.47590
  Kinetic  1096.03041  1095.60218  1103.04627    -5.87120     7.37167    -8.27366
  Fock        0.00000     0.00000     0.00000     0.00000     0.00000     0.00000
  -------------------------------------------------------------------------------------
  Total      -2.91521    -2.95852    -2.91881     0.01899     0.03445    -0.03325
  in kB      -0.70328    -0.71373    -0.70415     0.00458     0.00831    -0.00802
  external pressure =       -0.71 kB  Pullay stress =        0.00 kB


 VOLUME and BASIS-vectors are now :
 -----------------------------------------------------------------------------
  energy-cutoff  :      249.84
  volume of cell :     6641.29
      direct lattice vectors                 reciprocal lattice vectors
    18.796813019  0.000000000  0.000000000     0.053200508  0.000000000  0.000000000
     0.000000000 18.796813019  0.000000000     0.000000000  0.053200508  0.000000000
     0.000000000  0.000000000 18.796813019     0.000000000  0.000000000  0.053200508

  length of vectors
    18.796813019 18.796813019 18.796813019     0.053200508  0.053200508  0.053200508


 FORCES acting on ions
    electron-ion (+dipol)            ewald-force                    non-local-force                 convergence-correction
 -----------------------------------------------------------------------------------------------
   -.486E+03 -.878E+02 -.411E+03   0.480E+03 0.858E+02 0.406E+03   0.616E+01 0.190E+01 0.484E+01   0.338E-01 0.530E-02 -.125E-01
   -.188E+03 0.312E+03 -.334E+03   0.187E+03 -.310E+03 0.332E+03   0.120E+01 -.195E+01 0.209E+01   -.320E-01 -.378E-01 0.448E-01
   -.277E+03 -.222E+03 -.523E+02   0.277E+03 0.222E+03 0.523E+02   -.181E-01 0.113E-01 0.194E-01   -.359E-01 -.754E-02 -.148E-01
   -.274E+03 -.510E+03 0.278E+03   0.270E+03 0.504E+03 -.275E+03   0.417E+01 0.622E+01 -.305E+01   0.132E-02 -.655E-03 0.264E-01
   0.173E+03 0.601E+03 -.132E+03   -.170E+03 -.593E+03 0.131E+03   -.272E+01 -.754E+01 0.988E+00   0.141E-01 0.819E-02 -.751E-02
   0.283E+03 0.221E+03 0.470E+02   -.283E+03 -.221E+03 -.470E+02   -.521E-01 0.682E-02 0.351E-01   0.254E-01 0.154E-01 0.134E-01
   0.191E+03 -.313E+03 0.331E+03   -.189E+03 0.311E+03 -.329E+03   -.122E+01 0.196E+01 -.206E+01   -.513E-02 0.184E-01 -.430E-01
   0.579E+03 -.553E+00 0.274E+03   -.571E+03 0.123E+01 -.271E+03   -.747E+01 -.679E+00 -.294E+01   0.517E-04 0.451E-03 -.424E-02
 -----------------------------------------------------------------------------------------------
   -.532E-01 0.572E-01 0.796E-01   0.000E+00 -.995E-13 0.114E-12   0.520E-01 -.612E-01 -.809E-01   0.161E-02 0.186E-02 0.246E-02
 
 
 POSITION                                       TOTAL-FORCE (eV/Angst)
 -----------------------------------------------------------------------------------
     12.56431      9.99186     12.07027        -0.014988     -0.004232      0.007035
     10.61810      8.34559     11.26839        -0.001050      0.027968     -0.025214
     11.03819     10.78098     10.00003        -0.004361     -0.009013      0.000396
     11.04878     12.77024      8.18945         0.003919      0.005838     -0.014562
      8.87651      6.38322     10.77242        -0.001465      0.004302     -0.002540
      8.47566      8.74624      9.54088         0.007470      0.007355     -0.005607
      8.90385     11.18378      8.26566         0.000236     -0.034992      0.029179
      6.57970      9.89088      8.00642         0.010241      0.002774      0.011313
 -----------------------------------------------------------------------------------
    total drift:                                0.000444     -0.002133      0.001104


--------------------------------------------------------------------------------------------------------



  FREE ENERGIE OF THE ION-ELECTRON SYSTEM (eV)
  ---------------------------------------------------
  free  energy   TOTEN  =       -13.35998441 eV

  energy  without entropy=      -13.35998441  energy(sigma->0) =      -13.35998441
 
 d Force =-0.4132217E-04[-0.171E-03, 0.881E-04]  d Energy =-0.1566443E-04-0.257E-04
 d Force = 0.2775809E+00[ 0.278E+00, 0.277E+00]  d Ewald  = 0.2775811E+00-0.188E-06


--------------------------------------------------------------------------------------------------------


    POTLOK:  cpu time    0.24: real time    0.24


--------------------------------------------------------------------------------------------------------




--------------------------------------------------------------------------------------------------------


  
 reached required accuracy - stopping structural energy minimisation
     LOOP+:  cpu time    2.36: real time    2.41
    4ORBIT:  cpu time    0.00: real time    0.00

 total amount of memory used by VASP on root node    52913. kBytes
========================================================================

   base      :      30000. kBytes
   nonl-proj :       1012. kBytes
   fftplans  :       5763. kBytes
   grid      :      14451. kBytes
   one-center:         15. kBytes
   wavefun   :       1672. kBytes
 
  
  
 General timing and accounting informations for this job:
 ========================================================
  
                  Total CPU time used (sec):       98.430
                            User time (sec):       95.842
                          System time (sec):        2.588
                         Elapsed time (sec):      111.562
  
                   Maximum memory used (kb):       59276.
                   Average memory used (kb):           0.
  
                          Minor page faults:       428264
                          Major page faults:            0
                 Voluntary context switches:         4929
