<?xml version="1.0" encoding="ISO-8859-1"?>
<modeling>
 <generator>
  <i name="program" type="string">vasp </i>
  <i name="version" type="string">5.3.5  </i>
  <i name="subversion" type="string">31Mar14 (build Feb 01 2018 12:10:03) gamma-only                       parallel </i>
  <i name="platform" type="string">LinuxIFC </i>
  <i name="date" type="string">2019 03 23 </i>
  <i name="time" type="string">03:13:52 </i>
 </generator>
 <incar>
  <i type="string" name="PREC">normal</i>
  <i type="int" name="ISPIN">     2</i>
  <i type="int" name="IBRION">     2</i>
  <i type="int" name="NSW">  1000</i>
  <i type="int" name="ISIF">     2</i>
  <i name="POTIM">      0.10000000</i>
  <i type="logical" name="LPLANE"> T  </i>
  <i type="int" name="ISMEAR">     0</i>
  <i name="SIGMA">      0.00010000</i>
  <i type="logical" name="LWAVE"> F  </i>
  <i type="logical" name="LCHARG"> F  </i>
  <i type="logical" name="LVTOT"> F  </i>
  <i type="string" name="GGA"> PE</i>
 </incar>
 <kpoints>
  <varray name="kpointlist" >
   <v>       0.00000000       0.00000000       0.00000000 </v>
  </varray>
  <varray name="weights" >
   <v>       1.00000000 </v>
  </varray>
 </kpoints>
 <parameters>
  <separator name="general" >
   <i type="string" name="SYSTEM">unknown system</i>
   <i type="logical" name="LCOMPAT"> F  </i>
  </separator>
  <separator name="electronic" >
   <i type="string" name="PREC">normal</i>
   <i name="ENMAX">    249.84400000</i>
   <i name="ENAUG">    412.49600000</i>
   <i name="EDIFF">      0.00010000</i>
   <i type="int" name="IALGO">    38</i>
   <i type="int" name="IWAVPR">    11</i>
   <i type="int" name="NBANDS">   264</i>
   <i name="NELECT">    407.00000000</i>
   <i type="int" name="TURBO">     0</i>
   <i type="int" name="IRESTART">     0</i>
   <i type="int" name="NREBOOT">     0</i>
   <i type="int" name="NMIN">     0</i>
   <i name="EREF">      0.00000000</i>
   <separator name="electronic smearing" >
    <i type="int" name="ISMEAR">     0</i>
    <i name="SIGMA">      0.00010000</i>
    <i name="KSPACING">      0.50000000</i>
    <i type="logical" name="KGAMMA"> T  </i>
   </separator>
   <separator name="electronic projectors" >
    <i type="logical" name="LREAL"> F  </i>
    <v name="ROPT">      0.00000000</v>
    <i type="int" name="LMAXPAW">  -100</i>
    <i type="int" name="LMAXMIX">     2</i>
    <i type="logical" name="NLSPLINE"> F  </i>
   </separator>
   <separator name="electronic startup" >
    <i type="int" name="ISTART">     0</i>
    <i type="int" name="ICHARG">     2</i>
    <i type="int" name="INIWAV">     1</i>
   </separator>
   <separator name="electronic spin" >
    <i type="int" name="ISPIN">     2</i>
    <i type="logical" name="LNONCOLLINEAR"> F  </i>
    <v name="MAGMOM">      1.00000000      1.00000000      1.00000000      1.00000000      1.00000000      1.00000000      1.00000000      1.00000000      1.00000000      1.00000000      1.00000000      1.00000000      1.00000000      1.00000000      1.00000000      1.00000000      1.00000000      1.00000000      1.00000000      1.00000000
      1.00000000      1.00000000      1.00000000      1.00000000      1.00000000      1.00000000      1.00000000      1.00000000      1.00000000      1.00000000      1.00000000      1.00000000      1.00000000      1.00000000      1.00000000      1.00000000      1.00000000</v>
    <i name="NUPDOWN">     -1.00000000</i>
    <i type="logical" name="LSORBIT"> F  </i>
    <v name="SAXIS">      0.00000000      0.00000000      1.00000000</v>
    <i type="logical" name="LSPIRAL"> F  </i>
    <v name="QSPIRAL">      0.00000000      0.00000000      0.00000000</v>
    <i type="logical" name="LZEROZ"> F  </i>
   </separator>
   <separator name="electronic exchange-correlation" >
    <i type="logical" name="LASPH"> F  </i>
    <i type="logical" name="LMETAGGA"> F  </i>
   </separator>
   <separator name="electronic convergence" >
    <i type="int" name="NELM">    60</i>
    <i type="int" name="NELMDL">    -5</i>
    <i type="int" name="NELMIN">     2</i>
    <i name="ENINI">    249.84400000</i>
    <separator name="electronic convergence detail" >
     <i type="logical" name="LDIAG"> T  </i>
     <i type="logical" name="LSUBROT"> F  </i>
     <i name="WEIMIN">      0.00100000</i>
     <i name="EBREAK">      0.00000009</i>
     <i name="DEPER">      0.30000000</i>
     <i type="int" name="NRMM">     4</i>
     <i name="TIME">      0.40000000</i>
    </separator>
   </separator>
   <separator name="electronic mixer" >
    <i name="AMIX">      0.40000000</i>
    <i name="BMIX">      1.00000000</i>
    <i name="AMIN">      0.10000000</i>
    <i name="AMIX_MAG">      1.60000000</i>
    <i name="BMIX_MAG">      1.00000000</i>
    <separator name="electronic mixer details" >
     <i type="int" name="IMIX">     4</i>
     <i type="int" name="MAXMIX">   -45</i>
     <i name="WC">    100.00000000</i>
     <i type="int" name="INIMIX">     1</i>
     <i type="int" name="MIXPRE">     1</i>
     <i type="int" name="MREMOVE">     5</i>
    </separator>
   </separator>
   <separator name="electronic dipolcorrection" >
    <i type="logical" name="LDIPOL"> F  </i>
    <i type="logical" name="LMONO"> F  </i>
    <i type="int" name="IDIPOL">     0</i>
    <i name="EPSILON">      1.00000000</i>
    <v name="DIPOL">   -100.00000000   -100.00000000   -100.00000000</v>
    <i name="EFIELD">      0.00000000</i>
   </separator>
  </separator>
  <separator name="grids" >
   <i type="int" name="NGX">    90</i>
   <i type="int" name="NGY">    90</i>
   <i type="int" name="NGZ">    90</i>
   <i type="int" name="NGXF">   180</i>
   <i type="int" name="NGYF">   180</i>
   <i type="int" name="NGZF">   180</i>
   <i type="logical" name="ADDGRID"> F  </i>
  </separator>
  <separator name="ionic" >
   <i type="int" name="NSW">  1000</i>
   <i type="int" name="IBRION">     2</i>
   <i type="int" name="ISIF">     2</i>
   <i name="PSTRESS">      0.00000000</i>
   <i name="EDIFFG">      0.00100000</i>
   <i type="int" name="NFREE">     1</i>
   <i name="POTIM">      0.10000000</i>
   <i name="SMASS">     -3.00000000</i>
   <i name="SCALEE">      1.00000000</i>
  </separator>
  <separator name="ionic md" >
   <i name="TEBEG">      0.00010000</i>
   <i name="TEEND">      0.00010000</i>
   <i type="int" name="NBLOCK">     1</i>
   <i type="int" name="KBLOCK">  1000</i>
   <i type="int" name="NPACO">   256</i>
   <i name="APACO">     16.00000000</i>
  </separator>
  <separator name="symmetry" >
   <i type="int" name="ISYM">     2</i>
   <i name="SYMPREC">      0.00001000</i>
  </separator>
  <separator name="dos" >
   <i type="logical" name="LORBIT"> F  </i>
   <v name="RWIGS">     -1.00000000</v>
   <i type="int" name="NEDOS">   301</i>
   <i name="EMIN">     10.00000000</i>
   <i name="EMAX">    -10.00000000</i>
   <i name="EFERMI">      0.00000000</i>
  </separator>
  <separator name="writing" >
   <i type="int" name="NWRITE">     2</i>
   <i type="logical" name="LWAVE"> F  </i>
   <i type="logical" name="LCHARG"> F  </i>
   <i type="logical" name="LPARD"> F  </i>
   <i type="logical" name="LVTOT"> F  </i>
   <i type="logical" name="LVHAR"> F  </i>
   <i type="logical" name="LELF"> F  </i>
   <i type="logical" name="LOPTICS"> F  </i>
   <v name="STM">      0.00000000      0.00000000      0.00000000      0.00000000      0.00000000      0.00000000      0.00000000</v>
  </separator>
  <separator name="performance" >
   <i type="int" name="NPAR">     4</i>
   <i type="int" name="NSIM">     4</i>
   <i type="int" name="NBLK">    -1</i>
   <i type="logical" name="LPLANE"> T  </i>
   <i type="logical" name="LSCALAPACK"> T  </i>
   <i type="logical" name="LSCAAWARE"> F  </i>
   <i type="logical" name="LSCALU"> F  </i>
   <i type="logical" name="LASYNC"> F  </i>
   <i type="logical" name="LORBITALREAL"> F  </i>
  </separator>
  <separator name="miscellaneous" >
   <i type="int" name="IDIOT">     3</i>
   <i type="logical" name="LMUSIC"> F  </i>
   <v name="POMASS">    107.86800000</v>
   <v name="DARWINR">      0.00000000</v>
   <v name="DARWINV">      1.00000000</v>
   <i type="logical" name="LCORR"> T  </i>
  </separator>
  <i type="logical" name="GGA_COMPAT"> T  </i>
  <i type="logical" name="LBERRY"> F  </i>
  <i type="int" name="ICORELEVEL">     0</i>
  <i type="logical" name="LDAU"> F  </i>
  <i type="int" name="I_CONSTRAINED_M">     0</i>
  <separator name="electronic exchange-correlation" >
   <i type="string" name="GGA">PE</i>
   <i type="int" name="VOSKOWN">     0</i>
   <i type="logical" name="LHFCALC"> F  </i>
   <i type="string" name="PRECFOCK"></i>
   <i type="logical" name="LSYMGRAD"> F  </i>
   <i type="logical" name="LHFONE"> F  </i>
   <i type="logical" name="LRHFCALC"> F  </i>
   <i type="logical" name="LTHOMAS"> F  </i>
   <i type="logical" name="LMODELHF"> F  </i>
   <i name="ENCUT4O">     -1.00000000</i>
   <i type="int" name="EXXOEP">     0</i>
   <i type="int" name="FOURORBIT">     0</i>
   <i name="AEXX">      0.00000000</i>
   <i name="HFALPHA">      0.00000000</i>
   <i name="MCALPHA">      0.00000000</i>
   <i name="ALDAX">      1.00000000</i>
   <i name="AGGAX">      1.00000000</i>
   <i name="ALDAC">      1.00000000</i>
   <i name="AGGAC">      1.00000000</i>
   <i type="int" name="NKREDX">     1</i>
   <i type="int" name="NKREDY">     1</i>
   <i type="int" name="NKREDZ">     1</i>
   <i type="logical" name="SHIFTRED"> F  </i>
   <i type="logical" name="ODDONLY"> F  </i>
   <i type="logical" name="EVENONLY"> F  </i>
   <i type="int" name="LMAXFOCK">     0</i>
   <i type="int" name="NMAXFOCKAE">     0</i>
   <i type="logical" name="LFOCKAEDFT"> F  </i>
   <i name="HFSCREEN">      0.00000000</i>
   <i name="HFSCREENC">      0.00000000</i>
   <i type="int" name="NBANDSGWLOW">     0</i>
  </separator>
  <separator name="vdW DFT" >
   <i type="logical" name="LUSE_VDW"> F  </i>
   <i name="Zab_VDW">     -0.84910000</i>
   <i name="PARAM1">      0.12340000</i>
   <i name="PARAM2">      1.00000000</i>
   <i name="PARAM3">      0.00000000</i>
  </separator>
  <separator name="model GW" >
   <i type="int" name="MODEL_GW">     0</i>
   <i name="MODEL_EPS0">    185.69207050</i>
   <i name="MODEL_ALPHA">      1.00000000</i>
  </separator>
  <separator name="linear response parameters" >
   <i type="logical" name="LEPSILON"> F  </i>
   <i type="logical" name="LRPA"> F  </i>
   <i type="logical" name="LNABLA"> F  </i>
   <i type="logical" name="LVEL"> F  </i>
   <i type="int" name="KINTER">     0</i>
   <i name="CSHIFT">      0.10000000</i>
   <i name="OMEGAMAX">     -1.00000000</i>
   <i name="DEG_THRESHOLD">      0.00200000</i>
  </separator>
  <separator name="orbital magnetization" >
   <i type="logical" name="NUCIND"> F  </i>
   <v name="MAGPOS">      0.00000000      0.00000000      0.00000000</v>
   <i type="logical" name="LNICSALL"> T  </i>
   <i type="logical" name="ORBITALMAG"> F  </i>
   <i type="logical" name="LMAGBLOCH"> F  </i>
   <i type="logical" name="LCHIMAG"> F  </i>
   <i type="logical" name="LGAUGE"> T  </i>
   <i type="int" name="MAGATOM">     0</i>
   <v name="MAGDIPOL">      0.00000000      0.00000000      0.00000000</v>
   <v name="AVECCONST">      0.00000000      0.00000000      0.00000000</v>
  </separator>
  <separator name="response functions" >
   <i type="logical" name="LADDER"> F  </i>
   <i type="logical" name="LFXC"> F  </i>
   <i type="logical" name="LHARTREE"> T  </i>
   <i type="int" name="IBSE">     0</i>
   <i type="logical" name="LTCTE"> F  </i>
   <i type="logical" name="LTETE"> F  </i>
   <i type="logical" name="LTRIPLET"> F  </i>
   <i type="logical" name="LFXCEPS"> F  </i>
   <i type="logical" name="LFXHEG"> F  </i>
   <i type="logical" name="L2ORDER"> F  </i>
   <i type="logical" name="LUSEW"> F  </i>
   <i name="ENCUTGW">     -2.00000000</i>
   <i name="ENCUTGWSOFT">     -2.00000000</i>
   <i name="ENCUTLF">     -1.00000000</i>
   <i type="int" name="LMAXMP2">    -1</i>
   <i name="SCISSOR">      0.00000000</i>
   <i type="int" name="NOMEGA">     0</i>
   <i type="int" name="NOMEGAR">     0</i>
   <i type="int" name="NBANDSGW">    -1</i>
   <i type="int" name="NBANDSO">    -1</i>
   <i type="int" name="NBANDSV">    -1</i>
   <i type="int" name="NELM">     1</i>
   <i type="int" name="DIM">     3</i>
   <i type="int" name="ANTIRES">     0</i>
   <i name="OMEGAMAX">    -30.00000000</i>
   <i name="OMEGAMIN">    -30.00000000</i>
   <i name="OMEGATL">   -200.00000000</i>
   <i type="int" name="OMEGAGRID">     0</i>
   <i name="CSHIFT">     -0.10000000</i>
   <i type="logical" name="SELFENERGY"> F  </i>
   <i type="logical" name="LSPECTRAL"> F  </i>
   <i type="logical" name="ODDONLYGW"> F  </i>
   <i type="logical" name="EVENONLYGW"> F  </i>
   <i type="int" name="NKREDLFX">     1</i>
   <i type="int" name="NKREDLFY">     1</i>
   <i type="int" name="NKREDLFZ">     1</i>
   <i type="int" name="MAXMEM">  1800</i>
   <i type="int" name="TELESCOPE">     0</i>
   <i type="int" name="TAUPAR">     1</i>
  </separator>
  <separator name="External order field" >
   <i name="OFIELD_KAPPA">      0.00000000</i>
   <v name="OFIELD_K">      0.00000000      0.00000000      0.00000000</v>
   <i name="OFIELD_Q6_NEAR">      0.00000000</i>
   <i name="OFIELD_Q6_FAR">      0.00000000</i>
   <i name="OFIELD_A">      0.00000000</i>
  </separator>
 </parameters>
 <atominfo>
  <atoms>      37 </atoms>
  <types>       1 </types>
  <array name="atoms" >
   <dimension dim="1">ion</dimension>
   <field type="string">element</field>
   <field type="int">atomtype</field>
   <set>
    <rc><c>Ag</c><c>   1</c></rc>
    <rc><c>Ag</c><c>   1</c></rc>
    <rc><c>Ag</c><c>   1</c></rc>
    <rc><c>Ag</c><c>   1</c></rc>
    <rc><c>Ag</c><c>   1</c></rc>
    <rc><c>Ag</c><c>   1</c></rc>
    <rc><c>Ag</c><c>   1</c></rc>
    <rc><c>Ag</c><c>   1</c></rc>
    <rc><c>Ag</c><c>   1</c></rc>
    <rc><c>Ag</c><c>   1</c></rc>
    <rc><c>Ag</c><c>   1</c></rc>
    <rc><c>Ag</c><c>   1</c></rc>
    <rc><c>Ag</c><c>   1</c></rc>
    <rc><c>Ag</c><c>   1</c></rc>
    <rc><c>Ag</c><c>   1</c></rc>
    <rc><c>Ag</c><c>   1</c></rc>
    <rc><c>Ag</c><c>   1</c></rc>
    <rc><c>Ag</c><c>   1</c></rc>
    <rc><c>Ag</c><c>   1</c></rc>
    <rc><c>Ag</c><c>   1</c></rc>
    <rc><c>Ag</c><c>   1</c></rc>
    <rc><c>Ag</c><c>   1</c></rc>
    <rc><c>Ag</c><c>   1</c></rc>
    <rc><c>Ag</c><c>   1</c></rc>
    <rc><c>Ag</c><c>   1</c></rc>
    <rc><c>Ag</c><c>   1</c></rc>
    <rc><c>Ag</c><c>   1</c></rc>
    <rc><c>Ag</c><c>   1</c></rc>
    <rc><c>Ag</c><c>   1</c></rc>
    <rc><c>Ag</c><c>   1</c></rc>
    <rc><c>Ag</c><c>   1</c></rc>
    <rc><c>Ag</c><c>   1</c></rc>
    <rc><c>Ag</c><c>   1</c></rc>
    <rc><c>Ag</c><c>   1</c></rc>
    <rc><c>Ag</c><c>   1</c></rc>
    <rc><c>Ag</c><c>   1</c></rc>
    <rc><c>Ag</c><c>   1</c></rc>
   </set>
  </array>
  <array name="atomtypes" >
   <dimension dim="1">type</dimension>
   <field type="int">atomspertype</field>
   <field type="string">element</field>
   <field>mass</field>
   <field>valence</field>
   <field type="string">pseudopotential</field>
   <set>
    <rc><c>  37</c><c>Ag</c><c>    107.86800000</c><c>     11.00000000</c><c>  PAW_PBE Ag 02Apr2005                  </c></rc>
   </set>
  </array>
 </atominfo>
 <structure name="initialpos" >
  <crystal>
   <varray name="basis" >
    <v>      22.53969028       0.00000000       0.00000000 </v>
    <v>       0.00000000      22.53969028       0.00000000 </v>
    <v>       0.00000000       0.00000000      22.53969028 </v>
   </varray>
   <i name="volume">  11451.01101392 </i>
   <varray name="rec_basis" >
    <v>       0.04436618       0.00000000       0.00000000 </v>
    <v>       0.00000000       0.04436618       0.00000000 </v>
    <v>       0.00000000       0.00000000       0.04436618 </v>
   </varray>
  </crystal>
  <varray name="positions" >
   <v>       0.49115443       0.63319561       0.67202607 </v>
   <v>       0.46265462       0.55695119       0.45174242 </v>
   <v>       0.44041912       0.67461249       0.47164930 </v>
   <v>       0.53602747       0.57166434       0.54376412 </v>
   <v>       0.47813870       0.67314164       0.35357526 </v>
   <v>       0.36795051       0.63431935       0.37923364 </v>
   <v>       0.37554591       0.41035289       0.46791696 </v>
   <v>       0.56094790       0.67388960       0.44460350 </v>
   <v>       0.55184386       0.35225132       0.56043297 </v>
   <v>       0.62900733       0.56783047       0.46099257 </v>
   <v>       0.59112828       0.46772048       0.40080629 </v>
   <v>       0.43916568       0.54975538       0.32498928 </v>
   <v>       0.59949781       0.48693793       0.59781574 </v>
   <v>       0.66778128       0.45565518       0.49789919 </v>
   <v>       0.60346453       0.35443887       0.44598375 </v>
   <v>       0.35196803       0.50985634       0.40695891 </v>
   <v>       0.67408031       0.34397901       0.54539313 </v>
   <v>       0.41339685       0.63001551       0.58114940 </v>
   <v>       0.55602857       0.53629412       0.70636172 </v>
   <v>       0.62968054       0.44070992       0.72591937 </v>
   <v>       0.68033285       0.54401573       0.69108027 </v>
   <v>       0.52458974       0.45941693       0.49865675 </v>
   <v>       0.62638872       0.34632523       0.65546814 </v>
   <v>       0.48197334       0.35285683       0.46178357 </v>
   <v>       0.54788184       0.57521017       0.36990195 </v>
   <v>       0.69225694       0.55680513       0.56720878 </v>
   <v>       0.52357129       0.42019421       0.66132625 </v>
   <v>       0.32982659       0.62210430       0.49663708 </v>
   <v>       0.38137304       0.51863055       0.53305786 </v>
   <v>       0.60689514       0.62336909       0.63353022 </v>
   <v>       0.44167308       0.41770596       0.57197975 </v>
   <v>       0.46219589       0.44677652       0.38787419 </v>
   <v>       0.52360129       0.68888451       0.56259442 </v>
   <v>       0.70547003       0.44074627       0.61985633 </v>
   <v>       0.45789484       0.52315875       0.63096114 </v>
   <v>       0.64494670       0.66761494       0.52854983 </v>
   <v>       0.26323135       0.58659762       0.40430425 </v>
  </varray>
 </structure>
 <calculation>
  <scstep>
   <time name="dav">    3.46    3.47</time>
   <time name="total">    3.69    4.70</time>
   <energy>
    <i name="alphaZ">    101.68895786 </i>
    <i name="ewald">  95090.22550118 </i>
    <i name="hartreedc">-131917.70215844 </i>
    <i name="XCdc">   -402.19135578 </i>
    <i name="pawpsdc">  37124.77058858 </i>
    <i name="pawaedc"> -35418.79052852 </i>
    <i name="eentropy">     -0.00000000 </i>
    <i name="bandstr">    534.49844554 </i>
    <i name="atom">  38376.34931319 </i>
    <i name="e_fr_energy">   3488.84876362 </i>
    <i name="e_wo_entrp">   3488.84876362 </i>
    <i name="e_0_energy">   3488.84876362 </i>
   </energy>
  </scstep>
  <scstep>
   <time name="dav">    5.15    5.16</time>
   <time name="total">    5.16    5.46</time>
   <energy>
    <i name="e_fr_energy">    641.45625098 </i>
    <i name="e_wo_entrp">    641.45625098 </i>
    <i name="e_0_energy">    641.45625098 </i>
   </energy>
  </scstep>
  <scstep>
   <time name="dav">    4.12    4.13</time>
   <time name="total">    4.12    4.13</time>
   <energy>
    <i name="e_fr_energy">    -47.31699239 </i>
    <i name="e_wo_entrp">    -47.31699239 </i>
    <i name="e_0_energy">    -47.31699239 </i>
   </energy>
  </scstep>
  <scstep>
   <time name="dav">    3.69    3.70</time>
   <time name="total">    3.69    5.65</time>
   <energy>
    <i name="e_fr_energy">    -77.62324121 </i>
    <i name="e_wo_entrp">    -77.62324121 </i>
    <i name="e_0_energy">    -77.62324121 </i>
   </energy>
  </scstep>
  <scstep>
   <time name="dav">    3.77    3.77</time>
   <time name="total">    3.89    3.90</time>
   <energy>
    <i name="e_fr_energy">    -78.07004109 </i>
    <i name="e_wo_entrp">    -78.07004109 </i>
    <i name="e_0_energy">    -78.07004109 </i>
   </energy>
  </scstep>
  <scstep>
   <time name="dav">    3.48    3.48</time>
   <time name="total">    3.82    4.20</time>
   <energy>
    <i name="e_fr_energy">    -34.61189185 </i>
    <i name="e_wo_entrp">    -34.61189185 </i>
    <i name="e_0_energy">    -34.61189185 </i>
   </energy>
  </scstep>
  <scstep>
   <time name="dav">    3.58    3.58</time>
   <time name="total">    3.92    4.06</time>
   <energy>
    <i name="e_fr_energy">    -29.95442830 </i>
    <i name="e_wo_entrp">    -29.95442830 </i>
    <i name="e_0_energy">    -29.95442830 </i>
   </energy>
  </scstep>
  <scstep>
   <time name="dav">    3.60    3.60</time>
   <time name="total">    3.94    4.02</time>
   <energy>
    <i name="e_fr_energy">    -23.17611583 </i>
    <i name="e_wo_entrp">    -23.17611583 </i>
    <i name="e_0_energy">    -23.17611583 </i>
   </energy>
  </scstep>
  <scstep>
   <time name="dav">    3.64    3.64</time>
   <time name="total">    3.98    3.99</time>
   <energy>
    <i name="e_fr_energy">    -28.11982753 </i>
    <i name="e_wo_entrp">    -28.11982753 </i>
    <i name="e_0_energy">    -28.11982753 </i>
   </energy>
  </scstep>
  <scstep>
   <time name="dav">    3.53    3.54</time>
   <time name="total">    3.87    4.51</time>
   <energy>
    <i name="e_fr_energy">    -40.00128087 </i>
    <i name="e_wo_entrp">    -40.00128087 </i>
    <i name="e_0_energy">    -40.00128087 </i>
   </energy>
  </scstep>
  <scstep>
   <time name="dav">    3.63    3.63</time>
   <time name="total">    3.97    3.98</time>
   <energy>
    <i name="e_fr_energy">    -45.22435281 </i>
    <i name="e_wo_entrp">    -45.22435281 </i>
    <i name="e_0_energy">    -45.22435281 </i>
   </energy>
  </scstep>
  <scstep>
   <time name="dav">    3.62    3.62</time>
   <time name="total">    3.96    3.98</time>
   <energy>
    <i name="e_fr_energy">    -48.51452207 </i>
    <i name="e_wo_entrp">    -48.51452207 </i>
    <i name="e_0_energy">    -48.51452207 </i>
   </energy>
  </scstep>
  <scstep>
   <time name="dav">    3.50    3.50</time>
   <time name="total">    3.84    3.86</time>
   <energy>
    <i name="e_fr_energy">    -59.82692429 </i>
    <i name="e_wo_entrp">    -59.82692429 </i>
    <i name="e_0_energy">    -59.82692429 </i>
   </energy>
  </scstep>
  <scstep>
   <time name="dav">    3.65    3.66</time>
   <time name="total">    3.99    4.00</time>
   <energy>
    <i name="e_fr_energy">    -63.47087491 </i>
    <i name="e_wo_entrp">    -63.47087491 </i>
    <i name="e_0_energy">    -63.47087491 </i>
   </energy>
  </scstep>
  <scstep>
   <time name="dav">    3.56    3.56</time>
   <time name="total">    3.90    3.90</time>
   <energy>
    <i name="e_fr_energy">    -67.86725291 </i>
    <i name="e_wo_entrp">    -67.86725291 </i>
    <i name="e_0_energy">    -67.86725291 </i>
   </energy>
  </scstep>
  <scstep>
   <time name="dav">    3.51    3.52</time>
   <time name="total">    3.86    3.90</time>
   <energy>
    <i name="e_fr_energy">    -71.82846614 </i>
    <i name="e_wo_entrp">    -71.82846614 </i>
    <i name="e_0_energy">    -71.82846614 </i>
   </energy>
  </scstep>
  <scstep>
   <time name="dav">    3.80    3.80</time>
   <time name="total">    4.14    4.27</time>
   <energy>
    <i name="e_fr_energy">    -72.13135044 </i>
    <i name="e_wo_entrp">    -72.13135044 </i>
    <i name="e_0_energy">    -72.13135044 </i>
   </energy>
  </scstep>
  <scstep>
   <time name="dav">    3.54    3.54</time>
   <time name="total">    3.88    3.90</time>
   <energy>
    <i name="e_fr_energy">    -73.02411579 </i>
    <i name="e_wo_entrp">    -73.02411579 </i>
    <i name="e_0_energy">    -73.02411579 </i>
   </energy>
  </scstep>
  <scstep>
   <time name="dav">    3.50    3.50</time>
   <time name="total">    3.84    3.85</time>
   <energy>
    <i name="e_fr_energy">    -74.64392859 </i>
    <i name="e_wo_entrp">    -74.64392859 </i>
    <i name="e_0_energy">    -74.64392859 </i>
   </energy>
  </scstep>
  <scstep>
   <time name="dav">    3.73    3.73</time>
   <time name="total">    4.07    4.09</time>
   <energy>
    <i name="e_fr_energy">    -74.79977863 </i>
    <i name="e_wo_entrp">    -74.79977863 </i>
    <i name="e_0_energy">    -74.79977863 </i>
   </energy>
  </scstep>
  <scstep>
   <time name="dav">    3.62    3.62</time>
   <time name="total">    3.96    4.28</time>
   <energy>
    <i name="e_fr_energy">    -74.97440574 </i>
    <i name="e_wo_entrp">    -74.97440574 </i>
    <i name="e_0_energy">    -74.97440574 </i>
   </energy>
  </scstep>
  <scstep>
   <time name="dav">    3.58    3.59</time>
   <time name="total">    3.93    4.14</time>
   <energy>
    <i name="e_fr_energy">    -75.59558903 </i>
    <i name="e_wo_entrp">    -75.59558903 </i>
    <i name="e_0_energy">    -75.59558903 </i>
   </energy>
  </scstep>
  <scstep>
   <time name="dav">    3.55    3.55</time>
   <time name="total">    3.89    3.91</time>
   <energy>
    <i name="e_fr_energy">    -76.16509287 </i>
    <i name="e_wo_entrp">    -76.16509287 </i>
    <i name="e_0_energy">    -76.16509287 </i>
   </energy>
  </scstep>
  <scstep>
   <time name="dav">    3.60    3.60</time>
   <time name="total">    3.95    3.95</time>
   <energy>
    <i name="e_fr_energy">    -76.41748189 </i>
    <i name="e_wo_entrp">    -76.41748189 </i>
    <i name="e_0_energy">    -76.41748189 </i>
   </energy>
  </scstep>
  <scstep>
   <time name="dav">    3.74    3.74</time>
   <time name="total">    4.08    4.09</time>
   <energy>
    <i name="e_fr_energy">    -76.42470067 </i>
    <i name="e_wo_entrp">    -76.42470067 </i>
    <i name="e_0_energy">    -76.42470067 </i>
   </energy>
  </scstep>
  <scstep>
   <time name="dav">    3.54    3.55</time>
   <time name="total">    3.90    3.92</time>
   <energy>
    <i name="e_fr_energy">    -76.50406253 </i>
    <i name="e_wo_entrp">    -76.50406253 </i>
    <i name="e_0_energy">    -76.50406253 </i>
   </energy>
  </scstep>
  <scstep>
   <time name="dav">    3.55    3.55</time>
   <time name="total">    3.90    4.41</time>
   <energy>
    <i name="e_fr_energy">    -76.65654482 </i>
    <i name="e_wo_entrp">    -76.65654482 </i>
    <i name="e_0_energy">    -76.65654482 </i>
   </energy>
  </scstep>
  <scstep>
   <time name="dav">    3.44    3.44</time>
   <time name="total">    3.78    4.00</time>
   <energy>
    <i name="e_fr_energy">    -76.69419770 </i>
    <i name="e_wo_entrp">    -76.69419770 </i>
    <i name="e_0_energy">    -76.69419770 </i>
   </energy>
  </scstep>
  <scstep>
   <time name="dav">    3.64    3.65</time>
   <time name="total">    4.00    4.00</time>
   <energy>
    <i name="e_fr_energy">    -76.70537748 </i>
    <i name="e_wo_entrp">    -76.70537748 </i>
    <i name="e_0_energy">    -76.70537748 </i>
   </energy>
  </scstep>
  <scstep>
   <time name="dav">    3.03    3.04</time>
   <time name="total">    3.38    3.50</time>
   <energy>
    <i name="e_fr_energy">    -76.71572826 </i>
    <i name="e_wo_entrp">    -76.71572826 </i>
    <i name="e_0_energy">    -76.71572826 </i>
   </energy>
  </scstep>
  <scstep>
   <time name="dav">    3.21    3.21</time>
   <time name="total">    3.56    3.59</time>
   <energy>
    <i name="e_fr_energy">    -76.71463649 </i>
    <i name="e_wo_entrp">    -76.71463649 </i>
    <i name="e_0_energy">    -76.71463649 </i>
   </energy>
  </scstep>
  <scstep>
   <time name="dav">    3.09    3.10</time>
   <time name="total">    3.45    4.31</time>
   <energy>
    <i name="e_fr_energy">    -76.72000145 </i>
    <i name="e_wo_entrp">    -76.72000145 </i>
    <i name="e_0_energy">    -76.72000145 </i>
   </energy>
  </scstep>
  <scstep>
   <time name="dav">    2.74    2.74</time>
   <time name="total">    3.08    3.09</time>
   <energy>
    <i name="e_fr_energy">    -76.72176135 </i>
    <i name="e_wo_entrp">    -76.72176135 </i>
    <i name="e_0_energy">    -76.72176135 </i>
   </energy>
  </scstep>
  <scstep>
   <time name="dav">    2.73    2.74</time>
   <time name="total">    2.96    2.98</time>
   <energy>
    <i name="alphaZ">    101.68895786 </i>
    <i name="ewald">  95090.22550118 </i>
    <i name="hartreedc">-131838.45783299 </i>
    <i name="XCdc">   -416.90350051 </i>
    <i name="pawpsdc">  40433.19723328 </i>
    <i name="pawaedc"> -38802.54568769 </i>
    <i name="eentropy">     -0.00000000 </i>
    <i name="bandstr">  -3020.27582832 </i>
    <i name="atom">  38376.34931319 </i>
    <i name="e_fr_energy">    -76.72184400 </i>
    <i name="e_wo_entrp">    -76.72184400 </i>
    <i name="e_0_energy">    -76.72184400 </i>
   </energy>
  </scstep>
  <structure>
   <crystal>
    <varray name="basis" >
     <v>      22.53969028       0.00000000       0.00000000 </v>
     <v>       0.00000000      22.53969028       0.00000000 </v>
     <v>       0.00000000       0.00000000      22.53969028 </v>
    </varray>
    <i name="volume">  11451.01101392 </i>
    <varray name="rec_basis" >
     <v>       0.04436618       0.00000000       0.00000000 </v>
     <v>       0.00000000       0.04436618       0.00000000 </v>
     <v>       0.00000000       0.00000000       0.04436618 </v>
    </varray>
   </crystal>
   <varray name="positions" >
    <v>       0.49115443       0.63319561       0.67202607 </v>
    <v>       0.46265462       0.55695119       0.45174242 </v>
    <v>       0.44041912       0.67461249       0.47164930 </v>
    <v>       0.53602747       0.57166434       0.54376412 </v>
    <v>       0.47813870       0.67314164       0.35357526 </v>
    <v>       0.36795051       0.63431935       0.37923364 </v>
    <v>       0.37554591       0.41035289       0.46791696 </v>
    <v>       0.56094790       0.67388960       0.44460350 </v>
    <v>       0.55184386       0.35225132       0.56043297 </v>
    <v>       0.62900733       0.56783047       0.46099257 </v>
    <v>       0.59112828       0.46772048       0.40080629 </v>
    <v>       0.43916568       0.54975538       0.32498928 </v>
    <v>       0.59949781       0.48693793       0.59781574 </v>
    <v>       0.66778128       0.45565518       0.49789919 </v>
    <v>       0.60346453       0.35443887       0.44598375 </v>
    <v>       0.35196803       0.50985634       0.40695891 </v>
    <v>       0.67408031       0.34397901       0.54539313 </v>
    <v>       0.41339685       0.63001551       0.58114940 </v>
    <v>       0.55602857       0.53629412       0.70636172 </v>
    <v>       0.62968054       0.44070992       0.72591937 </v>
    <v>       0.68033285       0.54401573       0.69108027 </v>
    <v>       0.52458974       0.45941693       0.49865675 </v>
    <v>       0.62638872       0.34632523       0.65546814 </v>
    <v>       0.48197334       0.35285683       0.46178357 </v>
    <v>       0.54788184       0.57521017       0.36990195 </v>
    <v>       0.69225694       0.55680513       0.56720878 </v>
    <v>       0.52357129       0.42019421       0.66132625 </v>
    <v>       0.32982659       0.62210430       0.49663708 </v>
    <v>       0.38137304       0.51863055       0.53305786 </v>
    <v>       0.60689514       0.62336909       0.63353022 </v>
    <v>       0.44167308       0.41770596       0.57197975 </v>
    <v>       0.46219589       0.44677652       0.38787419 </v>
    <v>       0.52360129       0.68888451       0.56259442 </v>
    <v>       0.70547003       0.44074627       0.61985633 </v>
    <v>       0.45789484       0.52315875       0.63096114 </v>
    <v>       0.64494670       0.66761494       0.52854983 </v>
    <v>       0.26323135       0.58659762       0.40430425 </v>
   </varray>
  </structure>
  <varray name="forces" >
   <v>       0.12385156       0.32874411       0.11669627 </v>
   <v>      -0.34232424      -0.00505351      -0.41733412 </v>
   <v>      -0.01745826       0.56330586       0.05548477 </v>
   <v>      -0.11482727       0.42366659       0.09135551 </v>
   <v>      -0.03650963       0.02075883      -0.10610095 </v>
   <v>      -0.07533081       0.10085120      -0.15183060 </v>
   <v>      -0.10420252      -0.12946944       0.22107268 </v>
   <v>      -0.04262805      -0.05846073      -0.11251003 </v>
   <v>      -0.04700275      -0.13531698       0.15238415 </v>
   <v>       0.19762165      -0.08003767      -0.20989719 </v>
   <v>       0.31658618      -0.23377881      -0.53901155 </v>
   <v>      -0.09299354      -0.07001110      -0.25032598 </v>
   <v>      -0.27949616      -0.12836476       0.29229761 </v>
   <v>       0.01672268      -0.07920148      -0.36236087 </v>
   <v>       0.08353391       0.16828320      -0.02025103 </v>
   <v>       0.14572721       0.01745420      -0.07070325 </v>
   <v>       0.13648975      -0.20498035      -0.18317405 </v>
   <v>      -0.00634515      -0.13532815       0.11980064 </v>
   <v>      -0.13631757      -0.02494656       0.14915990 </v>
   <v>       0.03764243      -0.04779223       0.11864809 </v>
   <v>       0.24116039       0.11219071      -0.09644248 </v>
   <v>       0.35009176       0.26568404       0.14188590 </v>
   <v>      -0.03493986      -0.30779906       0.12635523 </v>
   <v>      -0.23484100      -0.64651314      -0.18921143 </v>
   <v>       0.55517747       0.03297941      -0.33527453 </v>
   <v>       0.30438032       0.26092374      -0.13251597 </v>
   <v>      -0.25053503      -0.22472941       0.47803942 </v>
   <v>      -0.10346158       0.01517663      -0.08258859 </v>
   <v>      -0.10515974      -0.40832746       0.33722735 </v>
   <v>       0.07999479       0.30879252       0.33195990 </v>
   <v>      -0.51334072      -0.45282355       0.11929218 </v>
   <v>       0.03086604       0.13093247      -0.26169089 </v>
   <v>       0.15118847       0.68287386       0.32150112 </v>
   <v>       0.53521739      -0.10335144       0.27159673 </v>
   <v>      -0.12052007      -0.19463370       0.11351750 </v>
   <v>       0.22763273       0.14190784       0.20456747 </v>
   <v>      -0.87565078       0.09639431      -0.24161891 </v>
  </varray>
  <varray name="stress" >
   <v>       0.02611268       0.12491799       0.15877997 </v>
   <v>       0.12491799      -0.03893439      -0.11827226 </v>
   <v>       0.15877996      -0.11827226      -0.07216528 </v>
  </varray>
  <energy>
   <i name="e_fr_energy">    -76.72184400 </i>
   <i name="e_wo_entrp">    -76.72184400 </i>
   <i name="e_0_energy">     -0.00000000 </i>
  </energy>
  <time name="totalsc">  137.58  144.90</time>
 </calculation>
 <calculation>
  <scstep>
   <time name="dav">    3.47    3.48</time>
   <time name="total">    3.82    3.84</time>
   <energy>
    <i name="alphaZ">    101.68895786 </i>
    <i name="ewald">  94936.55838052 </i>
    <i name="hartreedc">-131684.33619149 </i>
    <i name="XCdc">   -417.08805742 </i>
    <i name="pawpsdc">  40433.38787001 </i>
    <i name="pawaedc"> -38802.73907809 </i>
    <i name="eentropy">     -0.00000000 </i>
    <i name="bandstr">  -3020.61216036 </i>
    <i name="atom">  38376.34931319 </i>
    <i name="e_fr_energy">    -76.79096578 </i>
    <i name="e_wo_entrp">    -76.79096578 </i>
    <i name="e_0_energy">    -76.79096578 </i>
   </energy>
  </scstep>
  <scstep>
   <time name="dav">    3.62    3.63</time>
   <time name="total">    3.96    3.97</time>
   <energy>
    <i name="e_fr_energy">    -76.79645621 </i>
    <i name="e_wo_entrp">    -76.79645621 </i>
    <i name="e_0_energy">    -76.79645621 </i>
   </energy>
  </scstep>
  <scstep>
   <time name="dav">    3.54    3.55</time>
   <time name="total">    3.88    3.91</time>
   <energy>
    <i name="e_fr_energy">    -76.79215903 </i>
    <i name="e_wo_entrp">    -76.79215903 </i>
    <i name="e_0_energy">    -76.79215903 </i>
   </energy>
  </scstep>
  <scstep>
   <time name="dav">    3.57    3.57</time>
   <time name="total">    3.90    3.93</time>
   <energy>
    <i name="e_fr_energy">    -76.79464133 </i>
    <i name="e_wo_entrp">    -76.79464133 </i>
    <i name="e_0_energy">    -76.79464133 </i>
   </energy>
  </scstep>
  <scstep>
   <time name="dav">    3.17    3.17</time>
   <time name="total">    3.50    3.51</time>
   <energy>
    <i name="e_fr_energy">    -76.79526832 </i>
    <i name="e_wo_entrp">    -76.79526832 </i>
    <i name="e_0_energy">    -76.79526832 </i>
   </energy>
  </scstep>
  <scstep>
   <time name="dav">    2.71    2.72</time>
   <time name="total">    3.05    3.29</time>
   <energy>
    <i name="e_fr_energy">    -76.79512327 </i>
    <i name="e_wo_entrp">    -76.79512327 </i>
    <i name="e_0_energy">    -76.79512327 </i>
   </energy>
  </scstep>
  <scstep>
   <time name="dav">    3.15    3.16</time>
   <time name="total">    3.50    3.53</time>
   <energy>
    <i name="e_fr_energy">    -76.79502244 </i>
    <i name="e_wo_entrp">    -76.79502244 </i>
    <i name="e_0_energy">    -76.79502244 </i>
   </energy>
  </scstep>
  <scstep>
   <time name="dav">    3.15    3.16</time>
   <time name="total">    3.50    3.50</time>
   <energy>
    <i name="e_fr_energy">    -76.79558747 </i>
    <i name="e_wo_entrp">    -76.79558747 </i>
    <i name="e_0_energy">    -76.79558747 </i>
   </energy>
  </scstep>
  <scstep>
   <time name="dav">    2.67    2.67</time>
   <time name="total">    3.00    3.01</time>
   <energy>
    <i name="e_fr_energy">    -76.79590998 </i>
    <i name="e_wo_entrp">    -76.79590998 </i>
    <i name="e_0_energy">    -76.79590998 </i>
   </energy>
  </scstep>
  <scstep>
   <time name="dav">    2.64    2.65</time>
   <time name="total">    2.98    2.99</time>
   <energy>
    <i name="e_fr_energy">    -76.79625371 </i>
    <i name="e_wo_entrp">    -76.79625371 </i>
    <i name="e_0_energy">    -76.79625371 </i>
   </energy>
  </scstep>
  <scstep>
   <time name="dav">    2.66    2.66</time>
   <time name="total">    3.00    3.01</time>
   <energy>
    <i name="e_fr_energy">    -76.79656778 </i>
    <i name="e_wo_entrp">    -76.79656778 </i>
    <i name="e_0_energy">    -76.79656778 </i>
   </energy>
  </scstep>
  <scstep>
   <time name="dav">    2.61    2.62</time>
   <time name="total">    2.96    3.42</time>
   <energy>
    <i name="e_fr_energy">    -76.79671053 </i>
    <i name="e_wo_entrp">    -76.79671053 </i>
    <i name="e_0_energy">    -76.79671053 </i>
   </energy>
  </scstep>
  <scstep>
   <time name="dav">    2.62    2.63</time>
   <time name="total">    2.98    3.00</time>
   <energy>
    <i name="e_fr_energy">    -76.79692424 </i>
    <i name="e_wo_entrp">    -76.79692424 </i>
    <i name="e_0_energy">    -76.79692424 </i>
   </energy>
  </scstep>
  <scstep>
   <time name="dav">    2.65    2.65</time>
   <time name="total">    2.99    3.03</time>
   <energy>
    <i name="e_fr_energy">    -76.79710621 </i>
    <i name="e_wo_entrp">    -76.79710621 </i>
    <i name="e_0_energy">    -76.79710621 </i>
   </energy>
  </scstep>
  <scstep>
   <time name="dav">    2.64    2.65</time>
   <time name="total">    2.87    2.87</time>
   <energy>
    <i name="alphaZ">    101.68895786 </i>
    <i name="ewald">  94936.55838052 </i>
    <i name="hartreedc">-131683.60898598 </i>
    <i name="XCdc">   -417.06586026 </i>
    <i name="pawpsdc">  40408.47721780 </i>
    <i name="pawaedc"> -38777.42896021 </i>
    <i name="eentropy">     -0.00000000 </i>
    <i name="bandstr">  -3021.76725427 </i>
    <i name="atom">  38376.34931319 </i>
    <i name="e_fr_energy">    -76.79719135 </i>
    <i name="e_wo_entrp">    -76.79719135 </i>
    <i name="e_0_energy">    -76.79719135 </i>
   </energy>
  </scstep>
  <structure>
   <crystal>
    <varray name="basis" >
     <v>      22.53969028       0.00000000       0.00000000 </v>
     <v>       0.00000000      22.53969028       0.00000000 </v>
     <v>       0.00000000       0.00000000      22.53969028 </v>
    </varray>
    <i name="volume">  11451.01101392 </i>
    <varray name="rec_basis" >
     <v>       0.04436618       0.00000000       0.00000000 </v>
     <v>       0.00000000       0.04436618       0.00000000 </v>
     <v>       0.00000000       0.00000000       0.04436618 </v>
    </varray>
   </crystal>
   <varray name="positions" >
    <v>       0.49120744       0.63333634       0.67207603 </v>
    <v>       0.46250808       0.55694902       0.45156377 </v>
    <v>       0.44041165       0.67485362       0.47167305 </v>
    <v>       0.53597831       0.57184570       0.54380323 </v>
    <v>       0.47812307       0.67315052       0.35352984 </v>
    <v>       0.36791826       0.63436253       0.37916865 </v>
    <v>       0.37550130       0.41029747       0.46801159 </v>
    <v>       0.56092965       0.67386458       0.44455534 </v>
    <v>       0.55182374       0.35219340       0.56049820 </v>
    <v>       0.62909192       0.56779620       0.46090272 </v>
    <v>       0.59126380       0.46762041       0.40057556 </v>
    <v>       0.43912587       0.54972541       0.32488213 </v>
    <v>       0.59937816       0.48688298       0.59794086 </v>
    <v>       0.66778844       0.45562127       0.49774408 </v>
    <v>       0.60350029       0.35451091       0.44597508 </v>
    <v>       0.35203041       0.50986382       0.40692865 </v>
    <v>       0.67413873       0.34389126       0.54531472 </v>
    <v>       0.41339414       0.62995758       0.58120068 </v>
    <v>       0.55597022       0.53628344       0.70642557 </v>
    <v>       0.62969665       0.44068946       0.72597016 </v>
    <v>       0.68043609       0.54406375       0.69103898 </v>
    <v>       0.52473960       0.45953066       0.49871749 </v>
    <v>       0.62637377       0.34619347       0.65552223 </v>
    <v>       0.48187281       0.35258008       0.46170257 </v>
    <v>       0.54811949       0.57522429       0.36975843 </v>
    <v>       0.69238724       0.55691682       0.56715205 </v>
    <v>       0.52346404       0.42009801       0.66153088 </v>
    <v>       0.32978230       0.62211079       0.49660172 </v>
    <v>       0.38132802       0.51845575       0.53320221 </v>
    <v>       0.60692938       0.62350127       0.63367232 </v>
    <v>       0.44145333       0.41751212       0.57203082 </v>
    <v>       0.46220910       0.44683257       0.38776217 </v>
    <v>       0.52366601       0.68917682       0.56273204 </v>
    <v>       0.70569914       0.44070203       0.61997259 </v>
    <v>       0.45784325       0.52307543       0.63100974 </v>
    <v>       0.64504414       0.66767569       0.52863740 </v>
    <v>       0.26285651       0.58663888       0.40420082 </v>
   </varray>
  </structure>
  <varray name="forces" >
   <v>       0.11818794       0.31645251       0.11379103 </v>
   <v>      -0.31921580       0.00880771      -0.39271320 </v>
   <v>      -0.02238855       0.53564962       0.05159512 </v>
   <v>      -0.11631534       0.42104560       0.07939681 </v>
   <v>      -0.04457115       0.01098853      -0.09917486 </v>
   <v>      -0.09019578       0.09731767      -0.14415487 </v>
   <v>      -0.09667322      -0.12043886       0.20601239 </v>
   <v>      -0.03290845      -0.06336756      -0.10030049 </v>
   <v>      -0.04611426      -0.12942479       0.13529975 </v>
   <v>       0.18662934      -0.07167988      -0.19789712 </v>
   <v>       0.30281257      -0.22465291      -0.51626475 </v>
   <v>      -0.08412805      -0.06017247      -0.24463422 </v>
   <v>      -0.23446097      -0.11564754       0.27860175 </v>
   <v>       0.01139444      -0.06991311      -0.32792750 </v>
   <v>       0.07647563       0.16415378      -0.01289661 </v>
   <v>       0.11660145       0.03225450      -0.07265265 </v>
   <v>       0.12726882      -0.19416018      -0.16512146 </v>
   <v>      -0.00733373      -0.12975872       0.10064255 </v>
   <v>      -0.13091581      -0.02713465       0.14335128 </v>
   <v>       0.04211682      -0.05325649       0.10884662 </v>
   <v>       0.23045243       0.09436945      -0.10071469 </v>
   <v>       0.32516323       0.23104721       0.12745004 </v>
   <v>      -0.03076277      -0.29290388       0.12784991 </v>
   <v>      -0.21545117      -0.59547014      -0.16519813 </v>
   <v>       0.52109311       0.03699331      -0.32437761 </v>
   <v>       0.27500982       0.22529511      -0.11945563 </v>
   <v>      -0.24157276      -0.22173187       0.47090568 </v>
   <v>      -0.09570380      -0.00003028      -0.09066243 </v>
   <v>      -0.10230920      -0.38538269       0.31602344 </v>
   <v>       0.08234415       0.29940171       0.31742613 </v>
   <v>      -0.47238217      -0.43137192       0.10265733 </v>
   <v>       0.02683366       0.11958638      -0.23782161 </v>
   <v>       0.14991828       0.64599861       0.30480432 </v>
   <v>       0.49594935      -0.08877708       0.25002112 </v>
   <v>      -0.10396497      -0.19132703       0.11180156 </v>
   <v>       0.20835575       0.13806097       0.19700130 </v>
   <v>      -0.80923882       0.08917934      -0.23151031 </v>
  </varray>
  <varray name="stress" >
   <v>      -0.07160366       0.14201522       0.14197560 </v>
   <v>       0.14201522      -0.11767173      -0.07420267 </v>
   <v>       0.14197560      -0.07420267      -0.16854594 </v>
  </varray>
  <energy>
   <i name="e_fr_energy">    -76.79719135 </i>
   <i name="e_wo_entrp">    -76.79719135 </i>
   <i name="e_0_energy">     -0.00000000 </i>
  </energy>
  <time name="totalsc">   56.17   57.11</time>
 </calculation>
 <calculation>
  <scstep>
   <time name="dav">    3.46    3.47</time>
   <time name="total">    3.81    3.83</time>
   <energy>
    <i name="alphaZ">    101.68895786 </i>
    <i name="ewald">  94477.15844582 </i>
    <i name="hartreedc">-131227.06689549 </i>
    <i name="XCdc">   -417.58648801 </i>
    <i name="pawpsdc">  40408.47096101 </i>
    <i name="pawaedc"> -38777.42246960 </i>
    <i name="eentropy">      0.00000000 </i>
    <i name="bandstr">  -3018.55071198 </i>
    <i name="atom">  38376.34931319 </i>
    <i name="e_fr_energy">    -76.95888720 </i>
    <i name="e_wo_entrp">    -76.95888720 </i>
    <i name="e_0_energy">    -76.95888720 </i>
   </energy>
  </scstep>
  <scstep>
   <time name="dav">    3.54    3.54</time>
   <time name="total">    3.88    3.89</time>
   <energy>
    <i name="e_fr_energy">    -76.97650693 </i>
    <i name="e_wo_entrp">    -76.97650693 </i>
    <i name="e_0_energy">    -76.97650693 </i>
   </energy>
  </scstep>
  <scstep>
   <time name="dav">    3.70    3.70</time>
   <time name="total">    4.04    4.09</time>
   <energy>
    <i name="e_fr_energy">    -76.97572699 </i>
    <i name="e_wo_entrp">    -76.97572699 </i>
    <i name="e_0_energy">    -76.97572699 </i>
   </energy>
  </scstep>
  <scstep>
   <time name="dav">    3.59    3.60</time>
   <time name="total">    3.94    4.33</time>
   <energy>
    <i name="e_fr_energy">    -76.97480400 </i>
    <i name="e_wo_entrp">    -76.97480400 </i>
    <i name="e_0_energy">    -76.97480400 </i>
   </energy>
  </scstep>
  <scstep>
   <time name="dav">    2.72    2.73</time>
   <time name="total">    3.06    3.07</time>
   <energy>
    <i name="e_fr_energy">    -76.97519931 </i>
    <i name="e_wo_entrp">    -76.97519931 </i>
    <i name="e_0_energy">    -76.97519931 </i>
   </energy>
  </scstep>
  <scstep>
   <time name="dav">    2.66    2.66</time>
   <time name="total">    3.00    3.02</time>
   <energy>
    <i name="e_fr_energy">    -76.97557407 </i>
    <i name="e_wo_entrp">    -76.97557407 </i>
    <i name="e_0_energy">    -76.97557407 </i>
   </energy>
  </scstep>
  <scstep>
   <time name="dav">    2.61    2.62</time>
   <time name="total">    2.96    2.98</time>
   <energy>
    <i name="e_fr_energy">    -76.97591209 </i>
    <i name="e_wo_entrp">    -76.97591209 </i>
    <i name="e_0_energy">    -76.97591209 </i>
   </energy>
  </scstep>
  <scstep>
   <time name="dav">    2.63    2.63</time>
   <time name="total">    2.97    2.99</time>
   <energy>
    <i name="e_fr_energy">    -76.97609674 </i>
    <i name="e_wo_entrp">    -76.97609674 </i>
    <i name="e_0_energy">    -76.97609674 </i>
   </energy>
  </scstep>
  <scstep>
   <time name="dav">    2.63    2.64</time>
   <time name="total">    2.97    3.01</time>
   <energy>
    <i name="e_fr_energy">    -76.97631490 </i>
    <i name="e_wo_entrp">    -76.97631490 </i>
    <i name="e_0_energy">    -76.97631490 </i>
   </energy>
  </scstep>
  <scstep>
   <time name="dav">    2.60    2.60</time>
   <time name="total">    2.94    2.98</time>
   <energy>
    <i name="e_fr_energy">    -76.97642751 </i>
    <i name="e_wo_entrp">    -76.97642751 </i>
    <i name="e_0_energy">    -76.97642751 </i>
   </energy>
  </scstep>
  <scstep>
   <time name="dav">    2.63    2.64</time>
   <time name="total">    2.86    2.88</time>
   <energy>
    <i name="alphaZ">    101.68895786 </i>
    <i name="ewald">  94477.15844582 </i>
    <i name="hartreedc">-131230.81203785 </i>
    <i name="XCdc">   -417.49480236 </i>
    <i name="pawpsdc">  40335.88606440 </i>
    <i name="pawaedc"> -38703.65801408 </i>
    <i name="eentropy">      0.00000000 </i>
    <i name="bandstr">  -3016.09444965 </i>
    <i name="atom">  38376.34931319 </i>
    <i name="e_fr_energy">    -76.97652267 </i>
    <i name="e_wo_entrp">    -76.97652267 </i>
    <i name="e_0_energy">    -76.97652267 </i>
   </energy>
  </scstep>
  <structure>
   <crystal>
    <varray name="basis" >
     <v>      22.53969028       0.00000000       0.00000000 </v>
     <v>       0.00000000      22.53969028       0.00000000 </v>
     <v>       0.00000000       0.00000000      22.53969028 </v>
    </varray>
    <i name="volume">  11451.01101392 </i>
    <varray name="rec_basis" >
     <v>       0.04436618       0.00000000       0.00000000 </v>
     <v>       0.00000000       0.04436618       0.00000000 </v>
     <v>       0.00000000       0.00000000       0.04436618 </v>
    </varray>
   </crystal>
   <varray name="positions" >
    <v>       0.49136650       0.63375851       0.67222589 </v>
    <v>       0.46206847       0.55694253       0.45102783 </v>
    <v>       0.44038923       0.67557702       0.47174430 </v>
    <v>       0.53583085       0.57238977       0.54392055 </v>
    <v>       0.47807619       0.67317718       0.35339359 </v>
    <v>       0.36782152       0.63449204       0.37897367 </v>
    <v>       0.37536748       0.41013121       0.46829550 </v>
    <v>       0.56087491       0.67378950       0.44441085 </v>
    <v>       0.55176338       0.35201962       0.56069389 </v>
    <v>       0.62934571       0.56769342       0.46063317 </v>
    <v>       0.59167036       0.46732019       0.39988336 </v>
    <v>       0.43900645       0.54963550       0.32456066 </v>
    <v>       0.59901923       0.48671813       0.59831623 </v>
    <v>       0.66780991       0.45551956       0.49727873 </v>
    <v>       0.60360757       0.35472702       0.44594907 </v>
    <v>       0.35221755       0.50988623       0.40683785 </v>
    <v>       0.67431401       0.34362803       0.54507949 </v>
    <v>       0.41338599       0.62978379       0.58135453 </v>
    <v>       0.55579516       0.53625140       0.70661712 </v>
    <v>       0.62974499       0.44062809       0.72612253 </v>
    <v>       0.68074579       0.54420783       0.69091513 </v>
    <v>       0.52518919       0.45987185       0.49889970 </v>
    <v>       0.62632890       0.34579819       0.65568449 </v>
    <v>       0.48157123       0.35174982       0.46145959 </v>
    <v>       0.54883245       0.57526664       0.36932787 </v>
    <v>       0.69277812       0.55725190       0.56698188 </v>
    <v>       0.52314230       0.41980942       0.66214478 </v>
    <v>       0.32964943       0.62213028       0.49649566 </v>
    <v>       0.38119298       0.51793138       0.53363528 </v>
    <v>       0.60703211       0.62389782       0.63409862 </v>
    <v>       0.44079410       0.41693061       0.57218401 </v>
    <v>       0.46224874       0.44700072       0.38742611 </v>
    <v>       0.52386017       0.69005377       0.56314491 </v>
    <v>       0.70638646       0.44056931       0.62032137 </v>
    <v>       0.45768848       0.52282548       0.63115552 </v>
    <v>       0.64533647       0.66785793       0.52890011 </v>
    <v>       0.26173200       0.58676267       0.40389053 </v>
   </varray>
  </structure>
  <varray name="forces" >
   <v>       0.10003663       0.25934299       0.08946597 </v>
   <v>      -0.25762096       0.05890021      -0.32680385 </v>
   <v>      -0.01811984       0.46188143       0.07476376 </v>
   <v>      -0.11551489       0.41163050       0.05213703 </v>
   <v>      -0.02204836      -0.01550169      -0.08521906 </v>
   <v>      -0.14839831       0.04298920      -0.09337507 </v>
   <v>      -0.07256431      -0.10624378       0.15146434 </v>
   <v>      -0.01398308      -0.07347531      -0.03115249 </v>
   <v>      -0.07116632      -0.08929910       0.10313004 </v>
   <v>       0.17822396      -0.05091938      -0.14994450 </v>
   <v>       0.25505380      -0.18682783      -0.47610283 </v>
   <v>      -0.04079523      -0.02686529      -0.22426250 </v>
   <v>      -0.11550428      -0.09340438       0.24001568 </v>
   <v>       0.01138109      -0.05643015      -0.23563143 </v>
   <v>       0.03281452       0.14113979       0.00217693 </v>
   <v>       0.03073519       0.08403685      -0.04781997 </v>
   <v>       0.10627111      -0.15205706      -0.12284540 </v>
   <v>       0.01727427      -0.13198047       0.06280663 </v>
   <v>      -0.10821461      -0.00890155       0.13217898 </v>
   <v>       0.04195714      -0.03002810       0.06599762 </v>
   <v>       0.19091075       0.07459104      -0.10498171 </v>
   <v>       0.24850617       0.14249407       0.08466845 </v>
   <v>      -0.02367530      -0.24648181       0.09265448 </v>
   <v>      -0.16634846      -0.45575179      -0.15137974 </v>
   <v>       0.42791608       0.01935593      -0.30596731 </v>
   <v>       0.19284062       0.15558098      -0.10749320 </v>
   <v>      -0.24264587      -0.22300408       0.41747675 </v>
   <v>      -0.07068171      -0.04469080      -0.12278557 </v>
   <v>      -0.10106403      -0.31128807       0.25659923 </v>
   <v>       0.08694695       0.26797754       0.29794762 </v>
   <v>      -0.34180872      -0.41863681       0.10718628 </v>
   <v>       0.04835906       0.04741688      -0.15027192 </v>
   <v>       0.13372453       0.59941365       0.26086357 </v>
   <v>       0.38536637      -0.05594817       0.19194027 </v>
   <v>      -0.08014395      -0.16333054       0.11141054 </v>
   <v>       0.15887965       0.09907973       0.14702930 </v>
   <v>      -0.63689964       0.07523535      -0.20587689 </v>
  </varray>
  <varray name="stress" >
   <v>      -0.40861711       0.15048475       0.12616402 </v>
   <v>       0.15048474      -0.40708945      -0.04448765 </v>
   <v>       0.12616403      -0.04448765      -0.45922544 </v>
  </varray>
  <energy>
   <i name="e_fr_energy">    -76.97652267 </i>
   <i name="e_wo_entrp">    -76.97652267 </i>
   <i name="e_0_energy">      0.00000000 </i>
  </energy>
  <time name="totalsc">   42.68   43.40</time>
 </calculation>
 <calculation>
  <scstep>
   <time name="dav">    3.45    3.45</time>
   <time name="total">    3.79    4.16</time>
   <energy>
    <i name="alphaZ">    101.68895786 </i>
    <i name="ewald">  93565.51519035 </i>
    <i name="hartreedc">-130324.60668785 </i>
    <i name="XCdc">   -418.49686827 </i>
    <i name="pawpsdc">  40335.88713579 </i>
    <i name="pawaedc"> -38703.65892868 </i>
    <i name="eentropy">      0.00000000 </i>
    <i name="bandstr">  -3009.84282715 </i>
    <i name="atom">  38376.34931319 </i>
    <i name="e_fr_energy">    -77.16471476 </i>
    <i name="e_wo_entrp">    -77.16471476 </i>
    <i name="e_0_energy">    -77.16471476 </i>
   </energy>
  </scstep>
  <scstep>
   <time name="dav">    3.55    3.55</time>
   <time name="total">    3.90    3.90</time>
   <energy>
    <i name="e_fr_energy">    -77.24083880 </i>
    <i name="e_wo_entrp">    -77.24083880 </i>
    <i name="e_0_energy">    -77.24083880 </i>
   </energy>
  </scstep>
  <scstep>
   <time name="dav">    3.63    3.64</time>
   <time name="total">    3.97    4.00</time>
   <energy>
    <i name="e_fr_energy">    -77.23896144 </i>
    <i name="e_wo_entrp">    -77.23896144 </i>
    <i name="e_0_energy">    -77.23896144 </i>
   </energy>
  </scstep>
  <scstep>
   <time name="dav">    3.56    3.57</time>
   <time name="total">    3.91    3.91</time>
   <energy>
    <i name="e_fr_energy">    -77.23692617 </i>
    <i name="e_wo_entrp">    -77.23692617 </i>
    <i name="e_0_energy">    -77.23692617 </i>
   </energy>
  </scstep>
  <scstep>
   <time name="dav">    2.92    2.92</time>
   <time name="total">    3.14    3.17</time>
   <energy>
    <i name="alphaZ">    101.68895786 </i>
    <i name="ewald">  93565.51519035 </i>
    <i name="hartreedc">-130331.65064008 </i>
    <i name="XCdc">   -418.31698913 </i>
    <i name="pawpsdc">  40198.89178845 </i>
    <i name="pawaedc"> -38564.40855915 </i>
    <i name="eentropy">      0.00000000 </i>
    <i name="bandstr">  -3005.30603815 </i>
    <i name="atom">  38376.34931319 </i>
    <i name="e_fr_energy">    -77.23697665 </i>
    <i name="e_wo_entrp">    -77.23697665 </i>
    <i name="e_0_energy">    -77.23697665 </i>
   </energy>
  </scstep>
  <structure>
   <crystal>
    <varray name="basis" >
     <v>      22.53969028       0.00000000       0.00000000 </v>
     <v>       0.00000000      22.53969028       0.00000000 </v>
     <v>       0.00000000       0.00000000      22.53969028 </v>
    </varray>
    <i name="volume">  11451.01101392 </i>
    <varray name="rec_basis" >
     <v>       0.04436618       0.00000000       0.00000000 </v>
     <v>       0.00000000       0.04436618       0.00000000 </v>
     <v>       0.00000000       0.00000000       0.04436618 </v>
    </varray>
   </crystal>
   <varray name="positions" >
    <v>       0.49168460       0.63460286       0.67252561 </v>
    <v>       0.46118924       0.55692955       0.44995594 </v>
    <v>       0.44034439       0.67702383       0.47188681 </v>
    <v>       0.53553593       0.57347792       0.54415519 </v>
    <v>       0.47798242       0.67323050       0.35312108 </v>
    <v>       0.36762804       0.63475107       0.37858370 </v>
    <v>       0.37509985       0.40979868       0.46886330 </v>
    <v>       0.56076542       0.67363935       0.44412188 </v>
    <v>       0.55164266       0.35167207       0.56108528 </v>
    <v>       0.62985328       0.56748785       0.46009407 </v>
    <v>       0.59248348       0.46671975       0.39849895 </v>
    <v>       0.43876761       0.54945569       0.32391772 </v>
    <v>       0.59830137       0.48638844       0.59906697 </v>
    <v>       0.66785286       0.45531614       0.49634804 </v>
    <v>       0.60382211       0.35515924       0.44589706 </v>
    <v>       0.35259184       0.50993106       0.40665626 </v>
    <v>       0.67466458       0.34310155       0.54460902 </v>
    <v>       0.41336969       0.62943621       0.58166223 </v>
    <v>       0.55544504       0.53618733       0.70700022 </v>
    <v>       0.62984167       0.44050534       0.72642727 </v>
    <v>       0.68136518       0.54449598       0.69066743 </v>
    <v>       0.52608837       0.46055424       0.49926412 </v>
    <v>       0.62623916       0.34500764       0.65600903 </v>
    <v>       0.48096806       0.35008931       0.46097362 </v>
    <v>       0.55025838       0.57535135       0.36846674 </v>
    <v>       0.69355990       0.55792206       0.56664152 </v>
    <v>       0.52249883       0.41923222       0.66337258 </v>
    <v>       0.32938370       0.62216926       0.49628354 </v>
    <v>       0.38092288       0.51688263       0.53450142 </v>
    <v>       0.60723757       0.62469093       0.63495123 </v>
    <v>       0.43947563       0.41576757       0.57249040 </v>
    <v>       0.46232801       0.44733700       0.38675398 </v>
    <v>       0.52424848       0.69180768       0.56397066 </v>
    <v>       0.70776112       0.44030386       0.62101895 </v>
    <v>       0.45737893       0.52232558       0.63144708 </v>
    <v>       0.64592112       0.66822240       0.52942552 </v>
    <v>       0.25948297       0.58701025       0.40326996 </v>
   </varray>
  </structure>
  <varray name="forces" >
   <v>       0.06837840       0.16599432       0.05206607 </v>
   <v>      -0.14121703       0.15259766      -0.20382470 </v>
   <v>      -0.01613422       0.32627455       0.10257314 </v>
   <v>      -0.11615115       0.38855239       0.00102018 </v>
   <v>      -0.00393912      -0.06640401      -0.05580132 </v>
   <v>      -0.24106703      -0.02991395      -0.01716542 </v>
   <v>      -0.03308669      -0.07832662       0.04967328 </v>
   <v>       0.02297720      -0.09343660       0.08199257 </v>
   <v>      -0.10708282      -0.02565146       0.04418207 </v>
   <v>       0.15412050      -0.01024469      -0.06580349 </v>
   <v>       0.16906302      -0.11770880      -0.39805659 </v>
   <v>       0.02383550       0.03366525      -0.19030858 </v>
   <v>       0.08858984      -0.05383238       0.17845315 </v>
   <v>       0.01413360      -0.02446496      -0.07004752 </v>
   <v>      -0.04248055       0.10137976       0.03029499 </v>
   <v>      -0.12785397       0.15774181      -0.01415932 </v>
   <v>       0.06305311      -0.07895045      -0.04053951 </v>
   <v>       0.05148092      -0.12544679      -0.01353229 </v>
   <v>      -0.06919405       0.01753524       0.11034811 </v>
   <v>       0.04627308      -0.00722210      -0.00576455 </v>
   <v>       0.12037624       0.02543518      -0.12165194 </v>
   <v>       0.12358917       0.00668667       0.00212999 </v>
   <v>      -0.00375301      -0.16022089       0.04698091 </v>
   <v>      -0.07882604      -0.23839208      -0.11251068 </v>
   <v>       0.25907675       0.00064496      -0.26653177 </v>
   <v>       0.06601009       0.02249386      -0.07811218 </v>
   <v>      -0.22809478      -0.21701999       0.32251283 </v>
   <v>      -0.02524087      -0.12168040      -0.17983956 </v>
   <v>      -0.09547827      -0.17630293       0.14726226 </v>
   <v>       0.09658728       0.21266684       0.24955408 </v>
   <v>      -0.12599584      -0.38116362       0.11851888 </v>
   <v>       0.08314908      -0.06665684      -0.00765901 </v>
   <v>       0.11119122       0.48783475       0.17574443 </v>
   <v>       0.17936823       0.00051909       0.09483310 </v>
   <v>      -0.02813906      -0.12312295       0.10807592 </v>
   <v>       0.06281033       0.03832856       0.07008415 </v>
   <v>      -0.32032908       0.05781165      -0.14499164 </v>
  </varray>
  <varray name="stress" >
   <v>      -1.01759650       0.13896747       0.13001555 </v>
   <v>       0.13896747      -0.95588374      -0.02791698 </v>
   <v>       0.13001554      -0.02791697      -0.98866497 </v>
  </varray>
  <energy>
   <i name="e_fr_energy">    -77.23697665 </i>
   <i name="e_wo_entrp">    -77.23697665 </i>
   <i name="e_0_energy">      0.00000000 </i>
  </energy>
  <time name="totalsc">   24.96   25.41</time>
 </calculation>
 <calculation>
  <scstep>
   <time name="dav">    3.43    3.44</time>
   <time name="total">    3.78    3.79</time>
   <energy>
    <i name="alphaZ">    101.68895786 </i>
    <i name="ewald">  91770.44022396 </i>
    <i name="hartreedc">-128546.01053310 </i>
    <i name="XCdc">   -420.17259328 </i>
    <i name="pawpsdc">  40200.38525404 </i>
    <i name="pawaedc"> -38565.92039651 </i>
    <i name="eentropy">      0.00000000 </i>
    <i name="bandstr">  -2993.88186461 </i>
    <i name="atom">  38376.34931319 </i>
    <i name="e_fr_energy">    -77.12163843 </i>
    <i name="e_wo_entrp">    -77.12163843 </i>
    <i name="e_0_energy">    -77.12163843 </i>
   </energy>
  </scstep>
  <scstep>
   <time name="dav">    3.59    3.60</time>
   <time name="total">    3.93    4.03</time>
   <energy>
    <i name="e_fr_energy">    -77.43075179 </i>
    <i name="e_wo_entrp">    -77.43075179 </i>
    <i name="e_0_energy">    -77.43075179 </i>
   </energy>
  </scstep>
  <scstep>
   <time name="dav">    3.62    3.63</time>
   <time name="total">    3.96    4.03</time>
   <energy>
    <i name="e_fr_energy">    -77.42717167 </i>
    <i name="e_wo_entrp">    -77.42717167 </i>
    <i name="e_0_energy">    -77.42717167 </i>
   </energy>
  </scstep>
  <scstep>
   <time name="dav">    3.62    3.62</time>
   <time name="total">    3.96    3.97</time>
   <energy>
    <i name="e_fr_energy">    -77.41794899 </i>
    <i name="e_wo_entrp">    -77.41794899 </i>
    <i name="e_0_energy">    -77.41794899 </i>
   </energy>
  </scstep>
  <scstep>
   <time name="dav">    3.61    3.61</time>
   <time name="total">    3.95    3.97</time>
   <energy>
    <i name="e_fr_energy">    -77.41823971 </i>
    <i name="e_wo_entrp">    -77.41823971 </i>
    <i name="e_0_energy">    -77.41823971 </i>
   </energy>
  </scstep>
  <scstep>
   <time name="dav">    3.70    3.71</time>
   <time name="total">    4.04    9.58</time>
   <energy>
    <i name="e_fr_energy">    -77.41803468 </i>
    <i name="e_wo_entrp">    -77.41803468 </i>
    <i name="e_0_energy">    -77.41803468 </i>
   </energy>
  </scstep>
  <scstep>
   <time name="dav">    2.65    2.65</time>
   <time name="total">    2.87    3.04</time>
   <energy>
    <i name="alphaZ">    101.68895786 </i>
    <i name="ewald">  91770.44022396 </i>
    <i name="hartreedc">-128558.79577578 </i>
    <i name="XCdc">   -419.82153311 </i>
    <i name="pawpsdc">  39967.43569614 </i>
    <i name="pawaedc"> -38328.93787248 </i>
    <i name="eentropy">      0.00000000 </i>
    <i name="bandstr">  -2985.77709032 </i>
    <i name="atom">  38376.34931319 </i>
    <i name="e_fr_energy">    -77.41808052 </i>
    <i name="e_wo_entrp">    -77.41808052 </i>
    <i name="e_0_energy">    -77.41808052 </i>
   </energy>
  </scstep>
  <structure>
   <crystal>
    <varray name="basis" >
     <v>      22.53969028       0.00000000       0.00000000 </v>
     <v>       0.00000000      22.53969028       0.00000000 </v>
     <v>       0.00000000       0.00000000      22.53969028 </v>
    </varray>
    <i name="volume">  11451.01101392 </i>
    <varray name="rec_basis" >
     <v>       0.04436618       0.00000000       0.00000000 </v>
     <v>       0.00000000       0.04436618       0.00000000 </v>
     <v>       0.00000000       0.00000000       0.04436618 </v>
    </varray>
   </crystal>
   <varray name="positions" >
    <v>       0.49232080       0.63629156       0.67312506 </v>
    <v>       0.45943078       0.55690359       0.44781217 </v>
    <v>       0.44025471       0.67991743       0.47217183 </v>
    <v>       0.53494608       0.57565422       0.54462447 </v>
    <v>       0.47779487       0.67333713       0.35257606 </v>
    <v>       0.36724108       0.63526912       0.37780378 </v>
    <v>       0.37456458       0.40913361       0.46999891 </v>
    <v>       0.56054645       0.67333905       0.44354394 </v>
    <v>       0.55140121       0.35097698       0.56186805 </v>
    <v>       0.63086843       0.56707671       0.45901586 </v>
    <v>       0.59410973       0.46551887       0.39573015 </v>
    <v>       0.43828991       0.54909605       0.32263184 </v>
    <v>       0.59686565       0.48572905       0.60056845 </v>
    <v>       0.66793877       0.45490930       0.49448666 </v>
    <v>       0.60425121       0.35602368       0.44579303 </v>
    <v>       0.35334041       0.51002072       0.40629307 </v>
    <v>       0.67536570       0.34204860       0.54366809 </v>
    <v>       0.41333710       0.62874105       0.58227762 </v>
    <v>       0.55474480       0.53605918       0.70776643 </v>
    <v>       0.63003504       0.44025984       0.72703674 </v>
    <v>       0.68260398       0.54507228       0.69017202 </v>
    <v>       0.52788673       0.46191901       0.49999296 </v>
    <v>       0.62605968       0.34342653       0.65665809 </v>
    <v>       0.47976172       0.34676829       0.46000167 </v>
    <v>       0.55311022       0.57552076       0.36674450 </v>
    <v>       0.69512344       0.55926238       0.56596081 </v>
    <v>       0.52121187       0.41807782       0.66582819 </v>
    <v>       0.32885224       0.62224722       0.49585930 </v>
    <v>       0.38038270       0.51478512       0.53623370 </v>
    <v>       0.60764849       0.62627714       0.63665645 </v>
    <v>       0.43683869       0.41344149       0.57310319 </v>
    <v>       0.46248657       0.44800958       0.38540972 </v>
    <v>       0.52502511       0.69531548       0.56562215 </v>
    <v>       0.71051044       0.43977296       0.62241409 </v>
    <v>       0.45675984       0.52132578       0.63203019 </v>
    <v>       0.64709043       0.66895136       0.53047635 </v>
    <v>       0.25498490       0.58750541       0.40202880 </v>
   </varray>
  </structure>
  <varray name="forces" >
   <v>       0.01407058       0.00822089      -0.01858386 </v>
   <v>       0.10521099       0.31501484       0.03830691 </v>
   <v>      -0.02485357       0.08126918       0.14215176 </v>
   <v>      -0.10988407       0.32418996      -0.07134833 </v>
   <v>       0.01678294      -0.16292741       0.00458138 </v>
   <v>      -0.37295640      -0.13475051       0.10403746 </v>
   <v>       0.02749180      -0.03592012      -0.14901399 </v>
   <v>       0.08418992      -0.13386383       0.26653767 </v>
   <v>      -0.16036687       0.07147879      -0.06130401 </v>
   <v>       0.09647483       0.05875917       0.08868874 </v>
   <v>       0.03499485       0.01358546      -0.25173465 </v>
   <v>       0.12041947       0.14348592      -0.15064659 </v>
   <v>       0.38494715       0.01138471       0.09456309 </v>
   <v>       0.02900668       0.03347935       0.18709860 </v>
   <v>      -0.18177128       0.01395099       0.08390671 </v>
   <v>      -0.41412831       0.22049642       0.03625391 </v>
   <v>      -0.02284261       0.05066804       0.10932838 </v>
   <v>       0.09703427      -0.10444763      -0.14874359 </v>
   <v>      -0.00249528       0.05998429       0.06365319 </v>
   <v>       0.05063639       0.02187243      -0.13828116 </v>
   <v>      -0.00079964      -0.07320000      -0.15778292 </v>
   <v>      -0.04781109      -0.14248288      -0.15507897 </v>
   <v>       0.03225198       0.00007003      -0.02355209 </v>
   <v>       0.06452841       0.11057432      -0.01963954 </v>
   <v>      -0.04623103      -0.01453734      -0.19651828 </v>
   <v>      -0.13517549      -0.20367569      -0.02331266 </v>
   <v>      -0.17787944      -0.19278485       0.13989251 </v>
   <v>       0.05037782      -0.24495711      -0.26924989 </v>
   <v>      -0.09246606       0.06956962      -0.05179936 </v>
   <v>       0.11758982       0.11682520       0.15890824 </v>
   <v>       0.24497146      -0.28513373       0.16771831 </v>
   <v>       0.14909896      -0.26159122       0.21663135 </v>
   <v>       0.08217948       0.26751820       0.02029370 </v>
   <v>      -0.18276441       0.09040139      -0.05629921 </v>
   <v>       0.07601888      -0.06959460       0.10095886 </v>
   <v>      -0.11453837      -0.05669809      -0.05304096 </v>
   <v>       0.20868722       0.03376580      -0.02758070 </v>
  </varray>
  <varray name="stress" >
   <v>      -2.00435301       0.11566033       0.14968893 </v>
   <v>       0.11566033      -1.84134209      -0.01563423 </v>
   <v>       0.14968894      -0.01563423      -1.85489415 </v>
  </varray>
  <energy>
   <i name="e_fr_energy">    -77.41808052 </i>
   <i name="e_wo_entrp">    -77.41808052 </i>
   <i name="e_0_energy">      0.00000000 </i>
  </energy>
  <time name="totalsc">   32.78   38.78</time>
 </calculation>
 <calculation>
  <scstep>
   <time name="dav">    3.45    3.45</time>
   <time name="total">    3.80    3.81</time>
   <energy>
    <i name="alphaZ">    101.68895786 </i>
    <i name="ewald">  91492.15249831 </i>
    <i name="hartreedc">-128282.17828475 </i>
    <i name="XCdc">   -420.08777595 </i>
    <i name="pawpsdc">  39968.06940924 </i>
    <i name="pawaedc"> -38329.56784534 </i>
    <i name="eentropy">      0.00000000 </i>
    <i name="bandstr">  -2983.91848180 </i>
    <i name="atom">  38376.34931319 </i>
    <i name="e_fr_energy">    -77.49220924 </i>
    <i name="e_wo_entrp">    -77.49220924 </i>
    <i name="e_0_energy">    -77.49220924 </i>
   </energy>
  </scstep>
  <scstep>
   <time name="dav">    3.54    3.54</time>
   <time name="total">    3.88    3.89</time>
   <energy>
    <i name="e_fr_energy">    -77.51596872 </i>
    <i name="e_wo_entrp">    -77.51596872 </i>
    <i name="e_0_energy">    -77.51596872 </i>
   </energy>
  </scstep>
  <scstep>
   <time name="dav">    3.72    3.72</time>
   <time name="total">    4.06    4.07</time>
   <energy>
    <i name="e_fr_energy">    -77.51552087 </i>
    <i name="e_wo_entrp">    -77.51552087 </i>
    <i name="e_0_energy">    -77.51552087 </i>
   </energy>
  </scstep>
  <scstep>
   <time name="dav">    3.63    3.64</time>
   <time name="total">    3.98    4.02</time>
   <energy>
    <i name="e_fr_energy">    -77.51482900 </i>
    <i name="e_wo_entrp">    -77.51482900 </i>
    <i name="e_0_energy">    -77.51482900 </i>
   </energy>
  </scstep>
  <scstep>
   <time name="dav">    2.71    2.71</time>
   <time name="total">    2.93    2.96</time>
   <energy>
    <i name="alphaZ">    101.68895786 </i>
    <i name="ewald">  91492.15249831 </i>
    <i name="hartreedc">-128284.99376189 </i>
    <i name="XCdc">   -420.04117859 </i>
    <i name="pawpsdc">  39930.25854862 </i>
    <i name="pawaedc"> -38291.12122130 </i>
    <i name="eentropy">      0.00000000 </i>
    <i name="bandstr">  -2981.80802021 </i>
    <i name="atom">  38376.34931319 </i>
    <i name="e_fr_energy">    -77.51486401 </i>
    <i name="e_wo_entrp">    -77.51486401 </i>
    <i name="e_0_energy">    -77.51486401 </i>
   </energy>
  </scstep>
  <structure>
   <crystal>
    <varray name="basis" >
     <v>      22.53969028       0.00000000       0.00000000 </v>
     <v>       0.00000000      22.53969028       0.00000000 </v>
     <v>       0.00000000       0.00000000      22.53969028 </v>
    </varray>
    <i name="volume">  11451.01101392 </i>
    <varray name="rec_basis" >
     <v>       0.04436618       0.00000000       0.00000000 </v>
     <v>       0.00000000       0.04436618       0.00000000 </v>
     <v>       0.00000000       0.00000000       0.04436618 </v>
    </varray>
   </crystal>
   <varray name="positions" >
    <v>       0.49244764       0.63656341       0.67317370 </v>
    <v>       0.45940095       0.55760091       0.44757556 </v>
    <v>       0.44018592       0.68053279       0.47253104 </v>
    <v>       0.53461292       0.57670262       0.54453611 </v>
    <v>       0.47780407       0.67299048       0.35250442 </v>
    <v>       0.36635279       0.63504696       0.37791826 </v>
    <v>       0.37454541       0.40895380       0.46983772 </v>
    <v>       0.56070098       0.67299598       0.44405046 </v>
    <v>       0.55100799       0.35103172       0.56184912 </v>
    <v>       0.63123560       0.56714577       0.45905139 </v>
    <v>       0.59443180       0.46536880       0.39475407 </v>
    <v>       0.43848624       0.54936145       0.32210343 </v>
    <v>       0.59750696       0.48565539       0.60100439 </v>
    <v>       0.66801623       0.45492273       0.49462365 </v>
    <v>       0.60391103       0.35618452       0.44596419 </v>
    <v>       0.35253098       0.51052500       0.40631923 </v>
    <v>       0.67542012       0.34200329       0.54377017 </v>
    <v>       0.41354820       0.62840418       0.58203892 </v>
    <v>       0.55463411       0.53617347       0.70802316 </v>
    <v>       0.63017678       0.44027166       0.72682044 </v>
    <v>       0.68278820       0.54499587       0.68974642 </v>
    <v>       0.52805032       0.46180677       0.49975720 </v>
    <v>       0.62610452       0.34318929       0.65670312 </v>
    <v>       0.47972423       0.34651578       0.45981202 </v>
    <v>       0.55343551       0.57551383       0.36604847 </v>
    <v>       0.69505731       0.55901025       0.56580671 </v>
    <v>       0.52062269       0.41747536       0.66650828 </v>
    <v>       0.32888458       0.62171366       0.49519626 </v>
    <v>       0.38009576       0.51462505       0.53637849 </v>
    <v>       0.60797194       0.62677535       0.63726621 </v>
    <v>       0.43698805       0.41245755       0.57356853 </v>
    <v>       0.46284226       0.44752828       0.38569009 </v>
    <v>       0.52532465       0.69643764       0.56591529 </v>
    <v>       0.71051641       0.43989448       0.62249825 </v>
    <v>       0.45683610       0.52102075       0.63234248 </v>
    <v>       0.64701104       0.66893460       0.53051606 </v>
    <v>       0.25477406       0.58765492       0.40178106 </v>
   </varray>
  </structure>
  <varray name="forces" >
   <v>       0.00518747      -0.01151975      -0.04369648 </v>
   <v>       0.08204408       0.26041167       0.01210274 </v>
   <v>      -0.02170378       0.06766373       0.10976254 </v>
   <v>      -0.05890132       0.20677161      -0.03661288 </v>
   <v>      -0.02777526      -0.17893815       0.05959102 </v>
   <v>      -0.23030026      -0.08929746       0.04822642 </v>
   <v>       0.04407320       0.01050334      -0.13299661 </v>
   <v>       0.02595813      -0.14434729       0.21601527 </v>
   <v>      -0.12741698       0.06995426      -0.02374520 </v>
   <v>       0.04773632       0.02715273       0.04393315 </v>
   <v>       0.04297019       0.03346173      -0.19207243 </v>
   <v>       0.10134563       0.09350645      -0.06319945 </v>
   <v>       0.21699383       0.02533430       0.06599712 </v>
   <v>       0.00011645       0.02358950       0.15227956 </v>
   <v>      -0.16961601       0.02420505       0.08468301 </v>
   <v>      -0.28074090       0.15594452       0.05893079 </v>
   <v>      -0.04503707       0.05860213       0.09864575 </v>
   <v>       0.09968148      -0.11213458      -0.14315163 </v>
   <v>       0.01359137       0.04973537       0.04422392 </v>
   <v>       0.02898554       0.02309801      -0.14336917 </v>
   <v>      -0.00536973      -0.05757293      -0.12737293 </v>
   <v>      -0.02936219      -0.06027015      -0.11966444 </v>
   <v>       0.01192280       0.01184460      -0.03902744 </v>
   <v>       0.05022677       0.09944868      -0.01480332 </v>
   <v>      -0.03081073      -0.02251648      -0.14047921 </v>
   <v>      -0.12304089      -0.16123496      -0.02959115 </v>
   <v>      -0.10097063      -0.14526211       0.09548472 </v>
   <v>       0.07454010      -0.23064565      -0.20308807 </v>
   <v>      -0.02776457       0.01091122      -0.04879692 </v>
   <v>       0.09790924       0.11020621       0.13305709 </v>
   <v>       0.20158914      -0.20096338       0.11336639 </v>
   <v>       0.10210392      -0.14242255       0.19577006 </v>
   <v>       0.06687873       0.24211998       0.02788325 </v>
   <v>      -0.14627650       0.05357906      -0.05816763 </v>
   <v>       0.06932559      -0.06287712       0.05854253 </v>
   <v>      -0.08920783      -0.06737751      -0.02146921 </v>
   <v>       0.13111467       0.02933591      -0.03719116 </v>
  </varray>
  <varray name="stress" >
   <v>      -2.15131075       0.11424947       0.12068207 </v>
   <v>       0.11424947      -2.01676585      -0.00210627 </v>
   <v>       0.12068207      -0.00210627      -2.01695579 </v>
  </varray>
  <energy>
   <i name="e_fr_energy">    -77.51486401 </i>
   <i name="e_wo_entrp">    -77.51486401 </i>
   <i name="e_0_energy">      0.00000000 </i>
  </energy>
  <time name="totalsc">   24.89   25.26</time>
 </calculation>
 <calculation>
  <scstep>
   <time name="dav">    3.45    3.45</time>
   <time name="total">    3.79    3.81</time>
   <energy>
    <i name="alphaZ">    101.68895786 </i>
    <i name="ewald">  90730.10243560 </i>
    <i name="hartreedc">-127526.49963692 </i>
    <i name="XCdc">   -420.69792968 </i>
    <i name="pawpsdc">  39930.28120849 </i>
    <i name="pawaedc"> -38291.14333184 </i>
    <i name="eentropy">      0.00000000 </i>
    <i name="bandstr">  -2977.53048519 </i>
    <i name="atom">  38376.34931319 </i>
    <i name="e_fr_energy">    -77.44946847 </i>
    <i name="e_wo_entrp">    -77.44946847 </i>
[...]
       <r>     0.1089     0.0000   235.0000 </r>
       <r>     0.1493     0.0000   235.0000 </r>
       <r>     0.1896     0.0000   236.0000 </r>
       <r>     0.2300     0.0000   236.0000 </r>
       <r>     0.2703     0.0000   237.0000 </r>
       <r>     0.3107     0.0000   238.0000 </r>
       <r>     0.3510     0.0000   238.0000 </r>
       <r>     0.3914     0.0000   238.0000 </r>
       <r>     0.4317     0.0000   239.0000 </r>
       <r>     0.4721     0.0000   239.0000 </r>
       <r>     0.5124     0.0000   241.0000 </r>
       <r>     0.5527     0.0000   242.0000 </r>
       <r>     0.5931     0.0000   242.0000 </r>
       <r>     0.6334     0.0000   242.0000 </r>
       <r>     0.6738     0.0000   242.0000 </r>
       <r>     0.7141     0.0000   243.0000 </r>
       <r>     0.7545     2.0798   243.0839 </r>
       <r>     0.7948     0.0000   246.0000 </r>
       <r>     0.8352     0.0000   247.0000 </r>
       <r>     0.8755     0.0000   249.0000 </r>
       <r>     0.9159     0.0000   249.0000 </r>
       <r>     0.9562     0.0000   250.0000 </r>
       <r>     0.9965     0.0000   252.0000 </r>
       <r>     1.0369     0.0000   254.0000 </r>
       <r>     1.0772     0.0000   256.0000 </r>
       <r>     1.1176     0.0000   257.0000 </r>
       <r>     1.1579     0.0000   260.0000 </r>
       <r>     1.1983     0.0000   261.0000 </r>
       <r>     1.2386     0.0000   262.0000 </r>
       <r>     1.2790     0.0000   264.0000 </r>
       <r>     1.3193     0.0000   264.0000 </r>
       <r>     1.3597     0.0000   264.0000 </r>
       <r>     1.4000     0.0000   264.0000 </r>
       <r>     1.4404     0.0000   264.0000 </r>
       <r>     1.4807     0.0000   264.0000 </r>
       <r>     1.5210     0.0000   264.0000 </r>
       <r>     1.5614     0.0000   264.0000 </r>
       <r>     1.6017     0.0000   264.0000 </r>
       <r>     1.6421     0.0000   264.0000 </r>
       <r>     1.6824     0.0000   264.0000 </r>
       <r>     1.7228     0.0000   264.0000 </r>
       <r>     1.7631     0.0000   264.0000 </r>
       <r>     1.8035     0.0000   264.0000 </r>
       <r>     1.8438     0.0000   264.0000 </r>
      </set>
      <set comment="spin 2">
       <r>   -10.2599     0.0000     0.0000 </r>
       <r>   -10.2196     0.0000     0.0000 </r>
       <r>   -10.1792     0.0000     0.0000 </r>
       <r>   -10.1389     0.0000     0.0000 </r>
       <r>   -10.0985     0.0000     0.0000 </r>
       <r>   -10.0582     0.0000     0.0000 </r>
       <r>   -10.0178     0.0000     0.0000 </r>
       <r>    -9.9775     0.0000     0.0000 </r>
       <r>    -9.9372     0.0000     0.0000 </r>
       <r>    -9.8968     0.0000     0.0000 </r>
       <r>    -9.8565     0.0000     0.0000 </r>
       <r>    -9.8161     0.0000     0.0000 </r>
       <r>    -9.7758     0.0000     0.0000 </r>
       <r>    -9.7354     0.0000     0.0000 </r>
       <r>    -9.6951    13.3407     0.5382 </r>
       <r>    -9.6547     0.0000     1.0000 </r>
       <r>    -9.6144     0.0000     1.0000 </r>
       <r>    -9.5740     0.0000     1.0000 </r>
       <r>    -9.5337     0.0000     1.0000 </r>
       <r>    -9.4934     0.0000     1.0000 </r>
       <r>    -9.4530     0.0000     1.0000 </r>
       <r>    -9.4127     0.0000     1.0000 </r>
       <r>    -9.3723     0.0000     1.0000 </r>
       <r>    -9.3320     0.0000     1.0000 </r>
       <r>    -9.2916     0.0000     1.0000 </r>
       <r>    -9.2513     0.0000     2.0000 </r>
       <r>    -9.2109     0.0000     2.0000 </r>
       <r>    -9.1706     0.0000     2.0000 </r>
       <r>    -9.1302     0.0000     2.0000 </r>
       <r>    -9.0899     0.0000     4.0000 </r>
       <r>    -9.0495     0.0000     6.0000 </r>
       <r>    -9.0092     2.3036     6.0929 </r>
       <r>    -8.9689     0.0000     9.0000 </r>
       <r>    -8.9285     0.0000    11.0000 </r>
       <r>    -8.8882     0.0000    13.0000 </r>
       <r>    -8.8478     0.0000    13.0000 </r>
       <r>    -8.8075     0.0000    16.0000 </r>
       <r>    -8.7671     0.0000    18.0000 </r>
       <r>    -8.7268     0.0000    20.0000 </r>
       <r>    -8.6864     0.0000    22.0000 </r>
       <r>    -8.6461     0.0000    25.0000 </r>
       <r>    -8.6057     0.0000    26.0000 </r>
       <r>    -8.5654     0.0000    30.0000 </r>
       <r>    -8.5251     0.0000    30.0000 </r>
       <r>    -8.4847     0.0000    33.0000 </r>
       <r>    -8.4444     0.0000    33.0000 </r>
       <r>    -8.4040     0.0000    36.0000 </r>
       <r>    -8.3637     0.0000    39.0000 </r>
       <r>    -8.3233     0.0000    41.0000 </r>
       <r>    -8.2830     0.0000    44.0000 </r>
       <r>    -8.2426     0.0000    46.0000 </r>
       <r>    -8.2023     0.0000    49.0000 </r>
       <r>    -8.1619     0.0000    53.0000 </r>
       <r>    -8.1216     0.0000    55.0000 </r>
       <r>    -8.0813     0.0000    57.0000 </r>
       <r>    -8.0409     0.0000    58.0000 </r>
       <r>    -8.0006     0.0000    62.0000 </r>
       <r>    -7.9602     0.0000    64.0000 </r>
       <r>    -7.9199     0.0000    66.0000 </r>
       <r>    -7.8795     0.0000    68.0000 </r>
       <r>    -7.8392     0.0000    69.0000 </r>
       <r>    -7.7988    24.7857    73.0000 </r>
       <r>    -7.7585     0.0000    75.0000 </r>
       <r>    -7.7181    24.7857    78.0000 </r>
       <r>    -7.6778     0.0000    80.0000 </r>
       <r>    -7.6374     0.0000    82.0000 </r>
       <r>    -7.5971     0.0000    85.0000 </r>
       <r>    -7.5568     0.0000    87.0000 </r>
       <r>    -7.5164     0.0000    89.0000 </r>
       <r>    -7.4761     0.0000    91.0000 </r>
       <r>    -7.4357     0.0000    93.0000 </r>
       <r>    -7.3954     0.0000    96.0000 </r>
       <r>    -7.3550     0.0000    99.0000 </r>
       <r>    -7.3147    24.7857   102.0000 </r>
       <r>    -7.2743     0.0000   104.0000 </r>
       <r>    -7.2340     0.0000   106.0000 </r>
       <r>    -7.1936     0.0000   108.0000 </r>
       <r>    -7.1533     0.0000   111.0000 </r>
       <r>    -7.1130     0.0000   112.0000 </r>
       <r>    -7.0726     0.0000   115.0000 </r>
       <r>    -7.0323     0.0000   117.0000 </r>
       <r>    -6.9919     0.0000   121.0000 </r>
       <r>    -6.9516     0.0000   125.0000 </r>
       <r>    -6.9112     0.0000   128.0000 </r>
       <r>    -6.8709     0.0000   133.0000 </r>
       <r>    -6.8305     0.0000   138.0000 </r>
       <r>    -6.7902     0.0000   141.0000 </r>
       <r>    -6.7498    15.6752   145.6324 </r>
       <r>    -6.7095     0.0000   148.0000 </r>
       <r>    -6.6691     0.0000   152.0000 </r>
       <r>    -6.6288     0.0000   155.0000 </r>
       <r>    -6.5885     0.0000   160.0000 </r>
       <r>    -6.5481     0.0000   164.0000 </r>
       <r>    -6.5078     0.0000   168.0000 </r>
       <r>    -6.4674     0.0000   171.0000 </r>
       <r>    -6.4271     0.0000   175.0000 </r>
       <r>    -6.3867     0.0000   178.0000 </r>
       <r>    -6.3464     0.0000   179.0000 </r>
       <r>    -6.3060     0.0000   182.0000 </r>
       <r>    -6.2657     0.0000   186.0000 </r>
       <r>    -6.2253    23.3440   187.9418 </r>
       <r>    -6.1850     0.0000   190.0000 </r>
       <r>    -6.1447     0.0000   190.0000 </r>
       <r>    -6.1043     0.0000   190.0000 </r>
       <r>    -6.0640     0.0000   190.0000 </r>
       <r>    -6.0236     0.0000   190.0000 </r>
       <r>    -5.9833     0.0000   190.0000 </r>
       <r>    -5.9429     0.0000   191.0000 </r>
       <r>    -5.9026     0.0000   191.0000 </r>
       <r>    -5.8622     0.0000   191.0000 </r>
       <r>    -5.8219     0.0000   191.0000 </r>
       <r>    -5.7815     0.0000   191.0000 </r>
       <r>    -5.7412     0.0000   192.0000 </r>
       <r>    -5.7009     0.0000   192.0000 </r>
       <r>    -5.6605     0.0000   192.0000 </r>
       <r>    -5.6202     0.0000   192.0000 </r>
       <r>    -5.5798     0.0000   192.0000 </r>
       <r>    -5.5395     0.0000   192.0000 </r>
       <r>    -5.4991     0.0000   192.0000 </r>
       <r>    -5.4588     0.0000   192.0000 </r>
       <r>    -5.4184     0.0000   193.0000 </r>
       <r>    -5.3781     0.0000   193.0000 </r>
       <r>    -5.3377     0.0000   194.0000 </r>
       <r>    -5.2974     0.0000   194.0000 </r>
       <r>    -5.2570     0.0000   194.0000 </r>
       <r>    -5.2167     0.0000   194.0000 </r>
       <r>    -5.1764     0.0000   195.0000 </r>
       <r>    -5.1360     0.0000   195.0000 </r>
       <r>    -5.0957     0.0000   195.0000 </r>
       <r>    -5.0553     0.0000   195.0000 </r>
       <r>    -5.0150     0.0000   195.0000 </r>
       <r>    -4.9746     0.0000   195.0000 </r>
       <r>    -4.9343     0.0000   196.0000 </r>
       <r>    -4.8939     0.0000   196.0000 </r>
       <r>    -4.8536     0.0000   196.0000 </r>
       <r>    -4.8132     0.0000   197.0000 </r>
       <r>    -4.7729     0.0000   197.0000 </r>
       <r>    -4.7326     0.0000   197.0000 </r>
       <r>    -4.6922     0.0000   197.0000 </r>
       <r>    -4.6519     0.0000   197.0000 </r>
       <r>    -4.6115     0.0000   197.0000 </r>
       <r>    -4.5712     0.0000   197.0000 </r>
       <r>    -4.5308     0.0000   197.0000 </r>
       <r>    -4.4905     0.0000   197.0000 </r>
       <r>    -4.4501     0.0000   197.0000 </r>
       <r>    -4.4098     0.0000   197.0000 </r>
       <r>    -4.3694     0.0000   197.0000 </r>
       <r>    -4.3291     0.0000   197.0000 </r>
       <r>    -4.2887     0.0000   197.0000 </r>
       <r>    -4.2484     0.0000   198.0000 </r>
       <r>    -4.2081     0.0000   198.0000 </r>
       <r>    -4.1677     0.0000   198.0000 </r>
       <r>    -4.1274     0.0000   198.0000 </r>
       <r>    -4.0870     0.0000   199.0000 </r>
       <r>    -4.0467     0.0000   199.0000 </r>
       <r>    -4.0063     0.0000   199.0000 </r>
       <r>    -3.9660     0.0000   199.0000 </r>
       <r>    -3.9256     0.0000   200.0000 </r>
       <r>    -3.8853     0.0000   201.0000 </r>
       <r>    -3.8449     0.0000   201.0000 </r>
       <r>    -3.8046     0.0000   201.0000 </r>
       <r>    -3.7643     0.0000   201.0000 </r>
       <r>    -3.7239     0.0000   201.0000 </r>
       <r>    -3.6836     0.0000   202.0000 </r>
       <r>    -3.6432     0.0000   202.0000 </r>
       <r>    -3.6029     0.0000   202.0000 </r>
       <r>    -3.5625     0.0000   202.0000 </r>
       <r>    -3.5222     0.0000   203.0000 </r>
       <r>    -3.4818     0.0000   203.0000 </r>
       <r>    -3.4415     0.0000   203.0000 </r>
       <r>    -3.4011     0.0000   203.0000 </r>
       <r>    -3.3608     0.0000   204.0000 </r>
       <r>    -3.3205     0.0000   204.0000 </r>
       <r>    -3.2801     0.0000   205.0000 </r>
       <r>    -3.2398     0.0000   205.0000 </r>
       <r>    -3.1994     0.0000   205.0000 </r>
       <r>    -3.1591     0.0000   205.0000 </r>
       <r>    -3.1187     0.0000   205.0000 </r>
       <r>    -3.0784     0.0000   206.0000 </r>
       <r>    -3.0380     0.0000   206.0000 </r>
       <r>    -2.9977     0.0000   206.0000 </r>
       <r>    -2.9573     0.0000   206.0000 </r>
       <r>    -2.9170     0.0000   207.0000 </r>
       <r>    -2.8766     0.0000   207.0000 </r>
       <r>    -2.8363     0.0000   207.0000 </r>
       <r>    -2.7960     0.0000   208.0000 </r>
       <r>    -2.7556     0.0000   208.0000 </r>
       <r>    -2.7153     0.0000   208.0000 </r>
       <r>    -2.6749     0.0000   208.0000 </r>
       <r>    -2.6346     0.0000   209.0000 </r>
       <r>    -2.5942     0.0000   209.0000 </r>
       <r>    -2.5539     0.0000   209.0000 </r>
       <r>    -2.5135     0.0000   209.0000 </r>
       <r>    -2.4732     0.0000   210.0000 </r>
       <r>    -2.4328     0.0000   210.0000 </r>
       <r>    -2.3925     0.0000   210.0000 </r>
       <r>    -2.3522     0.0000   210.0000 </r>
       <r>    -2.3118     0.0000   210.0000 </r>
       <r>    -2.2715     0.0000   211.0000 </r>
       <r>    -2.2311     0.0000   211.0000 </r>
       <r>    -2.1908     0.0000   212.0000 </r>
       <r>    -2.1504     0.0000   212.0000 </r>
       <r>    -2.1101     0.0000   213.0000 </r>
       <r>    -2.0697     0.0000   213.0000 </r>
       <r>    -2.0294     0.0000   213.0000 </r>
       <r>    -1.9890     0.0000   213.0000 </r>
       <r>    -1.9487     0.0000   214.0000 </r>
       <r>    -1.9083     0.0000   214.0000 </r>
       <r>    -1.8680    24.7857   215.0000 </r>
       <r>    -1.8277     0.0000   216.0000 </r>
       <r>    -1.7873     0.0000   216.0000 </r>
       <r>    -1.7470     0.0000   216.0000 </r>
       <r>    -1.7066     0.0000   217.0000 </r>
       <r>    -1.6663     0.0000   217.0000 </r>
       <r>    -1.6259     0.0000   217.0000 </r>
       <r>    -1.5856     0.0000   217.0000 </r>
       <r>    -1.5452     0.0000   218.0000 </r>
       <r>    -1.5049     0.0000   219.0000 </r>
       <r>    -1.4645     0.0000   220.0000 </r>
       <r>    -1.4242     0.0000   220.0000 </r>
       <r>    -1.3839     0.0000   220.0000 </r>
       <r>    -1.3435     0.0000   221.0000 </r>
       <r>    -1.3032     0.0000   221.0000 </r>
       <r>    -1.2628     0.0000   221.0000 </r>
       <r>    -1.2225     0.0000   222.0000 </r>
       <r>    -1.1821     0.0000   222.0000 </r>
       <r>    -1.1418     0.0000   223.0000 </r>
       <r>    -1.1014     0.0000   223.0000 </r>
       <r>    -1.0611     0.0000   223.0000 </r>
       <r>    -1.0207     0.0000   223.0000 </r>
       <r>    -0.9804     0.0000   223.0000 </r>
       <r>    -0.9400     0.0000   223.0000 </r>
       <r>    -0.8997     0.0000   224.0000 </r>
       <r>    -0.8594     0.0000   224.0000 </r>
       <r>    -0.8190     0.0000   225.0000 </r>
       <r>    -0.7787     0.0000   225.0000 </r>
       <r>    -0.7383     0.0000   225.0000 </r>
       <r>    -0.6980     0.0000   225.0000 </r>
       <r>    -0.6576     0.0000   226.0000 </r>
       <r>    -0.6173     0.0000   226.0000 </r>
       <r>    -0.5769     0.0000   228.0000 </r>
       <r>    -0.5366     0.0000   228.0000 </r>
       <r>    -0.4962     0.0000   228.0000 </r>
       <r>    -0.4559     0.0000   229.0000 </r>
       <r>    -0.4156     0.0000   229.0000 </r>
       <r>    -0.3752     0.0000   229.0000 </r>
       <r>    -0.3349     0.0000   230.0000 </r>
       <r>    -0.2945     0.0000   231.0000 </r>
       <r>    -0.2542     0.0000   231.0000 </r>
       <r>    -0.2138     0.0000   231.0000 </r>
       <r>    -0.1735     0.0000   231.0000 </r>
       <r>    -0.1331     0.0000   232.0000 </r>
       <r>    -0.0928     0.0000   233.0000 </r>
       <r>    -0.0524     0.0000   233.0000 </r>
       <r>    -0.0121     0.0000   233.0000 </r>
       <r>     0.0282     0.0000   235.0000 </r>
       <r>     0.0686     0.0000   235.0000 </r>
       <r>     0.1089     0.0000   235.0000 </r>
       <r>     0.1493     0.0000   235.0000 </r>
       <r>     0.1896     0.0000   236.0000 </r>
       <r>     0.2300     0.0000   236.0000 </r>
       <r>     0.2703     0.0000   236.0000 </r>
       <r>     0.3107     0.0000   237.0000 </r>
       <r>     0.3510     0.0000   238.0000 </r>
       <r>     0.3914     0.0000   238.0000 </r>
       <r>     0.4317     0.0000   238.0000 </r>
       <r>     0.4721     0.0000   239.0000 </r>
       <r>     0.5124     0.0000   240.0000 </r>
       <r>     0.5527     0.0000   242.0000 </r>
       <r>     0.5931     0.0000   242.0000 </r>
       <r>     0.6334     0.0000   242.0000 </r>
       <r>     0.6738     0.0000   242.0000 </r>
       <r>     0.7141     0.0000   243.0000 </r>
       <r>     0.7545     0.0000   243.0000 </r>
       <r>     0.7948     0.0000   245.0000 </r>
       <r>     0.8352     0.0000   247.0000 </r>
       <r>     0.8755     0.0000   248.0000 </r>
       <r>     0.9159     0.0000   248.0000 </r>
       <r>     0.9562     0.0000   249.0000 </r>
       <r>     0.9965     0.0000   251.0000 </r>
       <r>     1.0369     0.0000   253.0000 </r>
       <r>     1.0772     0.0000   255.0000 </r>
       <r>     1.1176     0.0000   257.0000 </r>
       <r>     1.1579     0.0000   259.0000 </r>
       <r>     1.1983     0.0000   261.0000 </r>
       <r>     1.2386     0.0000   262.0000 </r>
       <r>     1.2790     0.0000   263.0000 </r>
       <r>     1.3193     0.0000   264.0000 </r>
       <r>     1.3597     0.0000   264.0000 </r>
       <r>     1.4000     0.0000   264.0000 </r>
       <r>     1.4404     0.0000   264.0000 </r>
       <r>     1.4807     0.0000   264.0000 </r>
       <r>     1.5210     0.0000   264.0000 </r>
       <r>     1.5614     0.0000   264.0000 </r>
       <r>     1.6017     0.0000   264.0000 </r>
       <r>     1.6421     0.0000   264.0000 </r>
       <r>     1.6824     0.0000   264.0000 </r>
       <r>     1.7228     0.0000   264.0000 </r>
       <r>     1.7631     0.0000   264.0000 </r>
       <r>     1.8035     0.0000   264.0000 </r>
       <r>     1.8438     0.0000   264.0000 </r>
      </set>
     </set>
    </array>
   </total>
  </dos>
 </calculation>
 <structure name="finalpos" >
  <crystal>
   <varray name="basis" >
    <v>      22.53969028       0.00000000       0.00000000 </v>
    <v>       0.00000000      22.53969028       0.00000000 </v>
    <v>       0.00000000       0.00000000      22.53969028 </v>
   </varray>
   <i name="volume">  11451.01101392 </i>
   <varray name="rec_basis" >
    <v>       0.04436618       0.00000000       0.00000000 </v>
    <v>       0.00000000       0.04436618       0.00000000 </v>
    <v>       0.00000000       0.00000000       0.04436618 </v>
   </varray>
  </crystal>
  <varray name="positions" >
   <v>       0.49637525       0.63888363       0.66436758 </v>
   <v>       0.45179467       0.57866500       0.44889006 </v>
   <v>       0.42803920       0.69862702       0.46971654 </v>
   <v>       0.54846366       0.58942160       0.55752521 </v>
   <v>       0.46901821       0.66658165       0.35433569 </v>
   <v>       0.35175475       0.64585020       0.37467529 </v>
   <v>       0.38081333       0.40221186       0.46089810 </v>
   <v>       0.55033161       0.66035820       0.44688887 </v>
   <v>       0.56557271       0.36165382       0.56000891 </v>
   <v>       0.62045759       0.55676873       0.45779344 </v>
   <v>       0.58621787       0.44808317       0.40006785 </v>
   <v>       0.42130784       0.55688906       0.31965243 </v>
   <v>       0.59451353       0.48060212       0.60854759 </v>
   <v>       0.65825415       0.44609250       0.50359744 </v>
   <v>       0.62047518       0.33886166       0.44804980 </v>
   <v>       0.34384061       0.51220815       0.40961131 </v>
   <v>       0.68652808       0.33555723       0.55328910 </v>
   <v>       0.42465468       0.61977336       0.56796656 </v>
   <v>       0.56141787       0.54600875       0.70905655 </v>
   <v>       0.62928683       0.44298548       0.72673418 </v>
   <v>       0.68696895       0.54460672       0.68669078 </v>
   <v>       0.52147410       0.48114717       0.50448636 </v>
   <v>       0.63253152       0.34051890       0.66339624 </v>
   <v>       0.49884061       0.36296562       0.45446550 </v>
   <v>       0.54135423       0.55995512       0.36400078 </v>
   <v>       0.68412144       0.55481371       0.56385744 </v>
   <v>       0.52076700       0.40555645       0.67065680 </v>
   <v>       0.33061095       0.61025814       0.48983927 </v>
   <v>       0.39062751       0.50486184       0.52993881 </v>
   <v>       0.62027165       0.64143914       0.64836462 </v>
   <v>       0.44760028       0.40088786       0.56894805 </v>
   <v>       0.46003994       0.46482657       0.39134483 </v>
   <v>       0.52029122       0.70985722       0.55833503 </v>
   <v>       0.70920951       0.43772335       0.62493327 </v>
   <v>       0.46971090       0.51424685       0.62486319 </v>
   <v>       0.64280938       0.66596062       0.52818604 </v>
   <v>       0.24763757       0.58827589       0.40000482 </v>
  </varray>
 </structure>
</modeling>
