       N       E                     dE             d eps       ncg     rms          rms(c)
DAV:   1     0.260149656980E+04    0.26015E+04   -0.55458E+04   768   0.598E+02
DAV:   2     0.552838013878E+03   -0.20487E+04   -0.18403E+04  1328   0.147E+02
DAV:   3    -0.218065241367E+02   -0.57464E+03   -0.52786E+03   984   0.875E+01
DAV:   4    -0.530264131430E+02   -0.31220E+02   -0.30839E+02   848   0.216E+01
DAV:   5    -0.534954458445E+02   -0.46903E+00   -0.46847E+00   856   0.314E+00    0.300E+01
DAV:   6    -0.220889426090E+02    0.31407E+02   -0.97876E+01   784   0.158E+01    0.154E+01
DAV:   7    -0.191186072128E+02    0.29703E+01   -0.54817E+00   816   0.436E+00    0.939E+00
DAV:   8    -0.146092180666E+02    0.45094E+01   -0.17989E+00   816   0.332E+00    0.465E+00
DAV:   9    -0.196585171889E+02   -0.50493E+01   -0.11811E+00   832   0.191E+00    0.284E+00
DAV:  10    -0.290019092551E+02   -0.93434E+01   -0.29392E+00   768   0.269E+00    0.285E+00
DAV:  11    -0.310378142990E+02   -0.20359E+01   -0.43822E-01   832   0.129E+00    0.234E+00
DAV:  12    -0.390475119267E+02   -0.80097E+01   -0.38166E+00   784   0.272E+00    0.142E+00
DAV:  13    -0.447025658615E+02   -0.56551E+01   -0.20922E+00   816   0.166E+00    0.185E+00
DAV:  14    -0.449380529783E+02   -0.23549E+00   -0.48405E-02   960   0.362E-01    0.171E+00
DAV:  15    -0.469850422453E+02   -0.20470E+01   -0.39267E-01   784   0.107E+00    0.132E+00
DAV:  16    -0.492793361645E+02   -0.22943E+01   -0.58768E-01   792   0.125E+00    0.168E+00
DAV:  17    -0.494101496131E+02   -0.13081E+00   -0.19130E-02   872   0.309E-01    0.153E+00
DAV:  18    -0.500071168373E+02   -0.59697E+00   -0.68000E-02   808   0.464E-01    0.125E+00
DAV:  19    -0.511334758039E+02   -0.11264E+01   -0.21191E-01   800   0.915E-01    0.507E-01
DAV:  20    -0.518247286661E+02   -0.69125E+00   -0.59739E-02   816   0.466E-01    0.337E-01
DAV:  21    -0.522155076331E+02   -0.39078E+00   -0.12279E-02   808   0.171E-01    0.223E-01
DAV:  22    -0.525164978490E+02   -0.30099E+00   -0.10153E-02   808   0.122E-01    0.127E-01
DAV:  23    -0.525996330941E+02   -0.83135E-01   -0.23262E-03   776   0.682E-02    0.805E-02
DAV:  24    -0.526409553358E+02   -0.41322E-01   -0.14012E-03   712   0.643E-02    0.489E-02
DAV:  25    -0.526543588503E+02   -0.13404E-01   -0.13320E-03   672   0.480E-02    0.403E-02
DAV:  26    -0.526571667300E+02   -0.28079E-02   -0.37233E-04   568   0.220E-02    0.344E-02
DAV:  27    -0.526591629132E+02   -0.19962E-02   -0.87671E-05   576   0.212E-02    0.201E-02
DAV:  28    -0.526609580225E+02   -0.17951E-02   -0.75285E-05   552   0.192E-02    0.106E-02
DAV:  29    -0.526627735297E+02   -0.18155E-02   -0.49031E-05   552   0.111E-02    0.919E-03
DAV:  30    -0.526631582347E+02   -0.38470E-03   -0.10363E-05   536   0.730E-03    0.560E-03
DAV:  31    -0.526632852922E+02   -0.12706E-03   -0.56052E-06   536   0.484E-03    0.354E-03
DAV:  32    -0.526633059012E+02   -0.20609E-04   -0.28703E-06   536   0.313E-03
   1 F= -.52663306E+02 E0= -.52663306E+02  d E =-.526633E+02  mag=     0.9990
       N       E                     dE             d eps       ncg     rms          rms(c)
DAV:   1    -0.527277996618E+02   -0.64514E-01   -0.46301E+00   808   0.422E+00    0.182E-01
DAV:   2    -0.527299622222E+02   -0.21626E-02   -0.21791E-02   832   0.406E-01    0.131E-01
DAV:   3    -0.527299055307E+02    0.56691E-04   -0.43805E-04   792   0.622E-02
   2 F= -.52729906E+02 E0= -.52729906E+02  d E =-.665996E-01  mag=     0.9995
       N       E                     dE             d eps       ncg     rms          rms(c)
DAV:   1    -0.528848098448E+02   -0.15485E+00   -0.41755E+01   784   0.127E+01    0.514E-01
DAV:   2    -0.529040672943E+02   -0.19257E-01   -0.19576E-01   824   0.122E+00    0.386E-01
DAV:   3    -0.529035775004E+02    0.48979E-03   -0.37021E-03   848   0.178E-01    0.238E-01
DAV:   4    -0.529033052353E+02    0.27227E-03   -0.18228E-03   832   0.100E-01    0.366E-02
DAV:   5    -0.529032864851E+02    0.18750E-04   -0.71349E-05   520   0.282E-02
   3 F= -.52903286E+02 E0= -.52903286E+02  d E =-.239981E+00  mag=     0.9998
       N       E                     dE             d eps       ncg     rms          rms(c)
DAV:   1    -0.530679754082E+02   -0.16467E+00   -0.16740E+02   768   0.255E+01    0.897E-01
DAV:   2    -0.531447822607E+02   -0.76807E-01   -0.77605E-01   808   0.244E+00    0.739E-01
DAV:   3    -0.531434061675E+02    0.13761E-02   -0.13332E-02   824   0.328E-01    0.506E-01
DAV:   4    -0.531419121852E+02    0.14940E-02   -0.84732E-03   832   0.201E-01    0.100E-01
DAV:   5    -0.531419057873E+02    0.63979E-05   -0.23495E-04   536   0.566E-02
   4 F= -.53141906E+02 E0= -.53141906E+02  d E =-.478600E+00  mag=     0.9999
       N       E                     dE             d eps       ncg     rms          rms(c)
DAV:   1    -0.529514164032E+02    0.19050E+00   -0.67867E+02   768   0.519E+01    0.146E+00
DAV:   2    -0.532667694692E+02   -0.31535E+00   -0.31619E+00   808   0.502E+00    0.140E+00
DAV:   3    -0.532652812869E+02    0.14882E-02   -0.50528E-02   840   0.616E-01    0.106E+00
DAV:   4    -0.532570670128E+02    0.82143E-02   -0.24103E-02   816   0.334E-01    0.445E-01
DAV:   5    -0.532574657849E+02   -0.39877E-03   -0.38493E-03   824   0.154E-01    0.140E-01
DAV:   6    -0.532573387666E+02    0.12702E-03   -0.60447E-04   824   0.485E-02    0.695E-02
DAV:   7    -0.532574221398E+02   -0.83373E-04   -0.14955E-04   536   0.294E-02
   5 F= -.53257422E+02 E0= -.53257422E+02  d E =-.594116E+00  mag=     1.0000
       N       E                     dE             d eps       ncg     rms          rms(c)
DAV:   1    -0.532539823294E+02    0.33564E-02   -0.31204E+01   768   0.110E+01    0.353E-01
DAV:   2    -0.532689446386E+02   -0.14962E-01   -0.15058E-01   840   0.106E+00    0.231E-01
DAV:   3    -0.532687494446E+02    0.19519E-03   -0.26060E-03   832   0.142E-01    0.155E-01
DAV:   4    -0.532687138440E+02    0.35601E-04   -0.12264E-03   832   0.785E-02    0.324E-02
DAV:   5    -0.532687527695E+02   -0.38926E-04   -0.35562E-05   520   0.213E-02
   6 F= -.53268753E+02 E0= -.53268753E+02  d E =-.605447E+00  mag=     1.0000
       N       E                     dE             d eps       ncg     rms          rms(c)
DAV:   1    -0.533189311666E+02   -0.50217E-01   -0.27691E+01   768   0.103E+01    0.283E-01
DAV:   2    -0.533317060230E+02   -0.12775E-01   -0.12833E-01   832   0.981E-01    0.232E-01
DAV:   3    -0.533314539434E+02    0.25208E-03   -0.20568E-03   840   0.121E-01    0.163E-01
DAV:   4    -0.533311321736E+02    0.32177E-03   -0.13078E-03   832   0.748E-02    0.429E-02
DAV:   5    -0.533311465147E+02   -0.14341E-04   -0.47751E-05   512   0.222E-02
   7 F= -.53331147E+02 E0= -.53331147E+02  d E =-.623937E-01  mag=     1.0000
       N       E                     dE             d eps       ncg     rms          rms(c)
DAV:   1    -0.533070293756E+02    0.24103E-01   -0.25062E+02   768   0.312E+01    0.776E-01
DAV:   2    -0.534232977149E+02   -0.11627E+00   -0.11660E+00   832   0.298E+00    0.678E-01
DAV:   3    -0.534217913988E+02    0.15063E-02   -0.17977E-02   832   0.357E-01    0.498E-01
DAV:   4    -0.534185327896E+02    0.32586E-02   -0.94179E-03   832   0.201E-01    0.181E-01
DAV:   5    -0.534186643777E+02   -0.13159E-03   -0.12075E-03   832   0.840E-02    0.692E-02
DAV:   6    -0.534186195476E+02    0.44830E-04   -0.18183E-04   544   0.291E-02
   8 F= -.53418620E+02 E0= -.53418620E+02  d E =-.149867E+00  mag=     1.0000
       N       E                     dE             d eps       ncg     rms          rms(c)
DAV:   1    -0.534598483327E+02   -0.41184E-01   -0.56044E+01   768   0.147E+01    0.264E-01
DAV:   2    -0.534864614850E+02   -0.26613E-01   -0.26543E-01   832   0.143E+00    0.263E-01
DAV:   3    -0.534862348378E+02    0.22665E-03   -0.42480E-03   848   0.181E-01    0.195E-01
DAV:   4    -0.534854971928E+02    0.73765E-03   -0.97573E-04   824   0.652E-02    0.118E-01
DAV:   5    -0.534853902376E+02    0.10696E-03   -0.13673E-03   832   0.761E-02    0.408E-02
DAV:   6    -0.534854184817E+02   -0.28244E-04   -0.28575E-05   512   0.118E-02
   9 F= -.53485418E+02 E0= -.53485418E+02  d E =-.667989E-01  mag=     1.0000
       N       E                     dE             d eps       ncg     rms          rms(c)
DAV:   1    -0.533768673377E+02    0.10852E+00   -0.51122E+02   768   0.449E+01    0.996E-01
DAV:   2    -0.536260227161E+02   -0.24916E+00   -0.24896E+00   832   0.443E+00    0.818E-01
DAV:   3    -0.536231857059E+02    0.28370E-02   -0.40767E-02   848   0.576E-01    0.563E-01
DAV:   4    -0.536169334466E+02    0.62523E-02   -0.94060E-03   816   0.202E-01    0.320E-01
DAV:   5    -0.536160020191E+02    0.93143E-03   -0.73219E-03   824   0.178E-01    0.969E-02
DAV:   6    -0.536161131853E+02   -0.11117E-03   -0.18563E-04   568   0.311E-02    0.557E-02
DAV:   7    -0.536162551949E+02   -0.14201E-03   -0.77007E-05   536   0.190E-02    0.211E-02
DAV:   8    -0.536163649979E+02   -0.10980E-03   -0.19416E-05   544   0.104E-02    0.701E-03
DAV:   9    -0.536164755719E+02   -0.11057E-03   -0.67215E-06   520   0.565E-03    0.256E-03
DAV:  10    -0.536165443493E+02   -0.68777E-04   -0.25763E-06   528   0.246E-03
  10 F= -.53616544E+02 E0= -.53616544E+02  d E =-.197925E+00  mag=     1.0000
       N       E                     dE             d eps       ncg     rms          rms(c)
DAV:   1    -0.524238180448E+02    0.11927E+01   -0.21363E+03   768   0.945E+01    0.325E+00
DAV:   2    -0.535437488220E+02   -0.11199E+01   -0.11237E+01   832   0.971E+00    0.191E+00
DAV:   3    -0.535337462597E+02    0.10003E-01   -0.19415E-01   848   0.133E+00    0.116E+00
DAV:   4    -0.535147234665E+02    0.19023E-01   -0.30669E-02   832   0.376E-01    0.710E-01
DAV:   5    -0.535109910710E+02    0.37324E-02   -0.21234E-02   824   0.306E-01    0.178E-01
DAV:   6    -0.535113473110E+02   -0.35624E-03   -0.51107E-04   832   0.588E-02    0.102E-01
DAV:   7    -0.535116868344E+02   -0.33952E-03   -0.79178E-05   544   0.226E-02    0.406E-02
DAV:   8    -0.535119420586E+02   -0.25522E-03   -0.26387E-05   552   0.114E-02    0.131E-02
DAV:   9    -0.535121749287E+02   -0.23287E-03   -0.10393E-05   544   0.540E-03    0.523E-03
DAV:  10    -0.535123441731E+02   -0.16924E-03   -0.66916E-06   528   0.337E-03    0.289E-03
DAV:  11    -0.535124941845E+02   -0.15001E-03   -0.57386E-06   536   0.248E-03    0.211E-03
DAV:  12    -0.535126964670E+02   -0.20228E-03   -0.14488E-05   544   0.318E-03    0.184E-03
DAV:  13    -0.535127451879E+02   -0.48721E-04   -0.19858E-06   544   0.152E-03
  11 F= -.53512745E+02 E0= -.53512745E+02  d E =-.941256E-01  mag=     1.0000
       N       E                     dE             d eps       ncg     rms          rms(c)
DAV:   1    -0.531266426036E+02    0.38605E+00   -0.10864E+03   768   0.662E+01    0.153E+00
DAV:   2    -0.536596965705E+02   -0.53305E+00   -0.52738E+00   832   0.645E+00    0.130E+00
DAV:   3    -0.536552203172E+02    0.44763E-02   -0.83579E-02   848   0.782E-01    0.931E-01
DAV:   4    -0.536421379863E+02    0.13082E-01   -0.19273E-02   816   0.294E-01    0.551E-01
DAV:   5    -0.536399377002E+02    0.22003E-02   -0.14922E-02   832   0.254E-01    0.167E-01
DAV:   6    -0.536400942681E+02   -0.15657E-03   -0.29089E-04   592   0.445E-02    0.919E-02
DAV:   7    -0.536402430393E+02   -0.14877E-03   -0.15687E-04   544   0.282E-02    0.355E-02
DAV:   8    -0.536403585271E+02   -0.11549E-03   -0.41421E-05   544   0.159E-02    0.144E-02
DAV:   9    -0.536404951796E+02   -0.13665E-03   -0.12611E-05   520   0.829E-03    0.440E-03
DAV:  10    -0.536405763927E+02   -0.81213E-04   -0.40208E-06   544   0.342E-03
  12 F= -.53640576E+02 E0= -.53640576E+02  d E =-.221957E+00  mag=     1.0000
       N       E                     dE             d eps       ncg     rms          rms(c)
DAV:   1    -0.536641294902E+02   -0.23634E-01   -0.74236E+01   768   0.169E+01    0.308E-01
DAV:   2    -0.536994680858E+02   -0.35339E-01   -0.34685E-01   824   0.164E+00    0.288E-01
DAV:   3    -0.536990856613E+02    0.38242E-03   -0.55182E-03   856   0.207E-01    0.214E-01
DAV:   4    -0.536980465564E+02    0.10391E-02   -0.13446E-03   832   0.759E-02    0.123E-01
DAV:   5    -0.536978129477E+02    0.23361E-03   -0.16723E-03   832   0.840E-02    0.397E-02
DAV:   6    -0.536978368026E+02   -0.23855E-04   -0.33191E-05   528   0.132E-02
  13 F= -.53697837E+02 E0= -.53697837E+02  d E =-.572604E-01  mag=     1.0000
       N       E                     dE             d eps       ncg     rms          rms(c)
DAV:   1    -0.534710972479E+02    0.22672E+00   -0.68197E+02   768   0.520E+01    0.131E+00
DAV:   2    -0.538100319688E+02   -0.33893E+00   -0.33494E+00   832   0.514E+00    0.901E-01
DAV:   3    -0.538051761362E+02    0.48558E-02   -0.55706E-02   848   0.689E-01    0.597E-01
DAV:   4    -0.537971733211E+02    0.80028E-02   -0.12445E-02   832   0.234E-01    0.321E-01
DAV:   5    -0.537958487621E+02    0.13246E-02   -0.75208E-03   832   0.182E-01    0.881E-02
DAV:   6    -0.537960656794E+02   -0.21692E-03   -0.18331E-04   576   0.323E-02    0.512E-02
DAV:   7    -0.537963155277E+02   -0.24985E-03   -0.57686E-05   560   0.160E-02    0.200E-02
DAV:   8    -0.537965360373E+02   -0.22051E-03   -0.16813E-05   544   0.866E-03    0.628E-03
DAV:   9    -0.537967435292E+02   -0.20749E-03   -0.63780E-06   536   0.440E-03    0.273E-03
DAV:  10    -0.537968822994E+02   -0.13877E-03   -0.29393E-06   536   0.223E-03    0.182E-03
DAV:  11    -0.537970262637E+02   -0.14396E-03   -0.27368E-06   528   0.171E-03    0.122E-03
DAV:  12    -0.537971932652E+02   -0.16700E-03   -0.49503E-06   544   0.179E-03    0.825E-04
DAV:  13    -0.537972540940E+02   -0.60829E-04   -0.11761E-06   536   0.103E-03
  14 F= -.53797254E+02 E0= -.53797254E+02  d E =-.156678E+00  mag=     1.0000
       N       E                     dE             d eps       ncg     rms          rms(c)
DAV:   1    -0.537847741319E+02    0.12419E-01   -0.32095E+01   768   0.111E+01    0.216E-01
DAV:   2    -0.537998619574E+02   -0.15088E-01   -0.14882E-01   824   0.107E+00    0.200E-01
DAV:   3    -0.537996761634E+02    0.18579E-03   -0.23643E-03   856   0.136E-01    0.148E-01
DAV:   4    -0.537991865693E+02    0.48959E-03   -0.77069E-04   816   0.569E-02    0.769E-02
DAV:   5    -0.537991218587E+02    0.64711E-04   -0.58137E-04   840   0.505E-02
  15 F= -.53799122E+02 E0= -.53799122E+02  d E =-.158545E+00  mag=     1.0000
       N       E                     dE             d eps       ncg     rms          rms(c)
DAV:   1    -0.538152046344E+02   -0.16018E-01   -0.99530E+01   768   0.196E+01    0.362E-01
DAV:   2    -0.538615502248E+02   -0.46346E-01   -0.45913E-01   824   0.188E+00    0.353E-01
DAV:   3    -0.538611461409E+02    0.40408E-03   -0.73418E-03   840   0.239E-01    0.260E-01
DAV:   4    -0.538598230141E+02    0.13231E-02   -0.17769E-03   832   0.908E-02    0.156E-01
DAV:   5    -0.538595809981E+02    0.24202E-03   -0.22074E-03   808   0.977E-02    0.517E-02
DAV:   6    -0.538596002655E+02   -0.19267E-04   -0.48223E-05   512   0.155E-02
  16 F= -.53859600E+02 E0= -.53859600E+02  d E =-.604784E-01  mag=     1.0000
       N       E                     dE             d eps       ncg     rms          rms(c)
DAV:   1    -0.537444573720E+02    0.11512E+00   -0.34489E+02   768   0.367E+01    0.751E-01
DAV:   2    -0.539060340557E+02   -0.16158E+00   -0.16074E+00   824   0.353E+00    0.665E-01
DAV:   3    -0.539041857397E+02    0.18483E-02   -0.25926E-02   840   0.453E-01    0.473E-01
DAV:   4    -0.538998260340E+02    0.43597E-02   -0.61928E-03   808   0.169E-01    0.277E-01
DAV:   5    -0.538990723850E+02    0.75365E-03   -0.57502E-03   824   0.159E-01    0.843E-02
DAV:   6    -0.538991361885E+02   -0.63803E-04   -0.12199E-04   536   0.252E-02
  17 F= -.53899136E+02 E0= -.53899136E+02  d E =-.100014E+00  mag=     1.0000
       N       E                     dE             d eps       ncg     rms          rms(c)
DAV:   1    -0.539030191065E+02   -0.39467E-02   -0.13294E+02   768   0.227E+01    0.434E-01
DAV:   2    -0.539657306676E+02   -0.62712E-01   -0.62405E-01   832   0.219E+00    0.418E-01
DAV:   3    -0.539651210036E+02    0.60966E-03   -0.10092E-02   864   0.280E-01    0.304E-01
DAV:   4    -0.539633061180E+02    0.18149E-02   -0.25713E-03   816   0.108E-01    0.179E-01
DAV:   5    -0.539630464935E+02    0.25962E-03   -0.27374E-03   832   0.109E-01    0.596E-02
DAV:   6    -0.539631165322E+02   -0.70039E-04   -0.66511E-05   544   0.177E-02
  18 F= -.53963117E+02 E0= -.53963117E+02  d E =-.639803E-01  mag=     1.0000
       N       E                     dE             d eps       ncg     rms          rms(c)
DAV:   1    -0.538960140680E+02    0.67032E-01   -0.20590E+02   768   0.283E+01    0.569E-01
DAV:   2    -0.539931340165E+02   -0.97120E-01   -0.97044E-01   816   0.274E+00    0.514E-01
DAV:   3    -0.539919696650E+02    0.11644E-02   -0.15770E-02   848   0.351E-01    0.367E-01
DAV:   4    -0.539892377063E+02    0.27320E-02   -0.40865E-03   824   0.136E-01    0.208E-01
DAV:   5    -0.539889250485E+02    0.31266E-03   -0.35001E-03   832   0.124E-01    0.667E-02
DAV:   6    -0.539890549124E+02   -0.12986E-03   -0.96652E-05   560   0.211E-02    0.393E-02
DAV:   7    -0.539892079125E+02   -0.15300E-03   -0.63562E-05   536   0.166E-02    0.146E-02
DAV:   8    -0.539893393230E+02   -0.13141E-03   -0.17096E-05   544   0.953E-03    0.438E-03
DAV:   9    -0.539894637325E+02   -0.12441E-03   -0.56877E-06   520   0.499E-03    0.219E-03
DAV:  10    -0.539895357971E+02   -0.72065E-04   -0.18514E-06   544   0.216E-03
  19 F= -.53989536E+02 E0= -.53989536E+02  d E =-.903996E-01  mag=     1.0000
       N       E                     dE             d eps       ncg     rms          rms(c)
DAV:   1    -0.539590231536E+02    0.30441E-01   -0.19797E+02   768   0.277E+01    0.556E-01
DAV:   2    -0.540532227695E+02   -0.94200E-01   -0.94629E-01   832   0.271E+00    0.495E-01
DAV:   3    -0.540520342718E+02    0.11885E-02   -0.15487E-02   848   0.355E-01    0.353E-01
DAV:   4    -0.540494128610E+02    0.26214E-02   -0.36464E-03   824   0.126E-01    0.203E-01
DAV:   5    -0.540489179338E+02    0.49493E-03   -0.37379E-03   832   0.126E-01    0.633E-02
DAV:   6    -0.540489785344E+02   -0.60601E-04   -0.10538E-04   568   0.228E-02
  20 F= -.54048979E+02 E0= -.54048979E+02  d E =-.594427E-01  mag=     1.0000
       N       E                     dE             d eps       ncg     rms          rms(c)
DAV:   1    -0.539917864664E+02    0.57131E-01   -0.14547E+02   768   0.237E+01    0.477E-01
DAV:   2    -0.540610514990E+02   -0.69265E-01   -0.69353E-01   808   0.231E+00    0.425E-01
DAV:   3    -0.540601999431E+02    0.85156E-03   -0.11331E-02   840   0.303E-01    0.303E-01
DAV:   4    -0.540582842814E+02    0.19157E-02   -0.28694E-03   816   0.112E-01    0.170E-01
DAV:   5    -0.540580629949E+02    0.22129E-03   -0.26718E-03   824   0.107E-01    0.550E-02
DAV:   6    -0.540581393394E+02   -0.76345E-04   -0.86752E-05   536   0.203E-02
  21 F= -.54058139E+02 E0= -.54058139E+02  d E =-.686035E-01  mag=     1.0000
       N       E                     dE             d eps       ncg     rms          rms(c)
DAV:   1    -0.540158254305E+02    0.42238E-01   -0.16853E+02   768   0.255E+01    0.562E-01
DAV:   2    -0.540978726668E+02   -0.82047E-01   -0.81563E-01   824   0.249E+00    0.488E-01
DAV:   3    -0.540968792691E+02    0.99340E-03   -0.13010E-02   848   0.316E-01    0.344E-01
DAV:   4    -0.540945774806E+02    0.23018E-02   -0.44943E-03   824   0.142E-01    0.173E-01
DAV:   5    -0.540945803765E+02   -0.28959E-05   -0.20852E-03   832   0.987E-02    0.600E-02
DAV:   6    -0.540946914218E+02   -0.11105E-03   -0.11076E-04   568   0.220E-02    0.346E-02
DAV:   7    -0.540948344836E+02   -0.14306E-03   -0.58039E-05   544   0.163E-02    0.119E-02
DAV:   8    -0.540949549282E+02   -0.12044E-03   -0.12792E-05   536   0.813E-03    0.336E-03
DAV:   9    -0.540950603121E+02   -0.10538E-03   -0.45080E-06   536   0.450E-03    0.181E-03
DAV:  10    -0.540951259166E+02   -0.65605E-04   -0.13844E-06   536   0.202E-03
  22 F= -.54095126E+02 E0= -.54095126E+02  d E =-.369866E-01  mag=     1.0000
       N       E                     dE             d eps       ncg     rms          rms(c)
DAV:   1    -0.540903367181E+02    0.47236E-02   -0.15948E+01   792   0.781E+00    0.164E-01
DAV:   2    -0.540979752589E+02   -0.76385E-02   -0.75824E-02   816   0.757E-01    0.149E-01
DAV:   3    -0.540978855895E+02    0.89669E-04   -0.11932E-03   856   0.942E-02    0.108E-01
DAV:   4    -0.540976571562E+02    0.22843E-03   -0.46578E-04   824   0.456E-02    0.525E-02
DAV:   5    -0.540976603900E+02   -0.32338E-05   -0.19302E-04   528   0.317E-02
  23 F= -.54097660E+02 E0= -.54097660E+02  d E =-.395211E-01  mag=     1.0000
       N       E                     dE             d eps       ncg     rms          rms(c)
DAV:   1    -0.540832330057E+02    0.14424E-01   -0.10354E+02   768   0.200E+01    0.415E-01
DAV:   2    -0.541326670430E+02   -0.49434E-01   -0.48735E-01   816   0.191E+00    0.344E-01
DAV:   3    -0.541320309907E+02    0.63605E-03   -0.75099E-03   848   0.231E-01    0.249E-01
DAV:   4    -0.541306814836E+02    0.13495E-02   -0.27897E-03   832   0.112E-01    0.111E-01
DAV:   5    -0.541306731795E+02    0.83041E-05   -0.10542E-03   832   0.714E-02    0.414E-02
DAV:   6    -0.541307229640E+02   -0.49784E-04   -0.60556E-05   536   0.167E-02
  24 F= -.54130723E+02 E0= -.54130723E+02  d E =-.330626E-01  mag=     1.0000
       N       E                     dE             d eps       ncg     rms          rms(c)
DAV:   1    -0.540974115524E+02    0.33262E-01   -0.83173E+01   768   0.179E+01    0.374E-01
DAV:   2    -0.541369740938E+02   -0.39563E-01   -0.39093E-01   808   0.171E+00    0.310E-01
DAV:   3    -0.541364679985E+02    0.50610E-03   -0.60270E-03   848   0.207E-01    0.224E-01
DAV:   4    -0.541353790456E+02    0.10890E-02   -0.23241E-03   816   0.102E-01    0.991E-02
DAV:   5    -0.541354131035E+02   -0.34058E-04   -0.82974E-04   824   0.638E-02
  25 F= -.54135413E+02 E0= -.54135413E+02  d E =-.377527E-01  mag=     1.0000
       N       E                     dE             d eps       ncg     rms          rms(c)
DAV:   1    -0.541297925019E+02    0.55865E-02   -0.50673E+01   768   0.139E+01    0.233E-01
DAV:   2    -0.541540296519E+02   -0.24237E-01   -0.23818E-01   832   0.134E+00    0.228E-01
DAV:   3    -0.541538581122E+02    0.17154E-03   -0.35914E-03   856   0.160E-01    0.173E-01
DAV:   4    -0.541532410538E+02    0.61706E-03   -0.79257E-04   824   0.615E-02    0.105E-01
DAV:   5    -0.541531539800E+02    0.87074E-04   -0.11967E-03   832   0.707E-02    0.362E-02
DAV:   6    -0.541532265149E+02   -0.72535E-04   -0.19879E-05   536   0.101E-02
  26 F= -.54153227E+02 E0= -.54153227E+02  d E =-.178134E-01  mag=     1.0000
       N       E                     dE             d eps       ncg     rms          rms(c)
DAV:   1    -0.540553769754E+02    0.97777E-01   -0.24173E+02   768   0.305E+01    0.553E-01
DAV:   2    -0.541710002564E+02   -0.11562E+00   -0.11407E+00   824   0.294E+00    0.514E-01
DAV:   3    -0.541698317492E+02    0.11685E-02   -0.17356E-02   848   0.354E-01    0.380E-01
DAV:   4    -0.541667264150E+02    0.31053E-02   -0.38703E-03   832   0.135E-01    0.230E-01
DAV:   5    -0.541660123719E+02    0.71404E-03   -0.48299E-03   832   0.142E-01    0.728E-02
DAV:   6    -0.541661608759E+02   -0.14850E-03   -0.74883E-05   536   0.203E-02    0.455E-02
DAV:   7    -0.541663699380E+02   -0.20906E-03   -0.63038E-05   544   0.161E-02    0.164E-02
DAV:   8    -0.541665280123E+02   -0.15807E-03   -0.16686E-05   544   0.934E-03    0.512E-03
DAV:   9    -0.541666937487E+02   -0.16574E-03   -0.63948E-06   528   0.488E-03    0.228E-03
DAV:  10    -0.541667955623E+02   -0.10181E-03   -0.19343E-06   536   0.216E-03    0.142E-03
DAV:  11    -0.541668900660E+02   -0.94504E-04   -0.15775E-06   528   0.142E-03
  27 F= -.54166890E+02 E0= -.54166890E+02  d E =-.314770E-01  mag=     1.0000
       N       E                     dE             d eps       ncg     rms          rms(c)
DAV:   1    -0.541685240211E+02   -0.17285E-02   -0.59534E+01   768   0.152E+01    0.276E-01
DAV:   2    -0.541965680645E+02   -0.28044E-01   -0.27557E-01   824   0.144E+00    0.262E-01
DAV:   3    -0.541962999397E+02    0.26812E-03   -0.41604E-03   864   0.171E-01    0.200E-01
DAV:   4    -0.541954497806E+02    0.85016E-03   -0.13003E-03   832   0.779E-02    0.106E-01
DAV:   5    -0.541953414948E+02    0.10829E-03   -0.10780E-03   832   0.683E-02    0.380E-02
DAV:   6    -0.541953597316E+02   -0.18237E-04   -0.24643E-05   512   0.110E-02
  28 F= -.54195360E+02 E0= -.54195360E+02  d E =-.284697E-01  mag=     1.0000
       N       E                     dE             d eps       ncg     rms          rms(c)
DAV:   1    -0.541175524146E+02    0.77789E-01   -0.21247E+02   768   0.287E+01    0.542E-01
DAV:   2    -0.542182320672E+02   -0.10068E+00   -0.98852E-01   816   0.274E+00    0.500E-01
DAV:   3    -0.542172891507E+02    0.94292E-03   -0.14954E-02   848   0.324E-01    0.374E-01
DAV:   4    -0.542144634554E+02    0.28257E-02   -0.43051E-03   832   0.142E-01    0.205E-01
DAV:   5    -0.542141094384E+02    0.35402E-03   -0.35203E-03   824   0.123E-01    0.688E-02
DAV:   6    -0.542141675690E+02   -0.58131E-04   -0.74100E-05   520   0.194E-02
  29 F= -.54214168E+02 E0= -.54214168E+02  d E =-.472775E-01  mag=     1.0000
       N       E                     dE             d eps       ncg     rms          rms(c)
DAV:   1    -0.542089810282E+02    0.51284E-02   -0.68269E+01   768   0.162E+01    0.295E-01
DAV:   2    -0.542411190844E+02   -0.32138E-01   -0.31520E-01   824   0.154E+00    0.262E-01
DAV:   3    -0.542407830035E+02    0.33608E-03   -0.46330E-03   864   0.178E-01    0.198E-01
DAV:   4    -0.542399242650E+02    0.85874E-03   -0.15939E-03   824   0.842E-02    0.962E-02
DAV:   5    -0.542399352537E+02   -0.10989E-04   -0.94905E-04   832   0.647E-02
  30 F= -.54239935E+02 E0= -.54239935E+02  d E =-.257677E-01  mag=     1.0000
       N       E                     dE             d eps       ncg     rms          rms(c)
DAV:   1    -0.541934138613E+02    0.46510E-01   -0.12569E+02   768   0.220E+01    0.420E-01
DAV:   2    -0.542522703903E+02   -0.58857E-01   -0.58202E-01   832   0.209E+00    0.353E-01
DAV:   3    -0.542515419195E+02    0.72847E-03   -0.85908E-03   864   0.242E-01    0.263E-01
DAV:   4    -0.542499681296E+02    0.15738E-02   -0.29742E-03   824   0.115E-01    0.122E-01
DAV:   5    -0.542499311299E+02    0.37000E-04   -0.14394E-03   832   0.801E-02    0.439E-02
DAV:   6    -0.542499748445E+02   -0.43715E-04   -0.45945E-05   528   0.154E-02
  31 F= -.54249975E+02 E0= -.54249975E+02  d E =-.358073E-01  mag=     1.0000
       N       E                     dE             d eps       ncg     rms          rms(c)
DAV:   1    -0.542464642337E+02    0.34669E-02   -0.49134E+01   768   0.137E+01    0.259E-01
DAV:   2    -0.542693213827E+02   -0.22857E-01   -0.22657E-01   824   0.130E+00    0.232E-01
DAV:   3    -0.542690508188E+02    0.27056E-03   -0.33928E-03   848   0.155E-01    0.172E-01
DAV:   4    -0.542684036000E+02    0.64722E-03   -0.11577E-03   832   0.715E-02    0.848E-02
DAV:   5    -0.542684033971E+02    0.20298E-06   -0.68677E-04   840   0.549E-02
  32 F= -.54268403E+02 E0= -.54268403E+02  d E =-.184286E-01  mag=     1.0000
       N       E                     dE             d eps       ncg     rms          rms(c)
DAV:   1    -0.542381344281E+02    0.30269E-01   -0.83133E+01   768   0.179E+01    0.349E-01
DAV:   2    -0.542770287324E+02   -0.38894E-01   -0.38564E-01   824   0.170E+00    0.300E-01
DAV:   3    -0.542765709592E+02    0.45777E-03   -0.58022E-03   848   0.203E-01    0.219E-01
DAV:   4    -0.542755220384E+02    0.10489E-02   -0.19350E-03   824   0.928E-02    0.105E-01
DAV:   5    -0.542755035844E+02    0.18454E-04   -0.10138E-03   840   0.671E-02    0.374E-02
DAV:   6    -0.542755477671E+02   -0.44183E-04   -0.33381E-05   520   0.129E-02
  33 F= -.54275548E+02 E0= -.54275548E+02  d E =-.255729E-01  mag=     1.0000
       N       E                     dE             d eps       ncg     rms          rms(c)
DAV:   1    -0.542683476100E+02    0.71560E-02   -0.51115E+01   768   0.140E+01    0.265E-01
DAV:   2    -0.542926809365E+02   -0.24333E-01   -0.24211E-01   816   0.134E+00    0.231E-01
DAV:   3    -0.542923371827E+02    0.34375E-03   -0.36401E-03   856   0.160E-01    0.173E-01
DAV:   4    -0.542915697771E+02    0.76741E-03   -0.11682E-03   832   0.724E-02    0.841E-02
DAV:   5    -0.542914981047E+02    0.71672E-04   -0.73093E-04   832   0.560E-02
  34 F= -.54291498E+02 E0= -.54291498E+02  d E =-.159503E-01  mag=     1.0000
       N       E                     dE             d eps       ncg     rms          rms(c)
DAV:   1    -0.542627133225E+02    0.28856E-01   -0.73785E+01   768   0.168E+01    0.331E-01
DAV:   2    -0.542980769547E+02   -0.35364E-01   -0.35166E-01   808   0.162E+00    0.278E-01
DAV:   3    -0.542976400813E+02    0.43687E-03   -0.53175E-03   848   0.193E-01    0.204E-01
DAV:   4    -0.542966646103E+02    0.97547E-03   -0.16662E-03   816   0.871E-02    0.967E-02
DAV:   5    -0.542966667156E+02   -0.21054E-05   -0.92175E-04   824   0.634E-02
  35 F= -.54296667E+02 E0= -.54296667E+02  d E =-.211189E-01  mag=     1.0000
       N       E                     dE             d eps       ncg     rms          rms(c)
DAV:   1    -0.542815812918E+02    0.15083E-01   -0.63108E+01   768   0.155E+01    0.292E-01
DAV:   2    -0.543117851714E+02   -0.30204E-01   -0.29605E-01   808   0.148E+00    0.249E-01
DAV:   3    -0.543114240066E+02    0.36116E-03   -0.43484E-03   872   0.172E-01    0.189E-01
DAV:   4    -0.543106036190E+02    0.82039E-03   -0.16023E-03   808   0.829E-02    0.840E-02
DAV:   5    -0.543106864559E+02   -0.82837E-04   -0.76509E-04   824   0.576E-02
  36 F= -.54310686E+02 E0= -.54310686E+02  d E =-.140197E-01  mag=     1.0000
       N       E                     dE             d eps       ncg     rms          rms(c)
DAV:   1    -0.542839289878E+02    0.26675E-01   -0.66544E+01   768   0.159E+01    0.304E-01
DAV:   2    -0.543157751654E+02   -0.31846E-01   -0.31217E-01   824   0.152E+00    0.256E-01
DAV:   3    -0.543153575020E+02    0.41766E-03   -0.45726E-03   856   0.176E-01    0.193E-01
DAV:   4    -0.543144787918E+02    0.87871E-03   -0.17488E-03   816   0.861E-02    0.835E-02
DAV:   5    -0.543145505586E+02   -0.71767E-04   -0.73837E-04   832   0.568E-02
  37 F= -.54314551E+02 E0= -.54314551E+02  d E =-.178838E-01  mag=     1.0000
       N       E                     dE             d eps       ncg     rms          rms(c)
DAV:   1    -0.543054359971E+02    0.90428E-02   -0.48871E+01   768   0.136E+01    0.227E-01
DAV:   2    -0.543286147456E+02   -0.23179E-01   -0.22748E-01   824   0.130E+00    0.224E-01
DAV:   3    -0.543284249564E+02    0.18979E-03   -0.33733E-03   848   0.153E-01    0.172E-01
DAV:   4    -0.543278067698E+02    0.61819E-03   -0.85049E-04   816   0.620E-02    0.101E-01
DAV:   5    -0.543277890890E+02    0.17681E-04   -0.10692E-03   832   0.658E-02    0.357E-02
DAV:   6    -0.543278948830E+02   -0.10579E-03   -0.15262E-05   544   0.914E-03    0.224E-02
DAV:   7    -0.543280071507E+02   -0.11227E-03   -0.18861E-05   528   0.851E-03    0.804E-03
DAV:   8    -0.543281033693E+02   -0.96219E-04   -0.75732E-06   544   0.595E-03
  38 F= -.54328103E+02 E0= -.54328103E+02  d E =-.135528E-01  mag=     1.0000
       N       E                     dE             d eps       ncg     rms          rms(c)
DAV:   1    -0.542496762555E+02    0.78331E-01   -0.20087E+02   768   0.277E+01    0.485E-01
DAV:   2    -0.543450091755E+02   -0.95333E-01   -0.93625E-01   824   0.265E+00    0.467E-01
DAV:   3    -0.543440274818E+02    0.98169E-03   -0.13917E-02   856   0.309E-01    0.354E-01
DAV:   4    -0.543412105877E+02    0.28169E-02   -0.34510E-03   824   0.125E-01    0.210E-01
DAV:   5    -0.543405679993E+02    0.64259E-03   -0.39407E-03   824   0.126E-01    0.694E-02
DAV:   6    -0.543407026590E+02   -0.13466E-03   -0.47304E-05   520   0.173E-02    0.435E-02
DAV:   7    -0.543408544551E+02   -0.15180E-03   -0.44175E-05   552   0.133E-02    0.160E-02
DAV:   8    -0.543409672828E+02   -0.11283E-03   -0.17643E-05   528   0.921E-03    0.413E-03
DAV:   9    -0.543410683835E+02   -0.10110E-03   -0.45720E-06   544   0.425E-03    0.211E-03
DAV:  10    -0.543411225810E+02   -0.54197E-04   -0.11074E-06   520   0.181E-03
  39 F= -.54341123E+02 E0= -.54341123E+02  d E =-.265720E-01  mag=     1.0000
       N       E                     dE             d eps       ncg     rms          rms(c)
DAV:   1    -0.543399679871E+02    0.11004E-02   -0.41238E+01   768   0.126E+01    0.227E-01
DAV:   2    -0.543594317413E+02   -0.19464E-01   -0.19096E-01   832   0.120E+00    0.212E-01
DAV:   3    -0.543592396671E+02    0.19207E-03   -0.29160E-03   856   0.144E-01    0.158E-01
DAV:   4    -0.543586544193E+02    0.58525E-03   -0.84078E-04   832   0.610E-02    0.859E-02
DAV:   5    -0.543585818305E+02    0.72589E-04   -0.74674E-04   832   0.562E-02
  40 F= -.54358582E+02 E0= -.54358582E+02  d E =-.174592E-01  mag=     1.0000
       N       E                     dE             d eps       ncg     rms          rms(c)
DAV:   1    -0.542125676296E+02    0.14609E+00   -0.33968E+02   768   0.363E+01    0.776E-01
DAV:   2    -0.543757412571E+02   -0.16317E+00   -0.16202E+00   832   0.351E+00    0.616E-01
DAV:   3    -0.543737590865E+02    0.19822E-02   -0.25365E-02   848   0.432E-01    0.432E-01
DAV:   4    -0.543696502021E+02    0.41089E-02   -0.63004E-03   832   0.168E-01    0.232E-01
DAV:   5    -0.543691573958E+02    0.49281E-03   -0.41729E-03   824   0.134E-01    0.698E-02
DAV:   6    -0.543693533520E+02   -0.19596E-03   -0.90042E-05   544   0.224E-02    0.416E-02
DAV:   7    -0.543695620160E+02   -0.20866E-03   -0.61074E-05   552   0.159E-02    0.143E-02
DAV:   8    -0.543697020330E+02   -0.14002E-03   -0.14395E-05   536   0.865E-03    0.439E-03
DAV:   9    -0.543698172702E+02   -0.11524E-03   -0.53137E-06   536   0.430E-03    0.209E-03
DAV:  10    -0.543698698584E+02   -0.52588E-04   -0.14058E-06   520   0.186E-03
  41 F= -.54369870E+02 E0= -.54369870E+02  d E =-.287473E-01  mag=     1.0000
       N       E                     dE             d eps       ncg     rms          rms(c)
DAV:   1    -0.543587695353E+02    0.11048E-01   -0.32143E+01   768   0.111E+01    0.195E-01
DAV:   2    -0.543735996059E+02   -0.14830E-01   -0.14745E-01   832   0.105E+00    0.186E-01
DAV:   3    -0.543734438418E+02    0.15576E-03   -0.22318E-03   864   0.126E-01    0.140E-01
DAV:   4    -0.543730057296E+02    0.43811E-03   -0.64413E-04   824   0.534E-02    0.771E-02
DAV:   5    -0.543729503073E+02    0.55422E-04   -0.60772E-04   832   0.506E-02
  42 F= -.54372950E+02 E0= -.54372950E+02  d E =-.318277E-01  mag=     1.0000
       N       E                     dE             d eps       ncg     rms          rms(c)
DAV:   1    -0.543754823019E+02   -0.24766E-02   -0.16885E+01   776   0.797E+00    0.121E-01
DAV:   2    -0.543833648709E+02   -0.78826E-02   -0.77264E-02   832   0.761E-01    0.133E-01
DAV:   3    -0.543832949223E+02    0.69949E-04   -0.11591E-03   864   0.906E-02    0.107E-01
DAV:   4    -0.543830526491E+02    0.24227E-03   -0.21014E-04   576   0.316E-02    0.727E-02
DAV:   5    -0.543829233909E+02    0.12926E-03   -0.71313E-04   832   0.549E-02    0.241E-02
DAV:   6    -0.543829290612E+02   -0.56704E-05   -0.62868E-06   512   0.620E-03
  43 F= -.54382929E+02 E0= -.54382929E+02  d E =-.997875E-02  mag=     1.0000
       N       E                     dE             d eps       ncg     rms          rms(c)
DAV:   1    -0.543357850806E+02    0.47138E-01   -0.15318E+02   768   0.241E+01    0.429E-01
DAV:   2    -0.544090687759E+02   -0.73284E-01   -0.72369E-01   832   0.233E+00    0.398E-01
DAV:   3    -0.544082338379E+02    0.83494E-03   -0.11109E-02   864   0.283E-01    0.295E-01
DAV:   4    -0.544061811441E+02    0.20527E-02   -0.23172E-03   832   0.101E-01    0.182E-01
DAV:   5    -0.544055815514E+02    0.59959E-03   -0.32320E-03   832   0.114E-01    0.556E-02
DAV:   6    -0.544056806862E+02   -0.99135E-04   -0.37617E-05   528   0.152E-02
  44 F= -.54405681E+02 E0= -.54405681E+02  d E =-.327304E-01  mag=     1.0000
       N       E                     dE             d eps       ncg     rms          rms(c)
DAV:   1    -0.541138789733E+02    0.29170E+00   -0.63113E+02   768   0.494E+01    0.118E+00
DAV:   2    -0.544374851287E+02   -0.32361E+00   -0.31821E+00   832   0.494E+00    0.845E-01
DAV:   3    -0.544339180253E+02    0.35671E-02   -0.51405E-02   848   0.621E-01    0.577E-01
DAV:   4    -0.544272601722E+02    0.66579E-02   -0.82327E-03   824   0.196E-01    0.366E-01
DAV:   5    -0.544253158916E+02    0.19443E-02   -0.86398E-03   832   0.189E-01    0.100E-01
DAV:   6    -0.544256267148E+02   -0.31082E-03   -0.12538E-04   568   0.310E-02    0.595E-02
DAV:   7    -0.544259349030E+02   -0.30819E-03   -0.47543E-05   544   0.164E-02    0.246E-02
DAV:   8    -0.544261429267E+02   -0.20802E-03   -0.17330E-05   560   0.888E-03    0.792E-03
DAV:   9    -0.544263457599E+02   -0.20283E-03   -0.11312E-05   544   0.591E-03    0.374E-03
DAV:  10    -0.544264700309E+02   -0.12427E-03   -0.40215E-06   544   0.279E-03    0.203E-03
DAV:  11    -0.544265299209E+02   -0.59890E-04   -0.17322E-06   512   0.172E-03
  45 F= -.54426530E+02 E0= -.54426530E+02  d E =-.535796E-01  mag=     1.0000
       N       E                     dE             d eps       ncg     rms          rms(c)
DAV:   1    -0.544273540968E+02   -0.88407E-03   -0.44031E+01   768   0.128E+01    0.198E-01
DAV:   2    -0.544483382185E+02   -0.20984E-01   -0.20608E-01   832   0.124E+00    0.207E-01
DAV:   3    -0.544481563658E+02    0.18185E-03   -0.31485E-03   856   0.150E-01    0.162E-01
DAV:   4    -0.544475829026E+02    0.57346E-03   -0.50344E-04   792   0.478E-02    0.109E-01
DAV:   5    -0.544473092149E+02    0.27369E-03   -0.13646E-03   832   0.736E-02    0.337E-02
DAV:   6    -0.544473418126E+02   -0.32598E-04   -0.13803E-05   504   0.915E-03
  46 F= -.54447342E+02 E0= -.54447342E+02  d E =-.208119E-01  mag=     1.0000
       N       E                     dE             d eps       ncg     rms          rms(c)
DAV:   1    -0.542978399699E+02    0.14947E+00   -0.40809E+02   768   0.395E+01    0.845E-01
DAV:   2    -0.545049609128E+02   -0.20712E+00   -0.20428E+00   816   0.393E+00    0.661E-01
DAV:   3    -0.545029103116E+02    0.20506E-02   -0.33028E-02   848   0.495E-01    0.464E-01
DAV:   4    -0.544985854768E+02    0.43248E-02   -0.48724E-03   832   0.151E-01    0.303E-01
DAV:   5    -0.544969687959E+02    0.16167E-02   -0.63484E-03   808   0.161E-01    0.849E-02
DAV:   6    -0.544971350876E+02   -0.16629E-03   -0.11202E-04   560   0.274E-02    0.491E-02
DAV:   7    -0.544973256112E+02   -0.19052E-03   -0.37559E-05   536   0.149E-02    0.209E-02
DAV:   8    -0.544974587509E+02   -0.13314E-03   -0.13799E-05   544   0.806E-03    0.727E-03
DAV:   9    -0.544976277966E+02   -0.16905E-03   -0.11357E-05   544   0.608E-03    0.424E-03
DAV:  10    -0.544977448686E+02   -0.11707E-03   -0.38258E-06   544   0.272E-03    0.181E-03
DAV:  11    -0.544977861967E+02   -0.41328E-04   -0.11061E-06   504   0.151E-03
  47 F= -.54497786E+02 E0= -.54497786E+02  d E =-.712563E-01  mag=     1.0000
       N       E                     dE             d eps       ncg     rms          rms(c)
DAV:   1    -0.534258935554E+02    0.10719E+01   -0.17840E+03   768   0.849E+01    0.341E+00
DAV:   2    -0.545158200379E+02   -0.10899E+01   -0.10916E+01   832   0.925E+00    0.178E+00
DAV:   3    -0.545092933216E+02    0.65267E-02   -0.19206E-01   824   0.127E+00    0.113E+00
DAV:   4    -0.544975757602E+02    0.11718E-01   -0.16138E-02   832   0.296E-01    0.830E-01
DAV:   5    -0.544916936602E+02    0.58821E-02   -0.18893E-02   808   0.289E-01    0.238E-01
DAV:   6    -0.544919740523E+02   -0.28039E-03   -0.81119E-04   848   0.688E-02    0.112E-01
DAV:   7    -0.544923540684E+02   -0.38002E-03   -0.61727E-05   536   0.229E-02    0.494E-02
DAV:   8    -0.544926881445E+02   -0.33408E-03   -0.33699E-05   552   0.123E-02    0.132E-02
DAV:   9    -0.544929249633E+02   -0.23682E-03   -0.76613E-06   544   0.548E-03    0.668E-03
DAV:  10    -0.544932351975E+02   -0.31023E-03   -0.10614E-05   552   0.351E-03    0.262E-03
DAV:  11    -0.544933883329E+02   -0.15314E-03   -0.30885E-06   552   0.193E-03    0.199E-03
DAV:  12    -0.544936601600E+02   -0.27183E-03   -0.10801E-05   536   0.245E-03    0.149E-03
DAV:  13    -0.544937995914E+02   -0.13943E-03   -0.53978E-06   560   0.179E-03    0.828E-04
DAV:  14    -0.544938425364E+02   -0.42945E-04   -0.81953E-07   536   0.934E-04
  48 F= -.54493843E+02 E0= -.54493843E+02  d E =-.673126E-01  mag=     1.0000
       N       E                     dE             d eps       ncg     rms          rms(c)
DAV:   1    -0.541703074617E+02    0.32349E+00   -0.71404E+02   768   0.527E+01    0.126E+00
DAV:   2    -0.545347065945E+02   -0.36440E+00   -0.36274E+00   832   0.523E+00    0.910E-01
DAV:   3    -0.545314224778E+02    0.32841E-02   -0.58178E-02   840   0.639E-01    0.657E-01
DAV:   4    -0.545248668438E+02    0.65556E-02   -0.76340E-03   824   0.201E-01    0.439E-01
DAV:   5    -0.545223093466E+02    0.25575E-02   -0.10244E-02   832   0.207E-01    0.113E-01
DAV:   6    -0.545224874456E+02   -0.17810E-03   -0.16921E-04   576   0.375E-02    0.639E-02
DAV:   7    -0.545226624502E+02   -0.17500E-03   -0.48154E-05   536   0.183E-02    0.270E-02
DAV:   8    -0.545227894222E+02   -0.12697E-03   -0.18655E-05   544   0.104E-02    0.921E-03
DAV:   9    -0.545229432989E+02   -0.15388E-03   -0.11084E-05   528   0.687E-03    0.504E-03
DAV:  10    -0.545230617499E+02   -0.11845E-03   -0.43078E-06   544   0.322E-03    0.191E-03
DAV:  11    -0.545231089012E+02   -0.47151E-04   -0.12074E-06   512   0.173E-03
  49 F= -.54523109E+02 E0= -.54523109E+02  d E =-.965790E-01  mag=     1.0000
       N       E                     dE             d eps       ncg     rms          rms(c)
DAV:   1    -0.544488930911E+02    0.74169E-01   -0.16659E+02   768   0.251E+01    0.475E-01
DAV:   2    -0.545291982370E+02   -0.80305E-01   -0.79661E-01   832   0.245E+00    0.418E-01
DAV:   3    -0.545283912489E+02    0.80699E-03   -0.12650E-02   848   0.309E-01    0.301E-01
DAV:   4    -0.545264622777E+02    0.19290E-02   -0.23186E-03   824   0.103E-01    0.187E-01
DAV:   5    -0.545258676026E+02    0.59468E-03   -0.30772E-03   832   0.112E-01    0.548E-02
DAV:   6    -0.545259036459E+02   -0.36043E-04   -0.39052E-05   544   0.156E-02
  50 F= -.54525904E+02 E0= -.54525904E+02  d E =-.993737E-01  mag=     1.0000
       N       E                     dE             d eps       ncg     rms          rms(c)
DAV:   1    -0.544691707029E+02    0.56697E-01   -0.17435E+02   768   0.256E+01    0.511E-01
DAV:   2    -0.545543816496E+02   -0.85211E-01   -0.84994E-01   824   0.254E+00    0.471E-01
DAV:   3    -0.545535765070E+02    0.80514E-03   -0.13826E-02   824   0.325E-01    0.333E-01
DAV:   4    -0.545514023236E+02    0.21742E-02   -0.27794E-03   824   0.112E-01    0.206E-01
DAV:   5    -0.545508721574E+02    0.53017E-03   -0.31074E-03   824   0.115E-01    0.656E-02
DAV:   6    -0.545509518606E+02   -0.79703E-04   -0.51105E-05   544   0.166E-02
  51 F= -.54550952E+02 E0= -.54550952E+02  d E =-.250482E-01  mag=     1.0000
       N       E                     dE             d eps       ncg     rms          rms(c)
DAV:   1    -0.545354079588E+02    0.15464E-01   -0.30542E+01   768   0.107E+01    0.209E-01
DAV:   2    -0.545502660595E+02   -0.14858E-01   -0.14553E-01   816   0.105E+00    0.204E-01
DAV:   3    -0.545501783203E+02    0.87739E-04   -0.23166E-03   832   0.132E-01    0.148E-01
DAV:   4    -0.545498046846E+02    0.37364E-03   -0.62231E-04   816   0.525E-02    0.866E-02
DAV:   5    -0.545498232842E+02   -0.18600E-04   -0.58707E-04   816   0.505E-02
  52 F= -.54549823E+02 E0= -.54549823E+02  d E =-.239196E-01  mag=     1.0000
       N       E                     dE             d eps       ncg     rms          rms(c)
DAV:   1    -0.545838862666E+02   -0.34082E-01   -0.26213E+01   768   0.100E+01    0.210E-01
DAV:   2    -0.545959226091E+02   -0.12036E-01   -0.12032E-01   816   0.950E-01    0.183E-01
DAV:   3    -0.545958274865E+02    0.95123E-04   -0.18771E-03   832   0.115E-01    0.130E-01
DAV:   4    -0.545955839587E+02    0.24353E-03   -0.59814E-04   824   0.540E-02    0.621E-02
DAV:   5    -0.545956333367E+02   -0.49378E-04   -0.24979E-04   544   0.362E-02
  53 F= -.54595633E+02 E0= -.54595633E+02  d E =-.458101E-01  mag=     1.0000
       N       E                     dE             d eps       ncg     rms          rms(c)
DAV:   1    -0.545477927790E+02    0.47791E-01   -0.23800E+02   768   0.304E+01    0.668E-01
DAV:   2    -0.546582643730E+02   -0.11047E+00   -0.11061E+00   808   0.289E+00    0.536E-01
DAV:   3    -0.546571869467E+02    0.10774E-02   -0.17318E-02   832   0.347E-01    0.378E-01
DAV:   4    -0.546547888984E+02    0.23980E-02   -0.49356E-03   824   0.157E-01    0.180E-01
DAV:   5    -0.546547232272E+02    0.65671E-04   -0.20566E-03   824   0.997E-02    0.570E-02
DAV:   6    -0.546547511138E+02   -0.27887E-04   -0.13213E-04   536   0.237E-02
  54 F= -.54654751E+02 E0= -.54654751E+02  d E =-.104928E+00  mag=     1.0000
       N       E                     dE             d eps       ncg     rms          rms(c)
DAV:   1    -0.546725510852E+02   -0.17828E-01   -0.62396E+01   768   0.155E+01    0.331E-01
DAV:   2    -0.547011065160E+02   -0.28555E-01   -0.28546E-01   808   0.147E+00    0.271E-01
DAV:   3    -0.547008349765E+02    0.27154E-03   -0.45219E-03   832   0.181E-01    0.192E-01
DAV:   4    -0.547002485922E+02    0.58638E-03   -0.14649E-03   824   0.841E-02    0.862E-02
DAV:   5    -0.547003308992E+02   -0.82307E-04   -0.57527E-04   848   0.513E-02
  55 F= -.54700331E+02 E0= -.54700331E+02  d E =-.455798E-01  mag=     1.0000
       N       E                     dE             d eps       ncg     rms          rms(c)
DAV:   1    -0.546665250394E+02    0.33724E-01   -0.12306E+02   768   0.218E+01    0.494E-01
DAV:   2    -0.547228656346E+02   -0.56341E-01   -0.56627E-01   808   0.207E+00    0.374E-01
DAV:   3    -0.547222111061E+02    0.65453E-03   -0.89980E-03   832   0.255E-01    0.260E-01
DAV:   4    -0.547210338709E+02    0.11772E-02   -0.28804E-03   824   0.118E-01    0.109E-01
DAV:   5    -0.547210887699E+02   -0.54899E-04   -0.85007E-04   832   0.637E-02
  56 F= -.54721089E+02 E0= -.54721089E+02  d E =-.663377E-01  mag=     1.0000
       N       E                     dE             d eps       ncg     rms          rms(c)
DAV:   1    -0.547152246110E+02    0.58093E-02   -0.72431E+01   768   0.167E+01    0.333E-01
DAV:   2    -0.547492146067E+02   -0.33990E-01   -0.33831E-01   824   0.160E+00    0.292E-01
DAV:   3    -0.547489026772E+02    0.31193E-03   -0.53586E-03   864   0.199E-01    0.209E-01
DAV:   4    -0.547480221270E+02    0.88055E-03   -0.15479E-03   824   0.859E-02    0.108E-01
DAV:   5    -0.547479865209E+02    0.35606E-04   -0.10495E-03   832   0.671E-02    0.376E-02
DAV:   6    -0.547480286156E+02   -0.42095E-04   -0.46177E-05   536   0.141E-02
  57 F= -.54748029E+02 E0= -.54748029E+02  d E =-.269398E-01  mag=     1.0000
       N       E                     dE             d eps       ncg     rms          rms(c)
DAV:   1    -0.546687864263E+02    0.79200E-01   -0.17830E+02   768   0.262E+01    0.558E-01
DAV:   2    -0.547520923695E+02   -0.83306E-01   -0.83446E-01   824   0.252E+00    0.463E-01
DAV:   3    -0.547509954378E+02    0.10969E-02   -0.13254E-02   856   0.315E-01    0.325E-01
DAV:   4    -0.547487438780E+02    0.22516E-02   -0.41385E-03   816   0.139E-01    0.159E-01
DAV:   5    -0.547486260448E+02    0.11783E-03   -0.20791E-03   832   0.953E-02    0.537E-02
DAV:   6    -0.547486778187E+02   -0.51774E-04   -0.10418E-04   528   0.212E-02
  58 F= -.54748678E+02 E0= -.54748678E+02  d E =-.275890E-01  mag=     1.0000
       N       E                     dE             d eps       ncg     rms          rms(c)
DAV:   1    -0.547370874277E+02    0.11539E-01   -0.40369E+01   768   0.125E+01    0.238E-01
DAV:   2    -0.547558632316E+02   -0.18776E-01   -0.18590E-01   824   0.119E+00    0.224E-01
DAV:   3    -0.547557421815E+02    0.12105E-03   -0.29214E-03   872   0.147E-01    0.166E-01
DAV:   4    -0.547553373213E+02    0.40486E-03   -0.89981E-04   824   0.645E-02    0.887E-02
DAV:   5    -0.547554137933E+02   -0.76472E-04   -0.70467E-04   840   0.547E-02
  59 F= -.54755414E+02 E0= -.54755414E+02  d E =-.343250E-01  mag=     1.0000
       N       E                     dE             d eps       ncg     rms          rms(c)
DAV:   1    -0.547492600954E+02    0.60772E-02   -0.72546E+01   768   0.167E+01    0.324E-01
DAV:   2    -0.547831463000E+02   -0.33886E-01   -0.33862E-01   832   0.160E+00    0.300E-01
DAV:   3    -0.547826878470E+02    0.45845E-03   -0.52707E-03   848   0.199E-01    0.223E-01
DAV:   4    -0.547815996134E+02    0.10882E-02   -0.18090E-03   824   0.900E-02    0.116E-01
DAV:   5    -0.547814914288E+02    0.10818E-03   -0.12694E-03   840   0.738E-02    0.417E-02
DAV:   6    -0.547814863919E+02    0.50369E-05   -0.47938E-05   512   0.150E-02
  60 F= -.54781486E+02 E0= -.54781486E+02  d E =-.260726E-01  mag=     1.0000
       N       E                     dE             d eps       ncg     rms          rms(c)
DAV:   1    -0.547684446208E+02    0.13047E-01   -0.41185E+01   768   0.126E+01    0.245E-01
DAV:   2    -0.547877322201E+02   -0.19288E-01   -0.19283E-01   808   0.121E+00    0.223E-01
DAV:   3    -0.547875077296E+02    0.22449E-03   -0.30004E-03   832   0.150E-01    0.164E-01
DAV:   4    -0.547869388993E+02    0.56883E-03   -0.99056E-04   824   0.674E-02    0.853E-02
DAV:   5    -0.547869061003E+02    0.32799E-04   -0.68763E-04   816   0.546E-02
  61 F= -.54786906E+02 E0= -.54786906E+02  d E =-.314923E-01  mag=     1.0000
       N       E                     dE             d eps       ncg     rms          rms(c)
DAV:   1    -0.547720843804E+02    0.14855E-01   -0.73405E+01   768   0.167E+01    0.312E-01
DAV:   2    -0.548069555597E+02   -0.34871E-01   -0.34638E-01   816   0.162E+00    0.300E-01
DAV:   3    -0.548066397784E+02    0.31578E-03   -0.53589E-03   856   0.199E-01    0.220E-01
DAV:   4    -0.548056500241E+02    0.98975E-03   -0.14968E-03   824   0.836E-02    0.127E-01
DAV:   5    -0.548055310793E+02    0.11894E-03   -0.14574E-03   816   0.785E-02    0.453E-02
DAV:   6    -0.548055516810E+02   -0.20602E-04   -0.38480E-05   520   0.137E-02
  62 F= -.54805552E+02 E0= -.54805552E+02  d E =-.186456E-01  mag=     1.0000
       N       E                     dE             d eps       ncg     rms          rms(c)
DAV:   1    -0.547970683306E+02    0.84627E-02   -0.24901E+01   768   0.974E+00    0.180E-01
DAV:   2    -0.548088478852E+02   -0.11780E-01   -0.11708E-01   816   0.941E-01    0.174E-01
DAV:   3    -0.548087418684E+02    0.10602E-03   -0.18036E-03   832   0.115E-01    0.129E-01
DAV:   4    -0.548084096961E+02    0.33217E-03   -0.52779E-04   808   0.497E-02    0.741E-02
DAV:   5    -0.548083935276E+02    0.16169E-04   -0.50720E-04   824   0.464E-02
  63 F= -.54808394E+02 E0= -.54808394E+02  d E =-.214874E-01  mag=     1.0000
       N       E                     dE             d eps       ncg     rms          rms(c)
DAV:   1    -0.547960937606E+02    0.12316E-01   -0.51080E+01   768   0.140E+01    0.263E-01
DAV:   2    -0.548204803711E+02   -0.24387E-01   -0.23884E-01   800   0.135E+00    0.247E-01
DAV:   3    -0.548202801336E+02    0.20024E-03   -0.37013E-03   840   0.165E-01    0.182E-01
DAV:   4    -0.548196160590E+02    0.66407E-03   -0.10797E-03   816   0.710E-02    0.101E-01
DAV:   5    -0.548195769015E+02    0.39158E-04   -0.92436E-04   816   0.630E-02
  64 F= -.54819577E+02 E0= -.54819577E+02  d E =-.111834E-01  mag=     1.0000
       N       E                     dE             d eps       ncg     rms          rms(c)
DAV:   1    -0.548159945528E+02    0.36215E-02   -0.89134E+00   768   0.585E+00    0.116E-01
DAV:   2    -0.548202543225E+02   -0.42598E-02   -0.41954E-02   816   0.563E-01    0.102E-01
DAV:   3    -0.548202365949E+02    0.17728E-04   -0.64906E-04   824   0.691E-02
  65 F= -.54820237E+02 E0= -.54820237E+02  d E =-.118431E-01  mag=     1.0000
       N       E                     dE             d eps       ncg     rms          rms(c)
DAV:   1    -0.548147845823E+02    0.54697E-02   -0.29491E+01   768   0.106E+01    0.188E-01
DAV:   2    -0.548284109073E+02   -0.13626E-01   -0.13549E-01   800   0.102E+00    0.186E-01
DAV:   3    -0.548282384292E+02    0.17248E-03   -0.20696E-03   848   0.123E-01    0.143E-01
DAV:   4    -0.548277786401E+02    0.45979E-03   -0.68005E-04   816   0.548E-02    0.784E-02
DAV:   5    -0.548277367669E+02    0.41873E-04   -0.70223E-04   824   0.544E-02
  66 F= -.54827737E+02 E0= -.54827737E+02  d E =-.750017E-02  mag=     1.0000
       N       E                     dE             d eps       ncg     rms          rms(c)
DAV:   1    -0.548042080282E+02    0.23571E-01   -0.56518E+01   768   0.147E+01    0.268E-01
DAV:   2    -0.548309791547E+02   -0.26771E-01   -0.26446E-01   808   0.142E+00    0.240E-01
DAV:   3    -0.548306941839E+02    0.28497E-03   -0.40995E-03   856   0.177E-01    0.177E-01
DAV:   4    -0.548299938998E+02    0.70028E-03   -0.98054E-04   824   0.667E-02    0.996E-02
DAV:   5    -0.548298991888E+02    0.94711E-04   -0.11186E-03   808   0.685E-02    0.326E-02
DAV:   6    -0.548299342504E+02   -0.35062E-04   -0.24207E-05   520   0.109E-02
  67 F= -.54829934E+02 E0= -.54829934E+02  d E =-.969766E-02  mag=     1.0000
       N       E                     dE             d eps       ncg     rms          rms(c)
DAV:   1    -0.548262866420E+02    0.36125E-02   -0.23975E+01   768   0.960E+00    0.168E-01
DAV:   2    -0.548375519565E+02   -0.11265E-01   -0.11170E-01   824   0.922E-01    0.167E-01
DAV:   3    -0.548374530073E+02    0.98949E-04   -0.17292E-03   832   0.114E-01    0.125E-01
DAV:   4    -0.548371229403E+02    0.33007E-03   -0.42310E-04   792   0.444E-02    0.754E-02
DAV:   5    -0.548370684811E+02    0.54459E-04   -0.58503E-04   816   0.500E-02
  68 F= -.54837068E+02 E0= -.54837068E+02  d E =-.713423E-02  mag=     1.0000
       N       E                     dE             d eps       ncg     rms          rms(c)
DAV:   1    -0.548242151334E+02    0.12908E-01   -0.32631E+01   768   0.112E+01    0.201E-01
DAV:   2    -0.548395383530E+02   -0.15323E-01   -0.15263E-01   816   0.108E+00    0.194E-01
DAV:   3    -0.548394023793E+02    0.13597E-03   -0.23683E-03   840   0.134E-01    0.143E-01
DAV:   4    -0.548389746923E+02    0.42769E-03   -0.57608E-04   816   0.519E-02    0.851E-02
DAV:   5    -0.548389113751E+02    0.63317E-04   -0.69977E-04   816   0.546E-02
  69 F= -.54838911E+02 E0= -.54838911E+02  d E =-.897712E-02  mag=     1.0000
       N       E                     dE             d eps       ncg     rms          rms(c)
DAV:   1    -0.548319183296E+02    0.70564E-02   -0.32340E+01   768   0.111E+01    0.187E-01
DAV:   2    -0.548471502390E+02   -0.15232E-01   -0.14953E-01   800   0.106E+00    0.177E-01
DAV:   3    -0.548470218644E+02    0.12837E-03   -0.22478E-03   840   0.129E-01    0.135E-01
DAV:   4    -0.548466430191E+02    0.37885E-03   -0.49793E-04   824   0.478E-02    0.794E-02
DAV:   5    -0.548465926003E+02    0.50419E-04   -0.72538E-04   824   0.550E-02
  70 F= -.54846593E+02 E0= -.54846593E+02  d E =-.768123E-02  mag=     1.0000
       N       E                     dE             d eps       ncg     rms          rms(c)
DAV:   1    -0.548265039213E+02    0.20139E-01   -0.49413E+01   768   0.138E+01    0.234E-01
DAV:   2    -0.548498082166E+02   -0.23304E-01   -0.22857E-01   816   0.132E+00    0.219E-01
DAV:   3    -0.548496116592E+02    0.19656E-03   -0.34345E-03   832   0.159E-01    0.166E-01
DAV:   4    -0.548490114968E+02    0.60016E-03   -0.77329E-04   824   0.594E-02    0.969E-02
DAV:   5    -0.548489027275E+02    0.10877E-03   -0.10618E-03   824   0.666E-02    0.319E-02
DAV:   6    -0.548489296047E+02   -0.26877E-04   -0.16470E-05   520   0.955E-03
  71 F= -.54848930E+02 E0= -.54848930E+02  d E =-.100182E-01  mag=     1.0000
       N       E                     dE             d eps       ncg     rms          rms(c)
DAV:   1    -0.548446921664E+02    0.42106E-02   -0.23769E+01   768   0.954E+00    0.159E-01
DAV:   2    -0.548559208930E+02   -0.11229E-01   -0.11002E-01   824   0.910E-01    0.148E-01
DAV:   3    -0.548558186229E+02    0.10227E-03   -0.16309E-03   832   0.108E-01    0.113E-01
DAV:   4    -0.548555248079E+02    0.29381E-03   -0.38269E-04   720   0.417E-02    0.643E-02
DAV:   5    -0.548554859164E+02    0.38891E-04   -0.53914E-04   824   0.485E-02
  72 F= -.54855486E+02 E0= -.54855486E+02  d E =-.655631E-02  mag=     1.0000
       N       E                     dE             d eps       ncg     rms          rms(c)
DAV:   1    -0.548186957290E+02    0.36829E-01   -0.87963E+01   768   0.184E+01    0.325E-01
DAV:   2    -0.548604935310E+02   -0.41798E-01   -0.40924E-01   824   0.176E+00    0.288E-01
DAV:   3    -0.548600671862E+02    0.42634E-03   -0.61020E-03   832   0.211E-01    0.216E-01
DAV:   4    -0.548589507392E+02    0.11164E-02   -0.15370E-03   824   0.822E-02    0.117E-01
DAV:   5    -0.548587560759E+02    0.19466E-03   -0.15696E-03   816   0.813E-02    0.381E-02
DAV:   6    -0.548587888986E+02   -0.32823E-04   -0.27100E-05   512   0.124E-02
  73 F= -.54858789E+02 E0= -.54858789E+02  d E =-.985929E-02  mag=     1.0000
       N       E                     dE             d eps       ncg     rms          rms(c)
DAV:   1    -0.548464162393E+02    0.12340E-01   -0.43257E+01   768   0.129E+01    0.208E-01
DAV:   2    -0.548668283698E+02   -0.20412E-01   -0.19933E-01   824   0.123E+00    0.203E-01
DAV:   3    -0.548666558555E+02    0.17251E-03   -0.29227E-03   848   0.144E-01    0.158E-01
DAV:   4    -0.548660916631E+02    0.56419E-03   -0.69793E-04   824   0.562E-02    0.934E-02
DAV:   5    -0.548659885216E+02    0.10314E-03   -0.10354E-03   800   0.655E-02    0.316E-02
DAV:   6    -0.548660184764E+02   -0.29955E-04   -0.13234E-05   496   0.876E-03
  74 F= -.54866018E+02 E0= -.54866018E+02  d E =-.722958E-02  mag=     1.0000
       N       E                     dE             d eps       ncg     rms          rms(c)
DAV:   1    -0.548525426772E+02    0.13446E-01   -0.33507E+01   768   0.113E+01    0.183E-01
DAV:   2    -0.548683398834E+02   -0.15797E-01   -0.15431E-01   824   0.108E+00    0.178E-01
DAV:   3    -0.548681989254E+02    0.14096E-03   -0.22606E-03   840   0.127E-01    0.139E-01
DAV:   4    -0.548677623917E+02    0.43653E-03   -0.54268E-04   816   0.495E-02    0.815E-02
DAV:   5    -0.548676855862E+02    0.76806E-04   -0.79436E-04   816   0.574E-02
  75 F= -.54867686E+02 E0= -.54867686E+02  d E =-.889669E-02  mag=     1.0000
       N       E                     dE             d eps       ncg     rms          rms(c)
DAV:   1    -0.548582514953E+02    0.95109E-02   -0.38640E+01   768   0.122E+01    0.201E-01
DAV:   2    -0.548765664052E+02   -0.18315E-01   -0.17935E-01   808   0.116E+00    0.189E-01
DAV:   3    -0.548764199814E+02    0.14642E-03   -0.26763E-03   848   0.140E-01    0.144E-01
DAV:   4    -0.548759723469E+02    0.44763E-03   -0.55395E-04   824   0.503E-02    0.854E-02
DAV:   5    -0.548758956287E+02    0.76718E-04   -0.90023E-04   808   0.612E-02
  76 F= -.54875896E+02 E0= -.54875896E+02  d E =-.821004E-02  mag=     1.0000
       N       E                     dE             d eps       ncg     rms          rms(c)
DAV:   1    -0.548517647195E+02    0.24208E-01   -0.58140E+01   768   0.149E+01    0.252E-01
DAV:   2    -0.548794298155E+02   -0.27665E-01   -0.27047E-01   816   0.143E+00    0.232E-01
DAV:   3    -0.548792058784E+02    0.22394E-03   -0.40467E-03   848   0.173E-01    0.176E-01
DAV:   4    -0.548785148584E+02    0.69102E-03   -0.86645E-04   824   0.626E-02    0.102E-01
DAV:   5    -0.548783816738E+02    0.13318E-03   -0.12711E-03   816   0.729E-02    0.328E-02
DAV:   6    -0.548784023195E+02   -0.20646E-04   -0.20387E-05   512   0.105E-02
  77 F= -.54878402E+02 E0= -.54878402E+02  d E =-.107167E-01  mag=     1.0000
       N       E                     dE             d eps       ncg     rms          rms(c)
DAV:   1    -0.548665078062E+02    0.11874E-01   -0.40759E+01   768   0.125E+01    0.196E-01
DAV:   2    -0.548856452039E+02   -0.19137E-01   -0.18721E-01   792   0.119E+00    0.197E-01
DAV:   3    -0.548854830190E+02    0.16218E-03   -0.27749E-03   848   0.142E-01    0.154E-01
DAV:   4    -0.548849661669E+02    0.51685E-03   -0.53092E-04   824   0.491E-02    0.967E-02
DAV:   5    -0.548847999321E+02    0.16623E-03   -0.11285E-03   808   0.681E-02    0.312E-02
DAV:   6    -0.548848206349E+02   -0.20703E-04   -0.12053E-05   488   0.848E-03
  78 F= -.54884821E+02 E0= -.54884821E+02  d E =-.641832E-02  mag=     1.0000
       N       E                     dE             d eps       ncg     rms          rms(c)
DAV:   1    -0.548657946600E+02    0.19005E-01   -0.46218E+01   768   0.133E+01    0.210E-01
DAV:   2    -0.548874757125E+02   -0.21681E-01   -0.21248E-01   800   0.127E+00    0.209E-01
DAV:   3    -0.548872836101E+02    0.19210E-03   -0.31507E-03   832   0.152E-01    0.163E-01
DAV:   4    -0.548867014739E+02    0.58214E-03   -0.60091E-04   816   0.522E-02    0.102E-01
DAV:   5    -0.548865160317E+02    0.18544E-03   -0.12490E-03   808   0.716E-02    0.327E-02
DAV:   6    -0.548865393897E+02   -0.23358E-04   -0.13468E-05   488   0.896E-03
  79 F= -.54886539E+02 E0= -.54886539E+02  d E =-.813707E-02  mag=     1.0000
       N       E                     dE             d eps       ncg     rms          rms(c)
DAV:   1    -0.548837033859E+02    0.28126E-02   -0.18938E+01   768   0.852E+00    0.148E-01
DAV:   2    -0.548925241479E+02   -0.88208E-02   -0.85896E-02   816   0.800E-01    0.132E-01
DAV:   3    -0.548924297421E+02    0.94406E-04   -0.12334E-03   824   0.924E-02    0.102E-01
DAV:   4    -0.548921908273E+02    0.23891E-03   -0.41727E-04   800   0.429E-02    0.488E-02
DAV:   5    -0.548921902318E+02    0.59548E-06   -0.27173E-04   584   0.356E-02
  80 F= -.54892190E+02 E0= -.54892190E+02  d E =-.565084E-02  mag=     1.0000
       N       E                     dE             d eps       ncg     rms          rms(c)
DAV:   1    -0.548685047920E+02    0.23686E-01   -0.57168E+01   768   0.148E+01    0.267E-01
DAV:   2    -0.548950569821E+02   -0.26552E-01   -0.25954E-01   808   0.139E+00    0.231E-01
DAV:   3    -0.548947307051E+02    0.32628E-03   -0.37423E-03   816   0.162E-01    0.176E-01
DAV:   4    -0.548939863552E+02    0.74435E-03   -0.12886E-03   816   0.752E-02    0.825E-02
DAV:   5    -0.548939432134E+02    0.43142E-04   -0.77247E-04   824   0.580E-02
  81 F= -.54893943E+02 E0= -.54893943E+02  d E =-.740382E-02  mag=     1.0000
       N       E                     dE             d eps       ncg     rms          rms(c)
DAV:   1    -0.548917132817E+02    0.22731E-02   -0.11907E+01   768   0.673E+00    0.107E-01
DAV:   2    -0.548973402991E+02   -0.56270E-02   -0.54904E-02   832   0.638E-01    0.984E-02
DAV:   3    -0.548973054350E+02    0.34864E-04   -0.78697E-04   832   0.737E-02
  82 F= -.54897305E+02 E0= -.54897305E+02  d E =-.336222E-02  mag=     1.0000
       N       E                     dE             d eps       ncg     rms          rms(c)
DAV:   1    -0.548818382351E+02    0.15502E-01   -0.40550E+01   768   0.124E+01    0.203E-01
DAV:   2    -0.549004326758E+02   -0.18594E-01   -0.18271E-01   832   0.117E+00    0.206E-01
DAV:   3    -0.549001935282E+02    0.23915E-03   -0.25948E-03   848   0.132E-01    0.168E-01
DAV:   4    -0.548995038964E+02    0.68963E-03   -0.10631E-03   832   0.664E-02    0.846E-02
DAV:   5    -0.548994548339E+02    0.49063E-04   -0.93907E-04   824   0.628E-02
  83 F= -.54899455E+02 E0= -.54899455E+02  d E =-.551162E-02  mag=     1.0000
       N       E                     dE             d eps       ncg     rms          rms(c)
DAV:   1    -0.549016749442E+02   -0.21710E-02   -0.44456E+00   768   0.409E+00    0.934E-02
DAV:   2    -0.549038535023E+02   -0.21786E-02   -0.21547E-02   832   0.397E-01    0.742E-02
DAV:   3    -0.549038581374E+02   -0.46351E-05   -0.31861E-04   688   0.474E-02
  84 F= -.54903858E+02 E0= -.54903858E+02  d E =-.440330E-02  mag=     1.0000
       N       E                     dE             d eps       ncg     rms          rms(c)
DAV:   1    -0.549042367184E+02   -0.38322E-03   -0.40719E+00   800   0.392E+00    0.957E-02
DAV:   2    -0.549061737450E+02   -0.19370E-02   -0.19288E-02   832   0.376E-01    0.795E-02
DAV:   3    -0.549061599701E+02    0.13775E-04   -0.27741E-04   624   0.438E-02
  85 F= -.54906160E+02 E0= -.54906160E+02  d E =-.670514E-02  mag=     1.0000
       N       E                     dE             d eps       ncg     rms          rms(c)
DAV:   1    -0.549076944329E+02   -0.15207E-02   -0.38377E+00   808   0.379E+00    0.741E-02
DAV:   2    -0.549095640521E+02   -0.18696E-02   -0.18233E-02   832   0.363E-01    0.628E-02
DAV:   3    -0.549095511004E+02    0.12952E-04   -0.24301E-04   576   0.415E-02
  86 F= -.54909551E+02 E0= -.54909551E+02  d E =-.339113E-02  mag=     1.0000
       N       E                     dE             d eps       ncg     rms          rms(c)
DAV:   1    -0.549101303217E+02   -0.56627E-03   -0.33721E-01   808   0.113E+00    0.317E-02
DAV:   2    -0.549102850055E+02   -0.15468E-03   -0.15329E-03   832   0.105E-01    0.247E-02
DAV:   3    -0.549102862122E+02   -0.12067E-05   -0.20827E-05   488   0.117E-02
  87 F= -.54910286E+02 E0= -.54910286E+02  d E =-.412624E-02  mag=     1.0000
       N       E                     dE             d eps       ncg     rms          rms(c)
DAV:   1    -0.549114117683E+02   -0.11268E-02   -0.18333E+00   800   0.263E+00    0.432E-02
DAV:   2    -0.549122948658E+02   -0.88310E-03   -0.86683E-03   824   0.251E-01    0.396E-02
DAV:   3    -0.549122894182E+02    0.54476E-05   -0.11151E-04   496   0.292E-02
  88 F= -.54912289E+02 E0= -.54912289E+02  d E =-.200321E-02  mag=     1.0000
       N       E                     dE             d eps       ncg     rms          rms(c)
DAV:   1    -0.549124312678E+02   -0.13640E-03   -0.46426E+00   768   0.418E+00    0.714E-02
DAV:   2    -0.549146485804E+02   -0.22173E-02   -0.21680E-02   832   0.399E-01    0.701E-02
DAV:   3    -0.549146315940E+02    0.16986E-04   -0.29176E-04   624   0.455E-02
  89 F= -.54914632E+02 E0= -.54914632E+02  d E =-.434538E-02  mag=     1.0000
       N       E                     dE             d eps       ncg     rms          rms(c)
DAV:   1    -0.549144582150E+02    0.19037E-03   -0.31532E+00   784   0.347E+00    0.924E-02
DAV:   2    -0.549158744279E+02   -0.14162E-02   -0.14474E-02   832   0.321E-01    0.677E-02
DAV:   3    -0.549158512859E+02    0.23142E-04   -0.21897E-04   536   0.374E-02
  90 F= -.54915851E+02 E0= -.54915851E+02  d E =-.121969E-02  mag=     1.0000
       N       E                     dE             d eps       ncg     rms          rms(c)
DAV:   1    -0.549157079515E+02    0.16648E-03   -0.30119E-01   800   0.107E+00    0.243E-02
DAV:   2    -0.549158598891E+02   -0.15194E-03   -0.13840E-03   824   0.101E-01    0.209E-02
DAV:   3    -0.549158637350E+02   -0.38459E-05   -0.20175E-05   496   0.118E-02
  91 F= -.54915864E+02 E0= -.54915864E+02  d E =-.123214E-02  mag=     1.0000
       N       E                     dE             d eps       ncg     rms          rms(c)
DAV:   1    -0.549165380531E+02   -0.67816E-03   -0.25081E+00   784   0.305E+00    0.448E-02
DAV:   2    -0.549177750309E+02   -0.12370E-02   -0.11953E-02   824   0.294E-01    0.442E-02
DAV:   3    -0.549177680958E+02    0.69352E-05   -0.15082E-04   496   0.333E-02
  92 F= -.54917768E+02 E0= -.54917768E+02  d E =-.190436E-02  mag=     1.0000
       N       E                     dE             d eps       ncg     rms          rms(c)
DAV:   1    -0.549181891367E+02   -0.41411E-03   -0.29163E+00   768   0.329E+00    0.524E-02
DAV:   2    -0.549195541267E+02   -0.13650E-02   -0.13430E-02   832   0.312E-01    0.562E-02
DAV:   3    -0.549195388972E+02    0.15229E-04   -0.16472E-04   512   0.343E-02
  93 F= -.54919539E+02 E0= -.54919539E+02  d E =-.367516E-02  mag=     1.0000
       N       E                     dE             d eps       ncg     rms          rms(c)
DAV:   1    -0.549197421576E+02   -0.18803E-03   -0.18363E+00   768   0.266E+00    0.659E-02
DAV:   2    -0.549205565314E+02   -0.81437E-03   -0.82645E-03   832   0.245E-01    0.508E-02
DAV:   3    -0.549205400592E+02    0.16472E-04   -0.11922E-04   504   0.281E-02
  94 F= -.54920540E+02 E0= -.54920540E+02  d E =-.100116E-02  mag=     1.0000
       N       E                     dE             d eps       ncg     rms          rms(c)
DAV:   1    -0.549204731430E+02    0.83388E-04   -0.35214E-02   816   0.365E-01    0.691E-03
DAV:   2    -0.549204953898E+02   -0.22247E-04   -0.14419E-04   488   0.358E-02
  95 F= -.54920495E+02 E0= -.54920495E+02  d E =-.956493E-03  mag=     1.0000
