30
Energy = -3.50032115 Dir = /p/work1/plile1/GA_structures/Hg/30/all_candidates/4124/
Hg 16.554868829906273 2.93815284365339 6.406972077274962
Hg 13.342017633466114 13.373270488273867 7.964925009774263
Hg 9.668245694018488 13.866022908518847 8.285043977891622
Hg 11.756586973789064 16.53720337014862 8.605215306063956
Hg 6.664874723150467 12.559218204787127 9.091380934728013
Hg 13.067160883927787 10.440161993313549 9.653095470978634
Hg 16.807402482519002 11.491109939545636 11.022287751961874
Hg 13.612338690343789 17.594618880142814 11.491094416443588
Hg 15.271644384408924 14.649948530708206 10.674495001880421
Hg 8.553706495497813 13.890952542480086 11.724075723529252
Hg 9.420372253710699 10.961655640260762 10.154867035287523
Hg 11.95018285203125 13.940591432066602 10.974654319556073
Hg 14.918497832981897 8.803412582592241 12.003521422744841
Hg 10.159589119066398 17.03507788898172 11.754515655219429
Hg 11.311997390120194 9.062367557713998 12.28942021678139
Hg 13.62410660170112 11.75013269151782 12.922961034621162
Hg 9.384177321042149 11.267171448946998 13.927490663163331
Hg 17.627772389616755 13.875397307544294 13.57682128770635
Hg 11.444620359651578 13.878921219521024 14.631467138853912
Hg 17.108810810972535 9.636014948275776 14.411944283819468
Hg 14.48416033697967 14.959778033440477 14.023529004882343
Hg 12.308743840112234 10.704079449751452 15.98728877200862
Hg 12.010561264552715 17.319817830530106 14.680909616569757
Hg 8.561460381445404 15.748595081260062 14.66988687736723
Hg 17.056883195773594 15.48266774055667 16.798995270045417
Hg 15.725262347641985 12.46388654071429 16.001836152953686
Hg 9.891754487954595 12.81962529194862 17.37330203979302
Hg 15.20457744873071 9.368301698200321 17.349393344895304
Hg 13.355888722303906 15.504049733900832 17.2799527974601
Hg 13.57214091338919 12.49820284150902 18.689064056548514
