14
Energy = -1.28887286 eV
Hg 9.706739441928303 10.212546288364868 8.293828365315267
Hg 11.909062240573661 12.117558715825568 10.116511653081037
Hg 8.259222615402713 10.85555014736362 12.913567067021562
Hg 6.865958102841727 11.572339182627832 9.872924995673262
Hg 11.339647462894042 9.601016716196648 12.302739218113228
Hg 10.382344384911368 6.237533626776591 11.910381422753643
Hg 12.671384758010731 8.69786742964751 9.321535307221051
Hg 9.82911311536013 9.316630285938135 4.9738976888840645
Hg 6.934500719321884 10.990418826229154 6.381119454447198
Hg 9.133173868075179 13.705745096223957 8.535022680842248
Hg 7.5664107709009985 5.065871793981981 9.853640473545592
Hg 7.88253980478056 8.288711718917444 10.625634521011458
Hg 7.517709000708905 7.640780008548057 7.09890805315311
Hg 10.383953331706918 6.329519093395578 8.41123935344274
