10
Energy = -0.89509005 eV
Hg 11.24941341947258 8.775651190185911 10.23438304690837
Hg 6.318110365052645 8.773787450290051 10.245638482968964
Hg 8.779932974579086 11.23877319100489 10.243924799857497
Hg 8.782567351460601 6.307427887112511 10.235148389128558
Hg 10.514795298477788 10.524883364814691 7.320342454385756
Hg 10.513280484400065 7.043284230209064 7.312160789808068
Hg 7.031171575967062 10.522598031279443 7.322494578574281
Hg 7.031884922540952 7.038347959744032 7.321415149297905
Hg 8.791547113595366 8.766503767207842 12.803161499381478
Hg 8.766271772261618 8.787718205959326 4.7403058096888735
