12
Energy = -0.61521522 eV
Hg 19.784218494436594 17.85380511117609 13.872682523023991
Hg 16.792867236854175 9.60778495120739 12.815770544919385
Hg 14.930718003310544 17.04916981003183 20.52650220941173
Hg 13.876791130791192 13.608536157543496 19.99954975629815
Hg 12.240351705456412 12.798092333374198 13.092249303078066
Hg 14.937780106768855 17.017500981974592 10.844761452494089
Hg 16.27873246253914 17.86087602218517 13.938335327598258
Hg 13.08641889960828 18.649195351501614 17.87569702562712
Hg 13.073441002830608 0.5116897490774585 19.475906890948277
Hg 20.80526796107788 14.933256944218842 15.742209359871094
Hg 14.43530166400233 11.180283264608187 15.22608350859939
Hg 14.159409068274924 13.606728054264993 10.389507353475215
