4
Energy = -900.0
Hg -1.224047 0.836338 1.533176
Hg 1.054419 1.560916 -0.997976
Hg -1.225973 -1.038776 -1.402259
Hg 1.395601 -1.358477 0.867058
