 running on   64 total cores
 distrk:  each k-point on   64 cores,    1 groups
 distr:  one band on   16 cores,    4 groups
 using from now: INCAR     
 vasp.5.3.5 31Mar14 (build Feb 01 2018 12:10:03) gamma-only                     
  
 POSCAR found type information on POSCAR  Ag
 POSCAR found :  1 types and      46 ions
 scaLAPACK will be used

 ----------------------------------------------------------------------------- 
|                                                                             |
|  ADVICE TO THIS USER RUNNING 'VASP/VAMP'   (HEAR YOUR MASTER'S VOICE ...):  |
|                                                                             |
|      You have a (more or less) 'large supercell' and for larger cells       |
|      it might be more efficient to use real space projection opertators     |
|      So try LREAL= Auto  in the INCAR   file.                               |
|      Mind: At the moment your POTCAR file does not contain real space       |
|       projectors, and has to be modified,  BUT if you                       |
|      want to do an extremely  accurate calculation you might also keep the  |
|      reciprocal projection scheme          (i.e. LREAL=.FALSE.)             |
|                                                                             |
 ----------------------------------------------------------------------------- 

 LDA part: xc-table for Pade appr. of Perdew
 POSCAR, INCAR and KPOINTS ok, starting setup
 WARNING: small aliasing (wrap around) errors must be expected
 FFT: planning ...
 WAVECAR not read
 entering main loop
       N       E                     dE             d eps       ncg     rms          rms(c)
DAV:   1     0.412092926367E+04    0.41209E+04   -0.10759E+05  1344   0.625E+02
DAV:   2     0.613102074817E+03   -0.35078E+04   -0.31615E+04  2080   0.171E+02
DAV:   3    -0.750086905948E+02   -0.68811E+03   -0.63471E+03  1640   0.804E+01
DAV:   4    -0.996217253418E+02   -0.24613E+02   -0.24429E+02  1432   0.163E+01
DAV:   5    -0.999907251244E+02   -0.36900E+00   -0.36875E+00  1472   0.230E+00    0.389E+01
DAV:   6    -0.496114401064E+02    0.50379E+02   -0.16283E+02  1328   0.161E+01    0.206E+01
DAV:   7    -0.409684838943E+02    0.86430E+01   -0.92985E+00  1376   0.506E+00    0.127E+01
DAV:   8    -0.383816944130E+02    0.25868E+01   -0.25027E+00  1392   0.258E+00    0.710E+00
DAV:   9    -0.414737642507E+02   -0.30921E+01   -0.83361E-01  1408   0.125E+00    0.491E+00
DAV:  10    -0.458193537608E+02   -0.43456E+01   -0.94570E-01  1376   0.180E+00    0.408E+00
DAV:  11    -0.593361292604E+02   -0.13517E+02   -0.45470E+00  1336   0.245E+00    0.358E+00
DAV:  12    -0.697341983674E+02   -0.10398E+02   -0.45433E+00  1376   0.286E+00    0.230E+00
DAV:  13    -0.798577910757E+02   -0.10124E+02   -0.39940E+00  1360   0.194E+00    0.278E+00
DAV:  14    -0.813674391824E+02   -0.15096E+01   -0.24193E-01  1528   0.821E-01    0.225E+00
DAV:  15    -0.865938886882E+02   -0.52264E+01   -0.12974E+00  1360   0.142E+00    0.222E+00
DAV:  16    -0.883251312637E+02   -0.17312E+01   -0.21597E-01  1416   0.778E-01    0.166E+00
DAV:  17    -0.920387403957E+02   -0.37136E+01   -0.79510E-01  1320   0.971E-01    0.939E-01
DAV:  18    -0.948277262587E+02   -0.27890E+01   -0.46488E-01  1328   0.658E-01    0.568E-01
DAV:  19    -0.961970840846E+02   -0.13694E+01   -0.11098E-01  1368   0.362E-01    0.124E+00
DAV:  20    -0.963257694543E+02   -0.12869E+00   -0.39989E-03  1464   0.160E-01    0.113E+00
DAV:  21    -0.964867719742E+02   -0.16100E+00   -0.44931E-03  1392   0.198E-01    0.993E-01
DAV:  22    -0.976516037620E+02   -0.11648E+01   -0.11904E-01  1352   0.817E-01    0.320E-01
DAV:  23    -0.980409967431E+02   -0.38939E+00   -0.28043E-02  1408   0.282E-01    0.200E-01
DAV:  24    -0.981703299613E+02   -0.12933E+00   -0.22994E-03  1400   0.679E-02    0.141E-01
DAV:  25    -0.983335210485E+02   -0.16319E+00   -0.56824E-03  1376   0.718E-02    0.609E-02
DAV:  26    -0.983874878067E+02   -0.53967E-01   -0.13567E-03  1024   0.409E-02    0.425E-02
DAV:  27    -0.984070138556E+02   -0.19526E-01   -0.47558E-04   952   0.191E-02    0.384E-02
DAV:  28    -0.984337552906E+02   -0.26741E-01   -0.13580E-03   936   0.298E-02    0.283E-02
DAV:  29    -0.984423963641E+02   -0.86411E-02   -0.53478E-04   952   0.210E-02    0.226E-02
DAV:  30    -0.984468179356E+02   -0.44216E-02   -0.28369E-04   912   0.293E-02    0.104E-02
DAV:  31    -0.984494342966E+02   -0.26164E-02   -0.19875E-04   896   0.173E-02    0.625E-03
DAV:  32    -0.984500314954E+02   -0.59720E-03   -0.52387E-05   904   0.710E-03    0.466E-03
DAV:  33    -0.984502105483E+02   -0.17905E-03   -0.17212E-05   872   0.354E-03    0.317E-03
DAV:  34    -0.984504407951E+02   -0.23025E-03   -0.12606E-05   864   0.296E-03    0.306E-03
DAV:  35    -0.984505787207E+02   -0.13793E-03   -0.47941E-06   848   0.280E-03    0.209E-03
DAV:  36    -0.984507256715E+02   -0.14695E-03   -0.18528E-06   840   0.246E-03    0.104E-03
DAV:  37    -0.984508487716E+02   -0.12310E-03   -0.11412E-06   848   0.131E-03    0.784E-04
DAV:  38    -0.984509190415E+02   -0.70270E-04   -0.66866E-07   840   0.812E-04
   1 F= -.98450919E+02 E0= -.98450919E+02  d E =-.984509E+02  mag=     0.0002
 curvature:   0.00 expect dE= 0.000E+00 dE for cont linesearch  0.000E+00
 trial: gam= 0.00000 g(F)=  0.340E-01 g(S)=  0.000E+00 ort = 0.000E+00 (trialstep = 0.100E+01)
 search vector abs. value=  0.340E-01
 bond charge predicted
       N       E                     dE             d eps       ncg     rms          rms(c)
DAV:   1    -0.984831721205E+02   -0.32323E-01   -0.22806E+00  1376   0.227E+00    0.885E-02
DAV:   2    -0.984842076923E+02   -0.10356E-02   -0.10512E-02  1416   0.216E-01    0.644E-02
DAV:   3    -0.984841925883E+02    0.15104E-04   -0.17605E-04   856   0.323E-02
   2 F= -.98484193E+02 E0= -.98484193E+02  d E =-.332735E-01  mag=     0.0001
 ZBRENT: can't locate minimum, use default step
 trial-energy change:   -0.033274  1 .order   -0.032846   -0.034007   -0.031686
 step:   4.0000(harm= 14.6508)  dis= 0.02011  next Energy=   -98.700034 (dE=-0.249E+00)
 bond charge predicted
       N       E                     dE             d eps       ncg     rms          rms(c)
DAV:   1    -0.985651458024E+02   -0.80938E-01   -0.20569E+01  1328   0.681E+00    0.265E-01
DAV:   2    -0.985742776870E+02   -0.91319E-02   -0.94449E-02  1408   0.647E-01    0.195E-01
DAV:   3    -0.985740614459E+02    0.21624E-03   -0.16966E-03  1416   0.955E-02    0.133E-01
DAV:   4    -0.985737304521E+02    0.33099E-03   -0.10343E-03  1400   0.490E-02    0.343E-02
DAV:   5    -0.985736363206E+02    0.94131E-04   -0.11659E-04   912   0.208E-02
   3 F= -.98573636E+02 E0= -.98573636E+02  d E =-.122717E+00  mag=     0.0000
 curvature:  -2.87 expect dE=-0.660E-01 dE for cont linesearch -0.644E-01
 ZBRENT: increasing intervall
 opt :  10.0000  next Energy=   -98.715185 (dE=-0.264E+00)
 bond charge predicted
       N       E                     dE             d eps       ncg     rms          rms(c)
DAV:   1    -0.986748210119E+02   -0.10109E+00   -0.82193E+01  1312   0.136E+01    0.493E-01
DAV:   2    -0.987115673601E+02   -0.36746E-01   -0.37700E-01  1384   0.130E+00    0.375E-01
DAV:   3    -0.987108530461E+02    0.71431E-03   -0.64986E-03  1392   0.185E-01    0.261E-01
DAV:   4    -0.987098417128E+02    0.10113E-02   -0.32608E-03  1408   0.911E-02    0.786E-02
DAV:   5    -0.987097321095E+02    0.10960E-03   -0.39423E-04   936   0.398E-02    0.305E-02
DAV:   6    -0.987097080235E+02    0.24086E-04   -0.89320E-05   856   0.184E-02
   4 F= -.98709708E+02 E0= -.98709708E+02  d E =-.258789E+00  mag=     0.0000
 curvature:  -6.30 expect dE=-0.834E-01 dE for cont linesearch -0.623E-01
 ZBRENT: increasing intervall
 opt :  22.0000  next Energy=   -98.818213 (dE=-0.367E+00)
 bond charge predicted
       N       E                     dE             d eps       ncg     rms          rms(c)
DAV:   1    -0.986762489976E+02    0.33483E-01   -0.33020E+02  1312   0.274E+01    0.939E-01
DAV:   2    -0.988254357392E+02   -0.14919E+00   -0.15145E+00  1384   0.261E+00    0.738E-01
DAV:   3    -0.988232709658E+02    0.21648E-02   -0.24955E-02  1392   0.356E-01    0.520E-01
DAV:   4    -0.988199394979E+02    0.33315E-02   -0.10006E-02  1384   0.169E-01    0.189E-01
DAV:   5    -0.988201100553E+02   -0.17056E-03   -0.15321E-03  1416   0.769E-02    0.647E-02
DAV:   6    -0.988200953384E+02    0.14717E-04   -0.29734E-04   936   0.302E-02
   5 F= -.98820095E+02 E0= -.98820095E+02  d E =-.369176E+00  mag=     0.0000
 curvature: -10.97 expect dE=-0.160E+00 dE for cont linesearch -0.631E-04
 trial: gam= 0.41590 g(F)=  0.146E-01 g(S)=  0.000E+00 ort = 0.442E-03 (trialstep = 0.520E+01)
 search vector abs. value=  0.208E-01
 bond charge predicted
       N       E                     dE             d eps       ncg     rms          rms(c)
DAV:   1    -0.988706243788E+02   -0.50514E-01   -0.37795E+01  1312   0.921E+00    0.282E-01
DAV:   2    -0.988879527308E+02   -0.17328E-01   -0.17617E-01  1360   0.888E-01    0.254E-01
DAV:   3    -0.988877837679E+02    0.16896E-03   -0.29299E-03  1416   0.122E-01    0.179E-01
DAV:   4    -0.988874267007E+02    0.35707E-03   -0.10600E-03  1408   0.548E-02    0.838E-02
DAV:   5    -0.988875595420E+02   -0.13284E-03   -0.41942E-04  1352   0.365E-02    0.285E-02
DAV:   6    -0.988876103950E+02   -0.50853E-04   -0.40549E-05   864   0.106E-02
   6 F= -.98887610E+02 E0= -.98887610E+02  d E =-.675151E-01  mag=     0.0000
 trial-energy change:   -0.067515  1 .order   -0.066990   -0.076802   -0.057179
 step:  15.4586(harm= 20.3519)  dis= 0.05114  next Energy=   -98.948041 (dE=-0.128E+00)
 bond charge predicted
       N       E                     dE             d eps       ncg     rms          rms(c)
DAV:   1    -0.988989607445E+02   -0.11401E-01   -0.14743E+02  1312   0.182E+01    0.516E-01
DAV:   2    -0.989661076183E+02   -0.67147E-01   -0.68333E-01  1352   0.175E+00    0.490E-01
DAV:   3    -0.989654245953E+02    0.68302E-03   -0.11113E-02  1416   0.231E-01    0.353E-01
DAV:   4    -0.989635699671E+02    0.18546E-02   -0.34736E-03  1400   0.999E-02    0.188E-01
DAV:   5    -0.989635375157E+02    0.32451E-04   -0.22211E-03  1416   0.793E-02    0.623E-02
DAV:   6    -0.989634991467E+02    0.38369E-04   -0.14327E-04   848   0.195E-02
   7 F= -.98963499E+02 E0= -.98963499E+02  d E =-.143404E+00  mag=     0.0000
 curvature: -12.86 expect dE=-0.524E-01 dE for cont linesearch -0.948E-02
 ZBRENT: increasing intervall
 opt :  35.9758  next Energy=   -98.898708 (dE=-0.786E-01)
 bond charge predicted
       N       E                     dE             d eps       ncg     rms          rms(c)
DAV:   1    -0.986460938780E+02    0.31744E+00   -0.59478E+02  1312   0.368E+01    0.101E+00
DAV:   2    -0.989190876776E+02   -0.27299E+00   -0.27671E+00  1352   0.354E+00    0.959E-01
DAV:   3    -0.989167087531E+02    0.23789E-02   -0.44076E-02  1416   0.450E-01    0.692E-01
DAV:   4    -0.989095501589E+02    0.71586E-02   -0.11004E-02  1392   0.182E-01    0.412E-01
DAV:   5    -0.989086508402E+02    0.89932E-03   -0.97168E-03  1392   0.160E-01    0.130E-01
DAV:   6    -0.989085455129E+02    0.10533E-03   -0.39341E-04  1176   0.324E-02    0.647E-02
DAV:   7    -0.989085643944E+02   -0.18881E-04   -0.16446E-04   872   0.225E-02
   8 F= -.98908564E+02 E0= -.98908564E+02  d E =-.884691E-01  mag=     0.0000
 curvature:  87.90 expect dE= 0.177E+01 dE for cont linesearch  0.352E+00
 ZBRENT: bracketing found
 ZBRENT: interpolating
 opt :  21.6213  next Energy=   -98.975575 (dE=-0.155E+00)
 bond charge predicted
       N       E                     dE             d eps       ncg     rms          rms(c)
DAV:   1    -0.988449927433E+02    0.63553E-01   -0.28950E+02  1312   0.255E+01    0.775E-01
DAV:   2    -0.989802133149E+02   -0.13522E+00   -0.13790E+00  1376   0.248E+00    0.611E-01
DAV:   3    -0.989784050053E+02    0.18083E-02   -0.22492E-02  1408   0.326E-01    0.414E-01
DAV:   4    -0.989752640021E+02    0.31410E-02   -0.66532E-03  1384   0.138E-01    0.196E-01
DAV:   5    -0.989752428826E+02    0.21120E-04   -0.27999E-03  1392   0.887E-02    0.648E-02
DAV:   6    -0.989751508067E+02    0.92076E-04   -0.24770E-04   920   0.249E-02
   9 F= -.98975151E+02 E0= -.98975151E+02  d E =-.155055E+00  mag=     0.0000
 curvature:  -3.02 expect dE=-0.176E-01 dE for cont linesearch -0.317E-05
 trial: gam= 0.42775 g(F)=  0.584E-02 g(S)=  0.000E+00 ort =-0.148E-03 (trialstep = 0.848E+01)
 search vector abs. value=  0.952E-02
 bond charge predicted
       N       E                     dE             d eps       ncg     rms          rms(c)
DAV:   1    -0.989968788654E+02   -0.21636E-01   -0.45880E+01  1312   0.102E+01    0.241E-01
DAV:   2    -0.990177311393E+02   -0.20852E-01   -0.20779E-01  1344   0.961E-01    0.219E-01
DAV:   3    -0.990174804155E+02    0.25072E-03   -0.33315E-03  1440   0.122E-01    0.163E-01
DAV:   4    -0.990169116129E+02    0.56880E-03   -0.83204E-04  1376   0.473E-02    0.880E-02
DAV:   5    -0.990168423365E+02    0.69276E-04   -0.89267E-04  1376   0.475E-02
  10 F= -.99016842E+02 E0= -.99016842E+02  d E =-.416915E-01  mag=     0.0000
 trial-energy change:   -0.041692  1 .order   -0.042170   -0.048990   -0.035350
 step:  30.4717(harm= 30.4717)  dis= 0.06310  next Energy=   -99.063126 (dE=-0.880E-01)
 bond charge predicted
       N       E                     dE             d eps       ncg     rms          rms(c)
DAV:   1    -0.989182410347E+02    0.98671E-01   -0.30931E+02  1312   0.265E+01    0.682E-01
DAV:   2    -0.990598884104E+02   -0.14165E+00   -0.14144E+00  1352   0.251E+00    0.568E-01
DAV:   3    -0.990581026481E+02    0.17858E-02   -0.22615E-02  1400   0.318E-01    0.410E-01
DAV:   4    -0.990544538396E+02    0.36488E-02   -0.57049E-03  1408   0.124E-01    0.215E-01
DAV:   5    -0.990540283296E+02    0.42551E-03   -0.45271E-03  1376   0.107E-01    0.679E-02
DAV:   6    -0.990539833592E+02    0.44970E-04   -0.15944E-04   880   0.210E-02
  11 F= -.99053983E+02 E0= -.99053983E+02  d E =-.788326E-01  mag=     0.0000
 curvature: -25.13 expect dE=-0.133E+00 dE for cont linesearch -0.807E-03
 trial: gam= 0.94494 g(F)=  0.529E-02 g(S)=  0.000E+00 ort =-0.553E-03 (trialstep = 0.963E+01)
 search vector abs. value=  0.127E-01
 bond charge predicted
       N       E                     dE             d eps       ncg     rms          rms(c)
DAV:   1    -0.990564255773E+02   -0.23972E-02   -0.78951E+01  1312   0.133E+01    0.311E-01
DAV:   2    -0.990928174587E+02   -0.36392E-01   -0.35962E-01  1360   0.126E+00    0.289E-01
DAV:   3    -0.990923551825E+02    0.46228E-03   -0.55029E-03  1424   0.152E-01    0.218E-01
DAV:   4    -0.990912580369E+02    0.10971E-02   -0.16501E-03  1376   0.666E-02    0.115E-01
DAV:   5    -0.990911511850E+02    0.10685E-03   -0.15059E-03  1352   0.613E-02    0.414E-02
DAV:   6    -0.990911409918E+02    0.10193E-04   -0.44819E-05   800   0.113E-02
  12 F= -.99091141E+02 E0= -.99091141E+02  d E =-.371576E-01  mag=     0.0000
 trial-energy change:   -0.037158  1 .order   -0.037779   -0.045858   -0.029700
 step:  27.3160(harm= 27.3160)  dis= 0.06514  next Energy=   -99.119056 (dE=-0.651E-01)
 bond charge predicted
       N       E                     dE             d eps       ncg     rms          rms(c)
DAV:   1    -0.989982836998E+02    0.92867E-01   -0.26773E+02  1312   0.246E+01    0.624E-01
DAV:   2    -0.991219147360E+02   -0.12363E+00   -0.12284E+00  1344   0.233E+00    0.535E-01
DAV:   3    -0.991199879539E+02    0.19268E-02   -0.18994E-02  1440   0.284E-01    0.391E-01
DAV:   4    -0.991163545592E+02    0.36334E-02   -0.59196E-03  1360   0.126E-01    0.196E-01
DAV:   5    -0.991160394400E+02    0.31512E-03   -0.38937E-03  1360   0.996E-02    0.662E-02
DAV:   6    -0.991159992098E+02    0.40230E-04   -0.14602E-04   872   0.204E-02
  13 F= -.99115999E+02 E0= -.99115999E+02  d E =-.620159E-01  mag=     0.0000
 curvature: -36.54 expect dE=-0.151E+00 dE for cont linesearch -0.688E-04
 trial: gam= 0.51914 g(F)=  0.413E-02 g(S)=  0.000E+00 ort =-0.155E-03 (trialstep = 0.132E+02)
 search vector abs. value=  0.741E-02
 bond charge predicted
       N       E                     dE             d eps       ncg     rms          rms(c)
DAV:   1    -0.991191407208E+02   -0.31013E-02   -0.85795E+01  1312   0.139E+01    0.358E-01
DAV:   2    -0.991584635004E+02   -0.39323E-01   -0.38874E-01  1376   0.130E+00    0.306E-01
DAV:   3    -0.991578747845E+02    0.58872E-03   -0.56357E-03  1456   0.151E-01    0.226E-01
DAV:   4    -0.991567478901E+02    0.11269E-02   -0.23887E-03  1376   0.804E-02    0.971E-02
DAV:   5    -0.991567540654E+02   -0.61752E-05   -0.89269E-04  1408   0.497E-02
  14 F= -.99156754E+02 E0= -.99156754E+02  d E =-.407549E-01  mag=     0.0000
 trial-energy change:   -0.040755  1 .order   -0.041727   -0.053320   -0.030134
 step:  30.2712(harm= 30.2712)  dis= 0.05950  next Energy=   -99.177308 (dE=-0.613E-01)
 bond charge predicted
       N       E                     dE             d eps       ncg     rms          rms(c)
DAV:   1    -0.991095336962E+02    0.47214E-01   -0.14507E+02  1312   0.180E+01    0.488E-01
DAV:   2    -0.991761865877E+02   -0.66653E-01   -0.66064E-01  1376   0.170E+00    0.398E-01
DAV:   3    -0.991751316935E+02    0.10549E-02   -0.96287E-03  1424   0.198E-01    0.289E-01
DAV:   4    -0.991733327544E+02    0.17989E-02   -0.40302E-03  1376   0.105E-01    0.120E-01
DAV:   5    -0.991733541460E+02   -0.21392E-04   -0.12507E-03  1392   0.597E-02    0.454E-02
DAV:   6    -0.991733263866E+02    0.27759E-04   -0.81736E-05   832   0.148E-02
  15 F= -.99173326E+02 E0= -.99173326E+02  d E =-.573272E-01  mag=     0.0000
 curvature: -27.67 expect dE=-0.108E+00 dE for cont linesearch -0.227E-03
 trial: gam= 0.96638 g(F)=  0.391E-02 g(S)=  0.000E+00 ort =-0.246E-03 (trialstep = 0.119E+02)
 search vector abs. value=  0.104E-01
 bond charge predicted
       N       E                     dE             d eps       ncg     rms          rms(c)
DAV:   1    -0.991662448823E+02    0.71093E-02   -0.97305E+01  1312   0.148E+01    0.332E-01
DAV:   2    -0.992106620840E+02   -0.44417E-01   -0.43766E-01  1392   0.139E+00    0.317E-01
DAV:   3    -0.992100505004E+02    0.61158E-03   -0.63323E-03  1424   0.163E-01    0.242E-01
DAV:   4    -0.992086490490E+02    0.14015E-02   -0.19079E-03  1376   0.715E-02    0.134E-01
DAV:   5    -0.992084336015E+02    0.21545E-03   -0.20351E-03  1360   0.706E-02    0.463E-02
DAV:   6    -0.992084322468E+02    0.13547E-05   -0.38617E-05   832   0.106E-02
  16 F= -.99208432E+02 E0= -.99208432E+02  d E =-.351059E-01  mag=     0.0000
 trial-energy change:   -0.035106  1 .order   -0.035671   -0.043580   -0.027762
 step:  32.6904(harm= 32.6904)  dis= 0.09309  next Energy=   -99.233360 (dE=-0.600E-01)
 bond charge predicted
       N       E                     dE             d eps       ncg     rms          rms(c)
DAV:   1    -0.990975805824E+02    0.11085E+00   -0.30096E+02  1312   0.260E+01    0.639E-01
DAV:   2    -0.992357733456E+02   -0.13819E+00   -0.13647E+00  1392   0.245E+00    0.558E-01
DAV:   3    -0.992336334808E+02    0.21399E-02   -0.19926E-02  1424   0.291E-01    0.413E-01
DAV:   4    -0.992294707874E+02    0.41627E-02   -0.62827E-03  1376   0.129E-01    0.214E-01
DAV:   5    -0.992289541778E+02    0.51661E-03   -0.47147E-03  1376   0.108E-01    0.702E-02
DAV:   6    -0.992289446432E+02    0.95346E-05   -0.11152E-04   848   0.180E-02
  17 F= -.99228945E+02 E0= -.99228945E+02  d E =-.556183E-01  mag=     0.0000
 curvature: -46.06 expect dE=-0.154E+00 dE for cont linesearch -0.698E-04
 trial: gam= 0.75533 g(F)=  0.334E-02 g(S)=  0.000E+00 ort =-0.125E-03 (trialstep = 0.160E+02)
 search vector abs. value=  0.905E-02
 bond charge predicted
       N       E                     dE             d eps       ncg     rms          rms(c)
DAV:   1    -0.991986030066E+02    0.30351E-01   -0.15558E+02  1312   0.187E+01    0.430E-01
DAV:   2    -0.992695692142E+02   -0.70966E-01   -0.69878E-01  1376   0.176E+00    0.419E-01
DAV:   3    -0.992686627028E+02    0.90651E-03   -0.10208E-02  1424   0.210E-01    0.319E-01
DAV:   4    -0.992663807072E+02    0.22820E-02   -0.30649E-03  1360   0.895E-02    0.179E-01
DAV:   5    -0.992660123128E+02    0.36839E-03   -0.32692E-03  1360   0.905E-02    0.617E-02
DAV:   6    -0.992660114109E+02    0.90184E-06   -0.56982E-05   832   0.134E-02
  18 F= -.99266011E+02 E0= -.99266011E+02  d E =-.370668E-01  mag=     0.0000
 trial-energy change:   -0.037067  1 .order   -0.038829   -0.051999   -0.025659
 step:  31.6469(harm= 31.6469)  dis= 0.06983  next Energy=   -99.280272 (dE=-0.513E-01)
 bond charge predicted
       N       E                     dE             d eps       ncg     rms          rms(c)
DAV:   1    -0.992127650492E+02    0.53247E-01   -0.14762E+02  1312   0.182E+01    0.417E-01
DAV:   2    -0.992798033133E+02   -0.67038E-01   -0.66279E-01  1376   0.171E+00    0.403E-01
DAV:   3    -0.992788880849E+02    0.91523E-03   -0.97006E-03  1424   0.205E-01    0.306E-01
DAV:   4    -0.992767479411E+02    0.21401E-02   -0.28491E-03  1360   0.865E-02    0.171E-01
DAV:   5    -0.992763950621E+02    0.35288E-03   -0.30785E-03  1344   0.877E-02    0.587E-02
DAV:   6    -0.992763927300E+02    0.23321E-05   -0.54159E-05   832   0.130E-02
  19 F= -.99276393E+02 E0= -.99276393E+02  d E =-.474481E-01  mag=     0.0000
 curvature: -44.17 expect dE=-0.124E+00 dE for cont linesearch -0.687E-05
 trial: gam= 0.78132 g(F)=  0.281E-02 g(S)=  0.000E+00 ort =-0.375E-04 (trialstep = 0.192E+02)
 search vector abs. value=  0.827E-02
 bond charge predicted
       N       E                     dE             d eps       ncg     rms          rms(c)
DAV:   1    -0.992236767318E+02    0.52718E-01   -0.20327E+02  1312   0.214E+01    0.491E-01
DAV:   2    -0.993167846122E+02   -0.93108E-01   -0.91794E-01  1376   0.201E+00    0.456E-01
DAV:   3    -0.993154590006E+02    0.13256E-02   -0.13242E-02  1376   0.237E-01    0.346E-01
DAV:   4    -0.993125971605E+02    0.28618E-02   -0.38677E-03  1360   0.101E-01    0.189E-01
DAV:   5    -0.993121216169E+02    0.47554E-03   -0.38304E-03  1360   0.979E-02    0.615E-02
DAV:   6    -0.993121223644E+02   -0.74750E-06   -0.66916E-05   816   0.148E-02
  20 F= -.99312122E+02 E0= -.99312122E+02  d E =-.357296E-01  mag=     0.0000
 trial-energy change:   -0.035730  1 .order   -0.037712   -0.053180   -0.022244
 step:  32.9260(harm= 32.9260)  dis= 0.06642  next Energy=   -99.322102 (dE=-0.457E-01)
 bond charge predicted
       N       E                     dE             d eps       ncg     rms          rms(c)
DAV:   1    -0.992721716972E+02    0.39950E-01   -0.10484E+02  1312   0.153E+01    0.346E-01
DAV:   2    -0.993201362956E+02   -0.47965E-01   -0.47162E-01  1392   0.144E+00    0.325E-01
DAV:   3    -0.993195062726E+02    0.63002E-03   -0.67850E-03  1392   0.169E-01    0.249E-01
DAV:   4    -0.993180243896E+02    0.14819E-02   -0.20800E-03  1360   0.741E-02    0.134E-01
DAV:   5    -0.993178144642E+02    0.20993E-03   -0.20373E-03  1344   0.716E-02    0.455E-02
DAV:   6    -0.993178136315E+02    0.83272E-06   -0.39340E-05   816   0.111E-02
  21 F= -.99317814E+02 E0= -.99317814E+02  d E =-.414209E-01  mag=     0.0000
 curvature: -49.06 expect dE=-0.155E+00 dE for cont linesearch -0.728E-04
 trial: gam= 1.13743 g(F)=  0.316E-02 g(S)=  0.000E+00 ort =-0.111E-03 (trialstep = 0.133E+02)
 search vector abs. value=  0.136E-01
 bond charge predicted
       N       E                     dE             d eps       ncg     rms          rms(c)
DAV:   1    -0.992787226945E+02    0.39092E-01   -0.16155E+02  1312   0.190E+01    0.409E-01
DAV:   2    -0.993535817796E+02   -0.74859E-01   -0.73172E-01  1376   0.179E+00    0.394E-01
DAV:   3    -0.993526714918E+02    0.91029E-03   -0.10582E-02  1408   0.213E-01    0.302E-01
DAV:   4    -0.993505096821E+02    0.21618E-02   -0.24175E-03  1392   0.798E-02    0.181E-01
DAV:   5    -0.993499082351E+02    0.60145E-03   -0.38049E-03  1328   0.965E-02    0.554E-02
DAV:   6    -0.993499321521E+02   -0.23917E-04   -0.43250E-05   848   0.124E-02
  22 F= -.99349932E+02 E0= -.99349932E+02  d E =-.321185E-01  mag=    -0.0000
 trial-energy change:   -0.032119  1 .order   -0.034287   -0.040394   -0.028180
 step:  44.0456(harm= 44.0456)  dis= 0.13258  next Energy=   -99.384612 (dE=-0.668E-01)
 bond charge predicted
       N       E                     dE             d eps       ncg     rms          rms(c)
DAV:   1    -0.989707953396E+02    0.37911E+00   -0.87662E+02  1312   0.447E+01    0.125E+00
DAV:   2    -0.993916349669E+02   -0.42084E+00   -0.41321E+00  1376   0.430E+00    0.956E-01
DAV:   3    -0.993854600645E+02    0.61749E-02   -0.64303E-02  1424   0.536E-01    0.675E-01
DAV:   4    -0.993752337003E+02    0.10226E-01   -0.12613E-02  1408   0.185E-01    0.400E-01
DAV:   5    -0.993725328986E+02    0.27008E-02   -0.12631E-02  1328   0.177E-01    0.107E-01
DAV:   6    -0.993726698682E+02   -0.13697E-03   -0.15808E-04   944   0.260E-02    0.605E-02
DAV:   7    -0.993727530059E+02   -0.83138E-04   -0.66932E-05   848   0.161E-02
  23 F= -.99372753E+02 E0= -.99372753E+02  d E =-.549394E-01  mag=    -0.0000
 curvature: -98.84 expect dE=-0.513E+00 dE for cont linesearch -0.103E-02
 trial: gam= 1.73940 g(F)=  0.519E-02 g(S)=  0.000E+00 ort =-0.376E-03 (trialstep = 0.588E+01)
 search vector abs. value=  0.451E-01
 bond charge predicted
       N       E                     dE             d eps       ncg     rms          rms(c)
DAV:   1    -0.993490922666E+02    0.23578E-01   -0.10416E+02  1312   0.152E+01    0.304E-01
DAV:   2    -0.993968145249E+02   -0.47722E-01   -0.47142E-01  1376   0.144E+00    0.316E-01
DAV:   3    -0.993962839403E+02    0.53058E-03   -0.71685E-03  1424   0.177E-01    0.244E-01
DAV:   4    -0.993949750368E+02    0.13089E-02   -0.11510E-03  1392   0.559E-02    0.164E-01
DAV:   5    -0.993943854424E+02    0.58959E-03   -0.31553E-03  1344   0.870E-02    0.493E-02
DAV:   6    -0.993944278601E+02   -0.42418E-04   -0.31195E-05   864   0.108E-02
  24 F= -.99394428E+02 E0= -.99394428E+02  d E =-.216749E-01  mag=    -0.0000
 ZBRENT: can't locate minimum, use default step
 trial-energy change:   -0.021675  1 .order   -0.023617   -0.026679   -0.020555
 step:  23.5147(harm= 25.6116)  dis= 0.12953  next Energy=   -99.430869 (dE=-0.581E-01)
 bond charge predicted
       N       E                     dE             d eps       ncg     rms          rms(c)
DAV:   1    -0.989633842056E+02    0.43100E+00   -0.96817E+02  1312   0.469E+01    0.138E+00
DAV:   2    -0.994411221672E+02   -0.47774E+00   -0.47352E+00  1376   0.462E+00    0.104E+00
DAV:   3    -0.994352106032E+02    0.59116E-02   -0.76369E-02  1408   0.600E-01    0.710E-01
DAV:   4    -0.994252078320E+02    0.10003E-01   -0.10923E-02  1424   0.177E-01    0.468E-01
DAV:   5    -0.994213120554E+02    0.38958E-02   -0.14857E-02  1312   0.192E-01    0.129E-01
DAV:   6    -0.994214942748E+02   -0.18222E-03   -0.24790E-04   944   0.307E-02    0.729E-02
DAV:   7    -0.994216175864E+02   -0.12331E-03   -0.77104E-05   864   0.189E-02    0.206E-02
DAV:   8    -0.994216564736E+02   -0.38887E-04   -0.18240E-05   880   0.763E-03
  25 F= -.99421656E+02 E0= -.99421656E+02  d E =-.489035E-01  mag=    -0.0000
 curvature: ****** expect dE=-0.719E+00 dE for cont linesearch -0.660E-04
 trial: gam= 0.42828 g(F)=  0.572E-02 g(S)=  0.000E+00 ort = 0.154E-03 (trialstep = 0.941E+01)
 search vector abs. value=  0.141E-01
 bond charge predicted
       N       E                     dE             d eps       ncg     rms          rms(c)
DAV:   1    -0.994297338779E+02   -0.81163E-02   -0.83887E+01  1312   0.137E+01    0.323E-01
DAV:   2    -0.994682202282E+02   -0.38486E-01   -0.38346E-01  1360   0.129E+00    0.298E-01
DAV:   3    -0.994677322736E+02    0.48795E-03   -0.57071E-03  1424   0.157E-01    0.225E-01
DAV:   4    -0.994666609336E+02    0.10713E-02   -0.14773E-03  1392   0.624E-02    0.124E-01
DAV:   5    -0.994664955967E+02    0.16534E-03   -0.15643E-03  1392   0.637E-02    0.394E-02
DAV:   6    -0.994665029043E+02   -0.73076E-05   -0.31652E-05   832   0.991E-03
  26 F= -.99466503E+02 E0= -.99466503E+02  d E =-.448464E-01  mag=    -0.0000
 trial-energy change:   -0.044846  1 .order   -0.045700   -0.054400   -0.037000
 step:  29.4069(harm= 29.4069)  dis= 0.07311  next Energy=   -99.506695 (dE=-0.850E-01)
 bond charge predicted
       N       E                     dE             d eps       ncg     rms          rms(c)
DAV:   1    -0.993233990965E+02    0.14310E+00   -0.38642E+02  1312   0.295E+01    0.818E-01
DAV:   2    -0.995077154362E+02   -0.18432E+00   -0.18560E+00  1344   0.286E+00    0.665E-01
DAV:   3    -0.995053892886E+02    0.23261E-02   -0.29932E-02  1424   0.368E-01    0.473E-01
DAV:   4    -0.995011652534E+02    0.42240E-02   -0.57427E-03  1360   0.126E-01    0.277E-01
DAV:   5    -0.995002902403E+02    0.87501E-03   -0.57027E-03  1360   0.123E-01    0.752E-02
DAV:   6    -0.995003457141E+02   -0.55474E-04   -0.86227E-05   880   0.180E-02
  27 F= -.99500346E+02 E0= -.99500346E+02  d E =-.786892E-01  mag=    -0.0000
 curvature: -35.89 expect dE=-0.154E+00 dE for cont linesearch -0.127E-03
 trial: gam= 0.66926 g(F)=  0.429E-02 g(S)=  0.000E+00 ort =-0.223E-03 (trialstep = 0.134E+02)
 search vector abs. value=  0.103E-01
 bond charge predicted
       N       E                     dE             d eps       ncg     rms          rms(c)
DAV:   1    -0.994843340028E+02    0.15956E-01   -0.12431E+02  1312   0.167E+01    0.401E-01
DAV:   2    -0.995412617039E+02   -0.56928E-01   -0.56240E-01  1328   0.158E+00    0.365E-01
DAV:   3    -0.995405790339E+02    0.68267E-03   -0.89528E-03  1424   0.201E-01    0.269E-01
DAV:   4    -0.995390159628E+02    0.15631E-02   -0.21450E-03  1360   0.767E-02    0.151E-01
DAV:   5    -0.995387676620E+02    0.24830E-03   -0.24437E-03  1360   0.792E-02    0.475E-02
DAV:   6    -0.995387693915E+02   -0.17295E-05   -0.57602E-05   832   0.129E-02
  28 F= -.99538769E+02 E0= -.99538769E+02  d E =-.384237E-01  mag=    -0.0000
 trial-energy change:   -0.038424  1 .order   -0.039933   -0.055448   -0.024419
 step:  23.9560(harm= 23.9560)  dis= 0.05080  next Energy=   -99.549887 (dE=-0.495E-01)
 bond charge predicted
       N       E                     dE             d eps       ncg     rms          rms(c)
DAV:   1    -0.995137863550E+02    0.24981E-01   -0.76841E+01  1312   0.131E+01    0.314E-01
DAV:   2    -0.995484627431E+02   -0.34676E-01   -0.34522E-01  1344   0.124E+00    0.287E-01
DAV:   3    -0.995480139448E+02    0.44880E-03   -0.54927E-03  1424   0.158E-01    0.212E-01
DAV:   4    -0.995470368419E+02    0.97710E-03   -0.13777E-03  1360   0.612E-02    0.118E-01
DAV:   5    -0.995468997944E+02    0.13705E-03   -0.15331E-03  1344   0.628E-02    0.382E-02
DAV:   6    -0.995468965598E+02    0.32346E-05   -0.41304E-05   832   0.108E-02
  29 F= -.99546897E+02 E0= -.99546897E+02  d E =-.465508E-01  mag=    -0.0000
 curvature: -29.86 expect dE=-0.779E-01 dE for cont linesearch -0.769E-04
 trial: gam= 0.44940 g(F)=  0.261E-02 g(S)=  0.000E+00 ort =-0.163E-03 (trialstep = 0.155E+02)
 search vector abs. value=  0.455E-02
 bond charge predicted
       N       E                     dE             d eps       ncg     rms          rms(c)
DAV:   1    -0.995435551652E+02    0.33446E-02   -0.73270E+01  1312   0.128E+01    0.338E-01
DAV:   2    -0.995766797227E+02   -0.33125E-01   -0.32997E-01  1344   0.122E+00    0.308E-01
DAV:   3    -0.995761828384E+02    0.49688E-03   -0.51392E-03  1392   0.154E-01    0.223E-01
DAV:   4    -0.995751554023E+02    0.10274E-02   -0.18377E-03  1360   0.696E-02    0.110E-01
DAV:   5    -0.995751084513E+02    0.46951E-04   -0.11202E-03  1376   0.547E-02    0.396E-02
DAV:   6    -0.995750895444E+02    0.18907E-04   -0.56889E-05   816   0.120E-02
  30 F= -.99575090E+02 E0= -.99575090E+02  d E =-.281930E-01  mag=    -0.0000
 trial-energy change:   -0.028193  1 .order   -0.028471   -0.039353   -0.017588
 step:  28.0550(harm= 28.0550)  dis= 0.05364  next Energy=   -99.582474 (dE=-0.356E-01)
 bond charge predicted
       N       E                     dE             d eps       ncg     rms          rms(c)
DAV:   1    -0.995614584790E+02    0.13650E-01   -0.47817E+01  1312   0.104E+01    0.271E-01
DAV:   2    -0.995828665089E+02   -0.21408E-01   -0.21466E-01  1344   0.980E-01    0.248E-01
DAV:   3    -0.995825210774E+02    0.34543E-03   -0.33349E-03  1376   0.124E-01    0.180E-01
DAV:   4    -0.995818499246E+02    0.67115E-03   -0.12069E-03  1360   0.563E-02    0.887E-02
DAV:   5    -0.995818242993E+02    0.25625E-04   -0.73185E-04  1360   0.442E-02
  31 F= -.99581824E+02 E0= -.99581824E+02  d E =-.349277E-01  mag=    -0.0000
 curvature: -25.14 expect dE=-0.398E-01 dE for cont linesearch -0.273E-05
 trial: gam= 0.54559 g(F)=  0.158E-02 g(S)=  0.000E+00 ort = 0.222E-04 (trialstep = 0.180E+02)
 search vector abs. value=  0.296E-02
 bond charge predicted
       N       E                     dE             d eps       ncg     rms          rms(c)
DAV:   1    -0.995737264621E+02    0.81235E-02   -0.64286E+01  1312   0.120E+01    0.285E-01
DAV:   2    -0.996029369544E+02   -0.29210E-01   -0.29161E-01  1344   0.114E+00    0.272E-01
DAV:   3    -0.996025453858E+02    0.39157E-03   -0.44245E-03  1392   0.140E-01    0.204E-01
DAV:   4    -0.996016523969E+02    0.89299E-03   -0.13073E-03  1376   0.591E-02    0.112E-01
DAV:   5    -0.996015480361E+02    0.10436E-03   -0.13301E-03  1344   0.579E-02    0.393E-02
DAV:   6    -0.996015377686E+02    0.10267E-04   -0.41031E-05   832   0.106E-02
  32 F= -.99601538E+02 E0= -.99601538E+02  d E =-.197135E-01  mag=    -0.0000
 trial-energy change:   -0.019713  1 .order   -0.020233   -0.028725   -0.011742
 step:  38.5383(harm= 30.4852)  dis= 0.05223  next Energy=   -99.607454 (dE=-0.256E-01)
 bond charge predicted
       N       E                     dE             d eps       ncg     rms          rms(c)
DAV:   1    -0.995673419087E+02    0.34206E-01   -0.83323E+01  1312   0.137E+01    0.329E-01
DAV:   2    -0.996051266078E+02   -0.37785E-01   -0.37747E-01  1344   0.130E+00    0.313E-01
DAV:   3    -0.996045648857E+02    0.56172E-03   -0.57345E-03  1392   0.160E-01    0.234E-01
DAV:   4    -0.996033528287E+02    0.12121E-02   -0.18093E-03  1376   0.691E-02    0.125E-01
DAV:   5    -0.996032136135E+02    0.13922E-03   -0.16515E-03  1344   0.646E-02    0.440E-02
DAV:   6    -0.996031987855E+02    0.14828E-04   -0.54299E-05   800   0.121E-02
  33 F= -.99603199E+02 E0= -.99603199E+02  d E =-.213745E-01  mag=    -0.0000
 curvature: -16.48 expect dE=-0.307E-01 dE for cont linesearch -0.114E-02
 ZBRENT: interpolating
 opt :  30.1413  next Energy=   -99.605094 (dE=-0.233E-01)
 bond charge predicted
       N       E                     dE             d eps       ncg     rms          rms(c)
DAV:   1    -0.995993589454E+02    0.38547E-02   -0.13953E+01  1312   0.559E+00    0.128E-01
DAV:   2    -0.996056217452E+02   -0.62628E-02   -0.62570E-02  1360   0.527E-01    0.129E-01
DAV:   3    -0.996055385734E+02    0.83172E-04   -0.94915E-04  1424   0.644E-02
  34 F= -.99605539E+02 E0= -.99605539E+02  d E =-.237143E-01  mag=    -0.0000
 curvature: -27.52 expect dE=-0.290E-01 dE for cont linesearch -0.173E-04
 trial: gam= 0.64554 g(F)=  0.105E-02 g(S)=  0.000E+00 ort =-0.431E-04 (trialstep = 0.204E+02)
 search vector abs. value=  0.223E-02
 bond charge predicted
       N       E                     dE             d eps       ncg     rms          rms(c)
DAV:   1    -0.995911156052E+02    0.14506E-01   -0.62354E+01  1312   0.118E+01    0.281E-01
DAV:   2    -0.996197828933E+02   -0.28667E-01   -0.28435E-01  1344   0.112E+00    0.256E-01
DAV:   3    -0.996194073065E+02    0.37559E-03   -0.42818E-03  1392   0.138E-01    0.191E-01
DAV:   4    -0.996186095721E+02    0.79773E-03   -0.11056E-03  1392   0.545E-02    0.106E-01
DAV:   5    -0.996184867324E+02    0.12284E-03   -0.11785E-03  1392   0.543E-02    0.351E-02
DAV:   6    -0.996184771861E+02    0.95463E-05   -0.31841E-05   768   0.938E-03
  35 F= -.99618477E+02 E0= -.99618477E+02  d E =-.129386E-01  mag=    -0.0000
 trial-energy change:   -0.012939  1 .order   -0.013099   -0.020968   -0.005230
 step:  27.2431(harm= 27.2431)  dis= 0.02699  next Energy=   -99.619507 (dE=-0.140E-01)
 bond charge predicted
       N       E                     dE             d eps       ncg     rms          rms(c)
DAV:   1    -0.996161855988E+02    0.23011E-02   -0.68746E+00  1312   0.392E+00    0.902E-02
DAV:   2    -0.996192899769E+02   -0.31044E-02   -0.30928E-02  1360   0.370E-01    0.891E-02
DAV:   3    -0.996192452510E+02    0.44726E-04   -0.45564E-04  1312   0.444E-02
  36 F= -.99619245E+02 E0= -.99619245E+02  d E =-.137067E-01  mag=    -0.0000
 curvature: -29.63 expect dE=-0.229E-01 dE for cont linesearch -0.577E-05
 trial: gam= 0.74130 g(F)=  0.773E-03 g(S)=  0.000E+00 ort =-0.208E-04 (trialstep = 0.218E+02)
 search vector abs. value=  0.197E-02
 bond charge predicted
       N       E                     dE             d eps       ncg     rms          rms(c)
DAV:   1    -0.996026148153E+02    0.16675E-01   -0.62630E+01  1312   0.118E+01    0.258E-01
DAV:   2    -0.996308234977E+02   -0.28209E-01   -0.28048E-01  1328   0.112E+00    0.276E-01
DAV:   3    -0.996304366594E+02    0.38684E-03   -0.43002E-03  1440   0.135E-01    0.217E-01
DAV:   4    -0.996293715180E+02    0.10651E-02   -0.12604E-03  1360   0.576E-02    0.132E-01
DAV:   5    -0.996291410637E+02    0.23045E-03   -0.19762E-03  1344   0.693E-02    0.482E-02
DAV:   6    -0.996291380418E+02    0.30219E-05   -0.34514E-05   800   0.101E-02
  37 F= -.99629138E+02 E0= -.99629138E+02  d E =-.989279E-02  mag=    -0.0000
 trial-energy change:   -0.009893  1 .order   -0.010626   -0.016519   -0.004733
 step:  30.5647(harm= 30.5647)  dis= 0.03040  next Energy=   -99.630822 (dE=-0.116E-01)
 bond charge predicted
       N       E                     dE             d eps       ncg     rms          rms(c)
DAV:   1    -0.996254034770E+02    0.37376E-02   -0.10071E+01  1312   0.473E+00    0.100E-01
DAV:   2    -0.996299656334E+02   -0.45622E-02   -0.45346E-02  1328   0.448E-01    0.107E-01
DAV:   3    -0.996299120290E+02    0.53604E-04   -0.69496E-04  1408   0.549E-02
  38 F= -.99629912E+02 E0= -.99629912E+02  d E =-.106668E-01  mag=    -0.0000
 curvature: -39.70 expect dE=-0.225E-01 dE for cont linesearch -0.562E-05
 trial: gam= 0.70492 g(F)=  0.567E-03 g(S)=  0.000E+00 ort =-0.167E-04 (trialstep = 0.236E+02)
 search vector abs. value=  0.152E-02
 bond charge predicted
       N       E                     dE             d eps       ncg     rms          rms(c)
DAV:   1    -0.996126683093E+02    0.17297E-01   -0.56471E+01  1312   0.112E+01    0.255E-01
DAV:   2    -0.996376085034E+02   -0.24940E-01   -0.24896E-01  1344   0.105E+00    0.268E-01
DAV:   3    -0.996371865779E+02    0.42193E-03   -0.37588E-03  1424   0.125E-01    0.214E-01
DAV:   4    -0.996360945942E+02    0.10920E-02   -0.15258E-03  1376   0.622E-02    0.117E-01
DAV:   5    -0.996359535164E+02    0.14108E-03   -0.15595E-03  1360   0.625E-02    0.450E-02
DAV:   6    -0.996359501230E+02    0.33934E-05   -0.32435E-05   816   0.978E-03
  39 F= -.99635950E+02 E0= -.99635950E+02  d E =-.603809E-02  mag=    -0.0000
 trial-energy change:   -0.006038  1 .order   -0.006822   -0.013088   -0.000557
 step:  25.3139(harm= 24.6053)  dis= 0.02464  next Energy=   -99.635971 (dE=-0.606E-02)
 bond charge predicted
       N       E                     dE             d eps       ncg     rms          rms(c)
DAV:   1    -0.996357811130E+02    0.17240E-03   -0.31106E-01  1328   0.833E-01    0.191E-02
DAV:   2    -0.996359261911E+02   -0.14508E-03   -0.14038E-03  1424   0.788E-02    0.188E-02
DAV:   3    -0.996359261623E+02    0.28893E-07   -0.18610E-05   736   0.959E-03
  40 F= -.99635926E+02 E0= -.99635926E+02  d E =-.601413E-02  mag=    -0.0000
 curvature: -18.27 expect dE=-0.567E-02 dE for cont linesearch -0.901E-04
 trial: gam= 0.57251 g(F)=  0.310E-03 g(S)=  0.000E+00 ort =-0.866E-04 (trialstep = 0.239E+02)
 search vector abs. value=  0.710E-03
 bond charge predicted
       N       E                     dE             d eps       ncg     rms          rms(c)
DAV:   1    -0.996277831869E+02    0.81430E-02   -0.27111E+01  1312   0.779E+00    0.173E-01
DAV:   2    -0.996400193678E+02   -0.12236E-01   -0.12114E-01  1360   0.734E-01    0.174E-01
DAV:   3    -0.996398550189E+02    0.16435E-03   -0.18794E-03  1424   0.912E-02    0.134E-01
DAV:   4    -0.996394502243E+02    0.40479E-03   -0.50397E-04  1328   0.362E-02    0.783E-02
DAV:   5    -0.996393755779E+02    0.74646E-04   -0.73695E-04  1344   0.428E-02
  41 F= -.99639376E+02 E0= -.99639376E+02  d E =-.344942E-02  mag=    -0.0000
 trial-energy change:   -0.003449  1 .order   -0.003574   -0.006230   -0.000918
 step:  28.0391(harm= 28.0391)  dis= 0.01562  next Energy=   -99.639579 (dE=-0.365E-02)
 bond charge predicted
       N       E                     dE             d eps       ncg     rms          rms(c)
DAV:   1    -0.996389261472E+02    0.52408E-03   -0.80486E-01  1344   0.134E+00    0.359E-02
DAV:   2    -0.996393031801E+02   -0.37703E-03   -0.37494E-03  1408   0.128E-01    0.290E-02
DAV:   3    -0.996393032422E+02   -0.62078E-07   -0.51125E-05   784   0.164E-02
  42 F= -.99639303E+02 E0= -.99639303E+02  d E =-.337708E-02  mag=    -0.0000
 curvature: -38.18 expect dE=-0.814E-02 dE for cont linesearch -0.525E-03
 trial: gam= 0.00000 g(F)=  0.213E-03 g(S)=  0.000E+00 ort =-0.988E-04 (trialstep = 0.247E+02)
 search vector abs. value=  0.213E-03
 bond charge predicted
       N       E                     dE             d eps       ncg     rms          rms(c)
DAV:   1    -0.996367107781E+02    0.25924E-02   -0.87565E+00  1312   0.445E+00    0.139E-01
DAV:   2    -0.996404985253E+02   -0.37877E-02   -0.38666E-02  1360   0.408E-01    0.110E-01
DAV:   3    -0.996404374007E+02    0.61125E-04   -0.63886E-04  1440   0.491E-02
  43 F= -.99640437E+02 E0= -.99640437E+02  d E =-.113416E-02  mag=    -0.0000
 trial-energy change:   -0.001134  1 .order   -0.001124   -0.005272    0.003024
 step:  15.7195(harm= 15.7195)  dis= 0.00623  next Energy=   -99.640978 (dE=-0.168E-02)
 bond charge predicted
       N       E                     dE             d eps       ncg     rms          rms(c)
DAV:   1    -0.996404026004E+02    0.95925E-04   -0.11569E+00  1344   0.161E+00    0.396E-02
DAV:   2    -0.996409193134E+02   -0.51671E-03   -0.51927E-03  1376   0.151E-01    0.314E-02
DAV:   3    -0.996409138390E+02    0.54744E-05   -0.77547E-05   800   0.190E-02
  44 F= -.99640914E+02 E0= -.99640914E+02  d E =-.161060E-02  mag=    -0.0000
 curvature:  -7.86 expect dE=-0.777E-03 dE for cont linesearch -0.469E-04
 trial: gam= 0.29669 g(F)=  0.989E-04 g(S)=  0.000E+00 ort = 0.357E-04 (trialstep = 0.229E+02)
 search vector abs. value=  0.139E-03
 bond charge predicted
       N       E                     dE             d eps       ncg     rms          rms(c)
DAV:   1    -0.996401618317E+02    0.75748E-03   -0.48659E+00  1312   0.332E+00    0.842E-02
DAV:   2    -0.996423313621E+02   -0.21695E-02   -0.21562E-02  1360   0.309E-01    0.756E-02
DAV:   3    -0.996422975406E+02    0.33822E-04   -0.30803E-04   880   0.379E-02
  45 F= -.99642298E+02 E0= -.99642298E+02  d E =-.138370E-02  mag=    -0.0000
 trial-energy change:   -0.001384  1 .order   -0.000879   -0.002511    0.000753
 step:  20.0087(harm= 17.6414)  dis= 0.00570  next Energy=   -99.642344 (dE=-0.143E-02)
 bond charge predicted
       N       E                     dE             d eps       ncg     rms          rms(c)
DAV:   1    -0.996421168665E+02    0.21450E-03   -0.76335E-02  1328   0.413E-01    0.183E-02
DAV:   2    -0.996421574753E+02   -0.40609E-04   -0.39753E-04  1248   0.423E-02
  46 F= -.99642157E+02 E0= -.99642157E+02  d E =-.124364E-02  mag=    -0.0000
 curvature:  -8.95 expect dE=-0.532E-03 dE for cont linesearch -0.197E-03
 trial: gam= 0.06199 g(F)=  0.594E-04 g(S)=  0.000E+00 ort = 0.553E-04 (trialstep = 0.223E+02)
 search vector abs. value=  0.668E-04
 bond charge predicted
       N       E                     dE             d eps       ncg     rms          rms(c)
DAV:   1    -0.996419533890E+02    0.16348E-03   -0.22255E+00  1312   0.224E+00    0.580E-02
DAV:   2    -0.996429440544E+02   -0.99067E-03   -0.98721E-03  1376   0.209E-01    0.521E-02
DAV:   3    -0.996429282996E+02    0.15755E-04   -0.13814E-04   768   0.257E-02
  47 F= -.99642928E+02 E0= -.99642928E+02  d E =-.770824E-03  mag=    -0.0000
 trial-energy change:   -0.000771  1 .order   -0.000570   -0.001405    0.000264
 step:  18.8082(harm= 18.8082)  dis= 0.00374  next Energy=   -99.642749 (dE=-0.591E-03)
 bond charge predicted
       N       E                     dE             d eps       ncg     rms          rms(c)
DAV:   1    -0.996428087300E+02    0.13532E-03   -0.54232E-02  1360   0.348E-01    0.122E-02
DAV:   2    -0.996428336976E+02   -0.24968E-04   -0.23951E-04   800   0.351E-02
  48 F= -.99642834E+02 E0= -.99642834E+02  d E =-.676222E-03  mag=    -0.0000
 curvature: -10.00 expect dE=-0.331E-03 dE for cont linesearch -0.170E-03
 trial: gam= 0.02629 g(F)=  0.331E-04 g(S)=  0.000E+00 ort = 0.337E-04 (trialstep = 0.216E+02)
 search vector abs. value=  0.350E-04
 reached required accuracy - stopping structural energy minimisation
Application 91073028 resources: utime ~126022s, stime ~701s, Rss ~70844, inblocks ~2281590, outblocks ~1141752
