18
Energy = -57.6554898 eV
Pb 15.341256221817243 10.735976282239658 10.479757871653792
Pb 13.977141200717272 11.327034602088839 7.567143064520616
Pb 15.243623438124832 13.754398392005971 9.448577662174072
Pb 14.091155669798802 12.624042746070261 13.07186451923797
Pb 12.365041198190681 9.256922484007363 9.65111282835086
Pb 13.822455624474427 9.358741834561677 12.869533699127457
Pb 12.384585620270835 12.581576545974487 10.407762578586954
Pb 12.700378262677438 14.245146960427075 7.682403714715233
Pb 10.66096662629653 11.681254118727237 7.858067130828775
Pb 10.356131497281 8.907956628387376 15.475798365582023
Pb 10.975107426547137 11.042372703617934 13.170623245269436
Pb 9.299855609035413 13.781817069195759 10.196356537387514
Pb 10.866511601339457 14.209832286588432 13.048149116614915
Pb 10.744098194744724 7.9604333678956465 12.348321233586576
Pb 8.947593553068762 11.691064857515734 15.603405478611203
Pb 8.996902364430683 10.264970155997172 10.444893968356737
Pb 7.921197632376481 9.371468176511412 13.475112386565298
Pb 7.864094603288 12.550302514413985 12.731388539978205
