10
Energy = -31.12803149 eV
Pb 12.11203569986961 8.77407988082901 10.381752859893313
Pb 11.59343688174128 11.006997233523137 8.009005659613454
Pb 11.241293059970934 7.862027823146155 7.419524919345417
Pb 9.888099072413961 11.07351313594924 10.739019281874993
Pb 9.188242815897114 7.827592619220931 10.104223229302134
Pb 6.622308729337966 10.001657209624069 10.444027303217162
Pb 8.675371998726702 10.036032945003969 7.759396358979076
Pb 7.975551173470715 6.789991145759807 7.124729819953278
Pb 5.751643454896231 9.089485175846757 7.481752588871288
Pb 6.270122113675355 6.856727831096922 9.85467297894963
