16
Energy = -52.26397112 eV
Pb 12.70811339157065 10.354807865987436 14.61644833467369
Pb 11.447990756465368 13.840089594472433 13.44466944610236
Pb 9.57690403838039 10.807061854099178 14.56281774024751
Pb 14.460935467132211 12.48783285088396 13.190622784218707
Pb 8.40130759036248 13.066290491518256 12.586265950574381
Pb 10.960653254509849 8.25308463183735 12.681963715428312
Pb 14.041166061133769 9.235709693718684 11.920876560083903
Pb 10.19178886705919 14.623762536198692 10.37668348029931
Pb 8.244636256071525 12.025691533634097 9.474089358632076
Pb 13.330913822831148 13.793238943705163 10.020889549814086
Pb 8.247546580889786 9.749857453039125 11.798376861807476
Pb 15.638720688679895 11.575343639196687 10.453739256748083
Pb 11.024140521651695 12.452723167144226 8.007893169993627
Pb 11.288904672666735 11.407868683380357 11.45182832411592
Pb 10.304941285224295 9.213173478629477 9.339902604374188
Pb 13.353660808344301 10.463570975593761 8.655534127284916
