18
Energy = -59.02137418 eV
Pb 10.958108891136055 9.916593264656822 6.9616015567147205
Pb 8.821833249523092 7.982250767925401 7.952840813514515
Pb 13.149436301070004 11.901794397607574 6.291351684306331
Pb 8.071966380320653 11.450865428287175 8.203911980817313
Pb 11.207112543203017 13.06889665904193 8.312623886620006
Pb 11.993261819603996 7.606753446755264 9.434202019230849
Pb 6.773678268500283 8.998869461230814 10.20249819057631
Pb 9.215728038741842 13.933004511704405 10.448399489917493
Pb 13.591142182257098 10.697160934521328 9.041640894553526
Pb 6.958263224308411 11.852380484283946 11.389851524480967
Pb 10.191064085494917 10.276722228330259 10.646148905448296
Pb 13.708446080713916 9.56130273887493 11.860165838674925
Pb 12.352250477032447 12.783471842098805 11.62537283428697
Pb 9.042832504382565 6.805218756206853 10.929237073133637
Pb 11.568632248167306 10.526668969795212 14.047098591383415
Pb 9.40710291081348 12.619434224460973 13.371183301867978
Pb 11.398941018958055 7.538941236602792 12.797937880525286
Pb 8.391921939466862 9.281392811309948 13.2856556976416
