14
Energy = -45.42101371 eV
Pb 10.009287224082987 8.79363121856107 6.7592586909930565
Pb 10.93547469003224 11.82035278043036 7.027736159912956
Pb 7.934011519479436 11.103286352977154 7.80873831246725
Pb 12.712258528151095 9.265771318734577 8.225431834359444
Pb 7.463398966801139 7.969770340974046 8.39644377647381
Pb 10.387322758073525 7.358072857809374 9.715796554110472
Pb 12.736698944536048 12.313488970462547 9.560606982521104
Pb 9.451637770458825 12.63277562157189 10.221567980037056
Pb 8.110880679077471 9.683097418891917 10.891297157124315
Pb 11.417065614859025 9.983669229214835 11.160002788392017
Pb 11.602422156974264 12.934866281121472 12.633773505216633
Pb 9.82948767876976 8.109778352696841 13.241677614213707
Pb 8.933190038054363 11.297475066944806 13.541908203786614
Pb 11.910944723018256 10.168045481977837 14.249841732759997
