11
Energy = -34.9379749 eV
Pb 10.417539175397781 11.115082090138799 7.26789469294244
Pb 6.307620281087422 9.060353906415738 9.236945048650139
Pb 9.152200867832477 8.425006378718676 8.406921946586142
Pb 12.363267702419334 9.159867480169556 9.468352318424133
Pb 13.310726621064044 11.754415142602364 8.136062609600238
Pb 11.396029377667483 12.097821491359703 10.51622812873729
Pb 8.158475546529784 11.44877952374274 9.48365161797395
Pb 10.634489342474293 6.916041750127755 10.722714801188687
Pb 8.118461728066697 8.73446017661933 11.793691938890747
Pb 11.145881044821204 9.485650656577064 12.501858541891004
Pb 9.012393182511476 11.819606273399698 12.482763224986938
