26
Energy = -85.34380471 eV
Pb 15.31033594834692 10.943865042608214 16.38106744040185
Pb 16.384813607193472 9.6272268132617 13.659278406536014
Pb 14.60770015820556 7.789043248276294 15.671635816271982
Pb 15.047658318639543 12.788839977376877 13.540513618376
Pb 12.318661448807928 9.75540379017575 16.95375913439987
Pb 12.721455247004204 13.064982030461275 15.891931626285894
Pb 13.02574924002126 10.425949996639313 13.770001297680585
Pb 14.133883933372202 7.63321588370083 12.450628189770176
Pb 9.747266855098477 15.235910472483775 15.074875832133209
Pb 11.518538547557975 7.863629715682266 14.43533781554958
Pb 14.94480992280551 10.754149222984129 10.844067600979612
Pb 13.001758410672352 13.365369577554167 10.26481915819098
Pb 9.662354166236383 11.949753818031112 15.667355693792995
Pb 15.633324064282517 13.757944545198834 8.530570191541436
Pb 13.894768095722803 16.303675115027055 9.618911849418266
Pb 12.065527189700635 15.980644099059257 12.40766731848465
Pb 10.965600854878486 13.089267462329971 12.920117752704202
Pb 11.622687671731747 10.506608575666636 10.33322378689234
Pb 13.675964912287673 11.470974837654728 7.582892909244466
Pb 9.1892837327159 10.49262271492907 12.688790132273915
Pb 7.601962167059796 13.31574927669846 13.620890095866185
Pb 8.781009771253816 15.906159191535759 12.020231647856505
Pb 12.939129595077196 14.62048327133373 6.9407875972902495
Pb 10.630216826849882 12.498490374644609 7.866659967904862
Pb 10.648172557915181 15.638387531383303 9.237174699844754
Pb 8.539232109167946 12.965215824295795 10.461958685237509
