20
Energy = -64.54678738 eV
Pb 13.745542630359136 13.210462136616856 8.38769338063154
Pb 10.649921123353327 12.540133740801185 8.871611686019051
Pb 12.824859246478592 10.26310404951463 9.898391525245266
Pb 11.896587886988955 15.514201212798138 9.452711829131166
Pb 11.723709249008444 16.186350300324403 12.613704902806774
Pb 13.34578858496041 13.23540307146721 11.783409296010817
Pb 9.321422851862359 14.45792713757182 11.012874181454752
Pb 15.82458980229091 11.806822314220142 10.235691883536605
Pb 10.572687332672917 11.672212062213568 12.1669490117557
Pb 16.412159665831325 12.545754165024318 13.322610784086276
Pb 15.048636003430026 9.661159339365973 12.340065774372217
Pb 14.24997581231549 15.969924583979575 17.12402418516873
Pb 14.902971522868786 15.52086120434482 13.807121954477294
Pb 12.245660224799428 14.562115254515014 15.434509715386552
Pb 14.449163508784546 10.746387233224157 15.402981149663725
Pb 9.43385816342725 14.150143081832663 14.146999593005258
Pb 11.087817508226044 11.543751040531305 15.576521457566432
Pb 12.106000961342705 9.280451663214777 13.399310444400058
Pb 15.977031325289706 13.562930092162105 16.310637938769503
Pb 13.222149493998838 12.610439214567066 17.752712204802087
