26
Energy = -85.29299295 eV
Pb 8.688695461704034 11.044036804697043 9.981106947359493
Pb 10.484809421267904 8.392140846765827 9.85403474682917
Pb 11.448408450218391 10.303428104940659 7.297570599391779
Pb 9.808190946074854 14.072324197741702 9.841540748092784
Pb 7.311150867657343 13.107227568082058 13.852877559165723
Pb 13.520948795484697 8.334221921552805 8.80810589817895
Pb 8.130841647794174 9.952806280556052 13.049886817435775
Pb 12.070002413580376 11.154085873140087 10.325253764499289
Pb 12.505656301335913 13.712901165956628 8.23015069073192
Pb 12.96246384186674 8.306116677481802 12.08092277463277
Pb 9.490668284785869 15.440520862441797 12.741275200843226
Pb 14.557214294163995 11.249920383945113 7.89219442482528
Pb 10.228881548122914 12.292933569157457 12.857185215589073
Pb 15.55451329328192 10.179690367479402 10.93088032454204
Pb 8.820583213009725 11.226493104827078 15.968579063877888
Pb 12.58529693325082 15.627489998259891 11.017767443183986
Pb 15.445852374564728 13.7613587627883 10.022335187782968
Pb 11.142199798902077 9.401646368296559 14.513351117209156
Pb 9.63383615005507 14.353489725141625 15.808155754498333
Pb 13.452582156097996 12.856314281827936 12.681068232329897
Pb 15.4278108265841 15.528701891425197 12.891003187982006
Pb 12.497825557859349 15.553799312558798 14.522664675129853
Pb 14.411292591438894 10.247303863082676 14.321834846900707
Pb 12.139240924964367 12.186180202224778 16.129049475169555
Pb 16.730354431336558 12.587447258784366 12.82888911371341
Pb 15.030821352528108 13.620507650339443 15.458305654462713
