26
Energy = -83.97851302 eV
Pb 12.714703492133294 15.958787317258 13.448656755251395
Pb 13.355535885463201 18.685980223242904 14.855164726081874
Pb 15.692888507297596 15.984391965921962 11.917732531460336
Pb 17.725067599789806 14.06934125728151 13.754363712083983
Pb 12.766126237920139 16.564735517203165 16.957968271171584
Pb 10.68215647874786 14.06001160813577 15.260861965089838
Pb 13.215928367164768 14.843662828525524 10.04755602461081
Pb 10.348438458108546 14.167375578672287 11.719341530265336
Pb 15.78101487784469 16.81773233858291 15.043839657795132
Pb 18.04223644363282 15.486443026919204 16.671161315203197
Pb 16.38903960321602 13.004186111753482 10.953561974387492
Pb 12.079097747080587 13.780959544228706 18.23479655047598
Pb 15.377852775452075 14.76081383941323 18.36743101165944
Pb 14.551546480395395 11.596745934017848 18.03687917039824
Pb 8.533114893731968 14.158676492112306 9.246411636909864
Pb 16.154798821220766 11.203430447241324 13.905157090368823
Pb 17.284813273647092 12.424797191689722 16.665223099412977
Pb 14.001507486000587 11.945481749124745 8.786926001844652
Pb 11.896056279893683 11.234090212565771 16.251772878421043
Pb 14.204087163173284 13.582721053159315 15.378969166667263
Pb 10.967365821200172 12.483780774849885 8.540617756710548
Pb 15.236775353502242 10.009928166144126 11.00698472024295
Pb 13.33197755078156 12.476257987903654 12.263392381630085
Pb 8.859633840413135 11.32969339520938 10.65550116069327
Pb 11.934306797069087 9.905434441477158 10.427515359177937
Pb 10.581021956654771 11.171633188901332 13.309305743520774
