31
Energy = -101.79229513 eV
Pb 10.032724830187389 9.39371207437339 14.132984771845269
Pb 13.209963278121641 8.017330523924684 12.935027104079218
Pb 7.550152785014032 11.359971364961902 15.037919005258333
Pb 13.240165263304617 10.871171240746982 14.839759585507595
Pb 11.942828779935878 8.175566071323564 9.963454539432949
Pb 10.521850538040917 12.865797254650067 13.984517531757934
Pb 8.429590827074966 14.079013140518091 16.486871259952714
Pb 8.581426673674356 11.211901423700017 11.878737783906605
Pb 10.265279826415433 11.282840405732118 16.85488331731284
Pb 11.862353754031417 10.767500074101655 11.766161454667003
Pb 16.374224474534753 9.25042112515548 12.96234306122152
Pb 15.070857013539834 8.133675014161106 10.25266490269016
Pb 16.818328544114305 11.4009027396878 15.368120782114378
Pb 7.583616918761702 14.113098743845317 13.290086725541919
Pb 14.894812761111849 13.777286908112016 16.317647794826534
Pb 13.617577319793353 10.748350804851656 8.945130024530577
Pb 15.11644560654545 12.313391226489658 12.540042626333316
Pb 18.497835936202378 11.857050581333207 12.672565190434248
Pb 11.764889287726694 14.333819220717043 16.760437405818134
Pb 10.096932553675206 16.245366538254974 14.586196540218364
Pb 13.587567939560403 16.262441125569318 14.676428398319104
Pb 16.765222424083294 10.93488012540367 9.999687016612807
Pb 12.69864949508953 14.65281769692387 12.056566592246355
Pb 11.431436252296876 13.500571842547942 9.446327594331626
Pb 17.120590813152283 14.481683296520954 14.140510545154667
Pb 9.63038469417074 15.70241137978742 11.163189087917276
Pb 17.142311816031352 14.374545948845968 10.989013279903672
Pb 14.455001401025509 14.626740894678322 9.15866462745332
Pb 11.708566217223611 17.99198880052957 12.35925395975764
Pb 14.840926686027938 17.02474471343778 11.422469320516003
Pb 12.242446790196034 16.86614492632255 9.445762501136034
