30
Energy = -98.15622553 eV
Pb 15.351461642261624 11.91800014245398 7.029743527628874
Pb 13.784258152372344 11.705085480891489 10.039886168071645
Pb 17.287092696352705 12.607414602669344 9.510757747947224
Pb 16.081876310879757 9.548801323254345 9.001176808598677
Pb 12.27376005369218 12.854676164786008 7.329893855443126
Pb 10.22926248067733 11.804264992148047 9.631560267140392
Pb 14.82517886089859 14.613013107955105 8.648146581047484
Pb 8.570087468586703 14.403922777852811 10.637504371336005
Pb 11.350655643305712 15.165518360918425 9.348438644789304
Pb 15.61359241182314 13.813282308314816 12.047034766779774
Pb 10.440091621242402 9.076455834207334 11.506484518036789
Pb 13.775171948264257 8.306712757374248 11.0987253994441
Pb 13.66724839701264 16.3780488596908 11.187393415856612
Pb 16.54750294284267 10.517273709705703 12.003783346586964
Pb 12.083910946940552 13.813083534666925 12.452553357717376
Pb 12.251531466680072 7.262690984296794 13.92663968550026
Pb 8.814801148603562 11.749022099163366 12.507859794175
Pb 12.837160637176542 10.621076187250281 13.223693752301495
Pb 12.394227688664339 16.700730543550954 14.109016701280137
Pb 9.326412957515139 15.475257450897168 13.491694512880615
Pb 13.613488321897504 14.25481123177486 15.713073930249427
Pb 15.205997051524484 8.27705447327506 14.111411188402428
Pb 10.131306069539516 9.483285842024053 14.819208021590176
Pb 15.436665712728622 11.720609110218735 14.850518859588396
Pb 10.487409495297227 12.788424368655058 15.113843964756015
Pb 11.648969117357181 16.449687069977937 17.409637770539888
Pb 9.665829312826897 17.861226157672004 15.393840140596762
Pb 13.089870564862409 9.498930411373063 16.212895392349775
Pb 11.485300408844397 13.362179048083803 17.928750684779526
Pb 8.787503687749807 15.027086283316288 16.77245804300565
