39
Energy = -127.94955576 eV
Pb 17.715704568836244 13.435689347852929 10.647815066430073
Pb 16.06098084637534 10.452860655548252 10.495677421583471
Pb 15.701218152042975 12.660045245356233 8.189823903845413
Pb 17.874351257492854 16.588383053695125 11.719467629410449
Pb 13.066074799106442 10.964236330394614 9.025063581609922
Pb 17.316730058684 11.855884128793692 13.51424899833012
Pb 13.122988713216357 9.334857862579158 11.76312781408705
Pb 18.592052616697266 14.93447133614821 14.384442345141174
Pb 15.94113069541027 8.840051353621055 13.179897398888532
Pb 17.640133991794162 12.92567869316222 16.874157946122725
Pb 15.627702499525553 15.69021996632039 9.456987039511755
Pb 16.075729001048444 10.21735389549273 16.312380979851774
Pb 10.028155690831248 14.8824730560217 9.952455092385877
Pb 15.169374076290353 14.468377454605005 12.643032073144159
Pb 12.286751453503337 12.911530026339653 11.525696419496526
Pb 12.786886785723258 14.101387044830311 8.367512602894237
Pb 12.755436135011559 16.28046669020904 11.000773756029233
Pb 17.96604749404019 18.318602140858964 14.632784149129266
Pb 14.083273091596263 11.480919033819154 13.952747977521156
Pb 12.501175528594347 11.414709186871944 18.95590621714725
Pb 15.138335785591666 18.06586331763917 12.742880524417695
Pb 15.612850734983022 15.963813348917533 15.60978864179019
Pb 18.589559354684503 16.351751043849145 17.368144793751615
Pb 15.637315197947109 11.465915645956567 19.397755795625002
Pb 9.24172649415363 12.942944330172919 12.371432133059868
Pb 17.731815207725553 19.48192533024432 17.579834536769336
Pb 14.30465070488007 13.144758981880537 16.86249318060717
Pb 12.050247919152177 14.766228880143544 14.636139924544057
Pb 9.615377145905526 16.22279877787226 12.907055317098205
Pb 16.97216063190213 14.40716607954113 19.69185578276164
Pb 11.35818828249036 11.73628129430368 15.88662564757114
Pb 12.218604302206254 18.02725683323236 14.27300958147296
Pb 15.701940956940701 17.343266134217266 18.786371173645456
Pb 8.848786945243843 13.990157404034578 15.358530530961666
Pb 15.006368394783186 19.268211658996073 15.922825412824167
Pb 13.744956663301553 14.231387496593495 19.925319949863603
Pb 12.732309016776602 16.88582207950626 17.346687983632528
Pb 9.674508409760588 16.996436404878626 16.14035835937468
Pb 10.878607263462255 14.320025323211215 17.96909918538069
