37
Energy = -121.41113688 eV
Pb 17.8818823148607 15.747484376955256 12.880558511148045
Pb 16.292291343378775 11.206856921241615 15.95128531043533
Pb 17.155710207292792 10.877139702559624 12.712617477057623
Pb 15.541364226094306 14.396793393647668 17.02611814967799
Pb 14.508476867495157 11.900134741817165 18.802561538881044
Pb 15.829710972208956 8.272453778485708 14.432042631586652
Pb 17.212655782839143 13.640536790503251 10.57291938897793
Pb 13.492681081958684 9.355314959463131 16.67653383528437
Pb 16.452679041694857 16.800839081493343 10.269158928150993
Pb 15.20867995836525 17.657124997428948 13.1576116737697
Pb 15.581915622731868 8.356217002799935 11.22160782153729
Pb 15.502532660353312 13.870418945780662 13.683846422432973
Pb 13.477818976560146 16.73990302635709 15.799454313296225
Pb 12.948706858622744 12.643060312030705 15.763017207809288
Pb 12.335065985528542 14.352659650835635 18.358689526605882
Pb 12.894043501402281 7.648703593831094 12.950344688187727
Pb 13.843526688628142 10.628662929568744 13.305705460841999
Pb 11.418643002455422 11.220545859302357 18.62891857254869
Pb 13.193682545331157 12.743625496756719 10.927273098967229
Pb 15.663100461893347 11.076738520590993 9.398374584138708
Pb 14.668401129471443 14.569058757638379 8.666537738752119
Pb 12.168567314427449 18.844067731287826 13.319258207652702
Pb 10.45087126378155 10.132858769268877 15.57706409866551
Pb 12.645079346814372 9.404294893136857 9.966507581262842
Pb 13.2454277535198 17.437444463291566 10.41543359577087
Pb 10.3988521110398 16.662286953407836 15.002659170192587
Pb 10.680630387353954 12.631608442416383 13.296680924727474
Pb 12.710680787234661 15.402257906998608 12.959706624482342
Pb 9.7220191858127 13.154456117631101 16.53743382108015
Pb 10.139833712367397 9.483723124443523 12.27341564913394
Pb 12.87843611225196 11.892686533669108 7.692399809445061
Pb 11.390546934400621 14.609541180296937 8.81222148389946
Pb 10.104863411398819 16.923386397173527 11.658197246999535
Pb 7.867612875209973 11.846854338768972 12.009797965949812
Pb 8.232088332043551 14.732917125896579 13.531612205470765
Pb 10.080391526808484 11.532196584645462 9.512406909317496
Pb 8.508105014952148 14.403205323073445 10.201446762430358
