37
Energy = -122.21728853 eV
Pb 12.402582888773773 9.426733316222133 12.587896189558203
Pb 9.866990557197923 11.134814532696335 14.383176440616351
Pb 15.142168251553414 8.618016258468717 14.330347998389348
Pb 12.624933108073929 10.069952067253102 15.913453809045205
Pb 7.991808308661405 14.176810013109844 12.858568698257864
Pb 15.465354411425638 8.987120677943604 11.266256017788212
Pb 8.30394997028246 13.574843276263593 15.956287009986678
Pb 8.509332019891094 14.427677126183006 9.878533673434086
Pb 13.384126936556324 11.209459968198503 10.026794172071146
Pb 13.946160472443685 11.846572351555876 18.455040918138454
Pb 16.374786242138132 10.712182384023835 16.649925146150913
Pb 11.052363626203066 12.640411030190675 17.156268360364045
Pb 10.553090477671425 12.333081447076363 11.447970553844081
Pb 7.860907833907161 16.677190138307182 14.940354417139796
Pb 14.451921152472488 11.88443596809314 13.092693144366178
Pb 17.509981739678217 10.733920246295376 13.422674247630276
Pb 11.649074388724912 14.08840733492374 14.145828419950059
Pb 8.214548942036355 17.2340764960957 11.767959320453546
Pb 13.858671227541818 16.470655952700074 12.969674494705327
Pb 10.573532862827387 15.989615305078331 16.696965042025262
Pb 16.67418688465912 11.897256571886553 10.483822538767537
Pb 14.26796554298564 14.461838528237521 10.387553475604214
Pb 11.05910696850567 15.69292235772494 11.151373784987099
Pb 13.980467009616879 15.015991524973478 18.689577870124324
Pb 16.652477533811197 14.801150141301648 12.994304969678652
Pb 14.96966134691745 13.802519391988973 15.87389417124811
Pb 10.765997105363624 17.5458793919116 13.791108283399206
Pb 18.336799198425986 13.256316415132726 15.922681983661915
Pb 16.7974358049317 13.407114960195733 18.80428629003561
Pb 13.885372890191475 17.007981645110053 16.125868805718362
Pb 17.63600483560207 14.895973869318551 9.748028180947989
Pb 16.00433629463414 17.537230175234445 10.827419276223168
Pb 19.52853853807988 13.78368324679606 12.373691548347013
Pb 16.998257938866875 16.144220504744503 17.15621528114492
Pb 19.44712984792687 16.13369381191719 14.726748500567348
Pb 16.842357157698654 18.016732733445288 13.969349497262574
Pb 19.075817704963143 17.02171686064235 11.685605489606711
