34
Energy = -110.84330195 eV
Pb 18.56261493440192 17.381697033845825 12.828427320003541
Pb 12.568768181532915 13.531776088870586 18.481863385794917
Pb 15.022603118215397 12.733694522852334 11.736025556269741
Pb 15.700431031467817 19.09277372904936 14.518591149446424
Pb 16.9527418306658 13.620019816635372 15.580916106511733
Pb 12.350388577880873 16.67046435118318 13.922555867914953
Pb 18.809997943766387 18.37346055266438 15.894553993258956
Pb 17.377545815903705 21.22173321065283 16.190689902024335
Pb 17.24433047456065 10.182031430904267 15.435386027597417
Pb 18.06631033628087 14.065541278096342 12.303358035549756
Pb 16.235403474446766 15.79530718390496 10.229259596488625
Pb 11.258634734187424 16.16463427909479 17.305574708108345
Pb 13.4593127097515 14.388638043471007 21.508434438573463
Pb 10.606447847967166 15.152773712999945 20.40806777826278
Pb 11.707356374261234 11.268998996138608 15.465541009522584
Pb 18.43543324513209 20.500966729587777 13.312583573059314
Pb 13.683641029971124 13.585626291546957 14.537947797466472
Pb 10.399972939632407 14.01928832841584 14.352301550144839
Pb 11.706356265317405 11.960876176677123 12.094100116126542
Pb 19.442243547991357 11.984855178847747 14.180217496005806
Pb 14.522520198316 15.959567106827969 17.02242573070249
Pb 17.308624294914683 10.647928949266205 12.224539388035161
Pb 16.098603622171453 18.7637774448494 17.79841834945884
Pb 14.320031857460835 10.098152149093659 13.670008739143338
Pb 12.865502318610465 17.21693471999386 19.871604890109463
Pb 10.825326736500035 15.098606073325456 11.42126470706038
Pb 13.225606438706725 14.04457795772053 9.62683423375959
Pb 15.551504094971898 16.05542928067914 13.430041848080162
Pb 16.05105596073293 18.89613422814571 11.355284605195738
Pb 14.663729020148415 11.38316357570107 16.80149890130094
Pb 15.792910570082434 13.653693974959344 19.277113538395
Pb 15.889353560157767 16.66935111936464 20.40285868432063
Pb 17.807221203039727 15.784818574600315 17.881987947071273
Pb 13.276426981162956 17.121261887507025 10.808135628657409
