33
Energy = -106.45923134 eV
Pb 14.412248805598738 10.039422599974422 12.084484102253954
Pb 11.338676601150322 9.77953116267271 17.579572982442855
Pb 13.99193876906696 13.191214503440307 13.549770958562046
Pb 17.285911261418686 15.646602218121359 18.789457981163654
Pb 20.013352357242486 15.42487756978088 17.1028340107941
Pb 17.326226940208617 19.760261443012375 14.045655991891868
Pb 13.893611290257939 19.098458988606527 14.467500623006188
Pb 12.803737249934752 15.955819934617336 15.038543388950872
Pb 11.515910460988117 11.045372117665046 10.633503675448122
Pb 11.881930525162725 14.43335988384199 11.231988106028842
Pb 11.730920433594564 12.926571690102513 16.71980724255726
Pb 8.824133384886284 12.784786724484052 10.877258166376748
Pb 16.256652185039954 16.594841941303955 14.560574089698752
Pb 12.220735346760607 10.25556875293919 14.51181700849922
Pb 15.199196363812844 13.963249447451595 16.592294843426775
Pb 19.76158752577019 17.136560872551144 14.389837640343977
Pb 7.201975109015502 12.401701376838538 13.535786512151669
Pb 18.106926054053282 13.947607196728358 14.670243090580135
Pb 18.218913157945064 18.234035809679973 17.109670479095882
Pb 18.919445903902744 18.61417505115942 11.70106388203072
Pb 14.76330082167254 17.289398268739085 17.477423551598353
Pb 18.185280544803 12.826375271014168 17.60782727763927
Pb 16.089590173767682 10.979075441019312 14.788964759170662
Pb 14.299524341131853 12.667638003808326 10.1719963183471
Pb 8.997757611139567 11.03513817260408 15.78321824906694
Pb 12.535795578564498 17.462794191670667 12.230273747790319
Pb 14.168236158995947 10.86186057509787 17.36580901982404
Pb 10.297830917630394 13.228234097726293 13.759054276476153
Pb 15.641584108027505 17.896995440120655 11.662779860966536
Pb 15.717413923426033 20.31914196840941 16.65537483461294
Pb 16.893254962464166 12.440287601259493 11.99053651737718
Pb 17.96986285144542 15.568753316571792 11.738344649539389
Pb 9.230334777500351 10.056390244497372 12.6309082956619
