40
Energy = -131.8502077 eV
Pb 16.814282886358207 11.860317420987148 8.337209160301411
Pb 13.937029760435905 13.372634750023273 7.923422214752667
Pb 14.322380417921224 9.990569877866264 9.102880972131867
Pb 16.77997238795792 14.958706985787268 8.777310983940364
Pb 17.009038451975513 10.045280917896424 11.043728708513468
Pb 17.94646333899503 12.173216507875521 13.25176842677319
Pb 14.622915246891559 7.9110524930946475 11.807867824674892
Pb 11.367643836942847 11.719526731487175 9.038602577362937
Pb 15.555581062902382 13.163507830724633 11.164726065908967
Pb 11.63892623320459 8.76810774286389 10.397548054666743
Pb 17.611738335913643 11.721191680168186 16.306148807978065
Pb 16.16990507599871 9.489019287827166 14.394310820054635
Pb 16.90052750412507 16.540105111995352 11.604148151687683
Pb 14.155754148819957 16.670441511798273 9.18446968617658
Pb 12.962974017346209 10.588116299354935 12.877570194855444
Pb 11.699491825130512 7.382349921390865 13.216884288854093
Pb 13.162748216818965 8.554778229385743 15.721919561598908
Pb 14.905001769845736 12.7480758173311 14.767445256808113
Pb 17.337836264363183 15.167903286628638 14.600827047339255
Pb 11.310436157222151 15.146595999331915 8.837698917295324
Pb 9.121697862053145 14.62919257776761 11.533231225030002
Pb 14.3589029024919 18.775058741079686 11.784406632575621
Pb 14.12774327697337 15.858225892451836 13.465158115762877
Pb 12.267938363813581 13.668734173522111 11.610015695237472
Pb 14.865177313809172 10.690012232321727 17.46360408258207
Pb 13.58416845089953 13.688933524357461 17.755236645481126
Pb 16.327622673693284 18.42528906072556 14.274898612753367
Pb 11.514220996063843 17.000483952175156 11.467104098421952
Pb 9.75421576771943 11.450050752138994 11.87679443334237
Pb 10.162377200555678 9.778353023476365 14.692333276685005
Pb 10.86862361163115 13.478202675845708 15.091862999259058
Pb 11.567611934507383 10.755690141998803 17.55894427839973
Pb 15.076786385983691 16.512958685079585 16.581388130693043
Pb 11.614476150868335 16.305921176044496 16.79012554200201
Pb 13.230910295721939 18.641183580711587 14.902903939299108
Pb 9.487792408752487 16.600385408273414 14.247102457959363
Pb 10.523798227107283 13.602369611489483 18.63498204360666
Pb 7.545762213034782 13.87788120474452 14.222281957905226
Pb 8.470596006659942 11.871828616954073 16.645091131584216
Pb 8.39131962361884 15.195617004834554 16.929279367649652
