4
Energy = -10.87791958 eV
Pb 9.722409705791083 13.262040570293044 11.353284217681885
Pb 9.942077145208723 10.623812318717071 9.946222973843621
Pb 12.060189744799363 11.549296846431043 12.107418196117814
Pb 12.249609976350907 8.888004402747338 10.744676278421226
