45
Energy = -148.9324098 eV
Pb 19.23204997537381 10.165497666684423 12.995685577026498
Pb 17.20779805980946 8.645467737983626 15.370951344425253
Pb 17.196784380161137 7.906300416821559 11.988211846829103
Pb 15.739501206439641 11.575381305739437 17.38654877716177
Pb 18.242073219279078 11.931747899596205 15.458110008895048
Pb 14.034735366717008 8.793271046275231 16.8108185121146
Pb 17.4958433586017 10.733992047830249 10.35225989387364
Pb 18.01974371332097 13.221805780527937 12.421061713857002
Pb 14.42794862130075 7.532193346641384 13.677592637672191
Pb 14.088464685144588 14.385726068069342 17.912190457249654
Pb 15.737187667595782 10.712105633904146 13.474427956126766
Pb 15.410932755805836 13.844717817234153 14.649073824431698
Pb 17.14188894241157 18.349660383891223 11.244042949183502
Pb 12.86902552888833 11.732309286635376 19.129233117871628
Pb 14.519051897302763 9.329309684165015 10.600587482726983
Pb 17.202755620963405 16.740537152193316 14.018553496643737
Pb 11.036228947848695 9.491892394846571 17.961976351285777
Pb 17.06177737031761 15.534098066834368 9.877214786191784
Pb 15.006216655656962 12.920237176058823 11.028935270321801
Pb 12.786930786726696 11.655136026385101 15.676455363781686
Pb 11.222831942024499 8.09825437019025 15.013755941712319
Pb 14.629819599439022 14.60589089760194 8.15250606351061
Pb 15.17535753301072 19.273784494267616 13.657171740355944
Pb 11.652282516879605 12.808384704345173 8.884137669234851
Pb 11.765452969407836 8.18324645424429 11.794265914434538
Pb 12.076797077509166 11.463210175190335 12.093064414876677
Pb 11.916888891536313 16.749621183358816 17.698022883921794
Pb 14.733023205716094 17.746486446361345 9.137616863374063
Pb 8.688047500885395 10.290483004448355 15.935264203454746
Pb 14.650093209816848 16.242938167906228 12.106221386586034
Pb 14.870265351867989 17.20597737779005 16.240485761750374
Pb 11.787557817385993 16.162363428994517 8.417144800305122
Pb 10.328032417581001 12.764404823008709 17.479390770330816
Pb 8.982476437009375 12.122022205408488 10.696790185823271
Pb 12.296805306011066 15.272493540214626 14.80545921828298
Pb 11.16353630898092 14.834340642510371 11.462994578241155
Pb 8.913875086194926 14.706946217375632 8.738675722168816
Pb 9.222290414611475 9.69633488264324 12.89054854847217
Pb 9.403009155297399 15.648288776425584 16.07092598510643
Pb 9.708458547609451 12.864515398907054 14.017824854186383
Pb 12.41338503891627 18.548061516030096 11.597408379109037
Pb 12.255031656469065 18.700025550412978 15.01648901318772
Pb 9.465701454140763 17.535228071335503 10.244824455616499
Pb 7.865463904614787 14.943693664886375 11.821347055263406
Pb 9.681198763243469 17.405624561167603 13.42901036135509
