4
Energy = -10.87880224 eV
Pb 10.286224014045477 9.26880998691528 10.168015133249664
Pb 8.392844191757275 11.173207137853861 11.491458160871645
Pb 11.237571085709439 12.0814285926829 11.269933774566377
Pb 13.132771483516171 10.177093054266606 9.957586231400885
