48
Energy = -159.19835159 eV
Pb 16.248617035811026 8.913103479499666 13.003975872737357
Pb 19.300358815101028 10.864240480640413 13.315266977871481
Pb 16.13737075823091 9.675337364200278 9.906169508533502
Pb 13.046500974302582 9.281955035017521 11.33945253450799
Pb 13.841325976621857 9.367579423631579 17.687827392881157
Pb 16.784411591324364 10.694329215107837 15.619828765307664
Pb 13.677386212710571 10.640095890276815 14.378160986883119
Pb 13.3029112126818 10.594963047772746 8.331936026103849
Pb 11.091858765140923 8.989925172314292 16.014363034808753
Pb 10.834493583290639 9.83453471121002 19.109239341657684
Pb 16.512633805893024 12.199991366056363 12.449982439870265
Pb 15.893496539914828 12.677406860808631 18.19522449001255
Pb 10.400274339497264 10.847653725582553 13.393143720539957
Pb 13.342601132510412 11.524112832511241 20.08624844611705
Pb 18.767918750328988 11.796480344181418 10.040253860996529
Pb 18.372287939687048 13.428480924887248 15.36004125365142
Pb 10.705415352928268 11.235183470483651 10.05743800119145
Pb 15.961433343206178 12.593354494412281 8.385791299105248
Pb 12.39465429160215 12.266597979860832 17.057826504393535
Pb 13.506715505934741 12.511562859999946 11.174488961894605
Pb 15.013211340101845 13.755173029879048 15.075496819000694
Pb 13.325582065411895 16.307083716408783 12.87388268623842
Pb 12.783294553327684 13.815054056823069 8.296977619310454
Pb 9.12542955419745 11.513501805606195 16.79427051230025
Pb 10.843647540616296 14.46264593347164 11.006593210109616
Pb 15.806263642659829 15.360351780852088 10.83101216929077
Pb 10.407969641246737 13.19319426582703 19.42993520617003
Pb 19.26022910772095 14.119640990304692 12.267802016971967
Pb 13.548538636552557 14.790347017586202 19.63116345968912
Pb 13.588002445425518 17.430556231329717 9.617636769570758
Pb 11.720042870970092 13.70762320789236 14.108624091328318
Pb 16.953216159765066 16.24668470062642 14.14628310626909
Pb 16.15949908869776 15.86387237791967 17.473377837293388
Pb 15.407358540757183 15.740021797076553 7.465860387056044
Pb 15.574188783146383 18.671436582433984 11.923911302245868
Pb 9.42453397162038 14.93951438899088 16.505199461381086
Pb 12.682196346387142 16.355444477852966 16.377137726376127
Pb 18.41826234749839 15.064069807762937 8.941416500656862
Pb 18.555845362128256 17.309833708502936 11.411199960592288
Pb 8.480224669856478 13.345863175939472 13.83009882322996
Pb 16.70417744279589 18.2158189011698 8.962574146690852
Pb 10.955212469948208 16.88006951587208 19.099270438684357
Pb 9.88251799394465 16.57229683277807 13.490082417578533
Pb 14.942936712914664 18.77265999377959 16.017464102362226
Pb 14.194483635275848 17.935723568937362 19.09114518122494
Pb 9.590280428160936 18.183661644180553 16.290138065810442
Pb 12.108651243985214 19.060297944871277 14.273221146005795
Pb 12.132705054835817 19.705827056688275 17.493550399705263
