53
Energy = -174.57443939 eV
Pb 16.311137363709275 11.855729553830889 8.23446821412146
Pb 15.076258730159408 17.039637473309988 8.271315307019956
Pb 17.5791605530829 14.923507258078114 8.224248685484149
Pb 14.478064658280182 14.1984920127301 7.037113767499163
Pb 13.071672002394441 12.176287024785927 9.232789251153129
Pb 12.36162338788116 15.517254120501011 9.303787113926775
Pb 18.422200235521235 12.730648393091446 10.882997984553812
Pb 16.19388810940975 10.364644469844766 11.136350116357885
Pb 19.954870316824127 15.492539847112043 12.244032415948283
Pb 15.278321349891925 14.204440952144976 10.465905554658065
Pb 17.110049067786566 16.94796170699669 11.05503614776073
Pb 14.069532988742058 18.105967286037043 11.218410789216623
Pb 9.9665061447599 11.621781432393865 11.773735877747795
Pb 9.41071372474872 14.654218299604219 12.578990739567903
Pb 16.02032359767349 9.69448530721012 14.790049240426214
Pb 12.501070722711823 13.660108562454727 12.307210672646914
Pb 18.713404512074238 10.469246484846726 13.284346947136868
Pb 19.131671592189964 13.369876651502109 14.421086966205712
Pb 11.564469489671355 17.146064883746035 12.898512092886685
Pb 21.21983114358452 15.989267449873594 15.00769934798603
Pb 13.087298032787293 10.454093083151852 12.515008906659169
Pb 16.054715705499117 19.61206965989131 13.704204124173668
Pb 16.0494195146917 12.632133522671092 13.488149730287653
Pb 14.75996916390722 15.889088574913348 13.523608090034271
Pb 17.947725592076225 16.91485663132885 14.470677490094044
Pb 12.627151875705145 20.397905464323372 13.895711571864505
Pb 12.907906095828961 8.860534442620775 15.473310698830199
Pb 16.893423087537982 11.432726452626428 17.41998160881337
Pb 10.243483703450382 9.182228592300671 13.800921702933092
Pb 21.917905537074905 15.506044465213167 17.863686032466184
Pb 10.684509862045706 12.217645626107187 15.036256326467754
Pb 13.736800404279903 11.874059537129053 16.47496323878211
Pb 18.955005677057834 16.61256322865309 17.696930670909993
Pb 14.118680916795448 18.280633229435967 15.926070829547626
Pb 16.502195901802434 14.543546573940242 16.318074208619905
Pb 19.754017747598372 13.277131922638686 17.530820482820484
Pb 10.419689814225753 18.27689500114706 15.761883827815186
Pb 8.723950173674874 15.081820117227142 15.639967593201284
Pb 17.23596002534199 19.581955794445108 16.829185475375517
Pb 11.953372091706923 20.782363912779235 17.066398550595228
Pb 14.65350616926806 11.566989433382469 19.67712064214393
Pb 12.019841669025192 15.338094197226098 15.695729624015415
Pb 14.895377459021853 21.70615086663455 15.915373873015762
Pb 15.84334089661595 16.968037043190435 18.665255492931962
Pb 12.811395541487215 9.216402069616073 18.556100499097614
Pb 9.84511763642557 9.517920432694172 17.07003898238997
Pb 8.437327041157541 12.405546183202993 17.442976867697105
Pb 14.622264737610863 20.106585233790906 18.78304020607794
Pb 17.275965555317054 14.068811467341867 19.493020124901463
Pb 12.278917243636567 17.665053676861632 18.457852524789224
Pb 11.179479088236151 11.884254639862606 19.207368762703517
Pb 13.50318958585058 14.44235808420432 18.536085777673957
Pb 10.069983264440186 14.87486398469595 18.56102299279628
