5
Energy = -13.29098382 eV
Pb 9.061258725573593 9.86972288770948 12.11105032448368
Pb 12.202767497211337 10.325992890289193 7.928792186775468
Pb 10.260766499292146 8.675511715746431 9.518251073990985
Pb 11.167962709656114 11.583661123881173 10.462081622226243
Pb 9.988069390047567 12.563316150331357 13.049644687345939
