53
Energy = -176.18410319 eV
Pb 11.303933663091126 15.567477979767139 18.737632161256805
Pb 14.116450943449646 17.33223110133167 19.777037339062176
Pb 12.108398586400673 18.249166313182478 17.19073638782935
Pb 9.64719482533781 13.041482250726144 17.26343083655688
Pb 9.136303316082737 14.547345768553463 14.15080965576092
Pb 13.127001922034168 14.399831775286577 21.172317703077788
Pb 12.088372982474302 15.150345828508522 15.474429108068962
Pb 11.709786917839649 11.848435465845373 19.529578293531223
Pb 15.138233942547256 19.339672762418736 17.008060938315307
Pb 16.96016003053889 16.652393393859317 18.221680369943527
Pb 13.160226072299535 19.755012192329655 14.326003163051183
Pb 16.253096665536226 14.91927602903715 20.967351627702683
Pb 10.307259551409283 17.77603921912224 14.464515581245895
Pb 14.460215450752289 14.501827078725348 17.93114261730494
Pb 9.564747264180665 10.816459444243355 14.821244836656394
Pb 11.284020548266867 19.217502558172512 11.712115096931443
Pb 10.002578768701424 16.274531596551306 11.517300951582552
Pb 15.066395421911935 11.93091162745553 20.10100462174264
Pb 11.762141420638171 13.382115052769572 12.429738633172837
Pb 12.562155604644019 11.789766360059735 16.140249473465097
Pb 15.213923310312872 16.833354310369913 15.109219330350852
Pb 13.291537815375472 16.61670667583261 12.307420328553732
Pb 8.82045331230224 12.025705216921077 11.946745549399038
Pb 10.252858980641863 9.694319771534593 17.71263978669577
Pb 14.383696212417851 19.45378070025672 10.918636786633218
Pb 16.381044500372656 19.855911752949574 13.570788065471245
Pb 15.18300634339191 13.419817451931323 14.407636570000294
Pb 18.34314081769785 18.037248621136865 15.355075962852577
Pb 14.671026871689135 16.815777329441005 9.125419257251881
Pb 17.546101834239476 18.540649949163395 9.690100972321298
Pb 13.472131650160478 9.359862489645279 18.161515422600026
Pb 17.528842558298418 13.26254014855497 18.46975451475724
Pb 19.49869580499853 18.991291853497327 12.30848927701672
Pb 11.98182980986569 14.998184844360523 9.37112592184956
Pb 17.095560170952947 16.627413833866832 12.289244701689993
Pb 11.964562722586155 8.537739039721796 15.051543842255953
Pb 17.963922440460095 14.703072476146117 15.456229977940279
Pb 10.833770498037188 9.463907249250187 11.856448793326535
Pb 15.826002225183576 11.10809191873949 16.65058659693362
Pb 10.946360398660907 11.875515395666461 9.50406006907755
Pb 13.911503281969171 10.654515070827355 12.736746321915016
Pb 15.134876469253774 13.937703983954606 11.05206958491422
Pb 20.040302804229558 16.494983236904147 10.277856759565841
Pb 20.296477438661352 16.02741904652749 13.444004852102234
Pb 15.27391783223583 8.252693245926922 14.501807894662253
Pb 17.45255042215281 15.140077266958427 8.935634383939847
Pb 18.558814441683868 13.7590128741735 11.801660365127809
Pb 13.286373078200242 7.305814288395131 12.047170365975344
Pb 13.97233230145081 12.47904146977272 8.379251183867664
Pb 17.10385758626998 10.836070282382689 13.37254806336737
Pb 13.422114080574286 9.43905543116516 9.524161300881937
Pb 16.237830729663205 8.391129287367754 11.423487575509984
Pb 16.451214876138035 11.155153401034074 9.892356540424787
