53
Energy = -176.53189864 eV
Pb 8.297424097678098 13.055056517993913 10.902013161487838
Pb 7.381012088774803 15.911318462284456 11.85600883468821
Pb 10.143985030919758 15.620793600475732 9.905643318541031
Pb 7.4780851374121085 13.614520472488291 14.246877324549073
Pb 11.497369974806523 12.459725294688978 10.316551995942115
Pb 9.40106861731289 10.870005888079117 12.931914651906192
Pb 8.985386335387593 11.371828383022835 16.231068752867966
Pb 8.444903924277408 16.823677298470468 14.836551491295902
Pb 12.624597154774108 10.102639449118424 12.37270017650992
Pb 9.875691990859218 17.94417857198701 12.059152722634337
Pb 10.42665023382248 14.628225046984385 13.11611683792602
Pb 14.231842540086534 14.463988559382946 9.434641388705245
Pb 11.02567404889314 9.144950562696211 15.051146706388664
Pb 9.74529772361545 14.458295839376232 16.969782703113907
Pb 14.84482472256583 11.361050054248922 10.002152984837748
Pb 11.988972039013872 12.278666663782909 15.37288501905269
Pb 13.897686200147058 13.331691482671411 12.620966700921395
Pb 10.629625948069656 17.604043838893876 17.39189843440599
Pb 11.854912958701378 18.42631175048044 14.619387656107909
Pb 17.48434323295303 13.762648166759973 8.893135405618386
Pb 11.597033802344448 12.236656725237124 18.913036143735503
Pb 16.651194178188163 9.060584995006376 11.868566932294492
Pb 13.475190730102959 20.189142955624074 12.430351985380254
Pb 15.078138027929429 10.661421279158477 14.493357057051448
Pb 12.967474482600172 15.53310190198375 15.820744392466086
Pb 12.979251017328178 16.569617801891322 11.859186803067535
Pb 15.372151859227017 17.714061570752044 13.82855478285934
Pb 15.559094928296327 18.549903494200972 10.485404820627727
Pb 13.357234604271218 10.017859652394781 17.235045699415853
Pb 16.513628489758016 15.489729242990057 11.694292999928342
Pb 14.858761280345838 20.44598134351781 15.443714231340344
Pb 13.877093837067244 18.037882807245474 17.62167473445535
Pb 16.876522392125604 13.324527622032994 15.175601408457458
Pb 17.94082749391597 10.406860842509534 9.145877089117178
Pb 17.47243755356117 12.280447777745346 11.906728937946115
Pb 12.254611205661568 15.531189215201264 19.279156743730756
Pb 15.822449959204578 15.664154231475367 20.088963768458747
Pb 14.719311847553623 13.284972146842346 18.028344283226524
Pb 18.334075291600527 10.287815862156851 14.627846837867208
Pb 20.380735993577 12.36963980622896 9.949679321146723
Pb 14.374039642897927 10.540952057668246 20.25645740748824
Pb 18.87132994052478 15.820206486081712 14.146026835979916
Pb 18.468891668602748 18.328580969945577 12.005499629064273
Pb 16.599046505748156 20.86500517980857 12.704192755762477
Pb 16.783552299141803 10.7885341399103 17.928881680503178
Pb 17.957123363912718 19.15931561014098 15.161736780181343
Pb 19.77227947257725 15.333630423508653 11.055869667641673
Pb 16.43037378393643 16.223935449472513 16.755692742401557
Pb 19.83792556915975 9.838883925557907 11.8244543053356
Pb 13.708947773367392 13.456940294625314 21.342094302262634
Pb 20.329406314699664 12.813435945186672 13.381297471742453
Pb 16.840224386261752 12.551810950970069 20.79168185160166
Pb 18.162145127862637 13.91721038546582 18.274317346955694
