52
Energy = -170.79363344 eV
Pb 20.11571132905636 16.707289701477237 13.607181249946565
Pb 19.25064612944479 13.477669821919436 16.435846017015518
Pb 19.55004860596411 13.856700340487238 12.070555450263138
Pb 19.101685604093184 19.444194496977282 11.725781274447328
Pb 17.750414848265372 16.65710933132096 16.253542569973753
Pb 19.268949121959757 16.523989629353455 10.391600579769765
Pb 18.987049476208632 11.233233352812471 14.079494207294424
Pb 18.291660027082102 9.220880201128134 16.462814268293656
Pb 18.615138742854633 11.429919804129682 19.00436381600832
Pb 19.061963805802588 19.529461566123558 14.837520329220876
Pb 17.52709182468339 14.469415435803933 19.1983699604883
Pb 17.3029581469409 20.23872886643262 17.30144539188345
Pb 16.80710486753177 17.59909741840298 13.109587471388897
Pb 17.52796311110709 6.824631343739138 18.247314929207352
Pb 15.827588618444208 9.648455057517234 13.955374957378288
Pb 16.535903830417666 18.195631534481052 9.791518762455363
Pb 16.99078854761473 14.040066580041394 14.207468744231603
Pb 16.365008078592062 15.005820664393605 10.907204114376848
Pb 15.27043345652389 12.315379787533791 20.056709289099658
Pb 16.93102701551862 11.832311814019896 11.671115641988797
Pb 14.146889544633057 19.13526784769846 12.144151989238685
Pb 16.179909522894942 9.28033556660938 19.568477159924413
Pb 15.770279053949503 20.72999555037814 14.50375723387145
Pb 16.08756879030188 11.682155594733233 16.876269104522343
Pb 14.459486868630991 17.740998218674086 15.563260179357007
Pb 15.08520969183019 7.946801756676893 16.692030917267456
Pb 13.867212991489772 12.475059572983962 14.203847681677741
Pb 15.851420698828793 17.796800988186593 18.820749088594766
Pb 14.092229512584572 20.39506102307583 17.516258460685844
Pb 12.183278381351752 20.12456142917305 15.003399336790247
Pb 14.852247680034196 14.878981215635976 17.322367688853063
Pb 13.18271311447271 10.456081986491993 18.394686550057813
Pb 14.24909140584414 13.787496529596481 8.644366036522621
Pb 13.112062654111714 14.676859431983232 11.77796722666947
Pb 14.307101419424866 15.559348615079381 20.467745491070826
Pb 12.052510311172425 13.745447785391642 18.83875390097122
Pb 13.566070380573025 17.02023000754614 9.304310405507191
Pb 13.753884864249253 11.431025497510653 10.908321494651661
Pb 10.809911873920408 12.178866550437355 15.959826455321819
Pb 11.912839537538924 15.1908644111796 15.762020348392321
Pb 11.734973582626667 17.270835622499078 13.22761461810012
Pb 12.4538616628691 17.39791018441012 18.27147640383184
Pb 12.670636052781449 9.594462945092054 15.319535750759156
Pb 9.693451261780934 17.953873645644045 15.818428863744623
Pb 11.817293361153068 15.19290666747735 7.294536963819319
Pb 9.646300144148958 15.75733964906026 18.226810662096526
Pb 10.563941628532001 16.268785138728543 10.199894381814563
Pb 11.031343341082037 13.023598732094731 9.535640944177121
Pb 9.780318522133424 13.92409057306027 12.456496728429826
Pb 11.18117717036225 11.111679277345868 12.76469997371571
Pb 8.451208661587597 16.75670735300786 13.012507133046075
Pb 8.511860516728134 14.716595052150927 15.473896977473075
