55
Energy = -181.02115635 eV
Pb 10.908835094863084 15.1426450733129 15.436524064285123
Pb 17.993164099096788 19.029871546565328 18.321136900511938
Pb 20.94500094907273 18.743585384769993 16.322277072150207
Pb 15.967426864830369 21.338045705848927 19.341620686059414
Pb 14.504364744318126 19.561369779890583 11.724284588601822
Pb 11.481685102820322 20.234626826096424 16.06487830867953
Pb 21.347241839732003 18.745603346538992 12.9207154485765
Pb 17.394582500221315 14.394494391706285 15.965289869879655
Pb 15.953947633459094 14.281390994776695 20.81511626460136
Pb 19.721821763009455 16.585386489792114 11.173091247224031
Pb 14.215477761848689 11.106532909134062 14.420652303372293
Pb 13.129664841725901 14.165921148431181 22.494841744770344
Pb 11.513410884932464 15.213608650915123 12.222131754231228
Pb 23.016901369799537 14.04415567704261 14.556275403218654
Pb 16.772855186988515 11.145938969643174 20.29238890251437
Pb 14.013707000513707 14.519044345185932 14.680615788434373
Pb 18.529196500422476 16.770344938711737 20.776010834131583
Pb 12.445951977520506 17.473333943709026 17.791401804506023
Pb 12.072031100718071 12.334196903402924 16.54029409016508
Pb 12.597493790353761 14.44602343052223 19.17412687693234
Pb 17.392814706234976 10.881979263772092 16.261516112815688
Pb 20.36222499818331 16.009505282775333 14.426122178520032
Pb 13.571484037387286 11.621305972343768 20.51394542892689
Pb 11.526326052448338 20.688008185900443 12.706083938129417
Pb 11.746452740535865 18.073187310478147 10.931230174410176
Pb 16.085783661764935 18.745360458347136 21.161579159523953
Pb 15.509770011952611 16.380539130862708 18.387591565202715
Pb 17.39646136889203 15.13416188196973 12.713174710475222
Pb 20.261229275754744 12.2662884399979 15.207868626248304
Pb 15.472191153751039 12.13593485862956 23.066967346861237
Pb 19.00202796683532 12.696230931548007 18.330157017143303
Pb 15.136763096910645 12.732197893553366 17.735424747928885
Pb 13.431064063912759 17.071026434309015 20.920620817812846
Pb 22.01759056599002 13.432065511988249 17.761998702788564
Pb 19.754959208938573 15.960945149535561 17.828913817906265
Pb 22.824933394652636 15.930183326030388 11.882063069101205
Pb 23.685631437549027 17.403771366566794 14.615136829359118
Pb 23.43896600295028 19.833729681793855 18.28095365571028
Pb 14.574360893071134 16.363405228533512 11.565476068474231
Pb 22.342739145907746 20.966442403633454 21.029789845830425
Pb 20.48292439098669 21.235671257958007 18.496681604649336
Pb 19.189731146335607 20.173807219156092 21.315932314698077
Pb 14.116925675730394 12.990341699717154 11.739142945721147
Pb 20.528145087359775 13.575969439601684 12.101878936379991
Pb 11.357147060000898 12.342827681459458 13.427436537617387
Pb 21.392683192325634 18.097675541562463 20.093672350067745
Pb 13.894199575582507 22.788665634938457 17.137233944713934
Pb 12.793894684984542 20.459535321896578 19.260726507952125
Pb 10.837126757209692 22.77330250007745 17.8846146284889
Pb 11.557569992013011 23.256733805399374 14.828356741097293
Pb 17.254114456620812 12.079351716736541 13.33321230557719
Pb 14.895125627071753 19.48151407154703 16.765489926075137
Pb 12.904118562962323 17.846163701782235 14.120139127395502
Pb 23.099525114944967 16.425863508242198 17.616354286512465
Pb 14.329234034277727 21.561187879634563 14.20984022531466
