54
Energy = -178.65238624 eV
Pb 19.90334605517788 14.490203582535328 10.406122927020867
Pb 18.30724787457169 17.30883897328149 10.013172629698326
Pb 17.804761384724376 19.043973976235332 13.19780174243997
Pb 19.76097772285715 16.472444009786816 12.964993707453374
Pb 19.56733172712161 14.699805448070958 15.969845759122451
Pb 19.400838428486992 11.153479760192472 16.000156638665626
Pb 19.19861654078589 18.037558488293463 16.057598802853388
Pb 18.142747447332127 11.960816811365685 9.632136613707274
Pb 18.426594500418158 13.18330990977652 13.189545866881312
Pb 18.768688559340475 12.983193094473785 18.669693523108368
Pb 17.820694061038783 14.768966513129056 7.914546022879734
Pb 17.220460274772694 19.176075577901162 18.45606770290753
Pb 15.168416587695413 17.871501590139104 11.717687313744923
Pb 17.752179705052022 20.91843672115392 15.878890636400621
Pb 14.006087328561222 18.044771759604163 18.480099884177527
Pb 17.1693788154849 16.00303411087377 17.833474902269064
Pb 16.70916526519512 15.923796295501647 14.447799650297672
Pb 15.875380957024094 11.141879317682069 11.961068144287495
Pb 16.341538764109043 14.599591130569623 10.924131352128885
Pb 16.537944369647693 12.694695658311275 16.165161037570556
Pb 17.43357450007221 10.033423308905103 18.314632405613114
Pb 16.521832064378028 9.587745458381674 15.247748333442733
Pb 15.153450439002365 12.26339498569384 8.683280862077329
Pb 15.429743215405002 18.778272107384424 15.619671081606555
Pb 15.323611314536574 16.767215381759847 8.591483127546972
Pb 15.524523290301389 12.58934886467504 19.334067940018656
Pb 12.521413727105609 19.249372718595364 13.124858130615413
Pb 14.17359272171622 14.849532627524937 16.904677673683526
Pb 12.127220399953819 17.42980545035647 10.438134194426159
Pb 13.296989578170033 11.189529253835167 14.254282395735624
Pb 12.324210836001392 17.32311766883777 15.660326443737922
Pb 13.712057465907366 15.248781037290826 20.043497295148676
Pb 12.909632853697033 14.6259085137205 9.003890852513367
Pb 14.612649622609812 8.165195128560038 12.782668130119598
Pb 14.185998993451474 10.290681690502662 17.346088460463477
Pb 13.182929095909605 15.227475137437956 12.710291854312072
Pb 10.888289579253712 19.034598318547253 18.02399876002924
Pb 14.102637995755357 9.345712542914828 9.860270450284773
Pb 12.649252378461147 12.043637142630296 11.025205489098644
Pb 12.015095782073935 12.786999994730422 18.354668972581727
Pb 10.000464350231036 19.669661907614195 15.08586477001948
Pb 9.864286146986082 17.103496540777783 12.984801038550254
Pb 12.277783680207287 8.01195575995035 15.047418523893624
Pb 10.629992648777055 10.531255298903506 16.312237053493305
Pb 10.385814394468106 14.427585047376308 11.203711525968954
Pb 11.274377784593469 14.079745862384181 15.280143572106805
Pb 11.515133612089736 8.904242654692998 11.890266909728453
Pb 10.787697426552143 15.857643396714934 18.640195831509462
Pb 10.048581993726044 11.587609102088303 13.169550509063582
Pb 8.77187751388988 13.429244613358986 17.28019781831159
Pb 8.795467518409263 16.795490286648846 16.203444302857466
Pb 9.1549126150316 8.497475500761807 14.175528487664387
Pb 8.17525308162113 14.188277843658764 14.106090250818054
Pb 7.60377272964293 11.09492109078847 15.237628526595232
