8
Energy = -24.61064938 eV
Pb 12.495501662444497 13.216738603965412 11.730227514363074
Pb 14.89433850463814 15.288070906904668 12.459917196372215
Pb 14.865596061601595 13.302614456113574 9.97369355887494
Pb 15.223416058989036 11.704343397455446 12.682696431154437
Pb 14.324231161105159 13.603292377355531 14.997543372629321
Pb 12.012453354223984 11.419802684121276 14.236660030673814
Pb 11.526506608812692 14.994585393820472 14.086168066611974
Pb 11.965287897613544 13.331061317856477 16.763934857317018
