 vasp.5.3.5 31Mar14 (build Feb 01 2018 12:10:03) gamma-only                     
  
 executed on             LinuxIFC date 2019.04.09  01:53:30
 running on   32 total cores
 distrk:  each k-point on   32 cores,    1 groups
 distr:  one band on NCORES_PER_BAND=   8 cores,    4 groups


--------------------------------------------------------------------------------------------------------


 INCAR:
 POTCAR:    PAW_PBE Pd 04Jan2005                  
 POTCAR:    PAW_PBE Pd 04Jan2005                  
   VRHFIN =Pd : s1 d9                                                           
   LEXCH  = PE                                                                  
   EATOM  =   809.7530 eV,   59.5152 Ry                                         
                                                                                
   TITEL  = PAW_PBE Pd 04Jan2005                                                
   LULTRA =        F    use ultrasoft PP ?                                      
   IUNSCR =        1    unscreen: 0-lin 1-nonlin 2-no                           
   RPACOR =    2.000    partial core radius                                     
   POMASS =  106.420; ZVAL   =   10.000    mass and valenz                      
   RCORE  =    2.600    outmost cutoff radius                                   
   RWIGS  =    2.710; RWIGS  =    1.434    wigner-seitz radius (au A)           
   ENMAX  =  250.925; ENMIN  =  188.194 eV                                      
   ICORE  =        3    local potential                                         
   LCOR   =        T    correct aug charges                                     
   LPAW   =        T    paw PP                                                  
   EAUG   =  416.230                                                            
   DEXC   =    0.000                                                            
   RMAX   =    2.653    core radius for proj-oper                               
   RAUG   =    1.300    factor for augmentation sphere                          
   RDEP   =    2.734    radius for radial grids                                 
   RDEPT  =    2.103    core radius for aug-charge                              
                                                                                
   Atomic configuration                                                         
   12 entries                                                                   
     n  l   j            E        occ.                                          
     1  0  0.50    -24164.6631   2.0000                                         
     2  0  0.50     -3530.9218   2.0000                                         
     2  1  1.50     -3165.6822   6.0000                                         
     3  0  0.50      -639.4577   2.0000                                         
     3  1  1.50      -519.4532   6.0000                                         
     3  2  2.50      -328.9757  10.0000                                         
     4  0  0.50       -88.7014   2.0000                                         
     4  1  1.50       -54.4540   6.0000                                         
     4  2  2.50        -6.6878   9.0000                                         
     5  0  0.50        -4.3543   1.0000                                         
     5  1  0.50        -1.3606   0.0000                                         
     4  3  2.50        -1.3606   0.0000                                         
   Description                                                                  
     l       E           TYP  RCUT    TYP  RCUT                                 
     2     -6.6878251     23  2.400                                             
     2     -8.0484077     23  2.400                                             
     0     -4.3542939     23  2.400                                             
     0      4.3406793     23  2.400                                             
     1     -4.0817478     23  2.600                                             
     1     15.8380318     23  2.600                                             
     3     -4.0817478     23  2.400                                             
  local pseudopotential read in
  partial core-charges read in
  partial kinetic energy density read in
  atomic valenz-charges read in
  non local Contribution for L=           2  read in
    real space projection operators read in
  non local Contribution for L=           2  read in
    real space projection operators read in
  non local Contribution for L=           0  read in
    real space projection operators read in
  non local Contribution for L=           0  read in
    real space projection operators read in
  non local Contribution for L=           1  read in
    real space projection operators read in
  non local Contribution for L=           1  read in
    real space projection operators read in
    PAW grid and wavefunctions read in
 
   number of l-projection  operators is LMAX  =           6
   number of lm-projection operators is LMMAX =          18
 
  PAW_PBE Pd 04Jan2005                  :
 energy of atom  1       EATOM= -809.7530
 kinetic energy error for atom=    0.0653 (will be added to EATOM!!)
 
 
 POSCAR: Pd12, -1536.353518 <s> Pd </s>          
  positions in direct lattice
  No initial velocities read in
 exchange correlation table for  LEXCH =        8
   RHO(1)=    0.500       N(1)  =     2000
   RHO(2)=  100.500       N(2)  =     4000
 


--------------------------------------------------------------------------------------------------------


 ion  position               nearest neighbor table
   1  0.611  0.500  0.611-   2 2.62   5 2.62   8 2.62  11 2.62
   2  0.611  0.611  0.500-   1 2.62   3 2.62   8 2.62  12 2.62
   3  0.500  0.611  0.389-   2 2.62   4 2.62   7 2.62  12 2.62
   4  0.389  0.500  0.389-   3 2.62   6 2.62   7 2.62  10 2.62
   5  0.500  0.389  0.611-   1 2.62   6 2.62   9 2.62  11 2.62
   6  0.389  0.389  0.500-   4 2.62   5 2.62   9 2.62  10 2.62
   7  0.389  0.611  0.500-   3 2.62   4 2.62   8 2.62   9 2.62
   8  0.500  0.611  0.611-   1 2.62   2 2.62   7 2.62   9 2.62
   9  0.389  0.500  0.611-   5 2.62   6 2.62   7 2.62   8 2.62
  10  0.500  0.389  0.389-   4 2.62   6 2.62  11 2.62  12 2.62
  11  0.611  0.389  0.500-   1 2.62   5 2.62  10 2.62  12 2.62
  12  0.611  0.500  0.389-   2 2.62   3 2.62  10 2.62  11 2.62
 
  LATTYP: Found a simple cubic cell.
 ALAT       =    16.7018550600
  
  Lattice vectors:
  
 A1 = (  16.7018550600,   0.0000000000,   0.0000000000)
 A2 = (   0.0000000000,  16.7018550600,   0.0000000000)
 A3 = (   0.0000000000,   0.0000000000,  16.7018550600)


Analysis of symmetry for initial positions (statically):
=====================================================================
 Subroutine PRICEL returns:
 Original cell was already a primitive cell.
 

 Routine SETGRP: Setting up the symmetry group for a 
 simple cubic supercell.


 Subroutine GETGRP returns: Found 48 space group operations
 (whereof 48 operations were pure point group operations)
 out of a pool of 48 trial point group operations.


The static configuration has the point symmetry O_h .


Analysis of symmetry for dynamics (positions and initial velocities):
=====================================================================
 Subroutine PRICEL returns:
 Original cell was already a primitive cell.
 

 Routine SETGRP: Setting up the symmetry group for a 
 simple cubic supercell.


 Subroutine GETGRP returns: Found 48 space group operations
 (whereof 48 operations were pure point group operations)
 out of a pool of 48 trial point group operations.


The dynamic configuration has the point symmetry O_h .


Analysis of magnetic symmetry:
=====================================================================
 Subroutine PRICEL returns:
 Original cell was already a primitive cell.
 

 Subroutine MAGSYM returns: Found 48 space group operations
 (whereof 48 operations were pure point group operations)
 out of a pool of 48 trial space group operations
 (whereof 48 operations were pure point group operations)
 and found also     1 'primitive' translations


The magnetic configuration has the point symmetry O_h .
 
 
 KPOINTS: Gamma-point only                        
  k-points in reciprocal lattice
Space group operators:
 irot       det(A)        alpha          n_x          n_y          n_z        tau_x        tau_y        tau_z
    1     1.000000     0.000000     1.000000     0.000000     0.000000     0.000000     0.000000     0.000000
    2    -1.000000     0.000000     1.000000     0.000000     0.000000     0.000000     0.000000     0.000000
    3     1.000000   120.000000    -0.577350    -0.577350    -0.577350     0.000000     0.000000     0.000000
    4    -1.000000   120.000000    -0.577350    -0.577350    -0.577350     0.000000     0.000000     0.000000
    5     1.000000   120.000000     0.577350     0.577350     0.577350     0.000000     0.000000     0.000000
    6    -1.000000   120.000000     0.577350     0.577350     0.577350     0.000000     0.000000     0.000000
    7     1.000000    90.000000     0.000000     0.000000    -1.000000     0.000000     0.000000     0.000000
    8    -1.000000    90.000000     0.000000     0.000000    -1.000000     0.000000     0.000000     0.000000
    9     1.000000   180.000000     0.000000     0.707107     0.707107     0.000000     0.000000     0.000000
   10    -1.000000   180.000000     0.000000     0.707107     0.707107     0.000000     0.000000     0.000000
   11     1.000000    90.000000     0.000000     1.000000     0.000000     0.000000     0.000000     0.000000
   12    -1.000000    90.000000     0.000000     1.000000     0.000000     0.000000     0.000000     0.000000
   13     1.000000   180.000000     0.000000     0.000000     1.000000     0.000000     0.000000     0.000000
   14    -1.000000   180.000000     0.000000     0.000000     1.000000     0.000000     0.000000     0.000000
   15     1.000000   120.000000    -0.577350     0.577350     0.577350     0.000000     0.000000     0.000000
   16    -1.000000   120.000000    -0.577350     0.577350     0.577350     0.000000     0.000000     0.000000
   17     1.000000   120.000000    -0.577350     0.577350    -0.577350     0.000000     0.000000     0.000000
   18    -1.000000   120.000000    -0.577350     0.577350    -0.577350     0.000000     0.000000     0.000000
   19     1.000000    90.000000     0.000000     0.000000     1.000000     0.000000     0.000000     0.000000
   20    -1.000000    90.000000     0.000000     0.000000     1.000000     0.000000     0.000000     0.000000
   21     1.000000    90.000000    -1.000000     0.000000     0.000000     0.000000     0.000000     0.000000
   22    -1.000000    90.000000    -1.000000     0.000000     0.000000     0.000000     0.000000     0.000000
   23     1.000000   180.000000     0.707107     0.000000     0.707107     0.000000     0.000000     0.000000
   24    -1.000000   180.000000     0.707107     0.000000     0.707107     0.000000     0.000000     0.000000
   25     1.000000   120.000000     0.577350    -0.577350     0.577350     0.000000     0.000000     0.000000
   26    -1.000000   120.000000     0.577350    -0.577350     0.577350     0.000000     0.000000     0.000000
   27     1.000000   120.000000    -0.577350    -0.577350     0.577350     0.000000     0.000000     0.000000
   28    -1.000000   120.000000    -0.577350    -0.577350     0.577350     0.000000     0.000000     0.000000
   29     1.000000   180.000000     1.000000     0.000000     0.000000     0.000000     0.000000     0.000000
   30    -1.000000   180.000000     1.000000     0.000000     0.000000     0.000000     0.000000     0.000000
   31     1.000000    90.000000     0.000000    -1.000000     0.000000     0.000000     0.000000     0.000000
   32    -1.000000    90.000000     0.000000    -1.000000     0.000000     0.000000     0.000000     0.000000
   33     1.000000   180.000000     0.707107     0.707107     0.000000     0.000000     0.000000     0.000000
   34    -1.000000   180.000000     0.707107     0.707107     0.000000     0.000000     0.000000     0.000000
   35     1.000000    90.000000     1.000000     0.000000     0.000000     0.000000     0.000000     0.000000
   36    -1.000000    90.000000     1.000000     0.000000     0.000000     0.000000     0.000000     0.000000
   37     1.000000   120.000000     0.577350    -0.577350    -0.577350     0.000000     0.000000     0.000000
   38    -1.000000   120.000000     0.577350    -0.577350    -0.577350     0.000000     0.000000     0.000000
   39     1.000000   180.000000     0.000000     1.000000     0.000000     0.000000     0.000000     0.000000
   40    -1.000000   180.000000     0.000000     1.000000     0.000000     0.000000     0.000000     0.000000
   41     1.000000   120.000000     0.577350     0.577350    -0.577350     0.000000     0.000000     0.000000
   42    -1.000000   120.000000     0.577350     0.577350    -0.577350     0.000000     0.000000     0.000000
   43     1.000000   180.000000     0.000000    -0.707107     0.707107     0.000000     0.000000     0.000000
   44    -1.000000   180.000000     0.000000    -0.707107     0.707107     0.000000     0.000000     0.000000
   45     1.000000   180.000000     0.707107    -0.707107     0.000000     0.000000     0.000000     0.000000
   46    -1.000000   180.000000     0.707107    -0.707107     0.000000     0.000000     0.000000     0.000000
   47     1.000000   180.000000     0.707107     0.000000    -0.707107     0.000000     0.000000     0.000000
   48    -1.000000   180.000000     0.707107     0.000000    -0.707107     0.000000     0.000000     0.000000


--------------------------------------------------------------------------------------------------------




 Dimension of arrays:
   k-points           NKPTS =      1   k-points in BZ     NKDIM =      1   number of bands    NBANDS=     80
   number of dos      NEDOS =    301   number of ions     NIONS =     12
   non local maximal  LDIM  =      6   non local SUM 2l+1 LMDIM =     18
   total plane-waves  NPLWV = 343000
   max r-space proj   IRMAX =      1   max aug-charges    IRDMAX=   3770
   dimension x,y,z NGX =    70 NGY =   70 NGZ =   70
   dimension x,y,z NGXF=   140 NGYF=  140 NGZF=  140
   support grid    NGXF=   140 NGYF=  140 NGZF=  140
   ions per type =              12
 NGX,Y,Z   is equivalent  to a cutoff of   6.97,  6.97,  6.97 a.u.
 NGXF,Y,Z  is equivalent  to a cutoff of  13.94, 13.94, 13.94 a.u.


 I would recommend the setting:
   dimension x,y,z NGX =    65 NGY =   65 NGZ =   65
 SYSTEM =  unknown system                          
 POSCAR =  Pd12, -1536.353518 <s> Pd </s>          

 Startparameter for this run:
   NWRITE =      2    write-flag & timer
   PREC   = normal    normal or accurate (medium, high low for compatibility)
   ISTART =      0    job   : 0-new  1-cont  2-samecut
   ICHARG =      2    charge: 1-file 2-atom 10-const
   ISPIN  =      2    spin polarized calculation?
   LNONCOLLINEAR =      F non collinear calculations
   LSORBIT =      F    spin-orbit coupling
   INIWAV =      1    electr: 0-lowe 1-rand  2-diag
   LASPH  =      F    aspherical Exc in radial PAW
   METAGGA=      F    non-selfconsistent MetaGGA calc.

 Electronic Relaxation 1
   ENCUT  =  250.9 eV  18.44 Ry    4.29 a.u.  21.57 21.57 21.57*2*pi/ulx,y,z
   ENINI  =  250.9     initial cutoff
   ENAUG  =  416.2 eV  augmentation charge cutoff
   NELM   =     60;   NELMIN=  2; NELMDL= -5     # of ELM steps 
   EDIFF  = 0.1E-03   stopping-criterion for ELM
   LREAL  =      F    real-space projection
   NLSPLINE    = F    spline interpolate recip. space projectors
   LCOMPAT=      F    compatible to vasp.4.4
   GGA_COMPAT  = T    GGA compatible to vasp.4.4-vasp.4.6
   LMAXPAW     = -100 max onsite density
   LMAXMIX     =    2 max onsite mixed and CHGCAR
   VOSKOWN=      0    Vosko Wilk Nusair interpolation
   ROPT   =    0.00000
 Ionic relaxation
   EDIFFG = 0.1E-02   stopping-criterion for IOM
   NSW    =   1000    number of steps for IOM
   NBLOCK =      1;   KBLOCK =   1000    inner block; outer block 
   IBRION =      2    ionic relax: 0-MD 1-quasi-New 2-CG
   NFREE  =      1    steps in history (QN), initial steepest desc. (CG)
   ISIF   =      2    stress and relaxation
   IWAVPR =     11    prediction:  0-non 1-charg 2-wave 3-comb
   ISYM   =      2    0-nonsym 1-usesym 2-fastsym
   LCORR  =      T    Harris-Foulkes like correction to forces

   POTIM  = 0.1000    time-step for ionic-motion
   TEIN   =    0.0    initial temperature
   TEBEG  =    0.0;   TEEND  =   0.0 temperature during run
   SMASS  =  -3.00    Nose mass-parameter (am)
   estimated Nose-frequenzy (Omega)   =  0.10E-29 period in steps =****** mass=  -0.637E-26a.u.
   SCALEE = 1.0000    scale energy and forces
   NPACO  =    256;   APACO  = 16.0  distance and # of slots for P.C.
   PSTRESS=    0.0 pullay stress

  Mass of Ions in am
   POMASS = 106.42
  Ionic Valenz
   ZVAL   =  10.00
  Atomic Wigner-Seitz radii
   RWIGS  =  -1.00
  virtual crystal weights 
   VCA    =   1.00
   NELECT =     120.0000    total number of electrons
   NUPDOWN=      -1.0000    fix difference up-down

 DOS related values:
   EMIN   =  10.00;   EMAX   =-10.00  energy-range for DOS
   EFERMI =   0.00
   ISMEAR =     0;   SIGMA  =   0.00  broadening in eV -4-tet -1-fermi 0-gaus

 Electronic relaxation 2 (details)
   IALGO  =     38    algorithm
   LDIAG  =      T    sub-space diagonalisation (order eigenvalues)
   LSUBROT=      F    optimize rotation matrix (better conditioning)
   TURBO    =      0    0=normal 1=particle mesh
   IRESTART =      0    0=no restart 2=restart with 2 vectors
   NREBOOT  =      0    no. of reboots
   NMIN     =      0    reboot dimension
   EREF     =   0.00    reference energy to select bands
   IMIX   =      4    mixing-type and parameters
     AMIX     =   0.40;   BMIX     =  1.00
     AMIX_MAG =   1.60;   BMIX_MAG =  1.00
     AMIN     =   0.10
     WC   =   100.;   INIMIX=   1;  MIXPRE=   1;  MAXMIX= -45

 Intra band minimization:
   WEIMIN = 0.0010     energy-eigenvalue tresh-hold
   EBREAK =  0.31E-06  absolut break condition
   DEPER  =   0.30     relativ break condition  

   TIME   =   0.40     timestep for ELM

  volume/ion in A,a.u.               =     388.25      2620.05
  Fermi-wavevector in a.u.,A,eV,Ry     =   0.483471  0.913628  3.180285  0.233744
  Thomas-Fermi vector in A             =   1.482652
 
 Write flags
   LWAVE  =      F    write WAVECAR
   LCHARG =      F    write CHGCAR
   LVTOT  =      F    write LOCPOT, total local potential
   LVHAR  =      F    write LOCPOT, Hartree potential only
   LELF   =      F    write electronic localiz. function (ELF)
   LORBIT =      0    0 simple, 1 ext, 2 COOP (PROOUT)


 Dipole corrections
   LMONO  =      F    monopole corrections only (constant potential shift)
   LDIPOL =      F    correct potential (dipole corrections)
   IDIPOL =      0    1-x, 2-y, 3-z, 4-all directions 
   EPSILON=  1.0000000 bulk dielectric constant

 Exchange correlation treatment:
   GGA     =    PE    GGA type
   LEXCH   =     8    internal setting for exchange type
   VOSKOWN=      0    Vosko Wilk Nusair interpolation
   LHFCALC =     F    Hartree Fock is set to
   LHFONE  =     F    Hartree Fock one center treatment
   AEXX    =    0.0000 exact exchange contribution

 Linear response parameters
   LEPSILON=     F    determine dielectric tensor
   LRPA    =     F    only Hartree local field effects (RPA)
   LNABLA  =     F    use nabla operator in PAW spheres
   LVEL    =     F    velocity operator in full k-point grid
   LINTERFAST=   F  fast interpolation
   KINTER  =     0    interpolate to denser k-point grid
   CSHIFT  =0.1000    complex shift for real part using Kramers Kronig
   OMEGAMAX=  -1.0    maximum frequency
   DEG_THRESHOLD= 0.2000000E-02 threshold for treating states as degnerate
   RTIME   =    0.100 relaxation time in fs

 Orbital magnetization related:
   ORBITALMAG=     F  switch on orbital magnetization
   LCHIMAG   =     F  perturbation theory with respect to B field
   DQ        =  0.001000  dq finite difference perturbation B field



--------------------------------------------------------------------------------------------------------


 conjugate gradient relaxation of ions
 charge density and potential will be updated during run
 spin polarized calculation
 Variant of blocked Davidson
 Davidson routine will perform the subspace rotation
 perform sub-space diagonalisation
    after iterative eigenvector-optimisation
 modified Broyden-mixing scheme, WC =      100.0
 initial mixing is a Kerker type mixing with AMIX =  0.4000 and BMIX =      1.0000
 Hartree-type preconditioning will be used
 using additional bands           20
 reciprocal scheme for non local part
 use partial core corrections
 calculate Harris-corrections to forces 
   (improved forces if not selfconsistent)
 use gradient corrections 
 use of overlap-Matrix (Vanderbilt PP)
 Gauss-broadening in eV      SIGMA  =   0.00


--------------------------------------------------------------------------------------------------------


  energy-cutoff  :      250.93
  volume of cell :     4659.02
      direct lattice vectors                 reciprocal lattice vectors
    16.701855060  0.000000000  0.000000000     0.059873589  0.000000000  0.000000000
     0.000000000 16.701855060  0.000000000     0.000000000  0.059873589  0.000000000
     0.000000000  0.000000000 16.701855060     0.000000000  0.000000000  0.059873589

  length of vectors
    16.701855060 16.701855060 16.701855060     0.059873589  0.059873589  0.059873589


 
 k-points in units of 2pi/SCALE and weight: Gamma-point only                        
   0.00000000  0.00000000  0.00000000       1.000
 
 k-points in reciprocal lattice and weights: Gamma-point only                        
   0.00000000  0.00000000  0.00000000       1.000
 
 position of ions in fractional coordinates (direct lattice) 
   0.61082167  0.50000000  0.61082167
   0.61082167  0.61082167  0.50000000
   0.50000000  0.61082167  0.38917833
   0.38917833  0.50000000  0.38917833
   0.50000000  0.38917833  0.61082167
   0.38917833  0.38917833  0.50000000
   0.38917833  0.61082167  0.50000000
   0.50000000  0.61082167  0.61082167
   0.38917833  0.50000000  0.61082167
   0.50000000  0.38917833  0.38917833
   0.61082167  0.38917833  0.50000000
   0.61082167  0.50000000  0.38917833
 
 position of ions in cartesian coordinates  (Angst):
  10.20185506  8.35092753 10.20185506
  10.20185506 10.20185506  8.35092753
   8.35092753 10.20185506  6.50000000
   6.50000000  8.35092753  6.50000000
   8.35092753  6.50000000 10.20185506
   6.50000000  6.50000000  8.35092753
   6.50000000 10.20185506  8.35092753
   8.35092753 10.20185506 10.20185506
   6.50000000  8.35092753 10.20185506
   8.35092753  6.50000000  6.50000000
  10.20185506  6.50000000  8.35092753
  10.20185506  8.35092753  6.50000000
 


--------------------------------------------------------------------------------------------------------


 use parallel FFT for wavefunctions z direction half grid
 k-point  1 :   0.0000 0.0000 0.0000  plane waves:   21058

 maximum and minimum number of plane-waves per node :      2636     2629

 maximum number of plane-waves:     21058
 maximum index in each direction: 
   IXMAX=   21   IYMAX=   21   IZMAX=   21
   IXMIN=  -21   IYMIN=  -21   IZMIN=    0

 WARNING: aliasing errors must be expected set NGX to  86 to avoid them
 WARNING: aliasing errors must be expected set NGY to  86 to avoid them
 WARNING: aliasing errors must be expected set NGZ to  86 to avoid them
 aliasing errors are usually negligible using standard VASP settings
 and one can safely disregard these warnings

 parallel 3D FFT for wavefunctions:
    minimum data exchange during FFTs selected (reduces bandwidth)
 parallel 3D FFT for charge:
    minimum data exchange during FFTs selected (reduces bandwidth)


 total amount of memory used by VASP on root node    47495. kBytes
========================================================================

   base      :      30000. kBytes
   nonl-proj :        885. kBytes
   fftplans  :       4199. kBytes
   grid      :      10682. kBytes
   one-center:         31. kBytes
   wavefun   :       1698. kBytes
 
     INWAV:  cpu time    0.00: real time    0.00
 Broyden mixing: mesh for mixing (old mesh)
   NGX = 43   NGY = 43   NGZ = 43
  (NGX  =140   NGY  =140   NGZ  =140)
  gives a total of  79507 points

 initial charge density was supplied:
 charge density of overlapping atoms calculated
 number of electron     120.0000000 magnetization      12.0000000
 keeping initial charge density in first step


--------------------------------------------------------------------------------------------------------


 Maximum index for augmentation-charges          164 (set IRDMAX)


--------------------------------------------------------------------------------------------------------


 First call to EWALD:  gamma=   0.106
 Maximum number of real-space cells 3x 3x 3
 Maximum number of reciprocal cells 3x 3x 3

 FEWALD executed in parallel
    FEWALD:  cpu time    0.00: real time    0.00


----------------------------------------- Iteration    1(   1)  ---------------------------------------


    POTLOK:  cpu time    0.16: real time    0.16
    SETDIJ:  cpu time    0.01: real time    0.01
     EDDAV:  cpu time    0.48: real time    0.48
       DOS:  cpu time    0.00: real time    0.00
    --------------------------------------------
      LOOP:  cpu time    0.64: real time    0.67

 eigenvalue-minimisations  :   320
 total energy-change (2. order) : 0.1002364E+04  (-0.2062139E+04)
 number of electron     120.0000000 magnetization      12.0000000
 augmentation part      120.0000000 magnetization      12.0000000

 Free energy of the ion-electron system (eV)
  ---------------------------------------------------
  alpha Z        PSCENC =        20.14424059
  Ewald energy   TEWEN  =     10163.40916349
  -Hartree energ DENC   =    -19474.65411999
  -exchange      EXHF   =         0.00000000
  -V(xc)+E(xc)   XCENC  =      -363.22571484
  PAW double counting   =      9679.77513946    -8933.18737828
  entropy T*S    EENTRO =         0.00000000
  eigenvalues    EBANDS =       193.85002900
  atomic energy  EATOM  =      9716.25289675
  ---------------------------------------------------
  free energy    TOTEN  =      1002.36425619 eV

  energy without entropy =     1002.36425619  energy(sigma->0) =     1002.36425619


--------------------------------------------------------------------------------------------------------




----------------------------------------- Iteration    1(   2)  ---------------------------------------


     EDDAV:  cpu time    0.77: real time    0.77
       DOS:  cpu time    0.00: real time    0.00
    --------------------------------------------
      LOOP:  cpu time    0.77: real time    0.78

 eigenvalue-minimisations  :   576
 total energy-change (2. order) :-0.6756928E+03  (-0.6004972E+03)
 number of electron     120.0000000 magnetization      12.0000000
 augmentation part      120.0000000 magnetization      12.0000000

 Free energy of the ion-electron system (eV)
  ---------------------------------------------------
  alpha Z        PSCENC =        20.14424059
  Ewald energy   TEWEN  =     10163.40916349
  -Hartree energ DENC   =    -19474.65411999
  -exchange      EXHF   =         0.00000000
  -V(xc)+E(xc)   XCENC  =      -363.22571484
  PAW double counting   =      9679.77513946    -8933.18737828
  entropy T*S    EENTRO =         0.00000000
  eigenvalues    EBANDS =      -481.84278664
  atomic energy  EATOM  =      9716.25289675
  ---------------------------------------------------
  free energy    TOTEN  =       326.67144055 eV

  energy without entropy =      326.67144055  energy(sigma->0) =      326.67144055


--------------------------------------------------------------------------------------------------------




----------------------------------------- Iteration    1(   3)  ---------------------------------------


     EDDAV:  cpu time    0.67: real time    0.67
       DOS:  cpu time    0.00: real time    0.00
    --------------------------------------------
      LOOP:  cpu time    0.67: real time    0.68

 eigenvalue-minimisations  :   480
 total energy-change (2. order) :-0.3234873E+03  (-0.3041788E+03)
 number of electron     120.0000000 magnetization      12.0000000
 augmentation part      120.0000000 magnetization      12.0000000

 Free energy of the ion-electron system (eV)
  ---------------------------------------------------
  alpha Z        PSCENC =        20.14424059
  Ewald energy   TEWEN  =     10163.40916349
  -Hartree energ DENC   =    -19474.65411999
  -exchange      EXHF   =         0.00000000
  -V(xc)+E(xc)   XCENC  =      -363.22571484
  PAW double counting   =      9679.77513946    -8933.18737828
  entropy T*S    EENTRO =         0.00000000
  eigenvalues    EBANDS =      -805.33012286
  atomic energy  EATOM  =      9716.25289675
  ---------------------------------------------------
  free energy    TOTEN  =         3.18410433 eV

  energy without entropy =        3.18410433  energy(sigma->0) =        3.18410433


--------------------------------------------------------------------------------------------------------




----------------------------------------- Iteration    1(   4)  ---------------------------------------


     EDDAV:  cpu time    0.60: real time    0.60
       DOS:  cpu time    0.00: real time    0.00
    --------------------------------------------
      LOOP:  cpu time    0.60: real time    1.04

 eigenvalue-minimisations  :   408
 total energy-change (2. order) :-0.4482349E+02  (-0.3729514E+02)
 number of electron     120.0000000 magnetization      12.0000000
 augmentation part      120.0000000 magnetization      12.0000000

 Free energy of the ion-electron system (eV)
  ---------------------------------------------------
  alpha Z        PSCENC =        20.14424059
  Ewald energy   TEWEN  =     10163.40916349
  -Hartree energ DENC   =    -19474.65411999
  -exchange      EXHF   =         0.00000000
  -V(xc)+E(xc)   XCENC  =      -363.22571484
  PAW double counting   =      9679.77513946    -8933.18737828
  entropy T*S    EENTRO =         0.00000000
  eigenvalues    EBANDS =      -850.15360865
  atomic energy  EATOM  =      9716.25289675
  ---------------------------------------------------
  free energy    TOTEN  =       -41.63938146 eV

  energy without entropy =      -41.63938146  energy(sigma->0) =      -41.63938146


--------------------------------------------------------------------------------------------------------




----------------------------------------- Iteration    1(   5)  ---------------------------------------


     EDDAV:  cpu time    0.57: real time    0.57
       DOS:  cpu time    0.00: real time    0.00
    CHARGE:  cpu time    0.12: real time    0.12
    MIXING:  cpu time    0.01: real time    0.00
    --------------------------------------------
      LOOP:  cpu time    0.70: real time    0.71

 eigenvalue-minimisations  :   392
 total energy-change (2. order) :-0.3895768E+01  (-0.3200273E+01)
 number of electron     119.9999596 magnetization      10.8098079
 augmentation part       51.3754699 magnetization       7.4381685

 Broyden mixing:
  rms(total) = 0.16387E+01    rms(broyden)= 0.16321E+01
  rms(prec ) = 0.17478E+01
  weight for this iteration     100.00

 Free energy of the ion-electron system (eV)
  ---------------------------------------------------
  alpha Z        PSCENC =        20.14424059
  Ewald energy   TEWEN  =     10163.40916349
  -Hartree energ DENC   =    -19474.65411999
  -exchange      EXHF   =         0.00000000
  -V(xc)+E(xc)   XCENC  =      -363.22571484
  PAW double counting   =      9679.77513946    -8933.18737828
  entropy T*S    EENTRO =         0.00000000
  eigenvalues    EBANDS =      -854.04937699
  atomic energy  EATOM  =      9716.25289675
  ---------------------------------------------------
  free energy    TOTEN  =       -45.53514981 eV

  energy without entropy =      -45.53514981  energy(sigma->0) =      -45.53514981


--------------------------------------------------------------------------------------------------------




----------------------------------------- Iteration    1(   6)  ---------------------------------------


    POTLOK:  cpu time    0.15: real time    0.15
    SETDIJ:  cpu time    0.00: real time    0.01
     EDDAV:  cpu time    0.50: real time    0.50
       DOS:  cpu time    0.00: real time    0.00
    CHARGE:  cpu time    0.12: real time    0.12
    MIXING:  cpu time    0.00: real time    0.00
    --------------------------------------------
      LOOP:  cpu time    0.78: real time    0.79

 eigenvalue-minimisations  :   328
 total energy-change (2. order) : 0.4432662E+01  (-0.1097963E+01)
 number of electron     119.9999585 magnetization       9.6540012
 augmentation part       51.5550589 magnetization       5.5262139

 Broyden mixing:
  rms(total) = 0.74798E+00    rms(broyden)= 0.74745E+00
  rms(prec ) = 0.78857E+00
  weight for this iteration     100.00

 eigenvalues of (default mixing * dielectric matrix)
  average eigenvalue GAMMA=   0.9151
  0.9151

 Free energy of the ion-electron system (eV)
  ---------------------------------------------------
  alpha Z        PSCENC =        20.14424059
  Ewald energy   TEWEN  =     10163.40916349
  -Hartree energ DENC   =    -19531.73559565
  -exchange      EXHF   =         0.00000000
  -V(xc)+E(xc)   XCENC  =      -361.89065801
  PAW double counting   =     10210.99541586    -9468.85530717
  entropy T*S    EENTRO =         0.00000000
  eigenvalues    EBANDS =      -789.42264352
  atomic energy  EATOM  =      9716.25289675
  ---------------------------------------------------
  free energy    TOTEN  =       -41.10248766 eV

  energy without entropy =      -41.10248766  energy(sigma->0) =      -41.10248766


--------------------------------------------------------------------------------------------------------




----------------------------------------- Iteration    1(   7)  ---------------------------------------


    POTLOK:  cpu time    0.15: real time    0.15
    SETDIJ:  cpu time    0.00: real time    0.01
     EDDAV:  cpu time    0.54: real time    0.54
       DOS:  cpu time    0.00: real time    0.00
    CHARGE:  cpu time    0.12: real time    0.12
    MIXING:  cpu time    0.00: real time    0.00
    --------------------------------------------
      LOOP:  cpu time    0.82: real time    0.83

 eigenvalue-minimisations  :   360
 total energy-change (2. order) : 0.4246390E+01  (-0.2175058E+00)
 number of electron     119.9999591 magnetization       8.7221170
 augmentation part       51.4904700 magnetization       4.5806328

 Broyden mixing:
  rms(total) = 0.41528E+00    rms(broyden)= 0.41520E+00
  rms(prec ) = 0.43616E+00
  weight for this iteration     100.00

 eigenvalues of (default mixing * dielectric matrix)
  average eigenvalue GAMMA=   1.0873
  0.6717  1.5028

 Free energy of the ion-electron system (eV)
  ---------------------------------------------------
  alpha Z        PSCENC =        20.14424059
  Ewald energy   TEWEN  =     10163.40916349
  -Hartree energ DENC   =    -19574.22593428
  -exchange      EXHF   =         0.00000000
  -V(xc)+E(xc)   XCENC  =      -358.04944082
  PAW double counting   =     10536.58041700    -9796.52803432
  entropy T*S    EENTRO =         0.00000000
  eigenvalues    EBANDS =      -744.43940631
  atomic energy  EATOM  =      9716.25289675
  ---------------------------------------------------
  free energy    TOTEN  =       -36.85609789 eV

  energy without entropy =      -36.85609789  energy(sigma->0) =      -36.85609789


--------------------------------------------------------------------------------------------------------




----------------------------------------- Iteration    1(   8)  ---------------------------------------


    POTLOK:  cpu time    0.15: real time    0.15
    SETDIJ:  cpu time    0.01: real time    0.01
     EDDAV:  cpu time    0.55: real time    0.55
       DOS:  cpu time    0.00: real time    0.00
    CHARGE:  cpu time    0.12: real time    0.12
    MIXING:  cpu time    0.00: real time    0.00
    --------------------------------------------
      LOOP:  cpu time    0.84: real time    0.84

 eigenvalue-minimisations  :   376
 total energy-change (2. order) : 0.1096622E-01  (-0.3532843E-01)
 number of electron     119.9999592 magnetization       7.8033786
 augmentation part       51.3876359 magnetization       3.7230714

 Broyden mixing:
  rms(total) = 0.17979E+00    rms(broyden)= 0.17977E+00
  rms(prec ) = 0.19798E+00
  weight for this iteration     100.00

 eigenvalues of (default mixing * dielectric matrix)
  average eigenvalue GAMMA=   1.2507
  2.1109  1.0085  0.6327

 Free energy of the ion-electron system (eV)
  ---------------------------------------------------
  alpha Z        PSCENC =        20.14424059
  Ewald energy   TEWEN  =     10163.40916349
  -Hartree energ DENC   =    -19601.68198449
  -exchange      EXHF   =         0.00000000
  -V(xc)+E(xc)   XCENC  =      -357.50950232
  PAW double counting   =     10729.13991192    -9990.13052684
  entropy T*S    EENTRO =         0.00000000
  eigenvalues    EBANDS =      -716.46933076
  atomic energy  EATOM  =      9716.25289675
  ---------------------------------------------------
  free energy    TOTEN  =       -36.84513167 eV

  energy without entropy =      -36.84513167  energy(sigma->0) =      -36.84513167


--------------------------------------------------------------------------------------------------------




----------------------------------------- Iteration    1(   9)  ---------------------------------------


    POTLOK:  cpu time    0.15: real time    0.15
    SETDIJ:  cpu time    0.01: real time    0.01
     EDDAV:  cpu time    0.51: real time    0.51
       DOS:  cpu time    0.00: real time    0.00
    CHARGE:  cpu time    0.12: real time    0.12
    MIXING:  cpu time    0.01: real time    0.00
    --------------------------------------------
      LOOP:  cpu time    0.80: real time    0.80

 eigenvalue-minimisations  :   336
 total energy-change (2. order) :-0.1911965E+01  (-0.4220347E-01)
 number of electron     119.9999592 magnetization       7.1802004
 augmentation part       51.3567936 magnetization       3.2283269

 Broyden mixing:
  rms(total) = 0.90617E-01    rms(broyden)= 0.90598E-01
  rms(prec ) = 0.10405E+00
  weight for this iteration     100.00

 eigenvalues of (default mixing * dielectric matrix)
  average eigenvalue GAMMA=   1.2896
  2.4244  1.3719  0.7438  0.6182

 Free energy of the ion-electron system (eV)
  ---------------------------------------------------
  alpha Z        PSCENC =        20.14424059
  Ewald energy   TEWEN  =     10163.40916349
  -Hartree energ DENC   =    -19618.78692942
  -exchange      EXHF   =         0.00000000
  -V(xc)+E(xc)   XCENC  =      -358.83268972
  PAW double counting   =     10829.37930717   -10091.10067651
  entropy T*S    EENTRO =         0.00000000
  eigenvalues    EBANDS =      -699.22240932
  atomic energy  EATOM  =      9716.25289675
  ---------------------------------------------------
  free energy    TOTEN  =       -38.75709696 eV

  energy without entropy =      -38.75709696  energy(sigma->0) =      -38.75709696


--------------------------------------------------------------------------------------------------------




----------------------------------------- Iteration    1(  10)  ---------------------------------------


    POTLOK:  cpu time    0.15: real time    0.15
    SETDIJ:  cpu time    0.00: real time    0.01
     EDDAV:  cpu time    0.52: real time    0.52
       DOS:  cpu time    0.00: real time    0.00
    CHARGE:  cpu time    0.12: real time    0.12
    MIXING:  cpu time    0.00: real time    0.00
    --------------------------------------------
      LOOP:  cpu time    0.80: real time    0.81

 eigenvalue-minimisations  :   344
 total energy-change (2. order) :-0.1695172E+01  (-0.3563814E-01)
 number of electron     119.9999592 magnetization       6.7722191
 augmentation part       51.3498880 magnetization       2.9579868

 Broyden mixing:
  rms(total) = 0.54268E-01    rms(broyden)= 0.54244E-01
  rms(prec ) = 0.64085E-01
  weight for this iteration     100.00

 eigenvalues of (default mixing * dielectric matrix)
  average eigenvalue GAMMA=   1.3125
  2.5306  1.7427  0.6335  0.8279  0.8279

 Free energy of the ion-electron system (eV)
  ---------------------------------------------------
  alpha Z        PSCENC =        20.14424059
  Ewald energy   TEWEN  =     10163.40916349
  -Hartree energ DENC   =    -19626.74061021
  -exchange      EXHF   =         0.00000000
  -V(xc)+E(xc)   XCENC  =      -360.18784853
  PAW double counting   =     10841.18642327   -10103.26369892
  entropy T*S    EENTRO =         0.00000000
  eigenvalues    EBANDS =      -691.25283501
  atomic energy  EATOM  =      9716.25289675
  ---------------------------------------------------
  free energy    TOTEN  =       -40.45226857 eV

  energy without entropy =      -40.45226857  energy(sigma->0) =      -40.45226857


--------------------------------------------------------------------------------------------------------




----------------------------------------- Iteration    1(  11)  ---------------------------------------


    POTLOK:  cpu time    0.15: real time    0.15
    SETDIJ:  cpu time    0.00: real time    0.01
     EDDAV:  cpu time    0.52: real time    0.52
       DOS:  cpu time    0.00: real time    0.00
    CHARGE:  cpu time    0.12: real time    0.12
    MIXING:  cpu time    0.00: real time    0.00
    --------------------------------------------
      LOOP:  cpu time    0.80: real time    2.54

 eigenvalue-minimisations  :   360
 total energy-change (2. order) :-0.1314349E+01  (-0.2587127E-01)
 number of electron     119.9999592 magnetization       6.2725030
 augmentation part       51.3342075 magnetization       2.5550674

 Broyden mixing:
  rms(total) = 0.35619E-01    rms(broyden)= 0.35600E-01
  rms(prec ) = 0.42730E-01
  weight for this iteration     100.00

 eigenvalues of (default mixing * dielectric matrix)
  average eigenvalue GAMMA=   1.5513
  2.8245  2.8245  1.3945  0.6298  0.7046  0.9298

 Free energy of the ion-electron system (eV)
  ---------------------------------------------------
  alpha Z        PSCENC =        20.14424059
  Ewald energy   TEWEN  =     10163.40916349
  -Hartree energ DENC   =    -19630.73491062
  -exchange      EXHF   =         0.00000000
  -V(xc)+E(xc)   XCENC  =      -361.29606651
  PAW double counting   =     10817.08889096   -10079.33365016
  entropy T*S    EENTRO =         0.00000000
  eigenvalues    EBANDS =      -687.29718163
  atomic energy  EATOM  =      9716.25289675
  ---------------------------------------------------
  free energy    TOTEN  =       -41.76661713 eV

  energy without entropy =      -41.76661713  energy(sigma->0) =      -41.76661713


--------------------------------------------------------------------------------------------------------




----------------------------------------- Iteration    1(  12)  ---------------------------------------


    POTLOK:  cpu time    0.15: real time    0.15
    SETDIJ:  cpu time    0.00: real time    0.01
     EDDAV:  cpu time    0.52: real time    0.52
       DOS:  cpu time    0.00: real time    0.00
    CHARGE:  cpu time    0.12: real time    0.12
    MIXING:  cpu time    0.00: real time    0.00
    --------------------------------------------
      LOOP:  cpu time    0.80: real time    0.80

 eigenvalue-minimisations  :   360
 total energy-change (2. order) :-0.1115509E+01  (-0.2480997E-01)
 number of electron     119.9999592 magnetization       6.1769900
 augmentation part       51.3504301 magnetization       2.5444572

 Broyden mixing:
  rms(total) = 0.18722E-01    rms(broyden)= 0.18692E-01
  rms(prec ) = 0.22403E-01
  weight for this iteration     100.00

 eigenvalues of (default mixing * dielectric matrix)
  average eigenvalue GAMMA=   1.5249
  3.1902  2.6844  1.7408  0.6255  0.6733  0.9359  0.8239

 Free energy of the ion-electron system (eV)
  ---------------------------------------------------
  alpha Z        PSCENC =        20.14424059
  Ewald energy   TEWEN  =     10163.40916349
  -Hartree energ DENC   =    -19633.98279793
  -exchange      EXHF   =         0.00000000
  -V(xc)+E(xc)   XCENC  =      -362.33295992
  PAW double counting   =     10781.41785821   -10043.88852951
  entropy T*S    EENTRO =         0.00000000
  eigenvalues    EBANDS =      -683.90199739
  atomic energy  EATOM  =      9716.25289675
  ---------------------------------------------------
  free energy    TOTEN  =       -42.88212570 eV

  energy without entropy =      -42.88212570  energy(sigma->0) =      -42.88212570


--------------------------------------------------------------------------------------------------------




----------------------------------------- Iteration    1(  13)  ---------------------------------------


    POTLOK:  cpu time    0.15: real time    0.15
    SETDIJ:  cpu time    0.01: real time    0.01
     EDDAV:  cpu time    0.52: real time    0.52
       DOS:  cpu time    0.00: real time    0.00
    CHARGE:  cpu time    0.12: real time    0.12
    MIXING:  cpu time    0.00: real time    0.00
    --------------------------------------------
      LOOP:  cpu time    0.80: real time    0.80

 eigenvalue-minimisations  :   360
 total energy-change (2. order) :-0.1619090E+00  (-0.1415799E-02)
 number of electron     119.9999592 magnetization       6.0549246
 augmentation part       51.3287825 magnetization       2.4290981

 Broyden mixing:
  rms(total) = 0.94407E-02    rms(broyden)= 0.94331E-02
  rms(prec ) = 0.13803E-01
  weight for this iteration     100.00

 eigenvalues of (default mixing * dielectric matrix)
  average eigenvalue GAMMA=   1.5693
  4.2291  2.5289  1.8140  1.1080  0.7981  0.7981  0.6254  0.6529

 Free energy of the ion-electron system (eV)
  ---------------------------------------------------
  alpha Z        PSCENC =        20.14424059
  Ewald energy   TEWEN  =     10163.40916349
  -Hartree energ DENC   =    -19635.43021538
  -exchange      EXHF   =         0.00000000
  -V(xc)+E(xc)   XCENC  =      -362.47626190
  PAW double counting   =     10783.28893637   -10045.78043627
  entropy T*S    EENTRO =        -0.00000000
  eigenvalues    EBANDS =      -682.45235839
  atomic energy  EATOM  =      9716.25289675
  ---------------------------------------------------
  free energy    TOTEN  =       -43.04403473 eV

  energy without entropy =      -43.04403473  energy(sigma->0) =      -43.04403473


--------------------------------------------------------------------------------------------------------




----------------------------------------- Iteration    1(  14)  ---------------------------------------


    POTLOK:  cpu time    0.15: real time    0.15
    SETDIJ:  cpu time    0.01: real time    0.01
     EDDAV:  cpu time    0.54: real time    0.54
       DOS:  cpu time    0.00: real time    0.00
    CHARGE:  cpu time    0.12: real time    0.12
    MIXING:  cpu time    0.01: real time    0.01
    --------------------------------------------
      LOOP:  cpu time    0.83: real time    0.83

 eigenvalue-minimisations  :   368
 total energy-change (2. order) :-0.1120700E+00  (-0.1023396E-02)
 number of electron     119.9999592 magnetization       6.0167810
 augmentation part       51.3390800 magnetization       2.4076877

 Broyden mixing:
  rms(total) = 0.51317E-02    rms(broyden)= 0.51270E-02
  rms(prec ) = 0.81819E-02
  weight for this iteration     100.00

 eigenvalues of (default mixing * dielectric matrix)
  average eigenvalue GAMMA=   1.5712
  4.3594  2.4021  2.4021  1.2638  0.8482  0.8482  0.7417  0.6379  0.6379

 Free energy of the ion-electron system (eV)
  ---------------------------------------------------
  alpha Z        PSCENC =        20.14424059
  Ewald energy   TEWEN  =     10163.40916349
  -Hartree energ DENC   =    -19635.85449378
  -exchange      EXHF   =         0.00000000
  -V(xc)+E(xc)   XCENC  =      -362.60390979
  PAW double counting   =     10779.55832475   -10042.08088748
  entropy T*S    EENTRO =         0.00000000
  eigenvalues    EBANDS =      -681.98143925
  atomic energy  EATOM  =      9716.25289675
  ---------------------------------------------------
  free energy    TOTEN  =       -43.15610472 eV

  energy without entropy =      -43.15610472  energy(sigma->0) =      -43.15610472


--------------------------------------------------------------------------------------------------------




----------------------------------------- Iteration    1(  15)  ---------------------------------------


    POTLOK:  cpu time    0.15: real time    0.15
    SETDIJ:  cpu time    0.00: real time    0.01
     EDDAV:  cpu time    0.49: real time    0.49
       DOS:  cpu time    0.00: real time    0.00
    CHARGE:  cpu time    0.12: real time    0.12
    MIXING:  cpu time    0.00: real time    0.01
    --------------------------------------------
      LOOP:  cpu time    0.77: real time    0.78

 eigenvalue-minimisations  :   320
 total energy-change (2. order) :-0.1794872E-01  (-0.1477418E-03)
 number of electron     119.9999592 magnetization       5.9922093
 augmentation part       51.3340242 magnetization       2.3877285

 Broyden mixing:
  rms(total) = 0.36620E-02    rms(broyden)= 0.36604E-02
  rms(prec ) = 0.57886E-02
  weight for this iteration     100.00

 eigenvalues of (default mixing * dielectric matrix)
  average eigenvalue GAMMA=   1.5848
  4.5458  2.5878  2.5878  1.4864  0.9985  0.9985  0.7747  0.6841  0.6139  0.5708

 Free energy of the ion-electron system (eV)
  ---------------------------------------------------
  alpha Z        PSCENC =        20.14424059
  Ewald energy   TEWEN  =     10163.40916349
  -Hartree energ DENC   =    -19636.50594899
  -exchange      EXHF   =         0.00000000
  -V(xc)+E(xc)   XCENC  =      -362.62438326
  PAW double counting   =     10781.64686340   -10044.16051361
  entropy T*S    EENTRO =         0.00000000
  eigenvalues    EBANDS =      -681.33637182
  atomic energy  EATOM  =      9716.25289675
  ---------------------------------------------------
  free energy    TOTEN  =       -43.17405345 eV

  energy without entropy =      -43.17405345  energy(sigma->0) =      -43.17405345


--------------------------------------------------------------------------------------------------------




----------------------------------------- Iteration    1(  16)  ---------------------------------------


    POTLOK:  cpu time    0.15: real time    0.15
    SETDIJ:  cpu time    0.01: real time    0.01
     EDDAV:  cpu time    0.49: real time    0.49
       DOS:  cpu time    0.00: real time    0.00
    CHARGE:  cpu time    0.12: real time    0.12
    MIXING:  cpu time    0.01: real time    0.01
    --------------------------------------------
      LOOP:  cpu time    0.78: real time    0.80

 eigenvalue-minimisations  :   320
 total energy-change (2. order) :-0.3905578E-02  (-0.1145861E-03)
 number of electron     119.9999592 magnetization       5.9848053
 augmentation part       51.3359873 magnetization       2.3846728

 Broyden mixing:
  rms(total) = 0.19749E-02    rms(broyden)= 0.19738E-02
  rms(prec ) = 0.34628E-02
  weight for this iteration     100.00

 eigenvalues of (default mixing * dielectric matrix)
  average eigenvalue GAMMA=   1.6110
  4.7071  3.0477  2.4034  1.9770  1.2448  0.8755  0.8755  0.7201  0.6516  0.6094
  0.6094

 Free energy of the ion-electron system (eV)
  ---------------------------------------------------
  alpha Z        PSCENC =        20.14424059
  Ewald energy   TEWEN  =     10163.40916349
  -Hartree energ DENC   =    -19636.94339435
  -exchange      EXHF   =         0.00000000
  -V(xc)+E(xc)   XCENC  =      -362.63302272
  PAW double counting   =     10782.49567635   -10045.00250151
  entropy T*S    EENTRO =        -0.00000000
  eigenvalues    EBANDS =      -680.90101762
  atomic energy  EATOM  =      9716.25289675
  ---------------------------------------------------
  free energy    TOTEN  =       -43.17795903 eV

  energy without entropy =      -43.17795903  energy(sigma->0) =      -43.17795903


--------------------------------------------------------------------------------------------------------




----------------------------------------- Iteration    1(  17)  ---------------------------------------


    POTLOK:  cpu time    0.15: real time    0.15
    SETDIJ:  cpu time    0.00: real time    0.01
     EDDAV:  cpu time    0.48: real time    0.48
       DOS:  cpu time    0.00: real time    0.00
    CHARGE:  cpu time    0.12: real time    0.12
    MIXING:  cpu time    0.00: real time    0.01
    --------------------------------------------
      LOOP:  cpu time    0.76: real time    0.84

 eigenvalue-minimisations  :   312
 total energy-change (2. order) :-0.1135416E-02  (-0.5362408E-04)
 number of electron     119.9999592 magnetization       5.9862111
 augmentation part       51.3376405 magnetization       2.3868508

 Broyden mixing:
  rms(total) = 0.13483E-02    rms(broyden)= 0.13481E-02
  rms(prec ) = 0.22990E-02
  weight for this iteration     100.00

 eigenvalues of (default mixing * dielectric matrix)
  average eigenvalue GAMMA=   1.6154
  4.7856  3.4713  2.3728  2.0875  1.3023  0.9975  0.9975  0.8217  0.7022  0.6373
  0.6046  0.6046

 Free energy of the ion-electron system (eV)
  ---------------------------------------------------
  alpha Z        PSCENC =        20.14424059
  Ewald energy   TEWEN  =     10163.40916349
  -Hartree energ DENC   =    -19637.32233254
  -exchange      EXHF   =         0.00000000
  -V(xc)+E(xc)   XCENC  =      -362.63711972
  PAW double counting   =     10783.11144575   -10045.61396862
  entropy T*S    EENTRO =         0.00000000
  eigenvalues    EBANDS =      -680.52342014
  atomic energy  EATOM  =      9716.25289675
  ---------------------------------------------------
  free energy    TOTEN  =       -43.17909444 eV

  energy without entropy =      -43.17909444  energy(sigma->0) =      -43.17909444


--------------------------------------------------------------------------------------------------------




----------------------------------------- Iteration    1(  18)  ---------------------------------------


    POTLOK:  cpu time    0.15: real time    0.15
    SETDIJ:  cpu time    0.01: real time    0.01
     EDDAV:  cpu time    0.38: real time    0.39
       DOS:  cpu time    0.00: real time    0.00
    CHARGE:  cpu time    0.12: real time    0.12
    MIXING:  cpu time    0.01: real time    0.01
    --------------------------------------------
      LOOP:  cpu time    0.67: real time    0.67

 eigenvalue-minimisations  :   224
 total energy-change (2. order) :-0.3188805E-02  (-0.1173964E-04)
 number of electron     119.9999592 magnetization       5.9904793
 augmentation part       51.3367158 magnetization       2.3906255

 Broyden mixing:
  rms(total) = 0.87774E-03    rms(broyden)= 0.87764E-03
  rms(prec ) = 0.14114E-02
  weight for this iteration     100.00

 eigenvalues of (default mixing * dielectric matrix)
  average eigenvalue GAMMA=   1.6521
  4.9797  3.6473  2.4244  2.4244  1.6138  1.2251  0.9381  0.9381  0.7685  0.6831
  0.6309  0.6017  0.6017

 Free energy of the ion-electron system (eV)
  ---------------------------------------------------
  alpha Z        PSCENC =        20.14424059
  Ewald energy   TEWEN  =     10163.40916349
  -Hartree energ DENC   =    -19637.79396220
  -exchange      EXHF   =         0.00000000
  -V(xc)+E(xc)   XCENC  =      -362.63640527
  PAW double counting   =     10783.50044782   -10046.00316227
  entropy T*S    EENTRO =        -0.00000000
  eigenvalues    EBANDS =      -680.05550215
  atomic energy  EATOM  =      9716.25289675
  ---------------------------------------------------
  free energy    TOTEN  =       -43.18228325 eV

  energy without entropy =      -43.18228325  energy(sigma->0) =      -43.18228325


--------------------------------------------------------------------------------------------------------




----------------------------------------- Iteration    1(  19)  ---------------------------------------


    POTLOK:  cpu time    0.15: real time    0.15
    SETDIJ:  cpu time    0.01: real time    0.01
     EDDAV:  cpu time    0.39: real time    0.39
       DOS:  cpu time    0.00: real time    0.00
    CHARGE:  cpu time    0.12: real time    0.12
    MIXING:  cpu time    0.01: real time    0.01
    --------------------------------------------
      LOOP:  cpu time    0.67: real time    0.68

 eigenvalue-minimisations  :   224
 total energy-change (2. order) :-0.2836458E-02  (-0.1854714E-04)
 number of electron     119.9999592 magnetization       5.9948599
 augmentation part       51.3362420 magnetization       2.3947227

 Broyden mixing:
  rms(total) = 0.48659E-03    rms(broyden)= 0.48628E-03
  rms(prec ) = 0.68186E-03
  weight for this iteration     100.00

 eigenvalues of (default mixing * dielectric matrix)
  average eigenvalue GAMMA=   1.7527
  5.5696  4.3011  2.5739  2.5739  2.1838  1.2847  0.9388  0.9226  0.9226  0.7388
  0.6756  0.6141  0.6141  0.6242

 Free energy of the ion-electron system (eV)
  ---------------------------------------------------
  alpha Z        PSCENC =        20.14424059
  Ewald energy   TEWEN  =     10163.40916349
  -Hartree energ DENC   =    -19638.26630100
  -exchange      EXHF   =         0.00000000
  -V(xc)+E(xc)   XCENC  =      -362.63469389
  PAW double counting   =     10783.07778342   -10045.58270928
  entropy T*S    EENTRO =         0.00000000
  eigenvalues    EBANDS =      -679.58549979
  atomic energy  EATOM  =      9716.25289675
  ---------------------------------------------------
  free energy    TOTEN  =       -43.18511971 eV

  energy without entropy =      -43.18511971  energy(sigma->0) =      -43.18511971


--------------------------------------------------------------------------------------------------------




----------------------------------------- Iteration    1(  20)  ---------------------------------------


    POTLOK:  cpu time    0.15: real time    0.15
    SETDIJ:  cpu time    0.00: real time    0.01
     EDDAV:  cpu time    0.40: real time    0.40
       DOS:  cpu time    0.00: real time    0.00
    CHARGE:  cpu time    0.12: real time    0.12
    MIXING:  cpu time    0.01: real time    0.01
    --------------------------------------------
      LOOP:  cpu time    0.68: real time    0.68

 eigenvalue-minimisations  :   232
 total energy-change (2. order) :-0.5901552E-03  (-0.5668616E-05)
 number of electron     119.9999592 magnetization       5.9979132
 augmentation part       51.3359395 magnetization       2.3971715

 Broyden mixing:
  rms(total) = 0.29626E-03    rms(broyden)= 0.29613E-03
  rms(prec ) = 0.44233E-03
  weight for this iteration     100.00

 eigenvalues of (default mixing * dielectric matrix)
  average eigenvalue GAMMA=   1.7809
  6.1497  4.5183  2.7258  2.7258  2.1398  1.3095  1.2733  0.9392  0.9392  0.7894
  0.7140  0.6046  0.6046  0.6598  0.6199

 Free energy of the ion-electron system (eV)
  ---------------------------------------------------
  alpha Z        PSCENC =        20.14424059
  Ewald energy   TEWEN  =     10163.40916349
  -Hartree energ DENC   =    -19638.38951533
  -exchange      EXHF   =         0.00000000
  -V(xc)+E(xc)   XCENC  =      -362.63400874
  PAW double counting   =     10782.79675263   -10045.30177048
  entropy T*S    EENTRO =         0.00000000
  eigenvalues    EBANDS =      -679.46346877
  atomic energy  EATOM  =      9716.25289675
  ---------------------------------------------------
  free energy    TOTEN  =       -43.18570986 eV

  energy without entropy =      -43.18570986  energy(sigma->0) =      -43.18570986


--------------------------------------------------------------------------------------------------------




----------------------------------------- Iteration    1(  21)  ---------------------------------------


    POTLOK:  cpu time    0.15: real time    0.15
    SETDIJ:  cpu time    0.01: real time    0.01
     EDDAV:  cpu time    0.39: real time    0.39
       DOS:  cpu time    0.00: real time    0.00
    CHARGE:  cpu time    0.12: real time    0.12
    MIXING:  cpu time    0.01: real time    0.01
    --------------------------------------------
      LOOP:  cpu time    0.67: real time    0.67

 eigenvalue-minimisations  :   224
 total energy-change (2. order) :-0.2584698E-03  (-0.2787960E-05)
 number of electron     119.9999592 magnetization       5.9993335
 augmentation part       51.3363890 magnetization       2.3983031

 Broyden mixing:
  rms(total) = 0.15860E-03    rms(broyden)= 0.15842E-03
  rms(prec ) = 0.26244E-03
  weight for this iteration     100.00

 eigenvalues of (default mixing * dielectric matrix)
  average eigenvalue GAMMA=   1.8491
  7.0127  4.6285  2.8888  2.8888  2.3948  1.7986  1.2829  0.9331  0.9331  0.9023
  0.7592  0.6008  0.6008  0.6801  0.6622  0.6196

 Free energy of the ion-electron system (eV)
  ---------------------------------------------------
  alpha Z        PSCENC =        20.14424059
  Ewald energy   TEWEN  =     10163.40916349
  -Hartree energ DENC   =    -19638.38473688
  -exchange      EXHF   =         0.00000000
  -V(xc)+E(xc)   XCENC  =      -362.63487828
  PAW double counting   =     10782.63082526   -10045.13463275
  entropy T*S    EENTRO =         0.00000000
  eigenvalues    EBANDS =      -679.46884652
  atomic energy  EATOM  =      9716.25289675
  ---------------------------------------------------
  free energy    TOTEN  =       -43.18596833 eV

  energy without entropy =      -43.18596833  energy(sigma->0) =      -43.18596833


--------------------------------------------------------------------------------------------------------




----------------------------------------- Iteration    1(  22)  ---------------------------------------


    POTLOK:  cpu time    0.15: real time    0.15
    SETDIJ:  cpu time    0.00: real time    0.01
     EDDAV:  cpu time    0.38: real time    0.38
       DOS:  cpu time    0.00: real time    0.00
    --------------------------------------------
      LOOP:  cpu time    0.54: real time    0.54

 eigenvalue-minimisations  :   216
 total energy-change (2. order) :-0.9867616E-04  (-0.1177570E-05)
 number of electron     119.9999592 magnetization       5.9993335
 augmentation part       51.3363890 magnetization       2.3983031

 Free energy of the ion-electron system (eV)
  ---------------------------------------------------
  alpha Z        PSCENC =        20.14424059
  Ewald energy   TEWEN  =     10163.40916349
  -Hartree energ DENC   =    -19638.39572443
  -exchange      EXHF   =         0.00000000
  -V(xc)+E(xc)   XCENC  =      -362.63516290
  PAW double counting   =     10782.60939078   -10045.11245693
  entropy T*S    EENTRO =        -0.00000000
  eigenvalues    EBANDS =      -679.45841436
  atomic energy  EATOM  =      9716.25289675
  ---------------------------------------------------
  free energy    TOTEN  =       -43.18606701 eV

  energy without entropy =      -43.18606701  energy(sigma->0) =      -43.18606701


--------------------------------------------------------------------------------------------------------




 average (electrostatic) potential at core
  the test charge radii are     1.1199
  (the norm of the test charge is              1.0000)
       1 -83.4672       2 -83.4672       3 -83.4672       4 -83.4672       5 -83.4672
       6 -83.4672       7 -83.4672       8 -83.4672       9 -83.4672      10 -83.4672
      11 -83.4672      12 -83.4672
 
 
 
 E-fermi :  -3.9153     XC(G=0):  -1.0523     alpha+bet : -0.6342


 spin component 1

 k-point     1 :       0.0000    0.0000    0.0000
  band No.  band energies     occupation 
      1      -7.8227      1.00000
      2      -7.6033      1.00000
      3      -7.3149      1.00000
      4      -7.2661      1.00000
      5      -7.2661      1.00000
      6      -7.2661      1.00000
      7      -7.2520      1.00000
      8      -7.2520      1.00000
      9      -7.2520      1.00000
     10      -6.9905      1.00000
     11      -6.9905      1.00000
     12      -6.9905      1.00000
     13      -6.7444      1.00000
     14      -6.7143      1.00000
     15      -6.7143      1.00000
     16      -6.6919      1.00000
     17      -6.6919      1.00000
     18      -6.6919      1.00000
     19      -6.6828      1.00000
     20      -6.6828      1.00000
     21      -6.3704      1.00000
     22      -6.3704      1.00000
     23      -6.3704      1.00000
     24      -6.3521      1.00000
     25      -6.3521      1.00000
     26      -6.3521      1.00000
     27      -5.9759      1.00000
     28      -5.9759      1.00000
     29      -5.9759      1.00000
     30      -5.8012      1.00000
     31      -5.8012      1.00000
     32      -5.8012      1.00000
     33      -5.5087      1.00000
     34      -5.5087      1.00000
     35      -5.5087      1.00000
     36      -5.0590      1.00000
     37      -5.0590      1.00000
     38      -5.0590      1.00000
     39      -4.9351      1.00000
     40      -4.9351      1.00000
     41      -4.8761      1.00000
     42      -4.8761      1.00000
     43      -4.8761      1.00000
     44      -4.6907      1.00000
     45      -4.6907      1.00000
     46      -4.6495      1.00000
     47      -4.6495      1.00000
     48      -4.5739      1.00000
     49      -4.5739      1.00000
     50      -4.5739      1.00000
     51      -4.5083      1.00000
     52      -4.5083      1.00000
     53      -4.5083      1.00000
     54      -4.3959      1.00000
     55      -4.3959      1.00000
     56      -4.3959      1.00000
     57      -4.3840      1.00000
     58      -4.3840      1.00000
     59      -4.3840      1.00000
     60      -4.2594      1.00000
     61      -4.2306      1.00000
     62      -4.2306      1.00000
     63      -4.2306      1.00000
     64      -3.4338      0.00000
     65      -2.9684      0.00000
     66      -2.9684      0.00000
     67      -2.9684      0.00000
     68      -2.3445      0.00000
     69      -2.3445      0.00000
     70      -1.5765      0.00000
     71      -1.1909      0.00000
     72      -0.3136      0.00000
     73      -0.3136      0.00000
     74      -0.3136      0.00000
     75      -0.1333      0.00000
     76      -0.1333      0.00000
     77      -0.1333      0.00000
     78       0.2528      0.00000
     79       0.2528      0.00000
     80       0.2528      0.00000

 spin component 2

 k-point     1 :       0.0000    0.0000    0.0000
  band No.  band energies     occupation 
      1      -7.6729      1.00000
      2      -7.1781      1.00000
      3      -7.1497      1.00000
      4      -7.0403      1.00000
      5      -7.0403      1.00000
      6      -7.0403      1.00000
      7      -6.8617      1.00000
      8      -6.8617      1.00000
      9      -6.8617      1.00000
     10      -6.8285      1.00000
     11      -6.8285      1.00000
     12      -6.8285      1.00000
     13      -6.6168      1.00000
     14      -6.5322      1.00000
     15      -6.5322      1.00000
     16      -6.4877      1.00000
     17      -6.4877      1.00000
     18      -6.4877      1.00000
     19      -6.4457      1.00000
     20      -6.4457      1.00000
     21      -6.1847      1.00000
     22      -6.1847      1.00000
     23      -6.1847      1.00000
     24      -6.1095      1.00000
     25      -6.1095      1.00000
     26      -6.1095      1.00000
     27      -5.6590      1.00000
     28      -5.6590      1.00000
     29      -5.6590      1.00000
     30      -5.5469      1.00000
     31      -5.5469      1.00000
     32      -5.5469      1.00000
     33      -5.2899      1.00000
     34      -5.2899      1.00000
     35      -5.2899      1.00000
     36      -4.8296      1.00000
     37      -4.8296      1.00000
     38      -4.8296      1.00000
     39      -4.7311      1.00000
     40      -4.7311      1.00000
     41      -4.6040      1.00000
     42      -4.6040      1.00000
     43      -4.6040      1.00000
     44      -4.4486      1.00000
     45      -4.4486      1.00000
     46      -4.3825      1.00000
     47      -4.3825      1.00000
     48      -4.3825      1.00000
     49      -4.2640      1.00000
     50      -4.2640      1.00000
     51      -4.2640      1.00000
     52      -4.1236      1.00000
     53      -4.1236      1.00000
     54      -4.0991      1.00000
     55      -4.0991      1.00000
     56      -4.0991      1.00000
     57      -3.9176      1.00000
     58      -3.8723      0.00000
     59      -3.8723      0.00000
     60      -3.8723      0.00000
     61      -3.8429      0.00000
     62      -3.8429      0.00000
     63      -3.8429      0.00000
     64      -3.2353      0.00000
     65      -2.6866      0.00000
     66      -2.6866      0.00000
     67      -2.6866      0.00000
     68      -2.1082      0.00000
     69      -2.1082      0.00000
     70      -1.3382      0.00000
     71      -0.9423      0.00000
     72      -0.0309      0.00000
     73      -0.0309      0.00000
     74      -0.0309      0.00000
     75       0.0639      0.00000
     76       0.0639      0.00000
     77       0.0639      0.00000
     78       0.4391      0.00000
     79       0.4391      0.00000
     80       0.5115      0.00000


--------------------------------------------------------------------------------------------------------


 soft charge-density along one line, spin component           1
         0         1         2         3         4         5         6         7         8         9
 total charge-density along one line
 
 soft charge-density along one line, spin component           2
         0         1         2         3         4         5         6         7         8         9
 total charge-density along one line
 
 pseudopotential strength for first ion, spin component:           1
 -8.566  -0.055   0.000   0.000   0.000  -8.534  -0.052   0.000
 -0.055  -8.566   0.000  -0.000  -0.000  -0.052  -8.534   0.000
  0.000   0.000  -8.453  -0.005  -0.022   0.000   0.000  -8.426
  0.000  -0.000  -0.005  -8.393  -0.009   0.000  -0.000  -0.005
  0.000  -0.000  -0.022  -0.009  -8.478   0.000  -0.000  -0.021
 -8.534  -0.052   0.000   0.000   0.000  -8.479  -0.050   0.000
 -0.052  -8.534   0.000  -0.000  -0.000  -0.050  -8.479   0.000
  0.000   0.000  -8.426  -0.005  -0.021   0.000   0.000  -8.376
  0.000  -0.000  -0.005  -8.368  -0.009   0.000  -0.000  -0.005
  0.000  -0.000  -0.021  -0.009  -8.450   0.000  -0.000  -0.020
  0.000  -0.000  -0.013   0.015  -0.023   0.000  -0.000  -0.013
  0.000  -0.000  -0.023   0.025  -0.040   0.000  -0.000  -0.022
  0.015   0.015   0.000  -0.000   0.000   0.015   0.015   0.000
 -0.000  -0.000   0.022   0.019   0.002  -0.000  -0.000   0.021
 -0.000  -0.000  -0.009   0.019   0.020  -0.000  -0.000  -0.009
  0.016   0.016   0.000  -0.000   0.000   0.016   0.016   0.000
 -0.000  -0.000   0.024   0.021   0.002  -0.000  -0.000   0.023
 -0.000  -0.000  -0.010   0.021   0.022  -0.000  -0.000  -0.010
 pseudopotential strength for first ion, spin component:           2
 -8.388   0.029   0.000   0.000   0.000  -8.363   0.028   0.000
  0.029  -8.388   0.000  -0.000  -0.000   0.028  -8.363   0.000
  0.000   0.000  -8.318  -0.007  -0.049   0.000   0.000  -8.296
  0.000  -0.000  -0.007  -8.297  -0.011   0.000  -0.000  -0.006
  0.000  -0.000  -0.049  -0.011  -8.374   0.000  -0.000  -0.047
 -8.363   0.028   0.000   0.000   0.000  -8.316   0.027   0.000
  0.028  -8.363   0.000  -0.000  -0.000   0.027  -8.316   0.000
  0.000   0.000  -8.296  -0.006  -0.047   0.000   0.000  -8.252
  0.000  -0.000  -0.006  -8.276  -0.011   0.000  -0.000  -0.006
  0.000  -0.000  -0.047  -0.011  -8.350   0.000  -0.000  -0.045
  0.000  -0.000  -0.012  -0.006  -0.020   0.000  -0.000  -0.011
  0.000  -0.000  -0.020  -0.011  -0.034   0.000  -0.000  -0.019
  0.021   0.021   0.000  -0.000   0.000   0.020   0.020   0.000
 -0.000  -0.000   0.025   0.022   0.000  -0.000  -0.000   0.024
 -0.000  -0.000  -0.012   0.022   0.022  -0.000  -0.000  -0.012
  0.025   0.025   0.000  -0.000   0.000   0.024   0.024   0.000
 -0.000  -0.000   0.029   0.025   0.000  -0.000  -0.000   0.028
 -0.000  -0.000  -0.014   0.025   0.025  -0.000  -0.000  -0.014
 total augmentation occupancy for first ion, spin component:           1
  1.830   0.362  -0.000  -0.000  -0.000  -0.801  -0.286  -0.000  -0.000  -0.000   0.000   0.000   0.178  -0.000   0.000   0.014
  0.362   1.830  -0.000   0.000   0.000  -0.286  -0.801  -0.000   0.000   0.000   0.000   0.000   0.178   0.000  -0.000   0.014
 -0.000   0.000   2.382  -0.013   0.124   0.000  -0.000  -0.841   0.011  -0.094   0.394  -0.096  -0.000   0.117  -0.133   0.000
 -0.000   0.000  -0.013   2.127  -0.023  -0.000   0.000   0.011  -0.434   0.018  -0.017   0.044   0.000   0.045   0.045   0.000
 -0.000   0.000   0.124  -0.023   2.525   0.000  -0.000  -0.094   0.019  -0.949   0.683  -0.167  -0.000  -0.086   0.058  -0.000
 -0.801  -0.286   0.000  -0.000   0.000   1.479   0.187   0.000   0.000   0.000   0.000   0.000  -0.274   0.000   0.000   0.020
 -0.286  -0.801  -0.000   0.000  -0.000   0.187   1.479  -0.000   0.000  -0.000  -0.000   0.000  -0.274   0.000   0.000   0.020
 -0.000   0.000  -0.841   0.011  -0.094  -0.000  -0.000   1.177  -0.008   0.086  -0.279   0.030  -0.000  -0.170   0.175   0.000
 -0.000   0.000   0.011  -0.434   0.019   0.000   0.000  -0.008   0.681  -0.014  -0.073   0.002  -0.000  -0.078  -0.078   0.000
 -0.000   0.000  -0.094   0.018  -0.949   0.000   0.000   0.086  -0.014   1.276  -0.483   0.053   0.000   0.104  -0.095   0.000
  0.000   0.000   0.394  -0.017   0.683   0.000  -0.000  -0.279  -0.073  -0.483   1.631  -0.225   0.000  -0.180  -0.180   0.000
  0.000   0.000  -0.096   0.044  -0.167   0.000   0.000   0.030   0.002   0.053  -0.225   0.040   0.000   0.026   0.026   0.000
  0.178   0.178  -0.000   0.000  -0.000  -0.274  -0.274  -0.000  -0.000   0.000   0.000   0.000   0.134   0.000   0.000  -0.008
 -0.000   0.000   0.117   0.045  -0.086   0.000   0.000  -0.170  -0.078   0.104  -0.180   0.026   0.000   0.091  -0.010   0.000
  0.000  -0.000  -0.133   0.045   0.058   0.000   0.000   0.175  -0.078  -0.095  -0.180   0.026   0.000  -0.010   0.091   0.000
  0.014   0.014   0.000   0.000  -0.000   0.020   0.020   0.000   0.000   0.000   0.000   0.000  -0.008   0.000   0.000   0.002
  0.000  -0.000   0.030   0.027   0.006   0.000   0.000   0.011   0.007  -0.007   0.019  -0.003   0.000  -0.006  -0.001   0.000
  0.000   0.000  -0.010   0.027   0.029  -0.000  -0.000  -0.011   0.007   0.006   0.019  -0.003   0.000  -0.001  -0.006   0.000
 total augmentation occupancy for first ion, spin component:           2
  0.487   0.480   0.000   0.000   0.000  -0.204  -0.217  -0.000   0.000   0.000  -0.000  -0.000   0.059  -0.000  -0.000   0.009
  0.480   0.487   0.000   0.000  -0.000  -0.217  -0.204   0.000  -0.000   0.000  -0.000   0.000   0.059  -0.000   0.000   0.009
  0.000   0.000   0.244   0.008  -0.132  -0.000   0.000  -0.094  -0.003   0.055   0.030  -0.004  -0.000   0.020  -0.012  -0.000
  0.000   0.000   0.008   0.034   0.015   0.000   0.000  -0.004  -0.004  -0.006  -0.019   0.057   0.000   0.010   0.010   0.000
  0.000   0.000  -0.132   0.015   0.092  -0.000   0.000   0.055  -0.005  -0.030   0.052  -0.007   0.000  -0.003   0.016  -0.000
 -0.204  -0.217  -0.000   0.000   0.000   0.057   0.087   0.000  -0.000   0.000   0.000   0.000  -0.019  -0.000  -0.000  -0.004
 -0.217  -0.204  -0.000   0.000  -0.000   0.087   0.057  -0.000   0.000  -0.000   0.000  -0.000  -0.019  -0.000  -0.000  -0.004
  0.000  -0.000  -0.094  -0.004   0.055  -0.000   0.000   0.019   0.003  -0.020  -0.012   0.000  -0.000  -0.005   0.001   0.000
  0.000  -0.000  -0.003  -0.004  -0.005  -0.000   0.000   0.003  -0.011   0.004  -0.033   0.006  -0.000  -0.002  -0.002  -0.000
  0.000  -0.000   0.055  -0.006  -0.030   0.000   0.000  -0.020   0.004  -0.004  -0.020   0.000   0.000  -0.002  -0.006   0.000
 -0.000  -0.000   0.030  -0.019   0.052   0.000   0.000  -0.012  -0.033  -0.020   0.114  -0.009   0.000   0.019   0.019   0.000
 -0.000   0.000  -0.004   0.057  -0.007   0.000  -0.000   0.000   0.006   0.000  -0.009   0.004   0.000  -0.002  -0.002   0.000
  0.059   0.059  -0.000   0.000   0.000  -0.019  -0.019  -0.000  -0.000   0.000   0.000   0.000   0.008   0.000   0.000   0.001
 -0.000  -0.000   0.020   0.010  -0.003  -0.000  -0.000  -0.005  -0.002  -0.002   0.019  -0.002   0.000   0.000  -0.002   0.000
 -0.000   0.000  -0.012   0.010   0.016  -0.000  -0.000   0.001  -0.002  -0.006   0.019  -0.002   0.000  -0.002   0.000   0.000
  0.009   0.009  -0.000   0.000  -0.000  -0.004  -0.004   0.000  -0.000   0.000   0.000   0.000   0.001   0.000   0.000   0.000
 -0.000  -0.000   0.004   0.002  -0.001   0.000  -0.000  -0.001  -0.000   0.000   0.000   0.001   0.000   0.000  -0.000   0.000
 -0.000   0.000  -0.003   0.002   0.003  -0.000   0.000   0.001  -0.000  -0.001   0.000   0.001   0.000  -0.000   0.000   0.000


------------------------ aborting loop because EDIFF is reached ----------------------------------------


    CHARGE:  cpu time    0.12: real time    0.12
    FORLOC:  cpu time    0.00: real time    0.01
    FORNL :  cpu time    0.20: real time    0.20
    STRESS:  cpu time    0.24: real time    0.24
    FORCOR:  cpu time    0.16: real time    0.16
    FORHAR:  cpu time    0.02: real time    0.02
    MIXING:  cpu time    0.01: real time    0.01
    OFIELD:  cpu time    0.00: real time    0.00

  FORCE on cell =-STRESS in cart. coord.  units (eV):
  Direction    XX          YY          ZZ          XY          YZ          ZX
  --------------------------------------------------------------------------------------
  Alpha Z    20.14424    20.14424    20.14424
  Ewald    3387.80036  3387.80036  3387.80036    -0.00000     0.00000    -0.00000
  Hartree  6546.14107  6546.14107  6546.14107     0.00000    -0.00000    -0.00000
  E(xc)    -626.69076  -626.69076  -626.69076     0.00000     0.00000    -0.00000
  Local  -11767.03924-11767.03924-11767.03924     0.00000     0.00000     0.00000
  n-local  -114.34691  -114.34694  -114.34689    -0.00003    -0.00004     0.00001
  augment   890.91268   890.91268   890.91268    -0.00000    -0.00000    -0.00000
  Kinetic  1657.29007  1657.29005  1657.29008    -0.00001    -0.00000     0.00000
  Fock        0.00000     0.00000     0.00000     0.00000     0.00000     0.00000
  -------------------------------------------------------------------------------------
  Total      -5.78850    -5.78850    -5.78850    -0.00000     0.00000    -0.00000
  in kB      -1.99059    -1.99059    -1.99059    -0.00000     0.00000    -0.00000
  external pressure =       -1.99 kB  Pullay stress =        0.00 kB


 VOLUME and BASIS-vectors are now :
 -----------------------------------------------------------------------------
  energy-cutoff  :      250.93
  volume of cell :     4659.02
      direct lattice vectors                 reciprocal lattice vectors
    16.701855060  0.000000000  0.000000000     0.059873589  0.000000000  0.000000000
     0.000000000 16.701855060  0.000000000     0.000000000  0.059873589  0.000000000
     0.000000000  0.000000000 16.701855060     0.000000000  0.000000000  0.059873589

  length of vectors
    16.701855060 16.701855060 16.701855060     0.059873589  0.059873589  0.059873589


 FORCES acting on ions
    electron-ion (+dipol)            ewald-force                    non-local-force                 convergence-correction
 -----------------------------------------------------------------------------------------------
   -.587E+03 0.858E-11 -.587E+03   0.583E+03 -.703E-16 0.583E+03   0.367E+01 -.113E-21 0.367E+01   0.406E-03 -.254E-13 0.406E-03
[...]
     32      -5.8400      1.00000
     33      -5.5363      1.00000
     34      -5.5363      1.00000
     35      -5.5363      1.00000
     36      -5.0713      1.00000
     37      -5.0713      1.00000
     38      -5.0713      1.00000
     39      -4.9457      1.00000
     40      -4.9457      1.00000
     41      -4.8791      1.00000
     42      -4.8791      1.00000
     43      -4.8791      1.00000
     44      -4.6794      1.00000
     45      -4.6794      1.00000
     46      -4.6457      1.00000
     47      -4.6457      1.00000
     48      -4.5681      1.00000
     49      -4.5681      1.00000
     50      -4.5681      1.00000
     51      -4.5009      1.00000
     52      -4.5009      1.00000
     53      -4.5009      1.00000
     54      -4.3749      1.00000
     55      -4.3749      1.00000
     56      -4.3749      1.00000
     57      -4.3709      1.00000
     58      -4.3709      1.00000
     59      -4.3709      1.00000
     60      -4.2391      1.00000
     61      -4.2323      1.00000
     62      -4.2323      1.00000
     63      -4.2323      1.00000
     64      -3.3845      0.00000
     65      -2.9624      0.00000
     66      -2.9624      0.00000
     67      -2.9624      0.00000
     68      -2.3378      0.00000
     69      -2.3378      0.00000
     70      -1.5885      0.00000
     71      -1.1857      0.00000
     72      -0.2731      0.00000
     73      -0.2731      0.00000
     74      -0.2731      0.00000
     75      -0.1191      0.00000
     76      -0.1191      0.00000
     77      -0.1191      0.00000
     78       0.2705      0.00000
     79       0.2705      0.00000
     80       0.2705      0.00000

 spin component 2

 k-point     1 :       0.0000    0.0000    0.0000
  band No.  band energies     occupation 
      1      -7.7586      1.00000
      2      -7.2716      1.00000
      3      -7.2379      1.00000
      4      -7.1157      1.00000
      5      -7.1157      1.00000
      6      -7.1157      1.00000
      7      -6.9347      1.00000
      8      -6.9347      1.00000
      9      -6.9347      1.00000
     10      -6.9023      1.00000
     11      -6.9023      1.00000
     12      -6.9023      1.00000
     13      -6.6902      1.00000
     14      -6.5966      1.00000
     15      -6.5966      1.00000
     16      -6.5527      1.00000
     17      -6.5527      1.00000
     18      -6.5527      1.00000
     19      -6.5144      1.00000
     20      -6.5144      1.00000
     21      -6.2363      1.00000
     22      -6.2363      1.00000
     23      -6.2363      1.00000
     24      -6.1689      1.00000
     25      -6.1689      1.00000
     26      -6.1689      1.00000
     27      -5.6977      1.00000
     28      -5.6977      1.00000
     29      -5.6977      1.00000
     30      -5.5853      1.00000
     31      -5.5853      1.00000
     32      -5.5853      1.00000
     33      -5.3174      1.00000
     34      -5.3174      1.00000
     35      -5.3174      1.00000
     36      -4.8415      1.00000
     37      -4.8415      1.00000
     38      -4.8415      1.00000
     39      -4.7421      1.00000
     40      -4.7421      1.00000
     41      -4.6064      1.00000
     42      -4.6064      1.00000
     43      -4.6064      1.00000
     44      -4.4442      1.00000
     45      -4.4442      1.00000
     46      -4.3767      1.00000
     47      -4.3767      1.00000
     48      -4.3767      1.00000
     49      -4.2571      1.00000
     50      -4.2571      1.00000
     51      -4.2571      1.00000
     52      -4.1122      1.00000
     53      -4.1122      1.00000
     54      -4.0856      1.00000
     55      -4.0856      1.00000
     56      -4.0856      1.00000
     57      -3.8971      1.00000
     58      -3.8504      0.00000
     59      -3.8504      0.00000
     60      -3.8504      0.00000
     61      -3.8427      0.00000
     62      -3.8427      0.00000
     63      -3.8427      0.00000
     64      -3.1858      0.00000
     65      -2.6782      0.00000
     66      -2.6782      0.00000
     67      -2.6782      0.00000
     68      -2.0995      0.00000
     69      -2.0995      0.00000
     70      -1.3463      0.00000
     71      -0.9335      0.00000
     72       0.0142      0.00000
     73       0.0142      0.00000
     74       0.0142      0.00000
     75       0.0862      0.00000
     76       0.0862      0.00000
     77       0.0862      0.00000
     78       0.4695      0.00000
     79       0.4695      0.00000
     80       0.4695      0.00000


--------------------------------------------------------------------------------------------------------


 soft charge-density along one line, spin component           1
         0         1         2         3         4         5         6         7         8         9
 total charge-density along one line
 
 soft charge-density along one line, spin component           2
         0         1         2         3         4         5         6         7         8         9
 total charge-density along one line
 
 pseudopotential strength for first ion, spin component:           1
 -8.575  -0.054  -0.000  -0.000   0.000  -8.543  -0.052  -0.000
 -0.054  -8.575  -0.000   0.000   0.000  -0.052  -8.543  -0.000
 -0.000  -0.000  -8.462  -0.005  -0.022  -0.000  -0.000  -8.434
 -0.000   0.000  -0.005  -8.401  -0.009  -0.000   0.000  -0.005
  0.000   0.000  -0.022  -0.009  -8.488   0.000   0.000  -0.021
 -8.543  -0.052  -0.000  -0.000   0.000  -8.488  -0.050  -0.000
 -0.052  -8.543  -0.000   0.000   0.000  -0.050  -8.488  -0.000
 -0.000  -0.000  -8.434  -0.005  -0.021  -0.000  -0.000  -8.384
 -0.000   0.000  -0.005  -8.376  -0.009  -0.000   0.000  -0.005
  0.000   0.000  -0.021  -0.009  -8.459   0.000   0.000  -0.020
 -0.000   0.000  -0.014   0.015  -0.024  -0.000   0.000  -0.013
 -0.000   0.000  -0.023   0.025  -0.040  -0.000   0.000  -0.022
  0.014   0.014   0.000   0.000   0.000   0.014   0.014   0.000
  0.000  -0.000   0.021   0.018   0.002   0.000  -0.000   0.020
 -0.000   0.000  -0.009   0.018   0.019  -0.000   0.000  -0.008
  0.015   0.015   0.000   0.000   0.000   0.014   0.014   0.000
  0.000  -0.000   0.023   0.020   0.003   0.000  -0.000   0.022
 -0.000   0.000  -0.009   0.020   0.021  -0.000   0.000  -0.009
 pseudopotential strength for first ion, spin component:           2
 -8.397   0.030  -0.000  -0.000   0.000  -8.373   0.028  -0.000
  0.030  -8.397  -0.000   0.000   0.000   0.028  -8.373  -0.000
 -0.000  -0.000  -8.327  -0.006  -0.049  -0.000  -0.000  -8.305
 -0.000   0.000  -0.006  -8.305  -0.011  -0.000   0.000  -0.006
  0.000   0.000  -0.049  -0.011  -8.384   0.000   0.000  -0.047
 -8.373   0.028  -0.000  -0.000   0.000  -8.325   0.027  -0.000
  0.028  -8.373  -0.000   0.000   0.000   0.027  -8.325  -0.000
 -0.000  -0.000  -8.305  -0.006  -0.047  -0.000  -0.000  -8.260
 -0.000   0.000  -0.006  -8.284  -0.011  -0.000   0.000  -0.006
  0.000   0.000  -0.047  -0.011  -8.360   0.000   0.000  -0.045
 -0.000   0.000  -0.012  -0.006  -0.020  -0.000   0.000  -0.011
 -0.000   0.000  -0.020  -0.011  -0.034  -0.000   0.000  -0.019
  0.020   0.020   0.000   0.000   0.000   0.019   0.019   0.000
  0.000  -0.000   0.025   0.021   0.000   0.000  -0.000   0.024
 -0.000   0.000  -0.012   0.021   0.021  -0.000   0.000  -0.011
  0.024   0.024   0.000   0.000   0.000   0.022   0.022   0.000
  0.000  -0.000   0.028   0.024   0.000   0.000  -0.000   0.027
 -0.000   0.000  -0.014   0.024   0.025  -0.000   0.000  -0.013
 total augmentation occupancy for first ion, spin component:           1
  1.887   0.381  -0.000  -0.000  -0.000  -0.877  -0.302   0.000  -0.000  -0.000   0.000  -0.000   0.191  -0.000   0.000   0.012
  0.381   1.887   0.000  -0.000  -0.000  -0.302  -0.877   0.000  -0.000  -0.000   0.000  -0.000   0.191   0.000   0.000   0.012
 -0.000  -0.000   2.445  -0.013   0.128  -0.000   0.000  -0.913   0.011  -0.100   0.405  -0.098  -0.000   0.128  -0.142   0.000
 -0.000  -0.000  -0.013   2.167  -0.023  -0.000  -0.000   0.011  -0.479   0.019  -0.015   0.044  -0.000   0.051   0.051   0.000
 -0.000  -0.000   0.128  -0.023   2.593   0.000   0.000  -0.100   0.020  -1.028   0.702  -0.170  -0.000  -0.091   0.065  -0.000
 -0.877  -0.302  -0.000  -0.000   0.000   1.575   0.200   0.000  -0.000  -0.000   0.000  -0.000  -0.287  -0.000  -0.000   0.020
 -0.302  -0.877   0.000  -0.000   0.000   0.200   1.575   0.000   0.000   0.000   0.000  -0.000  -0.287  -0.000  -0.000   0.020
 -0.000   0.000  -0.913   0.011  -0.100   0.000   0.000   1.257  -0.008   0.093  -0.289   0.032  -0.000  -0.180   0.184   0.000
 -0.000  -0.000   0.011  -0.479   0.020  -0.000   0.000  -0.008   0.731  -0.014  -0.074   0.001   0.000  -0.083  -0.083   0.000
 -0.000   0.000  -0.100   0.019  -1.028   0.000  -0.000   0.093  -0.014   1.364  -0.501   0.055   0.000   0.108  -0.102  -0.000
  0.000   0.000   0.405  -0.015   0.702   0.000   0.000  -0.289  -0.074  -0.501   1.664  -0.230   0.000  -0.185  -0.185   0.000
 -0.000  -0.000  -0.098   0.044  -0.170  -0.000  -0.000   0.032   0.001   0.055  -0.230   0.041   0.000   0.027   0.027   0.000
  0.191   0.191  -0.000  -0.000  -0.000  -0.287  -0.287  -0.000   0.000   0.000   0.000   0.000   0.139   0.000   0.000  -0.009
 -0.000   0.000   0.128   0.051  -0.091  -0.000  -0.000  -0.180  -0.083   0.108  -0.185   0.027   0.000   0.095  -0.010   0.000
  0.000   0.000  -0.142   0.051   0.065  -0.000  -0.000   0.184  -0.083  -0.102  -0.185   0.027   0.000  -0.010   0.095   0.000
  0.012   0.012   0.000   0.000  -0.000   0.020   0.020   0.000   0.000  -0.000   0.000   0.000  -0.009   0.000   0.000   0.001
  0.000  -0.000   0.028   0.026   0.007   0.000  -0.000   0.011   0.008  -0.007   0.019  -0.003   0.000  -0.006  -0.001   0.000
  0.000   0.000  -0.009   0.026   0.028  -0.000   0.000  -0.012   0.008   0.006   0.019  -0.003   0.000  -0.001  -0.006   0.000
 total augmentation occupancy for first ion, spin component:           2
  0.500   0.494  -0.000  -0.000   0.000  -0.214  -0.227  -0.000  -0.000   0.000   0.000  -0.000   0.061  -0.000  -0.000   0.009
  0.494   0.500   0.000  -0.000  -0.000  -0.227  -0.214   0.000   0.000   0.000   0.000  -0.000   0.061   0.000   0.000   0.009
  0.000  -0.000   0.248   0.009  -0.135   0.000   0.000  -0.097  -0.003   0.058   0.030  -0.004   0.000   0.020  -0.012  -0.000
 -0.000  -0.000   0.009   0.033   0.015  -0.000   0.000  -0.003  -0.004  -0.006  -0.019   0.057  -0.000   0.011   0.011  -0.000
  0.000  -0.000  -0.135   0.015   0.092  -0.000  -0.000   0.058  -0.005  -0.030   0.052  -0.006   0.000  -0.003   0.016   0.000
 -0.214  -0.227   0.000  -0.000   0.000   0.062   0.094   0.000   0.000  -0.000  -0.000  -0.000  -0.020  -0.000   0.000  -0.004
 -0.227  -0.214  -0.000   0.000  -0.000   0.094   0.062  -0.000   0.000   0.000   0.000  -0.000  -0.020  -0.000  -0.000  -0.004
  0.000   0.000  -0.097  -0.003   0.058   0.000   0.000   0.020   0.003  -0.021  -0.012   0.000   0.000  -0.006   0.001   0.000
 -0.000   0.000  -0.003  -0.004  -0.005   0.000   0.000   0.003  -0.011   0.004  -0.033   0.006  -0.000  -0.003  -0.003  -0.000
 -0.000  -0.000   0.058  -0.006  -0.030  -0.000   0.000  -0.021   0.004  -0.004  -0.020   0.000   0.000  -0.002  -0.006  -0.000
  0.000   0.000   0.030  -0.019   0.052  -0.000   0.000  -0.012  -0.033  -0.020   0.113  -0.008   0.000   0.020   0.020   0.000
 -0.000  -0.000  -0.004   0.057  -0.006  -0.000  -0.000   0.000   0.006   0.000  -0.008   0.003   0.000  -0.002  -0.002   0.000
  0.061   0.061   0.000  -0.000   0.000  -0.020  -0.020   0.000  -0.000   0.000   0.000   0.000   0.008   0.000   0.000   0.001
 -0.000   0.000   0.020   0.011  -0.003  -0.000  -0.000  -0.006  -0.003  -0.002   0.020  -0.002   0.000   0.000  -0.002   0.000
 -0.000   0.000  -0.012   0.011   0.016   0.000  -0.000   0.001  -0.003  -0.006   0.020  -0.002   0.000  -0.002   0.000   0.000
  0.009   0.009  -0.000  -0.000   0.000  -0.004  -0.004   0.000  -0.000  -0.000   0.000   0.000   0.001   0.000   0.000   0.000
  0.000  -0.000   0.004   0.002  -0.001   0.000  -0.000  -0.001  -0.000   0.000   0.000   0.001   0.000   0.000  -0.000   0.000
  0.000  -0.000  -0.003   0.002   0.003   0.000   0.000   0.001  -0.000  -0.001   0.000   0.001   0.000  -0.000   0.000   0.000


------------------------ aborting loop because EDIFF is reached ----------------------------------------


    CHARGE:  cpu time    0.12: real time    0.12
    FORLOC:  cpu time    0.00: real time    0.01
    FORNL :  cpu time    0.20: real time    0.20
    STRESS:  cpu time    0.24: real time    0.24
    FORCOR:  cpu time    0.16: real time    0.16
    FORHAR:  cpu time    0.02: real time    0.02
    MIXING:  cpu time    0.00: real time    0.00
    OFIELD:  cpu time    0.00: real time    0.00

  FORCE on cell =-STRESS in cart. coord.  units (eV):
  Direction    XX          YY          ZZ          XY          YZ          ZX
  --------------------------------------------------------------------------------------
  Alpha Z    20.14424    20.14424    20.14424
  Ewald    3450.38662  3450.38662  3450.38662    -0.00000    -0.00000    -0.00000
  Hartree  6607.10229  6607.10229  6607.10229    -0.00000    -0.00000    -0.00000
  E(xc)    -627.16555  -627.16555  -627.16555     0.00000     0.00000     0.00000
  Local  -11892.32022-11892.32022-11892.32022     0.00000     0.00000     0.00000
  n-local  -110.36965  -110.36965  -110.36965     0.00000     0.00000     0.00000
  augment   890.64351   890.64351   890.64351     0.00000    -0.00000    -0.00000
  Kinetic  1657.82563  1657.82564  1657.82563    -0.00001    -0.00001    -0.00000
  Fock        0.00000     0.00000     0.00000     0.00000     0.00000     0.00000
  -------------------------------------------------------------------------------------
  Total      -3.75313    -3.75313    -3.75313    -0.00000    -0.00000    -0.00000
  in kB      -1.29065    -1.29065    -1.29065    -0.00000    -0.00000    -0.00000
  external pressure =       -1.29 kB  Pullay stress =        0.00 kB


 VOLUME and BASIS-vectors are now :
 -----------------------------------------------------------------------------
  energy-cutoff  :      250.93
  volume of cell :     4659.02
      direct lattice vectors                 reciprocal lattice vectors
    16.701855060  0.000000000  0.000000000     0.059873589  0.000000000  0.000000000
     0.000000000 16.701855060  0.000000000     0.000000000  0.059873589  0.000000000
     0.000000000  0.000000000 16.701855060     0.000000000  0.000000000  0.059873589

  length of vectors
    16.701855060 16.701855060 16.701855060     0.059873589  0.059873589  0.059873589


 FORCES acting on ions
    electron-ion (+dipol)            ewald-force                    non-local-force                 convergence-correction
 -----------------------------------------------------------------------------------------------
   -.596E+03 0.115E-10 -.596E+03   0.592E+03 -.569E-13 0.592E+03   0.376E+01 -.141E-21 0.376E+01   0.917E-02 -.196E-11 0.917E-02
   -.596E+03 -.596E+03 0.588E-05   0.592E+03 0.592E+03 -.284E-13   0.376E+01 0.376E+01 0.181E-22   0.917E-02 0.917E-02 -.197E-11
   0.106E-11 -.596E+03 0.596E+03   -.568E-13 0.592E+03 -.592E+03   0.275E-22 0.376E+01 -.376E+01   0.672E-12 0.917E-02 -.917E-02
   0.596E+03 -.355E-12 0.596E+03   -.592E+03 0.358E-14 -.592E+03   -.376E+01 0.177E-22 -.376E+01   -.917E-02 -.631E-12 -.917E-02
   0.102E-11 0.596E+03 -.596E+03   -.888E-13 -.592E+03 0.592E+03   -.189E-21 -.376E+01 0.376E+01   0.125E-11 -.917E-02 0.917E-02
   0.596E+03 0.596E+03 -.588E-05   -.592E+03 -.592E+03 0.711E-14   -.376E+01 -.376E+01 0.895E-23   -.917E-02 -.917E-02 -.115E-11
   0.596E+03 -.596E+03 0.152E-10   -.592E+03 0.592E+03 0.355E-13   -.376E+01 0.376E+01 -.436E-22   -.917E-02 0.917E-02 -.130E-11
   0.101E-11 -.596E+03 -.596E+03   0.497E-13 0.592E+03 0.592E+03   0.516E-22 0.376E+01 0.376E+01   -.170E-14 0.917E-02 0.917E-02
   0.596E+03 0.757E-13 -.596E+03   -.592E+03 0.391E-13 0.592E+03   -.376E+01 0.442E-22 0.376E+01   -.917E-02 -.756E-12 0.917E-02
   0.101E-11 0.596E+03 0.596E+03   -.284E-13 -.592E+03 -.592E+03   -.251E-22 -.376E+01 -.376E+01   0.121E-11 -.917E-02 -.917E-02
   -.596E+03 0.596E+03 0.139E-10   0.592E+03 -.592E+03 0.000E+00   0.376E+01 -.376E+01 0.918E-23   0.917E-02 -.917E-02 -.109E-11
   -.596E+03 0.119E-10 0.596E+03   0.592E+03 0.568E-13 -.592E+03   0.376E+01 -.349E-23 -.376E+01   0.917E-02 -.123E-11 -.917E-02
 -----------------------------------------------------------------------------------------------
   -.133E-10 0.475E-10 0.115E-09   0.114E-12 0.568E-13 -.227E-12   -.444E-15 -.349E-23 0.000E+00   0.627E-11 -.109E-10 -.149E-10
 
 
 POSITION                                       TOTAL-FORCE (eV/Angst)
 -----------------------------------------------------------------------------------
     10.18854      8.35093     10.18854         0.000272     -0.000000      0.000272
     10.18854     10.18854      8.35093         0.000272      0.000272      0.000000
      8.35093     10.18854      6.51332         0.000000      0.000272     -0.000272
      6.51332      8.35093      6.51332        -0.000272      0.000000     -0.000272
      8.35093      6.51332     10.18854        -0.000000     -0.000272      0.000272
      6.51332      6.51332      8.35093        -0.000272     -0.000272      0.000000
      6.51332     10.18854      8.35093        -0.000272      0.000272      0.000000
      8.35093     10.18854     10.18854         0.000000      0.000272      0.000272
      6.51332      8.35093     10.18854        -0.000272      0.000000      0.000272
      8.35093      6.51332      6.51332         0.000000     -0.000272     -0.000272
     10.18854      6.51332      8.35093         0.000272     -0.000272     -0.000000
     10.18854      8.35093      6.51332         0.000272     -0.000000     -0.000272
 -----------------------------------------------------------------------------------
    total drift:                               -0.000000      0.000000      0.000000


--------------------------------------------------------------------------------------------------------



  FREE ENERGIE OF THE ION-ELECTRON SYSTEM (eV)
  ---------------------------------------------------
  free  energy   TOTEN  =       -43.20850517 eV

  energy  without entropy=      -43.20850517  energy(sigma->0) =      -43.20850517
 
 d Force = 0.8534087E-02[-0.522E-04, 0.171E-01]  d Energy = 0.8319384E-02 0.215E-03
 d Force =-0.1130046E+03[-0.114E+03,-0.112E+03]  d Ewald  =-0.1130035E+03-0.112E-02


--------------------------------------------------------------------------------------------------------


    POTLOK:  cpu time    0.16: real time    0.16


--------------------------------------------------------------------------------------------------------




--------------------------------------------------------------------------------------------------------


  
 reached required accuracy - stopping structural energy minimisation
     LOOP+:  cpu time    5.91: real time    6.03
    4ORBIT:  cpu time    0.00: real time    0.00

 total amount of memory used by VASP on root node    47495. kBytes
========================================================================

   base      :      30000. kBytes
   nonl-proj :        885. kBytes
   fftplans  :       4199. kBytes
   grid      :      10682. kBytes
   one-center:         31. kBytes
   wavefun   :       1698. kBytes
 
  
  
 General timing and accounting informations for this job:
 ========================================================
  
                  Total CPU time used (sec):       30.854
                            User time (sec):       29.670
                          System time (sec):        1.184
                         Elapsed time (sec):       37.577
  
                   Maximum memory used (kb):       52204.
                   Average memory used (kb):           0.
  
                          Minor page faults:       222856
                          Major page faults:            0
                 Voluntary context switches:         3044
