   28   28 1000    2
  0.3828645E+03  0.2204962E-08  0.2204962E-08  0.2204962E-08  0.1000000E-15
  1.000000000000000E-004
  CAR 
 unknown system                          
    308      1    200
 
  0.0000000E+00  0.0000000E+00  0.0000000E+00  0.1000000E+01
    1       -9.552347     -9.552347
    2       -9.174868     -9.174868
    3       -9.149752     -9.149752
    4       -9.012754     -9.012754
    5       -9.008133     -9.008133
    6       -8.988252     -8.988252
    7       -8.978266     -8.978266
    8       -8.943735     -8.943735
    9       -8.936757     -8.936757
   10       -8.863557     -8.863557
   11       -8.828818     -8.828818
   12       -8.770381     -8.770381
   13       -8.744333     -8.744333
   14       -8.723108     -8.723108
   15       -8.686232     -8.686232
   16       -8.673842     -8.673842
   17       -8.670308     -8.670308
   18       -8.643438     -8.643438
   19       -8.618588     -8.618588
   20       -8.582058     -8.582058
   21       -8.574800     -8.574800
   22       -8.562769     -8.562769
   23       -8.545484     -8.545484
   24       -8.541162     -8.541162
   25       -8.529491     -8.529491
   26       -8.513126     -8.513126
   27       -8.506035     -8.506035
   28       -8.503701     -8.503701
   29       -8.478149     -8.478149
   30       -8.441472     -8.441472
   31       -8.416246     -8.416246
   32       -8.400394     -8.400394
   33       -8.390031     -8.390031
   34       -8.382856     -8.382856
   35       -8.376394     -8.376394
   36       -8.345745     -8.345745
   37       -8.337982     -8.337982
   38       -8.322205     -8.322205
   39       -8.305658     -8.305658
   40       -8.273294     -8.273294
   41       -8.267067     -8.267067
   42       -8.262084     -8.262084
   43       -8.232270     -8.232270
   44       -8.212815     -8.212815
   45       -8.186700     -8.186700
   46       -8.179090     -8.179090
   47       -8.130279     -8.130279
   48       -8.082027     -8.082027
   49       -8.066332     -8.066332
   50       -8.062126     -8.062126
   51       -8.052925     -8.052925
   52       -8.051562     -8.051562
   53       -8.021667     -8.021667
   54       -7.986379     -7.986379
   55       -7.948500     -7.948500
   56       -7.948095     -7.948095
   57       -7.855700     -7.855700
   58       -7.837639     -7.837639
   59       -7.815950     -7.815950
   60       -7.785525     -7.785525
   61       -7.784625     -7.784625
   62       -7.736039     -7.736039
   63       -7.731751     -7.731751
   64       -7.729259     -7.729259
   65       -7.721136     -7.721136
   66       -7.662570     -7.662570
   67       -7.658968     -7.658968
   68       -7.634509     -7.634509
   69       -7.584529     -7.584529
   70       -7.550775     -7.550775
   71       -7.543179     -7.543179
   72       -7.531841     -7.531841
   73       -7.504011     -7.504011
   74       -7.477189     -7.477189
   75       -7.468044     -7.468044
   76       -7.422274     -7.422274
   77       -7.409574     -7.409574
   78       -7.396194     -7.396194
   79       -7.345917     -7.345917
   80       -7.332015     -7.332015
   81       -7.305806     -7.305806
   82       -7.265393     -7.265393
   83       -7.241775     -7.241775
   84       -7.214448     -7.214448
   85       -7.211991     -7.211991
   86       -7.200379     -7.200379
   87       -7.176600     -7.176600
   88       -7.163235     -7.163235
   89       -7.140671     -7.140671
   90       -7.128783     -7.128783
   91       -7.100813     -7.100813
   92       -7.066414     -7.066414
   93       -7.064420     -7.064420
   94       -7.052124     -7.052124
   95       -7.029574     -7.029574
   96       -7.022762     -7.022762
   97       -7.020031     -7.020031
   98       -7.014485     -7.014485
   99       -6.994766     -6.994766
  100       -6.959345     -6.959345
  101       -6.953741     -6.953741
  102       -6.943496     -6.943496
  103       -6.931225     -6.931225
  104       -6.913073     -6.913073
  105       -6.908379     -6.908379
  106       -6.889544     -6.889544
  107       -6.856770     -6.856770
  108       -6.853325     -6.853325
  109       -6.847658     -6.847658
  110       -6.826373     -6.826373
  111       -6.818716     -6.818716
  112       -6.812852     -6.812852
  113       -6.785452     -6.785452
  114       -6.781145     -6.781145
  115       -6.773087     -6.773087
  116       -6.746500     -6.746500
  117       -6.737528     -6.737528
  118       -6.730497     -6.730497
  119       -6.696914     -6.696914
  120       -6.690955     -6.690955
  121       -6.680049     -6.680049
  122       -6.648547     -6.648547
  123       -6.645180     -6.645180
  124       -6.621244     -6.621244
  125       -6.617790     -6.617790
  126       -6.599926     -6.599926
  127       -6.577345     -6.577345
  128       -6.575703     -6.575703
  129       -6.567303     -6.567303
  130       -6.549346     -6.549346
  131       -6.532883     -6.532883
  132       -6.521170     -6.521170
  133       -6.519814     -6.519814
  134       -6.497533     -6.497533
  135       -6.467942     -6.467942
  136       -6.444490     -6.444490
  137       -6.442419     -6.442419
  138       -6.432096     -6.432096
  139       -6.418915     -6.418915
  140       -6.382051     -6.382051
  141       -6.376029     -6.376029
  142       -6.313911     -6.313911
  143       -6.309786     -6.309786
  144       -6.258527     -6.258527
  145       -5.903231     -5.903231
  146       -5.659939     -5.659939
  147       -5.601346     -5.601346
  148       -4.820243     -4.820243
  149       -4.635875     -4.635875
  150       -4.453419     -4.453419
  151       -4.274097     -4.274097
  152       -4.180945     -4.180945
  153       -4.106721     -4.106721
  154       -3.810924     -3.810924
  155       -3.466486     -3.466486
  156       -3.008278     -3.008278
  157       -2.864540     -2.864540
  158       -2.792709     -2.792709
  159       -2.666803     -2.666803
  160       -2.586878     -2.586878
  161       -2.509597     -2.509597
  162       -2.192636     -2.192636
  163       -2.134467     -2.134467
  164       -2.092576     -2.092576
  165       -2.078001     -2.078000
  166       -1.698112     -1.698112
  167       -1.468701     -1.468701
  168       -1.340133     -1.340133
  169       -1.124080     -1.124080
  170       -0.996169     -0.996169
  171       -0.986882     -0.986881
  172       -0.816131     -0.816131
  173       -0.729575     -0.729575
  174       -0.519728     -0.519728
  175       -0.389434     -0.389433
  176       -0.231357     -0.231357
  177       -0.182304     -0.182304
  178       -0.134992     -0.134991
  179        0.033730      0.033730
  180        0.074940      0.074942
  181        0.150776      0.150776
  182        0.235852      0.235851
  183        0.259080      0.259080
  184        0.267298      0.267298
  185        0.424175      0.424177
  186        0.497837      0.497841
  187        0.554011      0.554012
  188        0.605252      0.605251
  189        0.656789      0.656789
  190        0.669366      0.669371
  191        0.715174      0.715174
  192        0.773187      0.773186
  193        0.780562      0.780562
  194        0.798884      0.798883
  195        0.826899      0.826899
  196        0.893550      0.893551
  197        0.916549      0.916550
  198        0.939620      0.939619
  199        0.946639      0.946637
  200        0.999761      0.999762
