<?xml version="1.0" encoding="ISO-8859-1"?>
<modeling>
 <generator>
  <i name="program" type="string">vasp </i>
  <i name="version" type="string">5.3.5  </i>
  <i name="subversion" type="string">31Mar14 (build Feb 01 2018 12:10:03) gamma-only                       parallel </i>
  <i name="platform" type="string">LinuxIFC </i>
  <i name="date" type="string">2019 03 23 </i>
  <i name="time" type="string">02:41:56 </i>
 </generator>
 <incar>
  <i type="string" name="PREC">normal</i>
  <i type="int" name="ISPIN">     2</i>
  <i type="int" name="IBRION">     2</i>
  <i type="int" name="NSW">  1000</i>
  <i type="int" name="ISIF">     2</i>
  <i name="POTIM">      0.10000000</i>
  <i type="logical" name="LPLANE"> T  </i>
  <i type="int" name="ISMEAR">     0</i>
  <i name="SIGMA">      0.00010000</i>
  <i type="logical" name="LWAVE"> F  </i>
  <i type="logical" name="LCHARG"> F  </i>
  <i type="logical" name="LVTOT"> F  </i>
  <i type="string" name="GGA"> PE</i>
 </incar>
 <kpoints>
  <varray name="kpointlist" >
   <v>       0.00000000       0.00000000       0.00000000 </v>
  </varray>
  <varray name="weights" >
   <v>       1.00000000 </v>
  </varray>
 </kpoints>
 <parameters>
  <separator name="general" >
   <i type="string" name="SYSTEM">unknown system</i>
   <i type="logical" name="LCOMPAT"> F  </i>
  </separator>
  <separator name="electronic" >
   <i type="string" name="PREC">normal</i>
   <i name="ENMAX">    249.84400000</i>
   <i name="ENAUG">    412.49600000</i>
   <i name="EDIFF">      0.00010000</i>
   <i type="int" name="IALGO">    38</i>
   <i type="int" name="IWAVPR">    11</i>
   <i type="int" name="NBANDS">   264</i>
   <i name="NELECT">    407.00000000</i>
   <i type="int" name="TURBO">     0</i>
   <i type="int" name="IRESTART">     0</i>
   <i type="int" name="NREBOOT">     0</i>
   <i type="int" name="NMIN">     0</i>
   <i name="EREF">      0.00000000</i>
   <separator name="electronic smearing" >
    <i type="int" name="ISMEAR">     0</i>
    <i name="SIGMA">      0.00010000</i>
    <i name="KSPACING">      0.50000000</i>
    <i type="logical" name="KGAMMA"> T  </i>
   </separator>
   <separator name="electronic projectors" >
    <i type="logical" name="LREAL"> F  </i>
    <v name="ROPT">      0.00000000</v>
    <i type="int" name="LMAXPAW">  -100</i>
    <i type="int" name="LMAXMIX">     2</i>
    <i type="logical" name="NLSPLINE"> F  </i>
   </separator>
   <separator name="electronic startup" >
    <i type="int" name="ISTART">     0</i>
    <i type="int" name="ICHARG">     2</i>
    <i type="int" name="INIWAV">     1</i>
   </separator>
   <separator name="electronic spin" >
    <i type="int" name="ISPIN">     2</i>
    <i type="logical" name="LNONCOLLINEAR"> F  </i>
    <v name="MAGMOM">      1.00000000      1.00000000      1.00000000      1.00000000      1.00000000      1.00000000      1.00000000      1.00000000      1.00000000      1.00000000      1.00000000      1.00000000      1.00000000      1.00000000      1.00000000      1.00000000      1.00000000      1.00000000      1.00000000      1.00000000
      1.00000000      1.00000000      1.00000000      1.00000000      1.00000000      1.00000000      1.00000000      1.00000000      1.00000000      1.00000000      1.00000000      1.00000000      1.00000000      1.00000000      1.00000000      1.00000000      1.00000000</v>
    <i name="NUPDOWN">     -1.00000000</i>
    <i type="logical" name="LSORBIT"> F  </i>
    <v name="SAXIS">      0.00000000      0.00000000      1.00000000</v>
    <i type="logical" name="LSPIRAL"> F  </i>
    <v name="QSPIRAL">      0.00000000      0.00000000      0.00000000</v>
    <i type="logical" name="LZEROZ"> F  </i>
   </separator>
   <separator name="electronic exchange-correlation" >
    <i type="logical" name="LASPH"> F  </i>
    <i type="logical" name="LMETAGGA"> F  </i>
   </separator>
   <separator name="electronic convergence" >
    <i type="int" name="NELM">    60</i>
    <i type="int" name="NELMDL">    -5</i>
    <i type="int" name="NELMIN">     2</i>
    <i name="ENINI">    249.84400000</i>
    <separator name="electronic convergence detail" >
     <i type="logical" name="LDIAG"> T  </i>
     <i type="logical" name="LSUBROT"> F  </i>
     <i name="WEIMIN">      0.00100000</i>
     <i name="EBREAK">      0.00000009</i>
     <i name="DEPER">      0.30000000</i>
     <i type="int" name="NRMM">     4</i>
     <i name="TIME">      0.40000000</i>
    </separator>
   </separator>
   <separator name="electronic mixer" >
    <i name="AMIX">      0.40000000</i>
    <i name="BMIX">      1.00000000</i>
    <i name="AMIN">      0.10000000</i>
    <i name="AMIX_MAG">      1.60000000</i>
    <i name="BMIX_MAG">      1.00000000</i>
    <separator name="electronic mixer details" >
     <i type="int" name="IMIX">     4</i>
     <i type="int" name="MAXMIX">   -45</i>
     <i name="WC">    100.00000000</i>
     <i type="int" name="INIMIX">     1</i>
     <i type="int" name="MIXPRE">     1</i>
     <i type="int" name="MREMOVE">     5</i>
    </separator>
   </separator>
   <separator name="electronic dipolcorrection" >
    <i type="logical" name="LDIPOL"> F  </i>
    <i type="logical" name="LMONO"> F  </i>
    <i type="int" name="IDIPOL">     0</i>
    <i name="EPSILON">      1.00000000</i>
    <v name="DIPOL">   -100.00000000   -100.00000000   -100.00000000</v>
    <i name="EFIELD">      0.00000000</i>
   </separator>
  </separator>
  <separator name="grids" >
   <i type="int" name="NGX">    90</i>
   <i type="int" name="NGY">    90</i>
   <i type="int" name="NGZ">    90</i>
   <i type="int" name="NGXF">   180</i>
   <i type="int" name="NGYF">   180</i>
   <i type="int" name="NGZF">   180</i>
   <i type="logical" name="ADDGRID"> F  </i>
  </separator>
  <separator name="ionic" >
   <i type="int" name="NSW">  1000</i>
   <i type="int" name="IBRION">     2</i>
   <i type="int" name="ISIF">     2</i>
   <i name="PSTRESS">      0.00000000</i>
   <i name="EDIFFG">      0.00100000</i>
   <i type="int" name="NFREE">     1</i>
   <i name="POTIM">      0.10000000</i>
   <i name="SMASS">     -3.00000000</i>
   <i name="SCALEE">      1.00000000</i>
  </separator>
  <separator name="ionic md" >
   <i name="TEBEG">      0.00010000</i>
   <i name="TEEND">      0.00010000</i>
   <i type="int" name="NBLOCK">     1</i>
   <i type="int" name="KBLOCK">  1000</i>
   <i type="int" name="NPACO">   256</i>
   <i name="APACO">     16.00000000</i>
  </separator>
  <separator name="symmetry" >
   <i type="int" name="ISYM">     2</i>
   <i name="SYMPREC">      0.00001000</i>
  </separator>
  <separator name="dos" >
   <i type="logical" name="LORBIT"> F  </i>
   <v name="RWIGS">     -1.00000000</v>
   <i type="int" name="NEDOS">   301</i>
   <i name="EMIN">     10.00000000</i>
   <i name="EMAX">    -10.00000000</i>
   <i name="EFERMI">      0.00000000</i>
  </separator>
  <separator name="writing" >
   <i type="int" name="NWRITE">     2</i>
   <i type="logical" name="LWAVE"> F  </i>
   <i type="logical" name="LCHARG"> F  </i>
   <i type="logical" name="LPARD"> F  </i>
   <i type="logical" name="LVTOT"> F  </i>
   <i type="logical" name="LVHAR"> F  </i>
   <i type="logical" name="LELF"> F  </i>
   <i type="logical" name="LOPTICS"> F  </i>
   <v name="STM">      0.00000000      0.00000000      0.00000000      0.00000000      0.00000000      0.00000000      0.00000000</v>
  </separator>
  <separator name="performance" >
   <i type="int" name="NPAR">     4</i>
   <i type="int" name="NSIM">     4</i>
   <i type="int" name="NBLK">    -1</i>
   <i type="logical" name="LPLANE"> T  </i>
   <i type="logical" name="LSCALAPACK"> T  </i>
   <i type="logical" name="LSCAAWARE"> F  </i>
   <i type="logical" name="LSCALU"> F  </i>
   <i type="logical" name="LASYNC"> F  </i>
   <i type="logical" name="LORBITALREAL"> F  </i>
  </separator>
  <separator name="miscellaneous" >
   <i type="int" name="IDIOT">     3</i>
   <i type="logical" name="LMUSIC"> F  </i>
   <v name="POMASS">    107.86800000</v>
   <v name="DARWINR">      0.00000000</v>
   <v name="DARWINV">      1.00000000</v>
   <i type="logical" name="LCORR"> T  </i>
  </separator>
  <i type="logical" name="GGA_COMPAT"> T  </i>
  <i type="logical" name="LBERRY"> F  </i>
  <i type="int" name="ICORELEVEL">     0</i>
  <i type="logical" name="LDAU"> F  </i>
  <i type="int" name="I_CONSTRAINED_M">     0</i>
  <separator name="electronic exchange-correlation" >
   <i type="string" name="GGA">PE</i>
   <i type="int" name="VOSKOWN">     0</i>
   <i type="logical" name="LHFCALC"> F  </i>
   <i type="string" name="PRECFOCK"></i>
   <i type="logical" name="LSYMGRAD"> F  </i>
   <i type="logical" name="LHFONE"> F  </i>
   <i type="logical" name="LRHFCALC"> F  </i>
   <i type="logical" name="LTHOMAS"> F  </i>
   <i type="logical" name="LMODELHF"> F  </i>
   <i name="ENCUT4O">     -1.00000000</i>
   <i type="int" name="EXXOEP">     0</i>
   <i type="int" name="FOURORBIT">     0</i>
   <i name="AEXX">      0.00000000</i>
   <i name="HFALPHA">      0.00000000</i>
   <i name="MCALPHA">      0.00000000</i>
   <i name="ALDAX">      1.00000000</i>
   <i name="AGGAX">      1.00000000</i>
   <i name="ALDAC">      1.00000000</i>
   <i name="AGGAC">      1.00000000</i>
   <i type="int" name="NKREDX">     1</i>
   <i type="int" name="NKREDY">     1</i>
   <i type="int" name="NKREDZ">     1</i>
   <i type="logical" name="SHIFTRED"> F  </i>
   <i type="logical" name="ODDONLY"> F  </i>
   <i type="logical" name="EVENONLY"> F  </i>
   <i type="int" name="LMAXFOCK">     0</i>
   <i type="int" name="NMAXFOCKAE">     0</i>
   <i type="logical" name="LFOCKAEDFT"> F  </i>
   <i name="HFSCREEN">      0.00000000</i>
   <i name="HFSCREENC">      0.00000000</i>
   <i type="int" name="NBANDSGWLOW">     0</i>
  </separator>
  <separator name="vdW DFT" >
   <i type="logical" name="LUSE_VDW"> F  </i>
   <i name="Zab_VDW">     -0.84910000</i>
   <i name="PARAM1">      0.12340000</i>
   <i name="PARAM2">      1.00000000</i>
   <i name="PARAM3">      0.00000000</i>
  </separator>
  <separator name="model GW" >
   <i type="int" name="MODEL_GW">     0</i>
   <i name="MODEL_EPS0">    188.96381306</i>
   <i name="MODEL_ALPHA">      1.00000000</i>
  </separator>
  <separator name="linear response parameters" >
   <i type="logical" name="LEPSILON"> F  </i>
   <i type="logical" name="LRPA"> F  </i>
   <i type="logical" name="LNABLA"> F  </i>
   <i type="logical" name="LVEL"> F  </i>
   <i type="int" name="KINTER">     0</i>
   <i name="CSHIFT">      0.10000000</i>
   <i name="OMEGAMAX">     -1.00000000</i>
   <i name="DEG_THRESHOLD">      0.00200000</i>
  </separator>
  <separator name="orbital magnetization" >
   <i type="logical" name="NUCIND"> F  </i>
   <v name="MAGPOS">      0.00000000      0.00000000      0.00000000</v>
   <i type="logical" name="LNICSALL"> T  </i>
   <i type="logical" name="ORBITALMAG"> F  </i>
   <i type="logical" name="LMAGBLOCH"> F  </i>
   <i type="logical" name="LCHIMAG"> F  </i>
   <i type="logical" name="LGAUGE"> T  </i>
   <i type="int" name="MAGATOM">     0</i>
   <v name="MAGDIPOL">      0.00000000      0.00000000      0.00000000</v>
   <v name="AVECCONST">      0.00000000      0.00000000      0.00000000</v>
  </separator>
  <separator name="response functions" >
   <i type="logical" name="LADDER"> F  </i>
   <i type="logical" name="LFXC"> F  </i>
   <i type="logical" name="LHARTREE"> T  </i>
   <i type="int" name="IBSE">     0</i>
   <i type="logical" name="LTCTE"> F  </i>
   <i type="logical" name="LTETE"> F  </i>
   <i type="logical" name="LTRIPLET"> F  </i>
   <i type="logical" name="LFXCEPS"> F  </i>
   <i type="logical" name="LFXHEG"> F  </i>
   <i type="logical" name="L2ORDER"> F  </i>
   <i type="logical" name="LUSEW"> F  </i>
   <i name="ENCUTGW">     -2.00000000</i>
   <i name="ENCUTGWSOFT">     -2.00000000</i>
   <i name="ENCUTLF">     -1.00000000</i>
   <i type="int" name="LMAXMP2">    -1</i>
   <i name="SCISSOR">      0.00000000</i>
   <i type="int" name="NOMEGA">     0</i>
   <i type="int" name="NOMEGAR">     0</i>
   <i type="int" name="NBANDSGW">    -1</i>
   <i type="int" name="NBANDSO">    -1</i>
   <i type="int" name="NBANDSV">    -1</i>
   <i type="int" name="NELM">     1</i>
   <i type="int" name="DIM">     3</i>
   <i type="int" name="ANTIRES">     0</i>
   <i name="OMEGAMAX">    -30.00000000</i>
   <i name="OMEGAMIN">    -30.00000000</i>
   <i name="OMEGATL">   -200.00000000</i>
   <i type="int" name="OMEGAGRID">     0</i>
   <i name="CSHIFT">     -0.10000000</i>
   <i type="logical" name="SELFENERGY"> F  </i>
   <i type="logical" name="LSPECTRAL"> F  </i>
   <i type="logical" name="ODDONLYGW"> F  </i>
   <i type="logical" name="EVENONLYGW"> F  </i>
   <i type="int" name="NKREDLFX">     1</i>
   <i type="int" name="NKREDLFY">     1</i>
   <i type="int" name="NKREDLFZ">     1</i>
   <i type="int" name="MAXMEM">  1800</i>
   <i type="int" name="TELESCOPE">     0</i>
   <i type="int" name="TAUPAR">     1</i>
  </separator>
  <separator name="External order field" >
   <i name="OFIELD_KAPPA">      0.00000000</i>
   <v name="OFIELD_K">      0.00000000      0.00000000      0.00000000</v>
   <i name="OFIELD_Q6_NEAR">      0.00000000</i>
   <i name="OFIELD_Q6_FAR">      0.00000000</i>
   <i name="OFIELD_A">      0.00000000</i>
  </separator>
 </parameters>
 <atominfo>
  <atoms>      37 </atoms>
  <types>       1 </types>
  <array name="atoms" >
   <dimension dim="1">ion</dimension>
   <field type="string">element</field>
   <field type="int">atomtype</field>
   <set>
    <rc><c>Ag</c><c>   1</c></rc>
    <rc><c>Ag</c><c>   1</c></rc>
    <rc><c>Ag</c><c>   1</c></rc>
    <rc><c>Ag</c><c>   1</c></rc>
    <rc><c>Ag</c><c>   1</c></rc>
    <rc><c>Ag</c><c>   1</c></rc>
    <rc><c>Ag</c><c>   1</c></rc>
    <rc><c>Ag</c><c>   1</c></rc>
    <rc><c>Ag</c><c>   1</c></rc>
    <rc><c>Ag</c><c>   1</c></rc>
    <rc><c>Ag</c><c>   1</c></rc>
    <rc><c>Ag</c><c>   1</c></rc>
    <rc><c>Ag</c><c>   1</c></rc>
    <rc><c>Ag</c><c>   1</c></rc>
    <rc><c>Ag</c><c>   1</c></rc>
    <rc><c>Ag</c><c>   1</c></rc>
    <rc><c>Ag</c><c>   1</c></rc>
    <rc><c>Ag</c><c>   1</c></rc>
    <rc><c>Ag</c><c>   1</c></rc>
    <rc><c>Ag</c><c>   1</c></rc>
    <rc><c>Ag</c><c>   1</c></rc>
    <rc><c>Ag</c><c>   1</c></rc>
    <rc><c>Ag</c><c>   1</c></rc>
    <rc><c>Ag</c><c>   1</c></rc>
    <rc><c>Ag</c><c>   1</c></rc>
    <rc><c>Ag</c><c>   1</c></rc>
    <rc><c>Ag</c><c>   1</c></rc>
    <rc><c>Ag</c><c>   1</c></rc>
    <rc><c>Ag</c><c>   1</c></rc>
    <rc><c>Ag</c><c>   1</c></rc>
    <rc><c>Ag</c><c>   1</c></rc>
    <rc><c>Ag</c><c>   1</c></rc>
    <rc><c>Ag</c><c>   1</c></rc>
    <rc><c>Ag</c><c>   1</c></rc>
    <rc><c>Ag</c><c>   1</c></rc>
    <rc><c>Ag</c><c>   1</c></rc>
    <rc><c>Ag</c><c>   1</c></rc>
   </set>
  </array>
  <array name="atomtypes" >
   <dimension dim="1">type</dimension>
   <field type="int">atomspertype</field>
   <field type="string">element</field>
   <field>mass</field>
   <field>valence</field>
   <field type="string">pseudopotential</field>
   <set>
    <rc><c>  37</c><c>Ag</c><c>    107.86800000</c><c>     11.00000000</c><c>  PAW_PBE Ag 02Apr2005                  </c></rc>
   </set>
  </array>
 </atominfo>
 <structure name="initialpos" >
  <crystal>
   <varray name="basis" >
    <v>      22.67129732       0.00000000       0.00000000 </v>
    <v>       0.00000000      22.67129732       0.00000000 </v>
    <v>       0.00000000       0.00000000      22.67129732 </v>
   </varray>
   <i name="volume">  11652.76847221 </i>
   <varray name="rec_basis" >
    <v>       0.04410864       0.00000000       0.00000000 </v>
    <v>       0.00000000       0.04410864       0.00000000 </v>
    <v>       0.00000000       0.00000000       0.04410864 </v>
   </varray>
  </crystal>
  <varray name="positions" >
   <v>       0.66834441       0.53527357       0.38786420 </v>
   <v>       0.57865203       0.60281484       0.44366720 </v>
   <v>       0.68300996       0.58807930       0.50429220 </v>
   <v>       0.59240110       0.66259407       0.55291620 </v>
   <v>       0.68401511       0.61888067       0.62735783 </v>
   <v>       0.71110751       0.50097025       0.59889902 </v>
   <v>       0.48849059       0.67574787       0.48522640 </v>
   <v>       0.57011808       0.60859325       0.67050815 </v>
   <v>       0.48242876       0.61462134       0.59011013 </v>
   <v>       0.66492688       0.46508024       0.49116343 </v>
   <v>       0.64364052       0.41102465       0.38066364 </v>
   <v>       0.56705148       0.55121395       0.32229068 </v>
   <v>       0.47479569       0.61372042       0.37431761 </v>
   <v>       0.38120445       0.67270136       0.43035569 </v>
   <v>       0.55624531       0.48420050       0.42740194 </v>
   <v>       0.62119535       0.49624821       0.68683979 </v>
   <v>       0.58630346       0.53874993       0.56288220 </v>
   <v>       0.46993629       0.55225614       0.48084123 </v>
   <v>       0.37277789       0.61883796       0.54161948 </v>
   <v>       0.61401232       0.41994629       0.59007445 </v>
   <v>       0.36635548       0.55279827       0.40688671 </v>
   <v>       0.50158898       0.50603881       0.65105753 </v>
   <v>       0.45231036       0.49019816       0.35544726 </v>
   <v>       0.54643840       0.43129903       0.30906952 </v>
   <v>       0.58913776       0.36514312       0.47945777 </v>
   <v>       0.39963033       0.58351663       0.67341139 </v>
   <v>       0.50693674       0.44546018       0.53304953 </v>
   <v>       0.27325206       0.61688168       0.45544954 </v>
   <v>       0.40813548       0.50680249       0.57647230 </v>
   <v>       0.40155221       0.44821994       0.46092206 </v>
   <v>       0.54339470       0.39543496       0.68826677 </v>
   <v>       0.48975933       0.37932246       0.40655963 </v>
   <v>       0.30397643       0.51151832       0.51236615 </v>
   <v>       0.53088673       0.32869468       0.58102960 </v>
   <v>       0.43758342       0.40121477       0.62942128 </v>
   <v>       0.43435725       0.33657904       0.50712744 </v>
   <v>       0.33868969       0.40544425       0.55962800 </v>
  </varray>
 </structure>
 <calculation>
  <scstep>
   <time name="dav">    3.76    3.76</time>
   <time name="total">    4.00    4.03</time>
   <energy>
    <i name="alphaZ">     99.92830281 </i>
    <i name="ewald">  96825.29716894 </i>
    <i name="hartreedc">-133663.07283689 </i>
    <i name="XCdc">   -403.78092612 </i>
    <i name="pawpsdc">  37124.77058858 </i>
    <i name="pawaedc"> -35418.79052852 </i>
    <i name="eentropy">     -0.00000000 </i>
    <i name="bandstr">    559.63715551 </i>
    <i name="atom">  38376.34931319 </i>
    <i name="e_fr_energy">   3500.33823751 </i>
    <i name="e_wo_entrp">   3500.33823751 </i>
    <i name="e_0_energy">   3500.33823751 </i>
   </energy>
  </scstep>
  <scstep>
   <time name="dav">    5.59    5.60</time>
   <time name="total">    5.60    5.61</time>
   <energy>
    <i name="e_fr_energy">    668.48347188 </i>
    <i name="e_wo_entrp">    668.48347188 </i>
    <i name="e_0_energy">    668.48347188 </i>
   </energy>
  </scstep>
  <scstep>
   <time name="dav">    4.43    4.43</time>
   <time name="total">    4.43    4.44</time>
   <energy>
    <i name="e_fr_energy">    -46.80716059 </i>
    <i name="e_wo_entrp">    -46.80716059 </i>
    <i name="e_0_energy">    -46.80716059 </i>
   </energy>
  </scstep>
  <scstep>
   <time name="dav">    3.92    3.92</time>
   <time name="total">    3.92    4.50</time>
   <energy>
    <i name="e_fr_energy">    -79.28861791 </i>
    <i name="e_wo_entrp">    -79.28861791 </i>
    <i name="e_0_energy">    -79.28861791 </i>
   </energy>
  </scstep>
  <scstep>
   <time name="dav">    3.98    3.99</time>
   <time name="total">    4.10    4.15</time>
   <energy>
    <i name="e_fr_energy">    -79.76359954 </i>
    <i name="e_wo_entrp">    -79.76359954 </i>
    <i name="e_0_energy">    -79.76359954 </i>
   </energy>
  </scstep>
  <scstep>
   <time name="dav">    3.71    3.71</time>
   <time name="total">    4.06    4.06</time>
   <energy>
    <i name="e_fr_energy">    -31.32400549 </i>
    <i name="e_wo_entrp">    -31.32400549 </i>
    <i name="e_0_energy">    -31.32400549 </i>
   </energy>
  </scstep>
  <scstep>
   <time name="dav">    3.85    3.85</time>
   <time name="total">    4.21    4.22</time>
   <energy>
    <i name="e_fr_energy">    -24.07917068 </i>
    <i name="e_wo_entrp">    -24.07917068 </i>
    <i name="e_0_energy">    -24.07917068 </i>
   </energy>
  </scstep>
  <scstep>
   <time name="dav">    3.87    3.88</time>
   <time name="total">    4.21    4.21</time>
   <energy>
    <i name="e_fr_energy">    -18.29336822 </i>
    <i name="e_wo_entrp">    -18.29336822 </i>
    <i name="e_0_energy">    -18.29336822 </i>
   </energy>
  </scstep>
  <scstep>
   <time name="dav">    3.90    3.90</time>
   <time name="total">    4.24    4.27</time>
   <energy>
    <i name="e_fr_energy">    -23.96063287 </i>
    <i name="e_wo_entrp">    -23.96063287 </i>
    <i name="e_0_energy">    -23.96063287 </i>
   </energy>
  </scstep>
  <scstep>
   <time name="dav">    3.86    3.86</time>
   <time name="total">    4.20    4.22</time>
   <energy>
    <i name="e_fr_energy">    -37.93083566 </i>
    <i name="e_wo_entrp">    -37.93083566 </i>
    <i name="e_0_energy">    -37.93083566 </i>
   </energy>
  </scstep>
  <scstep>
   <time name="dav">    3.78    3.78</time>
   <time name="total">    4.12    4.13</time>
   <energy>
    <i name="e_fr_energy">    -54.22822045 </i>
    <i name="e_wo_entrp">    -54.22822045 </i>
    <i name="e_0_energy">    -54.22822045 </i>
   </energy>
  </scstep>
  <scstep>
   <time name="dav">    3.99    3.99</time>
   <time name="total">    4.34    4.36</time>
   <energy>
    <i name="e_fr_energy">    -57.25375567 </i>
    <i name="e_wo_entrp">    -57.25375567 </i>
    <i name="e_0_energy">    -57.25375567 </i>
   </energy>
  </scstep>
  <scstep>
   <time name="dav">    3.77    3.77</time>
   <time name="total">    4.11    4.40</time>
   <energy>
    <i name="e_fr_energy">    -64.81918118 </i>
    <i name="e_wo_entrp">    -64.81918118 </i>
    <i name="e_0_energy">    -64.81918118 </i>
   </energy>
  </scstep>
  <scstep>
   <time name="dav">    3.88    3.88</time>
   <time name="total">    4.23    4.23</time>
   <energy>
    <i name="e_fr_energy">    -67.72645090 </i>
    <i name="e_wo_entrp">    -67.72645090 </i>
    <i name="e_0_energy">    -67.72645090 </i>
   </energy>
  </scstep>
  <scstep>
   <time name="dav">    3.79    3.79</time>
   <time name="total">    4.12    4.15</time>
   <energy>
    <i name="e_fr_energy">    -72.26365284 </i>
    <i name="e_wo_entrp">    -72.26365284 </i>
    <i name="e_0_energy">    -72.26365284 </i>
   </energy>
  </scstep>
  <scstep>
   <time name="dav">    3.76    3.76</time>
   <time name="total">    4.13    4.16</time>
   <energy>
    <i name="e_fr_energy">    -74.75982804 </i>
    <i name="e_wo_entrp">    -74.75982804 </i>
    <i name="e_0_energy">    -74.75982804 </i>
   </energy>
  </scstep>
  <scstep>
   <time name="dav">    3.76    3.76</time>
   <time name="total">    4.11    4.23</time>
   <energy>
    <i name="e_fr_energy">    -76.27452996 </i>
    <i name="e_wo_entrp">    -76.27452996 </i>
    <i name="e_0_energy">    -76.27452996 </i>
   </energy>
  </scstep>
  <scstep>
   <time name="dav">    3.85    3.86</time>
   <time name="total">    4.20    5.27</time>
   <energy>
    <i name="e_fr_energy">    -77.81366191 </i>
    <i name="e_wo_entrp">    -77.81366191 </i>
    <i name="e_0_energy">    -77.81366191 </i>
   </energy>
  </scstep>
  <scstep>
   <time name="dav">    3.90    3.91</time>
   <time name="total">    4.25    4.26</time>
   <energy>
    <i name="e_fr_energy">    -78.24135283 </i>
    <i name="e_wo_entrp">    -78.24135283 </i>
    <i name="e_0_energy">    -78.24135283 </i>
   </energy>
  </scstep>
  <scstep>
   <time name="dav">    3.91    3.92</time>
   <time name="total">    4.26    4.27</time>
   <energy>
    <i name="e_fr_energy">    -78.42855636 </i>
    <i name="e_wo_entrp">    -78.42855636 </i>
    <i name="e_0_energy">    -78.42855636 </i>
   </energy>
  </scstep>
  <scstep>
   <time name="dav">    3.76    3.76</time>
   <time name="total">    4.09    4.10</time>
   <energy>
    <i name="e_fr_energy">    -78.53810981 </i>
    <i name="e_wo_entrp">    -78.53810981 </i>
    <i name="e_0_energy">    -78.53810981 </i>
   </energy>
  </scstep>
  <scstep>
   <time name="dav">    3.00    3.01</time>
   <time name="total">    3.39    3.40</time>
   <energy>
    <i name="e_fr_energy">    -78.54949786 </i>
    <i name="e_wo_entrp">    -78.54949786 </i>
    <i name="e_0_energy">    -78.54949786 </i>
   </energy>
  </scstep>
  <scstep>
   <time name="dav">    2.87    2.88</time>
   <time name="total">    3.21    3.22</time>
   <energy>
    <i name="e_fr_energy">    -78.56335671 </i>
    <i name="e_wo_entrp">    -78.56335671 </i>
    <i name="e_0_energy">    -78.56335671 </i>
   </energy>
  </scstep>
  <scstep>
   <time name="dav">    2.94    2.95</time>
   <time name="total">    3.34    3.71</time>
   <energy>
    <i name="e_fr_energy">    -78.56847322 </i>
    <i name="e_wo_entrp">    -78.56847322 </i>
    <i name="e_0_energy">    -78.56847322 </i>
   </energy>
  </scstep>
  <scstep>
   <time name="dav">    2.94    2.94</time>
   <time name="total">    3.29    3.39</time>
   <energy>
    <i name="e_fr_energy">    -78.57275388 </i>
    <i name="e_wo_entrp">    -78.57275388 </i>
    <i name="e_0_energy">    -78.57275388 </i>
   </energy>
  </scstep>
  <scstep>
   <time name="dav">    2.89    2.89</time>
   <time name="total">    3.24    3.25</time>
   <energy>
    <i name="e_fr_energy">    -78.57640494 </i>
    <i name="e_wo_entrp">    -78.57640494 </i>
    <i name="e_0_energy">    -78.57640494 </i>
   </energy>
  </scstep>
  <scstep>
   <time name="dav">    2.80    2.80</time>
   <time name="total">    3.15    3.23</time>
   <energy>
    <i name="e_fr_energy">    -78.57758903 </i>
    <i name="e_wo_entrp">    -78.57758903 </i>
    <i name="e_0_energy">    -78.57758903 </i>
   </energy>
  </scstep>
  <scstep>
   <time name="dav">    2.78    2.78</time>
   <time name="total">    3.12    3.69</time>
   <energy>
    <i name="e_fr_energy">    -78.57780033 </i>
    <i name="e_wo_entrp">    -78.57780033 </i>
    <i name="e_0_energy">    -78.57780033 </i>
   </energy>
  </scstep>
  <scstep>
   <time name="dav">    2.71    2.71</time>
   <time name="total">    2.96    2.96</time>
   <energy>
    <i name="alphaZ">     99.92830281 </i>
    <i name="ewald">  96825.29716894 </i>
    <i name="hartreedc">-133612.79779959 </i>
    <i name="XCdc">   -418.31204086 </i>
    <i name="pawpsdc">  40151.73805068 </i>
    <i name="pawaedc"> -38515.09847474 </i>
    <i name="eentropy">      0.00000000 </i>
    <i name="bandstr">  -2985.68236472 </i>
    <i name="atom">  38376.34931319 </i>
    <i name="e_fr_energy">    -78.57784428 </i>
    <i name="e_wo_entrp">    -78.57784428 </i>
    <i name="e_0_energy">    -78.57784428 </i>
   </energy>
  </scstep>
  <structure>
   <crystal>
    <varray name="basis" >
     <v>      22.67129732       0.00000000       0.00000000 </v>
     <v>       0.00000000      22.67129732       0.00000000 </v>
     <v>       0.00000000       0.00000000      22.67129732 </v>
    </varray>
    <i name="volume">  11652.76847221 </i>
    <varray name="rec_basis" >
     <v>       0.04410864       0.00000000       0.00000000 </v>
     <v>       0.00000000       0.04410864       0.00000000 </v>
     <v>       0.00000000       0.00000000       0.04410864 </v>
    </varray>
   </crystal>
   <varray name="positions" >
    <v>       0.66834441       0.53527357       0.38786420 </v>
    <v>       0.57865203       0.60281484       0.44366720 </v>
    <v>       0.68300996       0.58807930       0.50429220 </v>
    <v>       0.59240110       0.66259407       0.55291620 </v>
    <v>       0.68401511       0.61888067       0.62735783 </v>
    <v>       0.71110751       0.50097025       0.59889902 </v>
    <v>       0.48849059       0.67574787       0.48522640 </v>
    <v>       0.57011808       0.60859325       0.67050815 </v>
    <v>       0.48242876       0.61462134       0.59011013 </v>
    <v>       0.66492688       0.46508024       0.49116343 </v>
    <v>       0.64364052       0.41102465       0.38066364 </v>
    <v>       0.56705148       0.55121395       0.32229068 </v>
    <v>       0.47479569       0.61372042       0.37431761 </v>
    <v>       0.38120445       0.67270136       0.43035569 </v>
    <v>       0.55624531       0.48420050       0.42740194 </v>
    <v>       0.62119535       0.49624821       0.68683979 </v>
    <v>       0.58630346       0.53874993       0.56288220 </v>
    <v>       0.46993629       0.55225614       0.48084123 </v>
    <v>       0.37277789       0.61883796       0.54161948 </v>
    <v>       0.61401232       0.41994629       0.59007445 </v>
    <v>       0.36635548       0.55279827       0.40688671 </v>
    <v>       0.50158898       0.50603881       0.65105753 </v>
    <v>       0.45231036       0.49019816       0.35544726 </v>
    <v>       0.54643840       0.43129903       0.30906952 </v>
    <v>       0.58913776       0.36514312       0.47945777 </v>
    <v>       0.39963033       0.58351663       0.67341139 </v>
    <v>       0.50693674       0.44546018       0.53304953 </v>
    <v>       0.27325206       0.61688168       0.45544954 </v>
    <v>       0.40813548       0.50680249       0.57647230 </v>
    <v>       0.40155221       0.44821994       0.46092206 </v>
    <v>       0.54339470       0.39543496       0.68826677 </v>
    <v>       0.48975933       0.37932246       0.40655963 </v>
    <v>       0.30397643       0.51151832       0.51236615 </v>
    <v>       0.53088673       0.32869468       0.58102960 </v>
    <v>       0.43758342       0.40121477       0.62942128 </v>
    <v>       0.43435725       0.33657904       0.50712744 </v>
    <v>       0.33868969       0.40544425       0.55962800 </v>
   </varray>
  </structure>
  <varray name="forces" >
   <v>       0.13101390      -0.09695605       0.16219926 </v>
   <v>       0.23393074       0.32922054      -0.32268318 </v>
   <v>       0.36995657       0.05761212       0.03123113 </v>
   <v>       0.02070567       0.02414358       0.13812268 </v>
   <v>      -0.06656691      -0.22764080      -0.06127658 </v>
   <v>      -0.32501760       0.21094104      -0.05974868 </v>
   <v>       0.00813107       0.14921871       0.03293168 </v>
   <v>       0.14588771       0.06120848       0.10083057 </v>
   <v>      -0.00901826       0.02843176       0.11624574 </v>
   <v>       0.13516485      -0.01340147      -0.33792930 </v>
   <v>       0.11008108       0.09478579      -0.05382611 </v>
   <v>      -0.13788175       0.00970291       0.02551595 </v>
   <v>      -0.07116682       0.09922051      -0.16497420 </v>
   <v>      -0.20149858      -0.07319910      -0.09545177 </v>
   <v>       0.28882701      -0.31993077      -0.33351653 </v>
   <v>       0.00254819       0.16145981      -0.00312627 </v>
   <v>       0.05996337       0.09221017       0.02275828 </v>
   <v>      -0.06239974       0.12538845      -0.02888526 </v>
   <v>      -0.35487096      -0.00925024      -0.22838026 </v>
   <v>       0.21096293      -0.27479116       0.32459349 </v>
   <v>      -0.33585498       0.23635952       0.20486401 </v>
   <v>       0.08214583       0.03091451       0.51495764 </v>
   <v>       0.18632297       0.02776846      -0.12365160 </v>
   <v>       0.02157297      -0.05868742      -0.11550255 </v>
   <v>      -0.09842170      -0.07290169      -0.00351219 </v>
   <v>       0.12296997      -0.16313063      -0.23039432 </v>
   <v>      -0.01178965      -0.42496999      -0.07061131 </v>
   <v>       0.20361317       0.09999378       0.19625706 </v>
   <v>      -0.56258715       0.15627794       0.26708529 </v>
   <v>      -0.22929416      -0.19585486      -0.05352914 </v>
   <v>       0.14193284       0.03809531       0.04669432 </v>
   <v>       0.06322416      -0.04943756      -0.06462149 </v>
   <v>       0.00001675       0.28714270      -0.17388111 </v>
   <v>       0.01697710       0.02454307       0.23431548 </v>
   <v>      -0.03645285      -0.39673489       0.04122300 </v>
   <v>      -0.07676041       0.29084738       0.16115477 </v>
   <v>       0.02363266      -0.25859990      -0.09547849 </v>
  </varray>
  <varray name="stress" >
   <v>      -1.09653052      -0.10329298      -0.02674254 </v>
   <v>      -0.10329299      -1.39918677      -0.25094198 </v>
   <v>      -0.02674253      -0.25094198      -1.19379445 </v>
  </varray>
  <energy>
   <i name="e_fr_energy">    -78.57784428 </i>
   <i name="e_wo_entrp">    -78.57784428 </i>
   <i name="e_0_energy">      0.00000000 </i>
  </energy>
  <time name="totalsc">  121.15  124.69</time>
 </calculation>
 <calculation>
  <scstep>
   <time name="dav">    3.80    3.80</time>
   <time name="total">    4.17    4.19</time>
   <energy>
    <i name="alphaZ">     99.92830281 </i>
    <i name="ewald">  96773.36554033 </i>
    <i name="hartreedc">-133561.06504810 </i>
    <i name="XCdc">   -418.34418059 </i>
    <i name="pawpsdc">  40151.74877347 </i>
    <i name="pawaedc"> -38515.10966857 </i>
    <i name="eentropy">      0.00000000 </i>
    <i name="bandstr">  -2985.48537938 </i>
    <i name="atom">  38376.34931319 </i>
    <i name="e_fr_energy">    -78.61234683 </i>
    <i name="e_wo_entrp">    -78.61234683 </i>
    <i name="e_0_energy">    -78.61234683 </i>
   </energy>
  </scstep>
  <scstep>
   <time name="dav">    3.87    3.87</time>
   <time name="total">    4.25    4.26</time>
   <energy>
    <i name="e_fr_energy">    -78.61349597 </i>
    <i name="e_wo_entrp">    -78.61349597 </i>
    <i name="e_0_energy">    -78.61349597 </i>
   </energy>
  </scstep>
  <scstep>
   <time name="dav">    2.79    2.80</time>
   <time name="total">    3.06    3.10</time>
   <energy>
    <i name="alphaZ">     99.92830281 </i>
    <i name="ewald">  96773.36554033 </i>
    <i name="hartreedc">-133561.25009469 </i>
    <i name="XCdc">   -418.34276670 </i>
    <i name="pawpsdc">  40149.08532733 </i>
    <i name="pawaedc"> -38512.40132003 </i>
    <i name="eentropy">     -0.00000000 </i>
    <i name="bandstr">  -2985.34779171 </i>
    <i name="atom">  38376.34931319 </i>
    <i name="e_fr_energy">    -78.61348947 </i>
    <i name="e_wo_entrp">    -78.61348947 </i>
    <i name="e_0_energy">    -78.61348947 </i>
   </energy>
  </scstep>
  <structure>
   <crystal>
    <varray name="basis" >
     <v>      22.67129732       0.00000000       0.00000000 </v>
     <v>       0.00000000      22.67129732       0.00000000 </v>
     <v>       0.00000000       0.00000000      22.67129732 </v>
    </varray>
    <i name="volume">  11652.76847221 </i>
    <varray name="rec_basis" >
     <v>       0.04410864       0.00000000       0.00000000 </v>
     <v>       0.00000000       0.04410864       0.00000000 </v>
     <v>       0.00000000       0.00000000       0.04410864 </v>
    </varray>
   </crystal>
   <varray name="positions" >
    <v>       0.66840017       0.53523231       0.38793323 </v>
    <v>       0.57875159       0.60295495       0.44352987 </v>
    <v>       0.68316741       0.58810382       0.50430549 </v>
    <v>       0.59240991       0.66260435       0.55297498 </v>
    <v>       0.68398678       0.61878379       0.62733175 </v>
    <v>       0.71096919       0.50106002       0.59887359 </v>
    <v>       0.48849405       0.67581138       0.48524042 </v>
    <v>       0.57018016       0.60861930       0.67055106 </v>
    <v>       0.48242493       0.61463344       0.59015960 </v>
    <v>       0.66498441       0.46507454       0.49101961 </v>
    <v>       0.64368737       0.41106499       0.38064073 </v>
    <v>       0.56699280       0.55121808       0.32230154 </v>
    <v>       0.47476541       0.61376265       0.37424740 </v>
    <v>       0.38111870       0.67267021       0.43031507 </v>
    <v>       0.55636823       0.48406434       0.42726000 </v>
    <v>       0.62119644       0.49631692       0.68683846 </v>
    <v>       0.58632897       0.53878918       0.56289189 </v>
    <v>       0.46990973       0.55230950       0.48082894 </v>
    <v>       0.37262686       0.61883402       0.54152228 </v>
    <v>       0.61410210       0.41982935       0.59021259 </v>
    <v>       0.36621255       0.55289886       0.40697389 </v>
    <v>       0.50162394       0.50605197       0.65127669 </v>
    <v>       0.45238966       0.49020998       0.35539463 </v>
    <v>       0.54644758       0.43127405       0.30902036 </v>
    <v>       0.58909587       0.36511209       0.47945627 </v>
    <v>       0.39968267       0.58344720       0.67331333 </v>
    <v>       0.50693172       0.44527932       0.53301948 </v>
    <v>       0.27333872       0.61692423       0.45553307 </v>
    <v>       0.40789606       0.50686900       0.57658596 </v>
    <v>       0.40145462       0.44813659       0.46089928 </v>
    <v>       0.54345511       0.39545117       0.68828665 </v>
    <v>       0.48978623       0.37930142       0.40653213 </v>
    <v>       0.30397644       0.51164052       0.51229214 </v>
    <v>       0.53089395       0.32870513       0.58112932 </v>
    <v>       0.43756791       0.40104592       0.62943883 </v>
    <v>       0.43432459       0.33670282       0.50719602 </v>
    <v>       0.33869975       0.40533419       0.55958737 </v>
   </varray>
  </structure>
  <varray name="forces" >
   <v>       0.12587347      -0.08530243       0.14782185 </v>
   <v>       0.22091936       0.30737490      -0.30547941 </v>
   <v>       0.34879181       0.05598765       0.02590144 </v>
   <v>       0.01835817       0.02029040       0.12662706 </v>
   <v>      -0.06159941      -0.21332717      -0.05573347 </v>
   <v>      -0.31204297       0.19460248      -0.06337909 </v>
   <v>       0.00558018       0.13666875       0.02999057 </v>
   <v>       0.13481994       0.06238696       0.09718748 </v>
   <v>      -0.01391554       0.02525075       0.10112726 </v>
   <v>       0.12379041      -0.01957842      -0.29697742 </v>
   <v>       0.11080240       0.08001359      -0.05948638 </v>
   <v>      -0.12695236       0.01018509       0.02592917 </v>
   <v>      -0.07183299       0.09611411      -0.15310065 </v>
   <v>      -0.18137879      -0.06032364      -0.09382485 </v>
   <v>       0.26167516      -0.28641875      -0.30238112 </v>
   <v>       0.00592390       0.15527209       0.00059656 </v>
   <v>       0.05101875       0.07423783       0.01622823 </v>
   <v>      -0.04879388       0.10073374      -0.02583703 </v>
   <v>      -0.32837558      -0.00653086      -0.21262095 </v>
   <v>       0.20830536      -0.25208360       0.28859571 </v>
   <v>      -0.29521686       0.20302865       0.18578497 </v>
   <v>       0.05844048       0.02409895       0.47590032 </v>
   <v>       0.15988408       0.03989484      -0.10090864 </v>
   <v>       0.02435728      -0.06017965      -0.11645114 </v>
   <v>      -0.08933882      -0.06889943      -0.00040613 </v>
   <v>       0.11299613      -0.15387809      -0.21016811 </v>
   <v>      -0.01760654      -0.38021939      -0.06431628 </v>
   <v>       0.17738884       0.10943081       0.19059929 </v>
   <v>      -0.50609094       0.12747434       0.25659398 </v>
   <v>      -0.21525395      -0.17105073      -0.05943323 </v>
   <v>       0.13301776       0.03682954       0.04997378 </v>
   <v>       0.05557402      -0.04737494      -0.06140322 </v>
   <v>      -0.00260575       0.25752560      -0.16145700 </v>
   <v>       0.01764479       0.01817824       0.22475213 </v>
   <v>      -0.03300633      -0.36456096       0.03765911 </v>
   <v>      -0.06885746       0.27435789       0.15675984 </v>
   <v>       0.01770589      -0.24020913      -0.09466465 </v>
  </varray>
  <varray name="stress" >
   <v>      -1.13536048      -0.10381322      -0.03226069 </v>
   <v>      -0.10381324      -1.42512474      -0.24488443 </v>
   <v>      -0.03226069      -0.24488444      -1.22475064 </v>
  </varray>
  <energy>
   <i name="e_fr_energy">    -78.61348947 </i>
   <i name="e_wo_entrp">    -78.61348947 </i>
   <i name="e_0_energy">     -0.00000000 </i>
  </energy>
  <time name="totalsc">   17.98   18.36</time>
 </calculation>
 <calculation>
  <scstep>
   <time name="dav">    3.81    3.82</time>
   <time name="total">    4.16    5.19</time>
   <energy>
    <i name="alphaZ">     99.92830281 </i>
    <i name="ewald">  96618.28606174 </i>
    <i name="hartreedc">-133406.85410954 </i>
    <i name="XCdc">   -418.43300735 </i>
    <i name="pawpsdc">  40146.52230785 </i>
    <i name="pawaedc"> -38509.81086108 </i>
    <i name="eentropy">      0.00000000 </i>
    <i name="bandstr">  -2984.68458338 </i>
    <i name="atom">  38376.34931319 </i>
    <i name="e_fr_energy">    -78.69657576 </i>
    <i name="e_wo_entrp">    -78.69657576 </i>
    <i name="e_0_energy">    -78.69657576 </i>
   </energy>
  </scstep>
  <scstep>
   <time name="dav">    3.96    3.97</time>
   <time name="total">    4.31    4.32</time>
   <energy>
    <i name="e_fr_energy">    -78.70659213 </i>
    <i name="e_wo_entrp">    -78.70659213 </i>
    <i name="e_0_energy">    -78.70659213 </i>
   </energy>
  </scstep>
  <scstep>
   <time name="dav">    3.93    3.93</time>
   <time name="total">    4.28    4.30</time>
   <energy>
    <i name="e_fr_energy">    -78.70633440 </i>
    <i name="e_wo_entrp">    -78.70633440 </i>
    <i name="e_0_energy">    -78.70633440 </i>
   </energy>
  </scstep>
  <scstep>
   <time name="dav">    4.02    4.03</time>
   <time name="total">    4.37    4.75</time>
   <energy>
    <i name="e_fr_energy">    -78.70616095 </i>
    <i name="e_wo_entrp">    -78.70616095 </i>
    <i name="e_0_energy">    -78.70616095 </i>
   </energy>
  </scstep>
  <scstep>
   <time name="dav">    2.78    2.79</time>
   <time name="total">    3.02    3.03</time>
   <energy>
    <i name="alphaZ">     99.92830281 </i>
    <i name="ewald">  96618.28606174 </i>
    <i name="hartreedc">-133407.29451323 </i>
    <i name="XCdc">   -418.42754513 </i>
    <i name="pawpsdc">  40131.12925979 </i>
    <i name="pawaedc"> -38494.20705047 </i>
    <i name="eentropy">     -0.00000000 </i>
    <i name="bandstr">  -2984.46998167 </i>
    <i name="atom">  38376.34931319 </i>
    <i name="e_fr_energy">    -78.70615296 </i>
    <i name="e_wo_entrp">    -78.70615296 </i>
    <i name="e_0_energy">    -78.70615296 </i>
   </energy>
  </scstep>
  <structure>
   <crystal>
    <varray name="basis" >
     <v>      22.67129732       0.00000000       0.00000000 </v>
     <v>       0.00000000      22.67129732       0.00000000 </v>
     <v>       0.00000000       0.00000000      22.67129732 </v>
    </varray>
    <i name="volume">  11652.76847221 </i>
    <varray name="rec_basis" >
     <v>       0.04410864       0.00000000       0.00000000 </v>
     <v>       0.00000000       0.04410864       0.00000000 </v>
     <v>       0.00000000       0.00000000       0.04410864 </v>
    </varray>
   </crystal>
   <varray name="positions" >
    <v>       0.66856744       0.53510852       0.38814032 </v>
    <v>       0.57905026       0.60337529       0.44311789 </v>
    <v>       0.68363975       0.58817737       0.50434536 </v>
    <v>       0.59243635       0.66263517       0.55315133 </v>
    <v>       0.68390179       0.61849315       0.62725351 </v>
    <v>       0.71055422       0.50132934       0.59879730 </v>
    <v>       0.48850444       0.67600189       0.48528246 </v>
    <v>       0.57036643       0.60869745       0.67067980 </v>
    <v>       0.48241341       0.61466975       0.59030802 </v>
    <v>       0.66515698       0.46505743       0.49058816 </v>
    <v>       0.64382791       0.41118601       0.38057201 </v>
    <v>       0.56681676       0.55123047       0.32233411 </v>
    <v>       0.47467454       0.61388933       0.37403677 </v>
    <v>       0.38086144       0.67257675       0.43019320 </v>
    <v>       0.55673699       0.48365587       0.42683418 </v>
    <v>       0.62119969       0.49652307       0.68683447 </v>
    <v>       0.58640553       0.53890691       0.56292095 </v>
    <v>       0.46983006       0.55246959       0.48079206 </v>
    <v>       0.37217378       0.61882221       0.54123070 </v>
    <v>       0.61437145       0.41947851       0.59062702 </v>
    <v>       0.36578375       0.55320063       0.40723545 </v>
    <v>       0.50172882       0.50609144       0.65193416 </v>
    <v>       0.45262755       0.49024544       0.35523676 </v>
    <v>       0.54647513       0.43119912       0.30887290 </v>
    <v>       0.58897021       0.36501902       0.47945179 </v>
    <v>       0.39983967       0.58323892       0.67301918 </v>
    <v>       0.50691667       0.44473674       0.53292933 </v>
    <v>       0.27359868       0.61705190       0.45578364 </v>
    <v>       0.40717777       0.50706853       0.57692696 </v>
    <v>       0.40116187       0.44788653       0.46083093 </v>
    <v>       0.54363632       0.39549981       0.68834626 </v>
    <v>       0.48986696       0.37923830       0.40644962 </v>
    <v>       0.30397646       0.51200713       0.51207014 </v>
    <v>       0.53091563       0.32873646       0.58142849 </v>
    <v>       0.43752137       0.40053939       0.62949146 </v>
    <v>       0.43422658       0.33707415       0.50740178 </v>
    <v>       0.33872992       0.40500403       0.55946546 </v>
   </varray>
  </structure>
  <varray name="forces" >
   <v>       0.12005611      -0.05746621       0.11852149 </v>
   <v>       0.19810275       0.27048800      -0.27783755 </v>
   <v>       0.31838961       0.05472067       0.01353458 </v>
   <v>       0.01261739       0.01181467       0.10366156 </v>
   <v>      -0.05290043      -0.18730815      -0.04388824 </v>
   <v>      -0.29785020       0.16199543      -0.07858084 </v>
   <v>      -0.00001623       0.11123477       0.02393212 </v>
   <v>       0.11313913       0.06959496       0.09364590 </v>
   <v>      -0.02648685       0.01900721       0.06524274 </v>
   <v>       0.10147371      -0.03689177      -0.20399676 </v>
   <v>       0.12136450       0.04459759      -0.07983205 </v>
   <v>      -0.10654182       0.01313705       0.02919914 </v>
   <v>      -0.07807232       0.09441882      -0.13200563 </v>
   <v>      -0.13795386      -0.02946898      -0.09634646 </v>
   <v>       0.20120871      -0.21673137      -0.23688860 </v>
   <v>       0.01529141       0.14914909       0.01073668 </v>
   <v>       0.03157500       0.03265594       0.00153598 </v>
   <v>      -0.01713593       0.04222725      -0.01877289 </v>
   <v>      -0.28355899      -0.00014119      -0.18416886 </v>
   <v>       0.21435225      -0.20775332       0.21176283 </v>
   <v>      -0.20200246       0.12483239       0.14614216 </v>
   <v>      -0.00082407       0.00928842       0.39955711 </v>
   <v>       0.10019136       0.07429982      -0.04639960 </v>
   <v>       0.03371755      -0.06819668      -0.12608850 </v>
   <v>      -0.07030055      -0.06206764       0.00790135 </v>
   <v>       0.09338892      -0.14696775      -0.16700375 </v>
   <v>      -0.03401021      -0.28561070      -0.05368101 </v>
   <v>       0.11592947       0.14463351       0.18740079 </v>
   <v>      -0.38303738       0.05641713       0.23851090 </v>
   <v>      -0.19097103      -0.11411120      -0.07803532 </v>
   <v>       0.11625328       0.03625148       0.06211050 </v>
   <v>       0.03818114      -0.04392347      -0.05625306 </v>
   <v>      -0.00984926       0.19288724      -0.13770700 </v>
   <v>       0.02108898       0.00342098       0.21498203 </v>
   <v>      -0.02624064      -0.30199050       0.03020919 </v>
   <v>      -0.05266488       0.24779109       0.15567150 </v>
   <v>       0.00409583      -0.20623456      -0.09677245 </v>
  </varray>
  <varray name="stress" >
   <v>      -1.21725668      -0.10732512      -0.04712678 </v>
   <v>      -0.10732512      -1.47747092      -0.23059281 </v>
   <v>      -0.04712678      -0.23059280      -1.28874105 </v>
  </varray>
  <energy>
   <i name="e_fr_energy">    -78.70615296 </i>
   <i name="e_wo_entrp">    -78.70615296 </i>
   <i name="e_0_energy">     -0.00000000 </i>
  </energy>
  <time name="totalsc">   26.61   28.10</time>
 </calculation>
 <calculation>
  <scstep>
   <time name="dav">    3.72    3.72</time>
   <time name="total">    4.11    4.13</time>
   <energy>
    <i name="alphaZ">     99.92830281 </i>
    <i name="ewald">  96311.30694957 </i>
    <i name="hartreedc">-133101.44713150 </i>
    <i name="XCdc">   -418.58021308 </i>
    <i name="pawpsdc">  40131.16507843 </i>
    <i name="pawaedc"> -38494.24533108 </i>
    <i name="eentropy">      0.00000000 </i>
    <i name="bandstr">  -2983.26955092 </i>
    <i name="atom">  38376.34931319 </i>
    <i name="e_fr_energy">    -78.79258259 </i>
    <i name="e_wo_entrp">    -78.79258259 </i>
    <i name="e_0_energy">    -78.79258259 </i>
   </energy>
  </scstep>
  <scstep>
   <time name="dav">    3.92    3.92</time>
   <time name="total">    4.26    4.27</time>
   <energy>
    <i name="e_fr_energy">    -78.83267792 </i>
    <i name="e_wo_entrp">    -78.83267792 </i>
    <i name="e_0_energy">    -78.83267792 </i>
   </energy>
  </scstep>
  <scstep>
   <time name="dav">    3.94    3.94</time>
   <time name="total">    4.27    8.43</time>
   <energy>
    <i name="e_fr_energy">    -78.83166754 </i>
    <i name="e_wo_entrp">    -78.83166754 </i>
    <i name="e_0_energy">    -78.83166754 </i>
   </energy>
  </scstep>
  <scstep>
   <time name="dav">    3.91    3.91</time>
   <time name="total">    4.26    4.26</time>
   <energy>
    <i name="e_fr_energy">    -78.83089181 </i>
    <i name="e_wo_entrp">    -78.83089181 </i>
    <i name="e_0_energy">    -78.83089181 </i>
   </energy>
  </scstep>
  <scstep>
   <time name="dav">    2.93    2.93</time>
   <time name="total">    3.17    3.76</time>
   <energy>
    <i name="alphaZ">     99.92830281 </i>
    <i name="ewald">  96311.30694957 </i>
    <i name="hartreedc">-133102.17797431 </i>
    <i name="XCdc">   -418.57313484 </i>
    <i name="pawpsdc">  40108.08851029 </i>
    <i name="pawaedc"> -38470.83191695 </i>
    <i name="eentropy">      0.00000000 </i>
    <i name="bandstr">  -2982.92092955 </i>
    <i name="atom">  38376.34931319 </i>
    <i name="e_fr_energy">    -78.83087979 </i>
    <i name="e_wo_entrp">    -78.83087979 </i>
    <i name="e_0_energy">    -78.83087979 </i>
   </energy>
  </scstep>
  <structure>
   <crystal>
    <varray name="basis" >
     <v>      22.67129732       0.00000000       0.00000000 </v>
     <v>       0.00000000      22.67129732       0.00000000 </v>
     <v>       0.00000000       0.00000000      22.67129732 </v>
    </varray>
    <i name="volume">  11652.76847221 </i>
    <varray name="rec_basis" >
     <v>       0.04410864       0.00000000       0.00000000 </v>
     <v>       0.00000000       0.04410864       0.00000000 </v>
     <v>       0.00000000       0.00000000       0.04410864 </v>
    </varray>
   </crystal>
   <varray name="positions" >
    <v>       0.66890198       0.53486094       0.38855449 </v>
    <v>       0.57964760       0.60421595       0.44229392 </v>
    <v>       0.68458443       0.58832449       0.50442511 </v>
    <v>       0.59248922       0.66269682       0.55350403 </v>
    <v>       0.68373181       0.61791187       0.62709704 </v>
    <v>       0.70972429       0.50186798       0.59864473 </v>
    <v>       0.48852520       0.67638292       0.48536655 </v>
    <v>       0.57073895       0.60885374       0.67093727 </v>
    <v>       0.48239038       0.61474235       0.59060485 </v>
    <v>       0.66550212       0.46502321       0.48972526 </v>
    <v>       0.64410900       0.41142804       0.38043457 </v>
    <v>       0.56646468       0.55125524       0.32239927 </v>
    <v>       0.47449282       0.61414269       0.37361550 </v>
    <v>       0.38034691       0.67238984       0.42994947 </v>
    <v>       0.55747451       0.48283893       0.42598255 </v>
    <v>       0.62120620       0.49693536       0.68682649 </v>
    <v>       0.58655865       0.53914236       0.56297906 </v>
    <v>       0.46967073       0.55278977       0.48071830 </v>
    <v>       0.37126762       0.61879859       0.54064753 </v>
    <v>       0.61491014       0.41877683       0.59145587 </v>
    <v>       0.36492614       0.55380417       0.40775857 </v>
    <v>       0.50193858       0.50617038       0.65324910 </v>
    <v>       0.45310332       0.49031634       0.35492102 </v>
    <v>       0.54653021       0.43104926       0.30857796 </v>
    <v>       0.58871890       0.36483286       0.47944282 </v>
    <v>       0.40015367       0.58282237       0.67243087 </v>
    <v>       0.50688656       0.44365158       0.53274902 </v>
    <v>       0.27411861       0.61730724       0.45628478 </v>
    <v>       0.40574120       0.50746758       0.57760897 </v>
    <v>       0.40057637       0.44738641       0.46069425 </v>
    <v>       0.54399874       0.39559709       0.68846550 </v>
    <v>       0.49002840       0.37911206       0.40628461 </v>
    <v>       0.30397650       0.51274035       0.51162614 </v>
    <v>       0.53095898       0.32879913       0.58202681 </v>
    <v>       0.43742829       0.39952633       0.62959672 </v>
    <v>       0.43403057       0.33781683       0.50781328 </v>
    <v>       0.33879027       0.40434369       0.55922166 </v>
   </varray>
  </structure>
  <varray name="forces" >
   <v>       0.10565028       0.00643034       0.05086150 </v>
   <v>       0.14938240       0.20089286      -0.21231147 </v>
   <v>       0.23362975       0.05098578      -0.01291618 </v>
   <v>       0.00042343      -0.00409696       0.05325233 </v>
   <v>      -0.03247560      -0.12345068      -0.01573784 </v>
   <v>      -0.24779750       0.07797444      -0.10694911 </v>
   <v>      -0.01005053       0.05628041       0.01144322 </v>
   <v>       0.06334059       0.08243860       0.08416598 </v>
   <v>      -0.04275425       0.00720204      -0.00954278 </v>
   <v>       0.05987797      -0.06997011      -0.00631894 </v>
   <v>       0.14465557      -0.03653884      -0.12495938 </v>
   <v>      -0.06071601       0.01867341       0.03309183 </v>
   <v>      -0.08739857       0.08811945      -0.08366494 </v>
   <v>      -0.03839640       0.04465726      -0.10031401 </v>
   <v>       0.06910288      -0.08113719      -0.09511457 </v>
   <v>       0.03526330       0.12826486       0.03212608 </v>
   <v>      -0.00928487      -0.04843894      -0.02851652 </v>
   <v>       0.04121942      -0.06763401      -0.00489967 </v>
   <v>      -0.16955305       0.01506933      -0.11532566 </v>
   <v>       0.21984966      -0.11834792       0.05753646 </v>
   <v>      -0.00746223      -0.03722373       0.04788562 </v>
   <v>      -0.11012095      -0.01634070       0.23722991 </v>
   <v>      -0.01662898       0.13363207       0.06036916 </v>
   <v>       0.05241496      -0.08359826      -0.14304920 </v>
   <v>      -0.02613284      -0.04849603       0.02429197 </v>
   <v>       0.04890011      -0.10539604      -0.06533679 </v>
   <v>      -0.05804852      -0.09148915      -0.03433143 </v>
   <v>      -0.03853947       0.21720598       0.17159425 </v>
   <v>      -0.15473366      -0.09112384       0.18818801 </v>
   <v>      -0.13798320       0.00635361      -0.11498390 </v>
   <v>       0.07787472       0.03343597       0.08733060 </v>
   <v>       0.00063379      -0.03607362      -0.04378115 </v>
   <v>      -0.03026606       0.04834778      -0.08336664 </v>
   <v>       0.02931215      -0.03044826       0.18911828 </v>
   <v>      -0.01320352      -0.17474793       0.01951708 </v>
   <v>      -0.01465734       0.17697362       0.14321087 </v>
   <v>      -0.02532742      -0.12838561      -0.08979298 </v>
  </varray>
  <varray name="stress" >
   <v>      -1.36040393      -0.11803905      -0.08162257 </v>
   <v>      -0.11803905      -1.55922176      -0.20005745 </v>
   <v>      -0.08162258      -0.20005745      -1.40256032 </v>
  </varray>
  <energy>
   <i name="e_fr_energy">    -78.83087979 </i>
   <i name="e_wo_entrp">    -78.83087979 </i>
   <i name="e_0_energy">      0.00000000 </i>
  </energy>
  <time name="totalsc">   26.54   31.34</time>
 </calculation>
 <calculation>
  <scstep>
   <time name="dav">    3.70    3.70</time>
   <time name="total">    4.04    4.26</time>
   <energy>
    <i name="alphaZ">     99.92830281 </i>
    <i name="ewald">  95709.74622057 </i>
    <i name="hartreedc">-132502.04800624 </i>
    <i name="XCdc">   -418.77000516 </i>
    <i name="pawpsdc">  40108.01399311 </i>
    <i name="pawaedc"> -38470.76120547 </i>
    <i name="eentropy">      0.00000000 </i>
    <i name="bandstr">  -2981.15049671 </i>
    <i name="atom">  38376.34931319 </i>
    <i name="e_fr_energy">    -78.69188388 </i>
    <i name="e_wo_entrp">    -78.69188388 </i>
    <i name="e_0_energy">    -78.69188388 </i>
   </energy>
  </scstep>
  <scstep>
   <time name="dav">    3.83    3.84</time>
   <time name="total">    4.19    4.22</time>
   <energy>
    <i name="e_fr_energy">    -78.85674229 </i>
    <i name="e_wo_entrp">    -78.85674229 </i>
    <i name="e_0_energy">    -78.85674229 </i>
   </energy>
  </scstep>
  <scstep>
   <time name="dav">    3.90    3.91</time>
   <time name="total">    4.24    4.37</time>
   <energy>
    <i name="e_fr_energy">    -78.85317805 </i>
    <i name="e_wo_entrp">    -78.85317805 </i>
    <i name="e_0_energy">    -78.85317805 </i>
   </energy>
  </scstep>
  <scstep>
   <time name="dav">    3.93    3.93</time>
   <time name="total">    4.29    4.85</time>
   <energy>
    <i name="e_fr_energy">    -78.84994884 </i>
    <i name="e_wo_entrp">    -78.84994884 </i>
    <i name="e_0_energy">    -78.84994884 </i>
   </energy>
  </scstep>
  <scstep>
   <time name="dav">    3.67    3.68</time>
   <time name="total">    3.90    3.91</time>
   <energy>
    <i name="alphaZ">     99.92830281 </i>
    <i name="ewald">  95709.74622057 </i>
    <i name="hartreedc">-132502.65490571 </i>
    <i name="XCdc">   -418.76670708 </i>
    <i name="pawpsdc">  40089.18472469 </i>
    <i name="pawaedc"> -38451.57410376 </i>
    <i name="eentropy">      0.00000000 </i>
    <i name="bandstr">  -2981.06284117 </i>
    <i name="atom">  38376.34931319 </i>
    <i name="e_fr_energy">    -78.84999646 </i>
    <i name="e_wo_entrp">    -78.84999646 </i>
    <i name="e_0_energy">    -78.84999646 </i>
   </energy>
  </scstep>
  <structure>
   <crystal>
    <varray name="basis" >
     <v>      22.67129732       0.00000000       0.00000000 </v>
     <v>       0.00000000      22.67129732       0.00000000 </v>
     <v>       0.00000000       0.00000000      22.67129732 </v>
    </varray>
    <i name="volume">  11652.76847221 </i>
    <varray name="rec_basis" >
     <v>       0.04410864       0.00000000       0.00000000 </v>
     <v>       0.00000000       0.04410864       0.00000000 </v>
     <v>       0.00000000       0.00000000       0.04410864 </v>
    </varray>
   </crystal>
   <varray name="positions" >
    <v>       0.66957107       0.53436579       0.38938285 </v>
    <v>       0.58084228       0.60589728       0.44064597 </v>
    <v>       0.68647380       0.58861871       0.50458461 </v>
    <v>       0.59259496       0.66282013       0.55420942 </v>
    <v>       0.68339185       0.61674931       0.62678410 </v>
    <v>       0.70806442       0.50294526       0.59833960 </v>
    <v>       0.48856672       0.67714499       0.48553474 </v>
    <v>       0.57148400       0.60916633       0.67145221 </v>
    <v>       0.48234433       0.61488755       0.59119852 </v>
    <v>       0.66619241       0.46495477       0.48799945 </v>
    <v>       0.64467119       0.41191212       0.38015968 </v>
    <v>       0.56576052       0.55130480       0.32252958 </v>
    <v>       0.47412937       0.61464941       0.37277298 </v>
    <v>       0.37931785       0.67201601       0.42946199 </v>
    <v>       0.55894955       0.48120504       0.42427928 </v>
    <v>       0.62121921       0.49775993       0.68681052 </v>
    <v>       0.58686488       0.53961328       0.56309529 </v>
    <v>       0.46935205       0.55343013       0.48057079 </v>
    <v>       0.36945529       0.61875135       0.53948119 </v>
    <v>       0.61598753       0.41737347       0.59311357 </v>
    <v>       0.36321093       0.55501126       0.40880481 </v>
    <v>       0.50235810       0.50632826       0.65587899 </v>
    <v>       0.45405488       0.49045816       0.35428953 </v>
    <v>       0.54664039       0.43074955       0.30798809 </v>
    <v>       0.58821626       0.36446055       0.47942488 </v>
    <v>       0.40078168       0.58198926       0.67125424 </v>
    <v>       0.50682635       0.44148126       0.53238841 </v>
    <v>       0.27515846       0.61781790       0.45728707 </v>
    <v>       0.40286807       0.50826570       0.57897297 </v>
    <v>       0.39940536       0.44638618       0.46042087 </v>
    <v>       0.54472360       0.39579164       0.68870397 </v>
    <v>       0.49035129       0.37885958       0.40595459 </v>
    <v>       0.30397659       0.51420679       0.51073812 </v>
    <v>       0.53104568       0.32892448       0.58322346 </v>
    <v>       0.43724212       0.39750020       0.62980725 </v>
    <v>       0.43363856       0.33930219       0.50863630 </v>
    <v>       0.33891096       0.40302302       0.55873405 </v>
   </varray>
  </structure>
  <varray name="forces" >
   <v>       0.08417083       0.15181740      -0.09723527 </v>
   <v>       0.06197660       0.10726539      -0.08877107 </v>
   <v>       0.05861583       0.04500235      -0.07083374 </v>
   <v>      -0.02685910      -0.02945622      -0.04452042 </v>
   <v>       0.00269210       0.01884445       0.04750483 </v>
   <v>      -0.13064938      -0.12488082      -0.16977247 </v>
   <v>      -0.02523505      -0.04861732      -0.01095197 </v>
   <v>      -0.03589704       0.10842386       0.07831313 </v>
   <v>      -0.04540441      -0.00909484      -0.15595869 </v>
   <v>       0.00650603      -0.13390660       0.37923847 </v>
   <v>       0.21377707      -0.22469165      -0.23845232 </v>
   <v>       0.02758226       0.03012656       0.03498503 </v>
   <v>      -0.10385848       0.07511049       0.01558532 </v>
   <v>       0.17303551       0.21843272      -0.11941590 </v>
   <v>      -0.19590816       0.17661248       0.17582947 </v>
   <v>       0.07633114       0.07475129       0.07584657 </v>
   <v>      -0.08935824      -0.18592448      -0.08484761 </v>
   <v>       0.12736872      -0.24279050       0.01690363 </v>
   <v>       0.08379662       0.05743704       0.04017835 </v>
   <v>       0.23047806       0.02658182      -0.21154646 </v>
   <v>       0.36483889      -0.36360041      -0.16693325 </v>
   <v>      -0.28796458      -0.04737441      -0.02345424 </v>
   <v>      -0.21545387       0.21999690       0.24553467 </v>
   <v>       0.08913805      -0.11837822      -0.18412386 </v>
   <v>       0.06948644      -0.03193237       0.05337872 </v>
   <v>      -0.04662801       0.01453288       0.17008113 </v>
   <v>      -0.07537773       0.27499115      -0.00684364 </v>
   <v>      -0.42207341       0.38567081       0.12872768 </v>
   <v>       0.22170866      -0.39361966       0.04044649 </v>
   <v>      -0.04692147       0.23762939      -0.19352751 </v>
   <v>      -0.00208247       0.02511606       0.14367379 </v>
   <v>      -0.07662441      -0.02314493      -0.02097382 </v>
   <v>      -0.09242501      -0.26037379       0.03058289 </v>
   <v>       0.05094674      -0.10841340       0.14521545 </v>
   <v>       0.00341793       0.04989552       0.01753700 </v>
   <v>       0.06360461       0.02094624       0.10431089 </v>
   <v>      -0.09075128       0.02701485      -0.05571128 </v>
  </varray>
  <varray name="stress" >
   <v>      -1.52172155      -0.15564009      -0.16235581 </v>
   <v>      -0.15564009      -1.58975232      -0.13523590 </v>
   <v>      -0.16235581      -0.13523590      -1.52345376 </v>
  </varray>
  <energy>
   <i name="e_fr_energy">    -78.84999646 </i>
   <i name="e_wo_entrp">    -78.84999646 </i>
   <i name="e_0_energy">      0.00000000 </i>
  </energy>
  <time name="totalsc">   27.17   28.82</time>
 </calculation>
 <calculation>
  <scstep>
   <time name="dav">    3.68    3.68</time>
   <time name="total">    4.03    4.04</time>
   <energy>
    <i name="alphaZ">     99.92830281 </i>
    <i name="ewald">  95962.40075278 </i>
    <i name="hartreedc">-132755.13313319 </i>
    <i name="XCdc">   -418.68959135 </i>
    <i name="pawpsdc">  40088.28173480 </i>
    <i name="pawaedc"> -38450.67314536 </i>
    <i name="eentropy">      0.00000000 </i>
    <i name="bandstr">  -2981.31496624 </i>
    <i name="atom">  38376.34931319 </i>
    <i name="e_fr_energy">    -78.85073256 </i>
    <i name="e_wo_entrp">    -78.85073256 </i>
    <i name="e_0_energy">    -78.85073256 </i>
   </energy>
  </scstep>
  <scstep>
   <time name="dav">    4.01    4.01</time>
   <time name="total">    4.34    4.42</time>
   <energy>
    <i name="e_fr_energy">    -78.87982446 </i>
    <i name="e_wo_entrp">    -78.87982446 </i>
    <i name="e_0_energy">    -78.87982446 </i>
   </energy>
  </scstep>
  <scstep>
   <time name="dav">    3.98    3.99</time>
   <time name="total">    4.34    4.35</time>
   <energy>
    <i name="e_fr_energy">    -78.87923619 </i>
    <i name="e_wo_entrp">    -78.87923619 </i>
    <i name="e_0_energy">    -78.87923619 </i>
   </energy>
  </scstep>
  <scstep>
   <time name="dav">    3.92    3.92</time>
   <time name="total">    4.29    4.30</time>
   <energy>
    <i name="e_fr_energy">    -78.87883332 </i>
    <i name="e_wo_entrp">    -78.87883332 </i>
    <i name="e_0_energy">    -78.87883332 </i>
   </energy>
  </scstep>
  <scstep>
   <time name="dav">    2.88    2.88</time>
   <time name="total">    3.10    3.12</time>
   <energy>
    <i name="alphaZ">     99.92830281 </i>
    <i name="ewald">  95962.40075278 </i>
    <i name="hartreedc">-132754.75788254 </i>
    <i name="XCdc">   -418.69953407 </i>
    <i name="pawpsdc">  40091.15351016 </i>
    <i name="pawaedc"> -38453.64881552 </i>
    <i name="eentropy">      0.00000000 </i>
    <i name="bandstr">  -2981.60456402 </i>
    <i name="atom">  38376.34931319 </i>
    <i name="e_fr_energy">    -78.87891722 </i>
    <i name="e_wo_entrp">    -78.87891722 </i>
    <i name="e_0_energy">    -78.87891722 </i>
   </energy>
  </scstep>
  <structure>
   <crystal>
    <varray name="basis" >
     <v>      22.67129732       0.00000000       0.00000000 </v>
     <v>       0.00000000      22.67129732       0.00000000 </v>
     <v>       0.00000000       0.00000000      22.67129732 </v>
    </varray>
    <i name="volume">  11652.76847221 </i>
    <varray name="rec_basis" >
     <v>       0.04410864       0.00000000       0.00000000 </v>
     <v>       0.00000000       0.04410864       0.00000000 </v>
     <v>       0.00000000       0.00000000       0.04410864 </v>
    </varray>
   </crystal>
   <varray name="positions" >
    <v>       0.66928784       0.53457538       0.38903220 </v>
    <v>       0.58033657       0.60518558       0.44134355 </v>
    <v>       0.68567403       0.58849417       0.50451710 </v>
    <v>       0.59255020       0.66276793       0.55391083 </v>
    <v>       0.68353576       0.61724142       0.62691657 </v>
    <v>       0.70876704       0.50248925       0.59846876 </v>
    <v>       0.48854915       0.67682241       0.48546354 </v>
    <v>       0.57116862       0.60903401       0.67123424 </v>
    <v>       0.48236382       0.61482608       0.59094722 </v>
    <v>       0.66590021       0.46498374       0.48872999 </v>
    <v>       0.64443322       0.41170721       0.38027604 </v>
    <v>       0.56605859       0.55128382       0.32247442 </v>
    <v>       0.47428322       0.61443492       0.37312962 </v>
    <v>       0.37975345       0.67217425       0.42966834 </v>
    <v>       0.55832516       0.48189666       0.42500027 </v>
    <v>       0.62121370       0.49741089       0.68681728 </v>
    <v>       0.58673525       0.53941394       0.56304609 </v>
    <v>       0.46948695       0.55315906       0.48063323 </v>
    <v>       0.37022245       0.61877135       0.53997490 </v>
    <v>       0.61553147       0.41796751       0.59241186 </v>
    <v>       0.36393698       0.55450030       0.40836194 </v>
    <v>       0.50218051       0.50626143       0.65476576 </v>
    <v>       0.45365208       0.49039813       0.35455684 </v>
    <v>       0.54659375       0.43087642       0.30823778 </v>
    <v>       0.58842902       0.36461815       0.47943248 </v>
    <v>       0.40051585       0.58234191       0.67175231 </v>
    <v>       0.50685184       0.44239996       0.53254106 </v>
    <v>       0.27471829       0.61760174       0.45686280 </v>
    <v>       0.40408427       0.50792786       0.57839559 </v>
    <v>       0.39990105       0.44680958       0.46053659 </v>
    <v>       0.54441677       0.39570929       0.68860302 </v>
    <v>       0.49021461       0.37896646       0.40609429 </v>
    <v>       0.30397655       0.51358605       0.51111402 </v>
    <v>       0.53100898       0.32887142       0.58271692 </v>
    <v>       0.43732092       0.39835786       0.62971813 </v>
    <v>       0.43380450       0.33867344       0.50828792 </v>
    <v>       0.33885987       0.40358206       0.55894046 </v>
   </varray>
  </structure>
  <varray name="forces" >
   <v>       0.09068317       0.08829688      -0.03387055 </v>
   <v>       0.09587563       0.14049703      -0.13487353 </v>
   <v>       0.12759291       0.04700422      -0.04494059 </v>
   <v>      -0.01475347      -0.02089670      -0.00481349 </v>
   <v>      -0.00954998      -0.04030794       0.01989858 </v>
   <v>      -0.17894399      -0.03609164      -0.14088784 </v>
   <v>      -0.01984078      -0.00755479      -0.00172244 </v>
   <v>       0.00506340       0.09733682       0.07828838 </v>
   <v>      -0.04900711      -0.00502262      -0.09571597 </v>
   <v>       0.02258011      -0.10752876       0.21941819 </v>
   <v>       0.17973181      -0.14267845      -0.18625067 </v>
   <v>      -0.00720447       0.02433402       0.03511524 </v>
   <v>      -0.09681293       0.07877577      -0.02360483 </v>
   <v>       0.08464357       0.14203364      -0.10830180 </v>
   <v>      -0.08534245       0.07252028       0.06736729 </v>
   <v>       0.05924067       0.09734145       0.05753474 </v>
   <v>      -0.05708667      -0.13342380      -0.06304403 </v>
   <v>       0.09724040      -0.17766676       0.00902740 </v>
   <v>      -0.02427304       0.03837117      -0.02840449 </v>
   <v>       0.22335686      -0.02520510      -0.10775285 </v>
   <v>       0.21165553      -0.22614064      -0.07376142 </v>
   <v>      -0.21887332      -0.03804461       0.06924979 </v>
   <v>      -0.13848073       0.18765661       0.17384157 </v>
   <v>       0.07398982      -0.10310911      -0.16482511 </v>
   <v>       0.02904515      -0.03660952       0.04238029 </v>
   <v>      -0.00611229      -0.03899466       0.06192396 </v>
   <v>      -0.07256557       0.12898585      -0.01474911 </v>
   <v>      -0.25220378       0.30962085       0.14651066 </v>
   <v>       0.07674513      -0.26734781       0.11003099 </v>
   <v>      -0.07967036       0.14412610      -0.15900232 </v>
   <v>       0.03145515       0.02953200       0.11915717 </v>
   <v>      -0.04425729      -0.02803263      -0.02954846 </v>
   <v>      -0.06398649      -0.13028223      -0.01754980 </v>
   <v>       0.04110359      -0.07480002       0.16040975 </v>
   <v>      -0.00032147      -0.03449769       0.01481184 </v>
   <v>       0.03181379       0.08367189       0.12079139 </v>
   <v>      -0.06253052      -0.03586909      -0.07213790 </v>
  </varray>
  <varray name="stress" >
   <v>      -1.47917590      -0.13745687      -0.12995160 </v>
   <v>      -0.13745688      -1.59997424      -0.16207343 </v>
   <v>      -0.12995161      -0.16207344      -1.49528154 </v>
  </varray>
  <energy>
   <i name="e_fr_energy">    -78.87891722 </i>
   <i name="e_wo_entrp">    -78.87891722 </i>
   <i name="e_0_energy">      0.00000000 </i>
  </energy>
  <time name="totalsc">   26.61   27.14</time>
 </calculation>
 <calculation>
  <scstep>
   <time name="dav">    3.67    3.67</time>
   <time name="total">    4.02    4.04</time>
   <energy>
    <i name="alphaZ">     99.92830281 </i>
    <i name="ewald">  95786.79147667 </i>
    <i name="hartreedc">-132580.13465268 </i>
    <i name="XCdc">   -418.87831822 </i>
    <i name="pawpsdc">  40091.04326496 </i>
    <i name="pawaedc"> -38453.53638446 </i>
    <i name="eentropy">      0.00000000 </i>
    <i name="bandstr">  -2980.47856497 </i>
    <i name="atom">  38376.34931319 </i>
    <i name="e_fr_energy">    -78.91556269 </i>
    <i name="e_wo_entrp">    -78.91556269 </i>
    <i name="e_0_energy">    -78.91556269 </i>
   </energy>
  </scstep>
  <scstep>
   <time name="dav">    3.96    3.96</time>
   <time name="total">    4.30    4.31</time>
   <energy>
    <i name="e_fr_energy">    -78.92461121 </i>
    <i name="e_wo_entrp">    -78.92461121 </i>
    <i name="e_0_energy">    -78.92461121 </i>
   </energy>
  </scstep>
  <scstep>
   <time name="dav">    3.98    3.99</time>
   <time name="total">    4.33    4.37</time>
   <energy>
    <i name="e_fr_energy">    -78.92445151 </i>
    <i name="e_wo_entrp">    -78.92445151 </i>
    <i name="e_0_energy">    -78.92445151 </i>
   </energy>
  </scstep>
  <scstep>
   <time name="dav">    3.92    3.92</time>
   <time name="total">    4.27    4.28</time>
   <energy>
    <i name="e_fr_energy">    -78.92419441 </i>
    <i name="e_wo_entrp">    -78.92419441 </i>
    <i name="e_0_energy">    -78.92419441 </i>
   </energy>
  </scstep>
  <scstep>
   <time name="dav">    2.84    2.84</time>
   <time name="total">    3.06    3.07</time>
   <energy>
    <i name="alphaZ">     99.92830281 </i>
    <i name="ewald">  95786.79147667 </i>
    <i name="hartreedc">-132581.14172217 </i>
    <i name="XCdc">   -418.84945392 </i>
    <i name="pawpsdc">  40066.46171387 </i>
    <i name="pawaedc"> -38428.57287107 </i>
    <i name="eentropy">      0.00000000 </i>
    <i name="bandstr">  -2979.89096860 </i>
    <i name="atom">  38376.34931319 </i>
    <i name="e_fr_energy">    -78.92420920 </i>
    <i name="e_wo_entrp">    -78.92420920 </i>
    <i name="e_0_energy">    -78.92420920 </i>
   </energy>
  </scstep>
  <structure>
   <crystal>
    <varray name="basis" >
     <v>      22.67129732       0.00000000       0.00000000 </v>
     <v>       0.00000000      22.67129732       0.00000000 </v>
     <v>       0.00000000       0.00000000      22.67129732 </v>
    </varray>
    <i name="volume">  11652.76847221 </i>
    <varray name="rec_basis" >
     <v>       0.04410864       0.00000000       0.00000000 </v>
     <v>       0.00000000       0.04410864       0.00000000 </v>
     <v>       0.00000000       0.00000000       0.04410864 </v>
    </varray>
   </crystal>
   <varray name="positions" >
    <v>       0.66953145       0.53467183       0.38907358 </v>
    <v>       0.58065395       0.60564214       0.44090109 </v>
    <v>       0.68613316       0.58861398       0.50445665 </v>
    <v>       0.59253691       0.66274586       0.55398885 </v>
    <v>       0.68347702       0.61702694       0.62691359 </v>
    <v>       0.70824465       0.50255722       0.59818043 </v>
    <v>       0.48851891       0.67690250       0.48548112 </v>
    <v>       0.57126909       0.60924571       0.67143685 </v>
    <v>       0.48227090       0.61483496       0.59084966 </v>
    <v>       0.66602515       0.46478386       0.48890885 </v>
    <v>       0.64482227       0.41151257       0.37991064 </v>
    <v>       0.56595933       0.55133324       0.32255294 </v>
    <v>       0.47406621       0.61463739       0.37298417 </v>
    <v>       0.37977786       0.67238128       0.42941565 </v>
    <v>       0.55835426       0.48182523       0.42491115 </v>
    <v>       0.62132079       0.49768544       0.68691777 </v>
    <v>       0.58667119       0.53923417       0.56294809 </v>
    <v>       0.46962098       0.55292130       0.48063120 </v>
    <v>       0.36995676       0.61883387       0.53978115 </v>
    <v>       0.61606145       0.41775036       0.59242348 </v>
    <v>       0.36410332       0.55424579       0.40835903 </v>
    <v>       0.50184227       0.50621306       0.65521190 </v>
    <v>       0.45352230       0.49074969       0.35478887 </v>
    <v>       0.54673902       0.43065602       0.30787187 </v>
    <v>       0.58841904       0.36450726       0.47950574 </v>
    <v>       0.40058205       0.58217021       0.67171814 </v>
    <v>       0.50671523       0.44236322       0.53247053 </v>
    <v>       0.27439684       0.61821576       0.45724672 </v>
    <v>       0.40386824       0.50754977       0.57875895 </v>
    <v>       0.39961544       0.44694344       0.46021990 </v>
    <v>       0.54456176       0.39578576       0.68884448 </v>
    <v>       0.49017544       0.37888555       0.40600116 </v>
    <v>       0.30386262       0.51353407       0.51097376 </v>
    <v>       0.53109281       0.32875361       0.58314945 </v>
    <v>       0.43729750       0.39804772       0.62977035 </v>
    <v>       0.43381303       0.33900476       0.50860404 </v>
    <v>       0.33876334       0.40335607       0.55875215 </v>
   </varray>
  </structure>
  <varray name="forces" >
   <v>       0.07113394       0.06494243      -0.02067874 </v>
   <v>       0.07735753       0.13069575      -0.11256364 </v>
   <v>       0.08254092       0.03981029      -0.04949392 </v>
   <v>      -0.01609779      -0.03784250      -0.01660460 </v>
   <v>      -0.00954048      -0.02803019       0.02418148 </v>
   <v>      -0.12892943      -0.03916344      -0.11589273 </v>
   <v>      -0.01764382      -0.02801565      -0.00995292 </v>
   <v>      -0.02798002       0.07540285       0.05504078 </v>
   <v>      -0.03925175      -0.02261054      -0.08359776 </v>
   <v>       0.00734955      -0.10263259       0.14198354 </v>
   <v>       0.14000739      -0.10577990      -0.13632245 </v>
   <v>      -0.00398422       0.01202049       0.04046499 </v>
   <v>      -0.07629285       0.07668650      -0.00719767 </v>
   <v>       0.06189617       0.11136667      -0.09659963 </v>
   <v>      -0.04419562       0.05177893       0.05498371 </v>
   <v>       0.03313914       0.08295230       0.04289379 </v>
   <v>      -0.06713027      -0.11774890      -0.05971990 </v>
   <v>       0.09753266      -0.14582219       0.01717018 </v>
   <v>       0.00720665       0.00391989      -0.02312677 </v>
   <v>       0.16837331      -0.04189645      -0.08404186 </v>
   <v>       0.12704261      -0.12445853      -0.03485973 </v>
   <v>      -0.17528259      -0.02442427       0.05722093 </v>
   <v>      -0.06335976       0.13083856       0.13018087 </v>
   <v>       0.04249127      -0.06697132      -0.11588686 </v>
   <v>       0.02507524      -0.02019705       0.03058990 </v>
   <v>      -0.01423988      -0.02605958       0.07188797 </v>
   <v>      -0.04802775       0.11417566       0.00055559 </v>
   <v>      -0.18200543       0.26314553       0.11986879 </v>
   <v>       0.06774871      -0.22623441       0.05822051 </v>
   <v>      -0.06632338       0.10161312      -0.13258147 </v>
   <v>       0.03476819       0.04322173       0.09521095 </v>
   <v>      -0.04201142      -0.00991131      -0.02659895 </v>
   <v>      -0.05709494      -0.10731869      -0.01775853 </v>
   <v>       0.04917384      -0.05730381       0.14732787 </v>
   <v>       0.00638829      -0.03059726       0.01935427 </v>
   <v>       0.04546257       0.08476548       0.10590160 </v>
   <v>      -0.06529660      -0.02431759      -0.06955958 </v>
  </varray>
  <varray name="stress" >
   <v>      -1.58425760      -0.13687844      -0.12663926 </v>
[...]
       <r>     0.1263     0.0000   237.0000 </r>
       <r>     0.1668     0.0000   237.0000 </r>
       <r>     0.2072     0.0000   238.0000 </r>
       <r>     0.2476     0.0000   238.0000 </r>
       <r>     0.2880     0.0000   238.0000 </r>
       <r>     0.3284     0.0000   239.0000 </r>
       <r>     0.3689     0.0000   239.0000 </r>
       <r>     0.4093     0.0000   239.0000 </r>
       <r>     0.4497     0.0000   240.0000 </r>
       <r>     0.4901     0.0000   240.0000 </r>
       <r>     0.5305     0.0000   241.0000 </r>
       <r>     0.5709     0.0000   241.0000 </r>
       <r>     0.6114     0.0000   241.0000 </r>
       <r>     0.6518     0.0000   241.0000 </r>
       <r>     0.6922     0.0000   241.0000 </r>
       <r>     0.7326     0.0000   244.0000 </r>
       <r>     0.7730     0.0000   245.0000 </r>
       <r>     0.8135     0.0000   246.0000 </r>
       <r>     0.8539     0.0000   247.0000 </r>
       <r>     0.8943     0.0000   247.0000 </r>
       <r>     0.9347     0.0000   248.0000 </r>
       <r>     0.9751     0.0000   250.0000 </r>
       <r>     1.0155     0.0000   252.0000 </r>
       <r>     1.0560     0.0000   255.0000 </r>
       <r>     1.0964     0.0000   257.0000 </r>
       <r>     1.1368     0.0000   259.0000 </r>
       <r>     1.1772     0.0000   261.0000 </r>
       <r>     1.2176     0.0000   262.0000 </r>
       <r>     1.2581     0.0000   263.0000 </r>
       <r>     1.2985     0.0000   264.0000 </r>
       <r>     1.3389     0.0000   264.0000 </r>
       <r>     1.3793     0.0000   264.0000 </r>
       <r>     1.4197     0.0000   264.0000 </r>
       <r>     1.4602     0.0000   264.0000 </r>
       <r>     1.5006     0.0000   264.0000 </r>
       <r>     1.5410     0.0000   264.0000 </r>
       <r>     1.5814     0.0000   264.0000 </r>
       <r>     1.6218     0.0000   264.0000 </r>
       <r>     1.6622     0.0000   264.0000 </r>
       <r>     1.7027     0.0000   264.0000 </r>
       <r>     1.7431     0.0000   264.0000 </r>
       <r>     1.7835     0.0000   264.0000 </r>
       <r>     1.8239     0.0000   264.0000 </r>
       <r>     1.8643     0.0000   264.0000 </r>
      </set>
      <set comment="spin 2">
       <r>   -10.2612     0.0000     0.0000 </r>
       <r>   -10.2208     0.0000     0.0000 </r>
       <r>   -10.1804     0.0000     0.0000 </r>
       <r>   -10.1399     0.0000     0.0000 </r>
       <r>   -10.0995     0.0000     0.0000 </r>
       <r>   -10.0591     0.0000     0.0000 </r>
       <r>   -10.0187     0.0000     0.0000 </r>
       <r>    -9.9783     0.0000     0.0000 </r>
       <r>    -9.9378     0.0000     0.0000 </r>
       <r>    -9.8974     0.0000     0.0000 </r>
       <r>    -9.8570     0.0000     0.0000 </r>
       <r>    -9.8166     0.0000     0.0000 </r>
       <r>    -9.7762     0.0000     0.0000 </r>
       <r>    -9.7358     0.0000     0.0000 </r>
       <r>    -9.6953     0.0000     0.0000 </r>
       <r>    -9.6549     0.0000     1.0000 </r>
       <r>    -9.6145     0.0000     1.0000 </r>
       <r>    -9.5741     0.0000     1.0000 </r>
       <r>    -9.5337     0.0000     1.0000 </r>
       <r>    -9.4932     0.0000     1.0000 </r>
       <r>    -9.4528     0.0000     1.0000 </r>
       <r>    -9.4124     0.0000     1.0000 </r>
       <r>    -9.3720     0.0000     1.0000 </r>
       <r>    -9.3316     0.0000     1.0000 </r>
       <r>    -9.2912     0.0000     1.0000 </r>
       <r>    -9.2507     0.0000     1.0000 </r>
       <r>    -9.2103     0.0000     1.0000 </r>
       <r>    -9.1699     0.0000     2.0000 </r>
       <r>    -9.1295     0.0000     3.0000 </r>
       <r>    -9.0891     0.0000     3.0000 </r>
       <r>    -9.0486     0.0000     4.0000 </r>
       <r>    -9.0082     0.0000     7.0000 </r>
       <r>    -8.9678     0.0000     9.0000 </r>
       <r>    -8.9274     0.0000    10.0000 </r>
       <r>    -8.8870     0.0000    12.0000 </r>
       <r>    -8.8465     0.0000    14.0000 </r>
       <r>    -8.8061     0.0000    15.0000 </r>
       <r>    -8.7657     0.0000    16.0000 </r>
       <r>    -8.7253     0.0000    18.0000 </r>
       <r>    -8.6849     0.0000    20.0000 </r>
       <r>    -8.6445     0.0000    22.0000 </r>
       <r>    -8.6040     0.0000    25.0000 </r>
       <r>    -8.5636    24.7412    28.0000 </r>
       <r>    -8.5232     0.0000    30.0000 </r>
       <r>    -8.4828     0.0000    32.0000 </r>
       <r>    -8.4424     0.0000    33.0000 </r>
       <r>    -8.4019     0.0000    35.0000 </r>
       <r>    -8.3615     0.0000    38.0000 </r>
       <r>    -8.3211     0.0000    40.0000 </r>
       <r>    -8.2807     0.0000    42.0000 </r>
       <r>    -8.2403    24.7412    45.0000 </r>
       <r>    -8.1999     0.0000    47.0000 </r>
       <r>    -8.1594     0.0000    49.0000 </r>
       <r>    -8.1190     0.0000    51.0000 </r>
       <r>    -8.0786     0.0000    54.0000 </r>
       <r>    -8.0382     0.0000    56.0000 </r>
       <r>    -7.9978     0.0000    58.0000 </r>
       <r>    -7.9573     0.0000    61.0000 </r>
       <r>    -7.9169     0.0000    64.0000 </r>
       <r>    -7.8765     0.0000    65.0000 </r>
       <r>    -7.8361     0.0000    68.0000 </r>
       <r>    -7.7957    24.7412    71.0000 </r>
       <r>    -7.7553     0.0000    73.0000 </r>
       <r>    -7.7148     0.0000    76.0000 </r>
       <r>    -7.6744     0.0000    77.0000 </r>
       <r>    -7.6340     0.6897    79.0279 </r>
       <r>    -7.5936     0.0000    82.0000 </r>
       <r>    -7.5532    24.7412    85.0000 </r>
       <r>    -7.5127     0.0000    87.0000 </r>
       <r>    -7.4723     0.0000    90.0000 </r>
       <r>    -7.4319     0.0000    93.0000 </r>
       <r>    -7.3915     0.0000    96.0000 </r>
       <r>    -7.3511     0.0000    98.0000 </r>
       <r>    -7.3106     0.0000   101.0000 </r>
       <r>    -7.2702     0.0000   102.0000 </r>
       <r>    -7.2298     0.0000   104.0000 </r>
       <r>    -7.1894    24.1244   106.9751 </r>
       <r>    -7.1490     0.0000   108.0000 </r>
       <r>    -7.1086     0.0000   112.0000 </r>
       <r>    -7.0681    24.7412   116.0000 </r>
       <r>    -7.0277     0.0000   118.0000 </r>
       <r>    -6.9873     0.0000   120.0000 </r>
       <r>    -6.9469    24.7404   125.0000 </r>
       <r>    -6.9065     0.0000   129.0000 </r>
       <r>    -6.8660     0.0000   132.0000 </r>
       <r>    -6.8256     0.0000   136.0000 </r>
       <r>    -6.7852     0.0000   138.0000 </r>
       <r>    -6.7448     0.0000   142.0000 </r>
       <r>    -6.7044     0.0000   146.0000 </r>
       <r>    -6.6640     0.0000   149.0000 </r>
       <r>    -6.6235     5.3798   152.2174 </r>
       <r>    -6.5831     0.0000   157.0000 </r>
       <r>    -6.5427     0.0000   161.0000 </r>
       <r>    -6.5023     0.0000   163.0000 </r>
       <r>    -6.4619     0.0000   169.0000 </r>
       <r>    -6.4214     0.0000   172.0000 </r>
       <r>    -6.3810    24.7412   176.0000 </r>
       <r>    -6.3406     0.0000   179.0000 </r>
       <r>    -6.3002     0.0000   183.0000 </r>
       <r>    -6.2598     0.0000   185.0000 </r>
       <r>    -6.2194     0.0000   185.0000 </r>
       <r>    -6.1789     0.0000   187.0000 </r>
       <r>    -6.1385     0.0000   189.0000 </r>
       <r>    -6.0981     0.0000   189.0000 </r>
       <r>    -6.0577     0.0000   189.0000 </r>
       <r>    -6.0173     0.0000   189.0000 </r>
       <r>    -5.9768     0.0000   189.0000 </r>
       <r>    -5.9364     0.0000   190.0000 </r>
       <r>    -5.8960     0.0000   190.0000 </r>
       <r>    -5.8556     0.0000   191.0000 </r>
       <r>    -5.8152     0.0000   191.0000 </r>
       <r>    -5.7747     0.0000   191.0000 </r>
       <r>    -5.7343     0.0000   191.0000 </r>
       <r>    -5.6939     0.0000   192.0000 </r>
       <r>    -5.6535     0.0000   193.0000 </r>
       <r>    -5.6131     0.0000   193.0000 </r>
       <r>    -5.5727     0.0000   193.0000 </r>
       <r>    -5.5322     0.0000   193.0000 </r>
       <r>    -5.4918     0.0000   193.0000 </r>
       <r>    -5.4514     0.0000   194.0000 </r>
       <r>    -5.4110     0.0000   194.0000 </r>
       <r>    -5.3706     0.0000   194.0000 </r>
       <r>    -5.3301     0.0000   194.0000 </r>
       <r>    -5.2897     0.0000   194.0000 </r>
       <r>    -5.2493     0.0000   194.0000 </r>
       <r>    -5.2089     0.0000   194.0000 </r>
       <r>    -5.1685     0.0000   195.0000 </r>
       <r>    -5.1281     0.0000   195.0000 </r>
       <r>    -5.0876     0.0000   195.0000 </r>
       <r>    -5.0472     0.0000   195.0000 </r>
       <r>    -5.0068     0.0000   195.0000 </r>
       <r>    -4.9664     0.0000   195.0000 </r>
       <r>    -4.9260     0.0000   195.0000 </r>
       <r>    -4.8855     0.0000   195.0000 </r>
       <r>    -4.8451     0.0000   195.0000 </r>
       <r>    -4.8047     0.0000   195.0000 </r>
       <r>    -4.7643     0.0000   195.0000 </r>
       <r>    -4.7239     0.0000   195.0000 </r>
       <r>    -4.6835     0.0000   195.0000 </r>
       <r>    -4.6430     0.0000   196.0000 </r>
       <r>    -4.6026     0.0000   196.0000 </r>
       <r>    -4.5622     0.0000   196.0000 </r>
       <r>    -4.5218     0.0000   196.0000 </r>
       <r>    -4.4814     0.0000   196.0000 </r>
       <r>    -4.4409     0.0000   197.0000 </r>
       <r>    -4.4005     0.0000   197.0000 </r>
       <r>    -4.3601     0.0000   197.0000 </r>
       <r>    -4.3197     0.0000   198.0000 </r>
       <r>    -4.2793     0.0000   198.0000 </r>
       <r>    -4.2388     0.0000   199.0000 </r>
       <r>    -4.1984     0.0000   199.0000 </r>
       <r>    -4.1580     0.0000   199.0000 </r>
       <r>    -4.1176     0.0000   199.0000 </r>
       <r>    -4.0772     0.0000   200.0000 </r>
       <r>    -4.0368     0.0000   200.0000 </r>
       <r>    -3.9963     0.0000   201.0000 </r>
       <r>    -3.9559     0.0000   201.0000 </r>
       <r>    -3.9155     0.0000   201.0000 </r>
       <r>    -3.8751     0.0000   201.0000 </r>
       <r>    -3.8347     0.0000   201.0000 </r>
       <r>    -3.7942     0.0000   202.0000 </r>
       <r>    -3.7538     0.0000   202.0000 </r>
       <r>    -3.7134     0.0000   202.0000 </r>
       <r>    -3.6730     0.0000   203.0000 </r>
       <r>    -3.6326     0.0000   203.0000 </r>
       <r>    -3.5922     0.0000   203.0000 </r>
       <r>    -3.5517     0.0000   203.0000 </r>
       <r>    -3.5113     0.0000   203.0000 </r>
       <r>    -3.4709     0.0000   203.0000 </r>
       <r>    -3.4305     0.0000   203.0000 </r>
       <r>    -3.3901     0.0000   203.0000 </r>
       <r>    -3.3496     0.0000   203.0000 </r>
       <r>    -3.3092     0.0000   203.0000 </r>
       <r>    -3.2688     0.0000   203.0000 </r>
       <r>    -3.2284     0.0000   203.0000 </r>
       <r>    -3.1880     0.0000   204.0000 </r>
       <r>    -3.1475     0.0000   204.0000 </r>
       <r>    -3.1071     0.0000   205.0000 </r>
       <r>    -3.0667     0.0000   205.0000 </r>
       <r>    -3.0263     0.0000   205.0000 </r>
       <r>    -2.9859     0.0000   205.0000 </r>
       <r>    -2.9455     0.0000   206.0000 </r>
       <r>    -2.9050     0.0000   206.0000 </r>
       <r>    -2.8646     0.0000   206.0000 </r>
       <r>    -2.8242     0.0000   206.0000 </r>
       <r>    -2.7838     0.0000   206.0000 </r>
       <r>    -2.7434     0.0000   206.0000 </r>
       <r>    -2.7029     0.0000   206.0000 </r>
       <r>    -2.6625     0.0000   207.0000 </r>
       <r>    -2.6221     0.0000   207.0000 </r>
       <r>    -2.5817     0.0000   207.0000 </r>
       <r>    -2.5413     0.0000   208.0000 </r>
       <r>    -2.5009     0.0000   209.0000 </r>
       <r>    -2.4604     0.0000   210.0000 </r>
       <r>    -2.4200     0.0000   210.0000 </r>
       <r>    -2.3796     0.0000   210.0000 </r>
       <r>    -2.3392     0.0000   210.0000 </r>
       <r>    -2.2988     0.0000   210.0000 </r>
       <r>    -2.2583     0.0000   211.0000 </r>
       <r>    -2.2179     0.0000   211.0000 </r>
       <r>    -2.1775     0.0000   213.0000 </r>
       <r>    -2.1371     0.0000   213.0000 </r>
       <r>    -2.0967     0.0000   214.0000 </r>
       <r>    -2.0563     0.0000   214.0000 </r>
       <r>    -2.0158     0.0000   214.0000 </r>
       <r>    -1.9754     0.0000   214.0000 </r>
       <r>    -1.9350     0.0000   215.0000 </r>
       <r>    -1.8946     0.0000   215.0000 </r>
       <r>    -1.8542     0.0000   217.0000 </r>
       <r>    -1.8137     0.0000   217.0000 </r>
       <r>    -1.7733     0.0000   217.0000 </r>
       <r>    -1.7329     0.0000   217.0000 </r>
       <r>    -1.6925     0.0000   217.0000 </r>
       <r>    -1.6521     0.0000   218.0000 </r>
       <r>    -1.6116     0.0000   218.0000 </r>
       <r>    -1.5712     0.0000   218.0000 </r>
       <r>    -1.5308     0.0000   219.0000 </r>
       <r>    -1.4904     0.0000   219.0000 </r>
       <r>    -1.4500     0.0000   219.0000 </r>
       <r>    -1.4096     0.0000   219.0000 </r>
       <r>    -1.3691     0.0000   219.0000 </r>
       <r>    -1.3287     0.0000   220.0000 </r>
       <r>    -1.2883     0.0000   220.0000 </r>
       <r>    -1.2479     0.0000   220.0000 </r>
       <r>    -1.2075     0.0000   220.0000 </r>
       <r>    -1.1670     0.0000   220.0000 </r>
       <r>    -1.1266     0.0000   221.0000 </r>
       <r>    -1.0862     0.0000   222.0000 </r>
       <r>    -1.0458     0.0000   223.0000 </r>
       <r>    -1.0054     0.0000   223.0000 </r>
       <r>    -0.9650     0.0000   223.0000 </r>
       <r>    -0.9245     0.0000   224.0000 </r>
       <r>    -0.8841     0.0000   224.0000 </r>
       <r>    -0.8437     0.0000   224.0000 </r>
       <r>    -0.8033     0.0000   224.0000 </r>
       <r>    -0.7629     0.0000   224.0000 </r>
       <r>    -0.7224     0.0000   224.0000 </r>
       <r>    -0.6820     0.0000   225.0000 </r>
       <r>    -0.6416     0.0000   225.0000 </r>
       <r>    -0.6012     0.0000   226.0000 </r>
       <r>    -0.5608     0.0000   226.0000 </r>
       <r>    -0.5204     0.0000   227.0000 </r>
       <r>    -0.4799     0.0000   227.0000 </r>
       <r>    -0.4395     0.0000   228.0000 </r>
       <r>    -0.3991     0.0000   228.0000 </r>
       <r>    -0.3587     0.0000   229.0000 </r>
       <r>    -0.3183     0.0000   230.0000 </r>
       <r>    -0.2778     0.0000   231.0000 </r>
       <r>    -0.2374     0.0000   231.0000 </r>
       <r>    -0.1970     0.0000   231.0000 </r>
       <r>    -0.1566     0.0000   233.0000 </r>
       <r>    -0.1162     0.0000   233.0000 </r>
       <r>    -0.0757     0.0000   234.0000 </r>
       <r>    -0.0353     0.0000   234.0000 </r>
       <r>     0.0051     0.0000   234.0000 </r>
       <r>     0.0455     0.0000   235.0000 </r>
       <r>     0.0859     0.0000   235.0000 </r>
       <r>     0.1263     0.0000   236.0000 </r>
       <r>     0.1668     0.0000   237.0000 </r>
       <r>     0.2072     0.0000   238.0000 </r>
       <r>     0.2476     0.0000   238.0000 </r>
       <r>     0.2880     0.0000   238.0000 </r>
       <r>     0.3284     0.0000   239.0000 </r>
       <r>     0.3689     0.0000   239.0000 </r>
       <r>     0.4093     0.0000   239.0000 </r>
       <r>     0.4497     0.0000   240.0000 </r>
       <r>     0.4901     0.0000   240.0000 </r>
       <r>     0.5305     0.0000   240.0000 </r>
       <r>     0.5709     0.0000   241.0000 </r>
       <r>     0.6114     0.0000   241.0000 </r>
       <r>     0.6518     0.0000   241.0000 </r>
       <r>     0.6922     0.0000   241.0000 </r>
       <r>     0.7326     0.0000   243.0000 </r>
       <r>     0.7730     0.0000   244.0000 </r>
       <r>     0.8135     0.0000   245.0000 </r>
       <r>     0.8539     0.0000   246.0000 </r>
       <r>     0.8943     0.0000   247.0000 </r>
       <r>     0.9347     0.0000   248.0000 </r>
       <r>     0.9751     0.0000   248.0000 </r>
       <r>     1.0155     0.0000   251.0000 </r>
       <r>     1.0560     0.0000   253.0000 </r>
       <r>     1.0964     0.0000   257.0000 </r>
       <r>     1.1368     0.0000   258.0000 </r>
       <r>     1.1772     0.0000   260.0000 </r>
       <r>     1.2176     0.0000   261.0000 </r>
       <r>     1.2581     0.0000   262.0000 </r>
       <r>     1.2985     0.0000   263.0000 </r>
       <r>     1.3389     0.0000   264.0000 </r>
       <r>     1.3793     0.0000   264.0000 </r>
       <r>     1.4197     0.0000   264.0000 </r>
       <r>     1.4602     0.0000   264.0000 </r>
       <r>     1.5006     0.0000   264.0000 </r>
       <r>     1.5410     0.0000   264.0000 </r>
       <r>     1.5814     0.0000   264.0000 </r>
       <r>     1.6218     0.0000   264.0000 </r>
       <r>     1.6622     0.0000   264.0000 </r>
       <r>     1.7027     0.0000   264.0000 </r>
       <r>     1.7431     0.0000   264.0000 </r>
       <r>     1.7835     0.0000   264.0000 </r>
       <r>     1.8239     0.0000   264.0000 </r>
       <r>     1.8643     0.0000   264.0000 </r>
      </set>
     </set>
    </array>
   </total>
  </dos>
 </calculation>
 <structure name="finalpos" >
  <crystal>
   <varray name="basis" >
    <v>      22.67129732       0.00000000       0.00000000 </v>
    <v>       0.00000000      22.67129732       0.00000000 </v>
    <v>       0.00000000       0.00000000      22.67129732 </v>
   </varray>
   <i name="volume">  11652.76847221 </i>
   <varray name="rec_basis" >
    <v>       0.04410864       0.00000000       0.00000000 </v>
    <v>       0.00000000       0.04410864       0.00000000 </v>
    <v>       0.00000000       0.00000000       0.04410864 </v>
   </varray>
  </crystal>
  <varray name="positions" >
   <v>       0.67259315       0.53329497       0.38963212 </v>
   <v>       0.58328202       0.61057500       0.43561925 </v>
   <v>       0.68528830       0.58744382       0.50328476 </v>
   <v>       0.58928017       0.65837080       0.55268804 </v>
   <v>       0.67478530       0.60937520       0.62904955 </v>
   <v>       0.70988608       0.50042990       0.59449846 </v>
   <v>       0.48510723       0.67451965       0.48460000 </v>
   <v>       0.56258773       0.61262181       0.67537144 </v>
   <v>       0.48034300       0.61014353       0.58943276 </v>
   <v>       0.67095418       0.45778543       0.48790115 </v>
   <v>       0.64602325       0.40726565       0.37755673 </v>
   <v>       0.56623047       0.55344719       0.32524073 </v>
   <v>       0.47244179       0.61997207       0.37292201 </v>
   <v>       0.37655450       0.68138862       0.42329297 </v>
   <v>       0.56407358       0.48072976       0.42665477 </v>
   <v>       0.62095003       0.50324646       0.68242790 </v>
   <v>       0.58637973       0.53509529       0.56022320 </v>
   <v>       0.47633483       0.54870004       0.47965702 </v>
   <v>       0.37453626       0.61528375       0.53101713 </v>
   <v>       0.62153924       0.41400157       0.59269400 </v>
   <v>       0.36585105       0.56031801       0.41359197 </v>
   <v>       0.49740989       0.50658391       0.65858955 </v>
   <v>       0.45561742       0.49689559       0.35899316 </v>
   <v>       0.54662228       0.43287621       0.30763096 </v>
   <v>       0.58610794       0.36317782       0.48031548 </v>
   <v>       0.39761455       0.57906125       0.67108217 </v>
   <v>       0.50873345       0.44213828       0.53621996 </v>
   <v>       0.27325379       0.62689415       0.46494951 </v>
   <v>       0.40299327       0.50321193       0.57737778 </v>
   <v>       0.39669328       0.44800039       0.45772874 </v>
   <v>       0.54723819       0.40069371       0.69060653 </v>
   <v>       0.48905060       0.38212602       0.40503257 </v>
   <v>       0.30118902       0.51310868       0.50998390 </v>
   <v>       0.53329185       0.32756414       0.58967072 </v>
   <v>       0.43691106       0.39589441       0.63195327 </v>
   <v>       0.43888830       0.34312276       0.51125031 </v>
   <v>       0.33800577       0.40076382       0.55617335 </v>
  </varray>
 </structure>
</modeling>
