 vasp.5.3.5 31Mar14 (build Feb 01 2018 12:10:03) gamma-only                     
  
 executed on             LinuxIFC date 2019.04.02  23:54:27
 running on   32 total cores
 distrk:  each k-point on   32 cores,    1 groups
 distr:  one band on NCORES_PER_BAND=   8 cores,    4 groups


--------------------------------------------------------------------------------------------------------


 INCAR:
 POTCAR:    PAW_PBE Ag 02Apr2005                  
 POTCAR:    PAW_PBE Ag 02Apr2005                  
   VRHFIN =Ag : s1 d10                                                          
   LEXCH  = PE                                                                  
   EATOM  =  1037.2675 eV,   76.2370 Ry                                         
                                                                                
   TITEL  = PAW_PBE Ag 02Apr2005                                                
   LULTRA =        F    use ultrasoft PP ?                                      
   IUNSCR =        1    unscreen: 0-lin 1-nonlin 2-no                           
   RPACOR =    2.000    partial core radius                                     
   POMASS =  107.868; ZVAL   =   11.000    mass and valenz                      
   RCORE  =    2.500    outmost cutoff radius                                   
   RWIGS  =    2.840; RWIGS  =    1.503    wigner-seitz radius (au A)           
   ENMAX  =  249.844; ENMIN  =  187.383 eV                                      
   ICORE  =        3    local potential                                         
   LCOR   =        T    correct aug charges                                     
   LPAW   =        T    paw PP                                                  
   EAUG   =  412.496                                                            
   DEXC   =    0.000                                                            
   RMAX   =    2.560    core radius for proj-oper                               
   RAUG   =    1.300    factor for augmentation sphere                          
   RDEP   =    2.576    radius for radial grids                                 
   RDEPT  =    2.072    core radius for aug-charge                              
                                                                                
   Atomic configuration                                                         
   12 entries                                                                   
     n  l   j            E        occ.                                          
     1  0  0.50    -25324.9161   2.0000                                         
     2  0  0.50     -3728.5341   2.0000                                         
     2  1  1.50     -3344.0404   6.0000                                         
     3  0  0.50      -683.5581   2.0000                                         
     3  1  1.50      -557.3225   6.0000                                         
     3  2  2.50      -358.3853  10.0000                                         
     4  0  0.50       -95.0341   2.0000                                         
     4  1  1.50       -58.5511   6.0000                                         
     4  2  2.50        -7.4440  10.0000                                         
     5  0  0.50        -4.4045   1.0000                                         
     5  1  0.50        -1.3606   0.0000                                         
     4  3  2.50        -1.3606   0.0000                                         
   Description                                                                  
     l       E           TYP  RCUT    TYP  RCUT                                 
     2     -7.4439781     23  2.400                                             
     2     -8.8045607     23  2.400                                             
     0     -4.4044681     23  2.400                                             
     0      1.9520038     23  2.400                                             
     1     -1.3605826     23  2.500                                             
     1     27.2116520     23  2.500                                             
     3     -4.0817478     23  2.400                                             
  local pseudopotential read in
  partial core-charges read in
  partial kinetic energy density read in
  atomic valenz-charges read in
  non local Contribution for L=           2  read in
    real space projection operators read in
  non local Contribution for L=           2  read in
    real space projection operators read in
  non local Contribution for L=           0  read in
    real space projection operators read in
  non local Contribution for L=           0  read in
    real space projection operators read in
  non local Contribution for L=           1  read in
    real space projection operators read in
  non local Contribution for L=           1  read in
    real space projection operators read in
    PAW grid and wavefunctions read in
 
   number of l-projection  operators is LMAX  =           6
   number of lm-projection operators is LMMAX =          18
 
  PAW_PBE Ag 02Apr2005                  :
 energy of atom  1       EATOM=-1037.2675
 kinetic energy error for atom=    0.0047 (will be added to EATOM!!)
 
 
 POSCAR: Pb11, -34.84133003 <s> Ag </s>          
  positions in direct lattice
  velocities in cartesian coordinates
 exchange correlation table for  LEXCH =        8
   RHO(1)=    0.500       N(1)  =     2000
   RHO(2)=  100.500       N(2)  =     4000
 


--------------------------------------------------------------------------------------------------------


 ion  position               nearest neighbor table
   1  0.418  0.435  0.268-   2 2.72   4 2.76   3 2.83   5 2.85
   2  0.292  0.473  0.300-   8 2.71   1 2.72   3 2.94   5 2.95
   3  0.404  0.507  0.388-   9 2.78   1 2.83   8 2.84   5 2.85  10 2.85   4 2.88   2 2.94
   4  0.499  0.402  0.374-   1 2.76   9 2.78   7 2.79   6 2.79   5 2.84   3 2.88  10 3.60
   5  0.361  0.373  0.383-   7 2.79   8 2.84   4 2.84   3 2.85   1 2.85  10 2.86   2 2.95
   6  0.583  0.372  0.482-  11 2.72   4 2.79   9 2.85   7 2.87
   7  0.451  0.317  0.473-   4 2.79   5 2.79  10 2.80  11 2.86   6 2.87
   8  0.275  0.472  0.434-   2 2.71  10 2.76   3 2.84   5 2.84
   9  0.508  0.492  0.479-   4 2.78   3 2.78  10 2.79   6 2.85  11 2.85
  10  0.385  0.434  0.508-   8 2.76  11 2.79   9 2.79   7 2.80   3 2.85   5 2.86   4 3.60
  11  0.496  0.396  0.583-   6 2.72  10 2.79   9 2.85   7 2.86
 
  LATTYP: Found a simple cubic cell.
 ALAT       =    20.0855141862
  
  Lattice vectors:
  
 A1 = (  20.0855141862,   0.0000000000,   0.0000000000)
 A2 = (   0.0000000000,  20.0855141862,   0.0000000000)
 A3 = (   0.0000000000,   0.0000000000,  20.0855141862)


Analysis of symmetry for initial positions (statically):
=====================================================================
 Subroutine PRICEL returns:
 Original cell was already a primitive cell.
 

 Routine SETGRP: Setting up the symmetry group for a 
 simple cubic supercell.


 Subroutine GETGRP returns: Found  1 space group operations
 (whereof  1 operations were pure point group operations)
 out of a pool of 48 trial point group operations.


The static configuration has the point symmetry C_1 .


Analysis of symmetry for dynamics (positions and initial velocities):
=====================================================================
 Subroutine PRICEL returns:
 Original cell was already a primitive cell.
 

 Routine SETGRP: Setting up the symmetry group for a 
 simple cubic supercell.


 Subroutine GETGRP returns: Found  1 space group operations
 (whereof  1 operations were pure point group operations)
 out of a pool of 48 trial point group operations.


The dynamic configuration has the point symmetry C_1 .


Analysis of magnetic symmetry:
=====================================================================
 Subroutine PRICEL returns:
 Original cell was already a primitive cell.
 

 Subroutine MAGSYM returns: Found  1 space group operations
 (whereof  1 operations were pure point group operations)
 out of a pool of  1 trial space group operations
 (whereof  1 operations were pure point group operations)
 and found also     1 'primitive' translations


The magnetic configuration has the point symmetry C_1 .
 
 
 KPOINTS: Gamma-point only                        
  k-points in reciprocal lattice
Space group operators:
 irot       det(A)        alpha          n_x          n_y          n_z        tau_x        tau_y        tau_z
    1     1.000000     0.000001     1.000000     0.000000     0.000000     0.000000     0.000000     0.000000


--------------------------------------------------------------------------------------------------------




 Dimension of arrays:
   k-points           NKPTS =      1   k-points in BZ     NKDIM =      1   number of bands    NBANDS=     80
   number of dos      NEDOS =    301   number of ions     NIONS =     11
   non local maximal  LDIM  =      6   non local SUM 2l+1 LMDIM =     18
   total plane-waves  NPLWV = ******
   max r-space proj   IRMAX =      1   max aug-charges    IRDMAX=   8723
   dimension x,y,z NGX =   112 NGY =  112 NGZ =  112
   dimension x,y,z NGXF=   224 NGYF=  224 NGZF=  224
   support grid    NGXF=   224 NGYF=  224 NGZF=  224
   ions per type =              11
 NGX,Y,Z   is equivalent  to a cutoff of   9.27,  9.27,  9.27 a.u.
 NGXF,Y,Z  is equivalent  to a cutoff of  18.54, 18.54, 18.54 a.u.


 I would recommend the setting:
   dimension x,y,z NGX =   112 NGY =  112 NGZ =  112
 SYSTEM =  unknown system                          
 POSCAR =  Pb11, -34.84133003 <s> Ag </s>          

 Startparameter for this run:
   NWRITE =      2    write-flag & timer
   PREC   = normal    normal or accurate (medium, high low for compatibility)
   ISTART =      0    job   : 0-new  1-cont  2-samecut
   ICHARG =      2    charge: 1-file 2-atom 10-const
   ISPIN  =      2    spin polarized calculation?
   LNONCOLLINEAR =      F non collinear calculations
   LSORBIT =      F    spin-orbit coupling
   INIWAV =      1    electr: 0-lowe 1-rand  2-diag
   LASPH  =      F    aspherical Exc in radial PAW
   METAGGA=      F    non-selfconsistent MetaGGA calc.

 Electronic Relaxation 1
   ENCUT  =  520.0 eV  38.22 Ry    6.18 a.u.  37.35 37.35 37.35*2*pi/ulx,y,z
   ENINI  =  520.0     initial cutoff
   ENAUG  =  412.5 eV  augmentation charge cutoff
   NELM   =     60;   NELMIN=  2; NELMDL= -5     # of ELM steps 
   EDIFF  = 0.5E-04   stopping-criterion for ELM
   LREAL  =      F    real-space projection
   NLSPLINE    = F    spline interpolate recip. space projectors
   LCOMPAT=      F    compatible to vasp.4.4
   GGA_COMPAT  = T    GGA compatible to vasp.4.4-vasp.4.6
   LMAXPAW     = -100 max onsite density
   LMAXMIX     =    2 max onsite mixed and CHGCAR
   VOSKOWN=      0    Vosko Wilk Nusair interpolation
   ROPT   =    0.00000
 Ionic relaxation
   EDIFFG = 0.5E-03   stopping-criterion for IOM
   NSW    =   1000    number of steps for IOM
   NBLOCK =      1;   KBLOCK =   1000    inner block; outer block 
   IBRION =      2    ionic relax: 0-MD 1-quasi-New 2-CG
   NFREE  =      1    steps in history (QN), initial steepest desc. (CG)
   ISIF   =      2    stress and relaxation
   IWAVPR =     11    prediction:  0-non 1-charg 2-wave 3-comb
   ISYM   =      2    0-nonsym 1-usesym 2-fastsym
   LCORR  =      T    Harris-Foulkes like correction to forces

   POTIM  = 0.1000    time-step for ionic-motion
   TEIN   =    0.0    initial temperature
   TEBEG  =    0.0;   TEEND  =   0.0 temperature during run
   SMASS  =  -3.00    Nose mass-parameter (am)
   estimated Nose-frequenzy (Omega)   =  0.10E-29 period in steps =****** mass=  -0.922E-26a.u.
   SCALEE = 1.0000    scale energy and forces
   NPACO  =    256;   APACO  = 16.0  distance and # of slots for P.C.
   PSTRESS=    0.0 pullay stress

  Mass of Ions in am
   POMASS = 107.87
  Ionic Valenz
   ZVAL   =  11.00
  Atomic Wigner-Seitz radii
   RWIGS  =  -1.00
  virtual crystal weights 
   VCA    =   1.00
   NELECT =     121.0000    total number of electrons
   NUPDOWN=      -1.0000    fix difference up-down

 DOS related values:
   EMIN   =  10.00;   EMAX   =-10.00  energy-range for DOS
   EFERMI =   0.00
   ISMEAR =     0;   SIGMA  =   0.00  broadening in eV -4-tet -1-fermi 0-gaus

 Electronic relaxation 2 (details)
   IALGO  =     38    algorithm
   LDIAG  =      T    sub-space diagonalisation (order eigenvalues)
   LSUBROT=      F    optimize rotation matrix (better conditioning)
   TURBO    =      0    0=normal 1=particle mesh
   IRESTART =      0    0=no restart 2=restart with 2 vectors
   NREBOOT  =      0    no. of reboots
   NMIN     =      0    reboot dimension
   EREF     =   0.00    reference energy to select bands
   IMIX   =      4    mixing-type and parameters
     AMIX     =   0.40;   BMIX     =  1.00
     AMIX_MAG =   1.60;   BMIX_MAG =  1.00
     AMIN     =   0.10
     WC   =   100.;   INIMIX=   1;  MIXPRE=   1;  MAXMIX= -45

 Intra band minimization:
   WEIMIN = 0.0010     energy-eigenvalue tresh-hold
   EBREAK =  0.16E-06  absolut break condition
   DEPER  =   0.30     relativ break condition  

   TIME   =   0.40     timestep for ELM

  volume/ion in A,a.u.               =     736.64      4971.10
  Fermi-wavevector in a.u.,A,eV,Ry     =   0.403138  0.761820  2.211221  0.162520
  Thomas-Fermi vector in A             =   1.353882
 
 Write flags
   LWAVE  =      F    write WAVECAR
   LCHARG =      F    write CHGCAR
   LVTOT  =      F    write LOCPOT, total local potential
   LVHAR  =      F    write LOCPOT, Hartree potential only
   LELF   =      F    write electronic localiz. function (ELF)
   LORBIT =      0    0 simple, 1 ext, 2 COOP (PROOUT)


 Dipole corrections
   LMONO  =      F    monopole corrections only (constant potential shift)
   LDIPOL =      F    correct potential (dipole corrections)
   IDIPOL =      0    1-x, 2-y, 3-z, 4-all directions 
   EPSILON=  1.0000000 bulk dielectric constant

 Exchange correlation treatment:
   GGA     =    PE    GGA type
   LEXCH   =     8    internal setting for exchange type
   VOSKOWN=      0    Vosko Wilk Nusair interpolation
   LHFCALC =     F    Hartree Fock is set to
   LHFONE  =     F    Hartree Fock one center treatment
   AEXX    =    0.0000 exact exchange contribution

 Linear response parameters
   LEPSILON=     F    determine dielectric tensor
   LRPA    =     F    only Hartree local field effects (RPA)
   LNABLA  =     F    use nabla operator in PAW spheres
   LVEL    =     F    velocity operator in full k-point grid
   LINTERFAST=   F  fast interpolation
   KINTER  =     0    interpolate to denser k-point grid
   CSHIFT  =0.1000    complex shift for real part using Kramers Kronig
   OMEGAMAX=  -1.0    maximum frequency
   DEG_THRESHOLD= 0.2000000E-02 threshold for treating states as degnerate
   RTIME   =    0.100 relaxation time in fs

 Orbital magnetization related:
   ORBITALMAG=     F  switch on orbital magnetization
   LCHIMAG   =     F  perturbation theory with respect to B field
   DQ        =  0.001000  dq finite difference perturbation B field



--------------------------------------------------------------------------------------------------------


 conjugate gradient relaxation of ions
 charge density and potential will be updated during run
 spin polarized calculation
 Variant of blocked Davidson
 Davidson routine will perform the subspace rotation
 perform sub-space diagonalisation
    after iterative eigenvector-optimisation
 modified Broyden-mixing scheme, WC =      100.0
 initial mixing is a Kerker type mixing with AMIX =  0.4000 and BMIX =      1.0000
 Hartree-type preconditioning will be used
 using additional bands           19
 reciprocal scheme for non local part
 use partial core corrections
 calculate Harris-corrections to forces 
   (improved forces if not selfconsistent)
 use gradient corrections 
 use of overlap-Matrix (Vanderbilt PP)
 Gauss-broadening in eV      SIGMA  =   0.00


--------------------------------------------------------------------------------------------------------


  energy-cutoff  :      520.00
  volume of cell :     8103.06
      direct lattice vectors                 reciprocal lattice vectors
    20.085514186  0.000000000  0.000000000     0.049787125  0.000000000  0.000000000
     0.000000000 20.085514186  0.000000000     0.000000000  0.049787125  0.000000000
     0.000000000  0.000000000 20.085514186     0.000000000  0.000000000  0.049787125

  length of vectors
    20.085514186 20.085514186 20.085514186     0.049787125  0.049787125  0.049787125


 
 k-points in units of 2pi/SCALE and weight: Gamma-point only                        
   0.00000000  0.00000000  0.00000000       1.000
 
 k-points in reciprocal lattice and weights: Gamma-point only                        
   0.00000000  0.00000000  0.00000000       1.000
 
 position of ions in fractional coordinates (direct lattice) 
   0.41845669  0.43451511  0.26846421
   0.29239189  0.47266639  0.30020652
   0.40410071  0.50745692  0.38809482
   0.49949617  0.40161689  0.37440650
   0.36119590  0.37257368  0.38253392
   0.58255936  0.37170981  0.48189252
   0.45080996  0.31689105  0.47315055
   0.27541602  0.47226539  0.43429558
   0.50784026  0.49236463  0.47875874
   0.38488529  0.43445897  0.50835243
   0.49562496  0.39625838  0.58262142
 
 position of ions in cartesian coordinates  (Angst):
   8.40491784  8.72745935  5.39224171
   5.87284142  9.49374750  6.02980229
   8.11657050 10.19253312  7.79508406
  10.03263734  8.06668170  7.52014708
   7.25480539  7.48333401  7.68339042
  11.70100433  7.46598262  9.67905900
   9.05474983  6.36491978  9.50347210
   5.53187244  9.48569312  8.72305008
  10.20023282  9.88939670  9.61611556
   7.73061899  8.72633185 10.21051985
   9.95488210  7.95905324 11.70225084
 


--------------------------------------------------------------------------------------------------------


 use parallel FFT for wavefunctions z direction half grid
 k-point  1 :   0.0000 0.0000 0.0000  plane waves:  109120

 maximum and minimum number of plane-waves per node :     13644    13636

 maximum number of plane-waves:    109120
 maximum index in each direction: 
   IXMAX=   37   IYMAX=   37   IZMAX=   37
   IXMIN=  -37   IYMIN=  -37   IZMIN=    0

 WARNING: aliasing errors must be expected set NGX to 150 to avoid them
 WARNING: aliasing errors must be expected set NGY to 150 to avoid them
 WARNING: aliasing errors must be expected set NGZ to 150 to avoid them
 aliasing errors are usually negligible using standard VASP settings
 and one can safely disregard these warnings

 parallel 3D FFT for wavefunctions:
    minimum data exchange during FFTs selected (reduces bandwidth)
 parallel 3D FFT for charge:
    minimum data exchange during FFTs selected (reduces bandwidth)


 total amount of memory used by VASP on root node    98407. kBytes
========================================================================

   base      :      30000. kBytes
   nonl-proj :       4366. kBytes
   fftplans  :      15704. kBytes
   grid      :      39563. kBytes
   one-center:         31. kBytes
   wavefun   :       8743. kBytes
 
     INWAV:  cpu time    0.00: real time    0.00
 Broyden mixing: mesh for mixing (old mesh)
   NGX = 75   NGY = 75   NGZ = 75
  (NGX  =224   NGY  =224   NGZ  =224)
  gives a total of 421875 points

 initial charge density was supplied:
 charge density of overlapping atoms calculated
 number of electron     121.0000000 magnetization      11.0000000
 keeping initial charge density in first step


--------------------------------------------------------------------------------------------------------


 Maximum index for augmentation-charges          490 (set IRDMAX)


--------------------------------------------------------------------------------------------------------


 First call to EWALD:  gamma=   0.088
 Maximum number of real-space cells 3x 3x 3
 Maximum number of reciprocal cells 3x 3x 3

 FEWALD executed in parallel
    FEWALD:  cpu time    0.00: real time    0.00


----------------------------------------- Iteration    1(   1)  ---------------------------------------


    POTLOK:  cpu time    0.70: real time    0.70
    SETDIJ:  cpu time    0.01: real time    0.01
     EDDAV:  cpu time    3.01: real time    3.02
       DOS:  cpu time    0.00: real time    0.00
    --------------------------------------------
      LOOP:  cpu time    3.73: real time    3.75

 eigenvalue-minimisations  :   320
 total energy-change (2. order) : 0.1092593E+04  (-0.2597898E+04)
 number of electron     121.0000000 magnetization      11.0000000
 augmentation part      121.0000000 magnetization      11.0000000

 Free energy of the ion-electron system (eV)
  ---------------------------------------------------
  alpha Z        PSCENC =        12.70137355
  Ewald energy   TEWEN  =     12453.46285566
  -Hartree energ DENC   =    -23357.47894404
  -exchange      EXHF   =         0.00000000
  -V(xc)+E(xc)   XCENC  =      -123.19353428
  PAW double counting   =     11037.09395877   -10529.91069767
  entropy T*S    EENTRO =         0.00000000
  eigenvalues    EBANDS =       190.02726963
  atomic energy  EATOM  =     11409.89059604
  ---------------------------------------------------
  free energy    TOTEN  =      1092.59287765 eV

  energy without entropy =     1092.59287765  energy(sigma->0) =     1092.59287765


--------------------------------------------------------------------------------------------------------




----------------------------------------- Iteration    1(   2)  ---------------------------------------


     EDDAV:  cpu time    4.82: real time    4.82
       DOS:  cpu time    0.00: real time    0.00
    --------------------------------------------
      LOOP:  cpu time    4.82: real time    4.83

 eigenvalue-minimisations  :   584
 total energy-change (2. order) :-0.6888324E+03  (-0.6066010E+03)
 number of electron     121.0000000 magnetization      11.0000000
 augmentation part      121.0000000 magnetization      11.0000000

 Free energy of the ion-electron system (eV)
  ---------------------------------------------------
  alpha Z        PSCENC =        12.70137355
  Ewald energy   TEWEN  =     12453.46285566
  -Hartree energ DENC   =    -23357.47894404
  -exchange      EXHF   =         0.00000000
  -V(xc)+E(xc)   XCENC  =      -123.19353428
  PAW double counting   =     11037.09395877   -10529.91069767
  entropy T*S    EENTRO =         0.00000000
  eigenvalues    EBANDS =      -498.80508355
  atomic energy  EATOM  =     11409.89059604
  ---------------------------------------------------
  free energy    TOTEN  =       403.76052447 eV

  energy without entropy =      403.76052447  energy(sigma->0) =      403.76052447


--------------------------------------------------------------------------------------------------------




----------------------------------------- Iteration    1(   3)  ---------------------------------------


     EDDAV:  cpu time    4.05: real time    4.05
       DOS:  cpu time    0.00: real time    0.00
    --------------------------------------------
      LOOP:  cpu time    4.05: real time    4.06

 eigenvalue-minimisations  :   472
 total energy-change (2. order) :-0.3866596E+03  (-0.3584721E+03)
 number of electron     121.0000000 magnetization      11.0000000
 augmentation part      121.0000000 magnetization      11.0000000

 Free energy of the ion-electron system (eV)
  ---------------------------------------------------
  alpha Z        PSCENC =        12.70137355
  Ewald energy   TEWEN  =     12453.46285566
  -Hartree energ DENC   =    -23357.47894404
  -exchange      EXHF   =         0.00000000
  -V(xc)+E(xc)   XCENC  =      -123.19353428
  PAW double counting   =     11037.09395877   -10529.91069767
  entropy T*S    EENTRO =         0.00000000
  eigenvalues    EBANDS =      -885.46466683
  atomic energy  EATOM  =     11409.89059604
  ---------------------------------------------------
  free energy    TOTEN  =        17.10094119 eV

  energy without entropy =       17.10094119  energy(sigma->0) =       17.10094119


--------------------------------------------------------------------------------------------------------




----------------------------------------- Iteration    1(   4)  ---------------------------------------


     EDDAV:  cpu time    3.28: real time    3.28
       DOS:  cpu time    0.00: real time    0.00
    --------------------------------------------
      LOOP:  cpu time    3.28: real time    3.29

 eigenvalue-minimisations  :   360
 total energy-change (2. order) :-0.3641483E+02  (-0.3569734E+02)
 number of electron     121.0000000 magnetization      11.0000000
 augmentation part      121.0000000 magnetization      11.0000000

 Free energy of the ion-electron system (eV)
  ---------------------------------------------------
  alpha Z        PSCENC =        12.70137355
  Ewald energy   TEWEN  =     12453.46285566
  -Hartree energ DENC   =    -23357.47894404
  -exchange      EXHF   =         0.00000000
  -V(xc)+E(xc)   XCENC  =      -123.19353428
  PAW double counting   =     11037.09395877   -10529.91069767
  entropy T*S    EENTRO =         0.00000000
  eigenvalues    EBANDS =      -921.87949392
  atomic energy  EATOM  =     11409.89059604
  ---------------------------------------------------
  free energy    TOTEN  =       -19.31388589 eV

  energy without entropy =      -19.31388589  energy(sigma->0) =      -19.31388589


--------------------------------------------------------------------------------------------------------




----------------------------------------- Iteration    1(   5)  ---------------------------------------


     EDDAV:  cpu time    3.28: real time    3.28
       DOS:  cpu time    0.00: real time    0.00
    CHARGE:  cpu time    0.26: real time    0.26
    MIXING:  cpu time    0.02: real time    0.02
    --------------------------------------------
      LOOP:  cpu time    3.56: real time    3.56

 eigenvalue-minimisations  :   360
 total energy-change (2. order) :-0.6380717E+00  (-0.6363946E+00)
 number of electron     120.9999977 magnetization       9.5738413
 augmentation part       57.3431593 magnetization       8.8300317

 Broyden mixing:
  rms(total) = 0.17841E+01    rms(broyden)= 0.17841E+01
  rms(prec ) = 0.18200E+01
  weight for this iteration     100.00

 Free energy of the ion-electron system (eV)
  ---------------------------------------------------
  alpha Z        PSCENC =        12.70137355
  Ewald energy   TEWEN  =     12453.46285566
  -Hartree energ DENC   =    -23357.47894404
  -exchange      EXHF   =         0.00000000
  -V(xc)+E(xc)   XCENC  =      -123.19353428
  PAW double counting   =     11037.09395877   -10529.91069767
  entropy T*S    EENTRO =         0.00000000
  eigenvalues    EBANDS =      -922.51756561
  atomic energy  EATOM  =     11409.89059604
  ---------------------------------------------------
  free energy    TOTEN  =       -19.95195758 eV

  energy without entropy =      -19.95195758  energy(sigma->0) =      -19.95195758


--------------------------------------------------------------------------------------------------------




----------------------------------------- Iteration    1(   6)  ---------------------------------------


    POTLOK:  cpu time    0.69: real time    0.69
    SETDIJ:  cpu time    0.01: real time    0.01
     EDDAV:  cpu time    3.10: real time    3.11
       DOS:  cpu time    0.00: real time    0.00
    CHARGE:  cpu time    0.26: real time    0.26
    MIXING:  cpu time    0.02: real time    0.02
    --------------------------------------------
      LOOP:  cpu time    4.09: real time    4.09

 eigenvalue-minimisations  :   336
 total energy-change (2. order) : 0.1611354E+02  (-0.4398486E+01)
 number of electron     120.9999976 magnetization       8.4652519
 augmentation part       58.4057850 magnetization       6.6598132

 Broyden mixing:
  rms(total) = 0.93552E+00    rms(broyden)= 0.93552E+00
  rms(prec ) = 0.95386E+00
  weight for this iteration     100.00

 eigenvalues of (default mixing * dielectric matrix)
  average eigenvalue GAMMA=   0.8351
  0.8351

 Free energy of the ion-electron system (eV)
  ---------------------------------------------------
  alpha Z        PSCENC =        12.70137355
  Ewald energy   TEWEN  =     12453.46285566
  -Hartree energ DENC   =    -23327.18151152
  -exchange      EXHF   =         0.00000000
  -V(xc)+E(xc)   XCENC  =      -114.76143934
  PAW double counting   =     11356.68847736   -10856.05418524
  entropy T*S    EENTRO =         0.00000000
  eigenvalues    EBANDS =      -938.58458569
  atomic energy  EATOM  =     11409.89059604
  ---------------------------------------------------
  free energy    TOTEN  =        -3.83841920 eV

  energy without entropy =       -3.83841920  energy(sigma->0) =       -3.83841920


--------------------------------------------------------------------------------------------------------




----------------------------------------- Iteration    1(   7)  ---------------------------------------


    POTLOK:  cpu time    0.68: real time    0.69
    SETDIJ:  cpu time    0.01: real time    0.01
     EDDAV:  cpu time    3.16: real time    3.17
       DOS:  cpu time    0.00: real time    0.00
    CHARGE:  cpu time    0.26: real time    0.25
    MIXING:  cpu time    0.02: real time    0.02
    --------------------------------------------
      LOOP:  cpu time    4.14: real time    4.55

 eigenvalue-minimisations  :   344
 total energy-change (2. order) : 0.4478670E+01  (-0.3067054E+00)
 number of electron     120.9999976 magnetization       6.9987372
 augmentation part       58.3567183 magnetization       5.3356143

 Broyden mixing:
  rms(total) = 0.54534E+00    rms(broyden)= 0.54534E+00
  rms(prec ) = 0.55828E+00
  weight for this iteration     100.00

 eigenvalues of (default mixing * dielectric matrix)
  average eigenvalue GAMMA=   0.9044
  0.7128  1.0960

 Free energy of the ion-electron system (eV)
  ---------------------------------------------------
  alpha Z        PSCENC =        12.70137355
  Ewald energy   TEWEN  =     12453.46285566
  -Hartree energ DENC   =    -23354.70556811
  -exchange      EXHF   =         0.00000000
  -V(xc)+E(xc)   XCENC  =      -110.54211685
  PAW double counting   =     11555.94716108   -11059.77731791
  entropy T*S    EENTRO =         0.00000000
  eigenvalues    EBANDS =      -906.33673224
  atomic energy  EATOM  =     11409.89059604
  ---------------------------------------------------
  free energy    TOTEN  =         0.64025122 eV

  energy without entropy =        0.64025122  energy(sigma->0) =        0.64025122


--------------------------------------------------------------------------------------------------------




----------------------------------------- Iteration    1(   8)  ---------------------------------------


    POTLOK:  cpu time    0.69: real time    0.69
    SETDIJ:  cpu time    0.01: real time    0.01
     EDDAV:  cpu time    3.27: real time    3.27
       DOS:  cpu time    0.00: real time    0.00
    CHARGE:  cpu time    0.25: real time    0.25
    MIXING:  cpu time    0.02: real time    0.02
    --------------------------------------------
      LOOP:  cpu time    4.25: real time    4.26

 eigenvalue-minimisations  :   360
 total energy-change (2. order) :-0.4234036E+01  (-0.1673639E+00)
 number of electron     120.9999976 magnetization       5.7935217
 augmentation part       58.2138235 magnetization       4.2633245

 Broyden mixing:
  rms(total) = 0.27567E+00    rms(broyden)= 0.27567E+00
  rms(prec ) = 0.28082E+00
  weight for this iteration     100.00

 eigenvalues of (default mixing * dielectric matrix)
  average eigenvalue GAMMA=   1.1674
  0.6224  0.9388  1.9410

 Free energy of the ion-electron system (eV)
  ---------------------------------------------------
  alpha Z        PSCENC =        12.70137355
  Ewald energy   TEWEN  =     12453.46285566
  -Hartree energ DENC   =    -23385.35691772
  -exchange      EXHF   =         0.00000000
  -V(xc)+E(xc)   XCENC  =      -113.48798265
  PAW double counting   =     11759.19603254   -11267.17523974
  entropy T*S    EENTRO =         0.00000000
  eigenvalues    EBANDS =      -872.82450273
  atomic energy  EATOM  =     11409.89059604
  ---------------------------------------------------
  free energy    TOTEN  =        -3.59378505 eV

  energy without entropy =       -3.59378505  energy(sigma->0) =       -3.59378505


--------------------------------------------------------------------------------------------------------




----------------------------------------- Iteration    1(   9)  ---------------------------------------


    POTLOK:  cpu time    0.69: real time    0.69
    SETDIJ:  cpu time    0.01: real time    0.01
     EDDAV:  cpu time    3.27: real time    3.28
       DOS:  cpu time    0.00: real time    0.00
    CHARGE:  cpu time    0.26: real time    0.25
    MIXING:  cpu time    0.02: real time    0.02
    --------------------------------------------
      LOOP:  cpu time    4.25: real time    4.27

 eigenvalue-minimisations  :   360
 total energy-change (2. order) :-0.4146044E+01  (-0.1449986E+00)
 number of electron     120.9999976 magnetization       4.4507886
 augmentation part       58.1878363 magnetization       3.0410913

 Broyden mixing:
  rms(total) = 0.16645E+00    rms(broyden)= 0.16645E+00
  rms(prec ) = 0.17151E+00
  weight for this iteration     100.00

 eigenvalues of (default mixing * dielectric matrix)
  average eigenvalue GAMMA=   1.2444
  0.6197  0.8286  1.7646  1.7646

 Free energy of the ion-electron system (eV)
  ---------------------------------------------------
  alpha Z        PSCENC =        12.70137355
  Ewald energy   TEWEN  =     12453.46285566
  -Hartree energ DENC   =    -23395.61713515
  -exchange      EXHF   =         0.00000000
  -V(xc)+E(xc)   XCENC  =      -116.50631885
  PAW double counting   =     11853.80492018   -11363.58179558
  entropy T*S    EENTRO =         0.00000000
  eigenvalues    EBANDS =      -861.89432461
  atomic energy  EATOM  =     11409.89059604
  ---------------------------------------------------
  free energy    TOTEN  =        -7.73982876 eV

  energy without entropy =       -7.73982876  energy(sigma->0) =       -7.73982876


--------------------------------------------------------------------------------------------------------




----------------------------------------- Iteration    1(  10)  ---------------------------------------


    POTLOK:  cpu time    0.69: real time    0.69
    SETDIJ:  cpu time    0.01: real time    0.01
     EDDAV:  cpu time    3.17: real time    3.17
       DOS:  cpu time    0.00: real time    0.00
    CHARGE:  cpu time    0.25: real time    0.25
    MIXING:  cpu time    0.02: real time    0.02
    --------------------------------------------
      LOOP:  cpu time    4.14: real time    4.17

 eigenvalue-minimisations  :   344
 total energy-change (2. order) :-0.5247161E+01  (-0.2737952E+00)
 number of electron     120.9999976 magnetization       3.4375234
 augmentation part       58.2447855 magnetization       2.1982878

 Broyden mixing:
  rms(total) = 0.11047E+00    rms(broyden)= 0.11047E+00
  rms(prec ) = 0.11245E+00
  weight for this iteration     100.00

 eigenvalues of (default mixing * dielectric matrix)
  average eigenvalue GAMMA=   1.3638
  2.7222  1.6722  0.8956  0.8956  0.6333

 Free energy of the ion-electron system (eV)
  ---------------------------------------------------
  alpha Z        PSCENC =        12.70137355
  Ewald energy   TEWEN  =     12453.46285566
  -Hartree energ DENC   =    -23390.25532383
  -exchange      EXHF   =         0.00000000
  -V(xc)+E(xc)   XCENC  =      -120.55893876
  PAW double counting   =     11849.25592573   -11359.04648552
  entropy T*S    EENTRO =         0.00000000
  eigenvalues    EBANDS =      -868.43699296
  atomic energy  EATOM  =     11409.89059604
  ---------------------------------------------------
  free energy    TOTEN  =       -12.98699010 eV

  energy without entropy =      -12.98699010  energy(sigma->0) =      -12.98699010


--------------------------------------------------------------------------------------------------------




----------------------------------------- Iteration    1(  11)  ---------------------------------------


    POTLOK:  cpu time    0.69: real time    0.69
    SETDIJ:  cpu time    0.01: real time    0.01
     EDDAV:  cpu time    3.22: real time    3.22
       DOS:  cpu time    0.00: real time    0.00
    CHARGE:  cpu time    0.25: real time    0.26
    MIXING:  cpu time    0.02: real time    0.02
    --------------------------------------------
      LOOP:  cpu time    4.20: real time    4.22

 eigenvalue-minimisations  :   352
 total energy-change (2. order) :-0.2883369E+01  (-0.1291650E+00)
 number of electron     120.9999976 magnetization       2.4690402
 augmentation part       58.2270990 magnetization       1.3178984

 Broyden mixing:
  rms(total) = 0.77191E-01    rms(broyden)= 0.77191E-01
  rms(prec ) = 0.81404E-01
  weight for this iteration     100.00

 eigenvalues of (default mixing * dielectric matrix)
  average eigenvalue GAMMA=   1.4980
  2.5415  2.5415  1.5139  0.9867  0.6340  0.7705

 Free energy of the ion-electron system (eV)
  ---------------------------------------------------
  alpha Z        PSCENC =        12.70137355
  Ewald energy   TEWEN  =     12453.46285566
  -Hartree energ DENC   =    -23390.68040373
  -exchange      EXHF   =         0.00000000
  -V(xc)+E(xc)   XCENC  =      -122.76367733
  PAW double counting   =     11851.95661416   -11362.01922292
  entropy T*S    EENTRO =         0.00000000
  eigenvalues    EBANDS =      -868.41849415
  atomic energy  EATOM  =     11409.89059604
  ---------------------------------------------------
  free energy    TOTEN  =       -15.87035873 eV

  energy without entropy =      -15.87035873  energy(sigma->0) =      -15.87035873


--------------------------------------------------------------------------------------------------------




----------------------------------------- Iteration    1(  12)  ---------------------------------------


    POTLOK:  cpu time    0.69: real time    0.69
    SETDIJ:  cpu time    0.01: real time    0.01
     EDDAV:  cpu time    3.23: real time    3.23
       DOS:  cpu time    0.00: real time    0.00
    CHARGE:  cpu time    0.25: real time    0.25
    MIXING:  cpu time    0.03: real time    0.03
    --------------------------------------------
      LOOP:  cpu time    4.21: real time    7.44

 eigenvalue-minimisations  :   352
 total energy-change (2. order) :-0.2072439E+01  (-0.8942840E-01)
 number of electron     120.9999976 magnetization       1.7550240
 augmentation part       58.2496653 magnetization       0.6642204

 Broyden mixing:
  rms(total) = 0.43903E-01    rms(broyden)= 0.43903E-01
  rms(prec ) = 0.46672E-01
  weight for this iteration     100.00

 eigenvalues of (default mixing * dielectric matrix)
  average eigenvalue GAMMA=   1.6407
  4.1605  2.5298  1.6125  1.0459  0.6402  0.6845  0.8117

 Free energy of the ion-electron system (eV)
  ---------------------------------------------------
  alpha Z        PSCENC =        12.70137355
  Ewald energy   TEWEN  =     12453.46285566
  -Hartree energ DENC   =    -23380.74053180
  -exchange      EXHF   =         0.00000000
  -V(xc)+E(xc)   XCENC  =      -124.59493192
  PAW double counting   =     11796.57431436   -11305.97393372
  entropy T*S    EENTRO =        -0.00000000
  eigenvalues    EBANDS =      -879.26254030
  atomic energy  EATOM  =     11409.89059604
  ---------------------------------------------------
  free energy    TOTEN  =       -17.94279813 eV

  energy without entropy =      -17.94279813  energy(sigma->0) =      -17.94279813


--------------------------------------------------------------------------------------------------------




----------------------------------------- Iteration    1(  13)  ---------------------------------------


    POTLOK:  cpu time    0.69: real time    0.69
    SETDIJ:  cpu time    0.01: real time    0.01
     EDDAV:  cpu time    3.17: real time    3.17
       DOS:  cpu time    0.00: real time    0.00
    CHARGE:  cpu time    0.26: real time    0.26
    MIXING:  cpu time    0.03: real time    0.03
    --------------------------------------------
      LOOP:  cpu time    4.16: real time    4.74

 eigenvalue-minimisations  :   344
 total energy-change (2. order) :-0.8830286E+00  (-0.2541862E-01)
 number of electron     120.9999976 magnetization       1.4971801
 augmentation part       58.2692560 magnetization       0.4367656

 Broyden mixing:
  rms(total) = 0.26968E-01    rms(broyden)= 0.26968E-01
  rms(prec ) = 0.29402E-01
  weight for this iteration     100.00

 eigenvalues of (default mixing * dielectric matrix)
  average eigenvalue GAMMA=   1.6475
  4.7251  2.2827  2.0997  1.1051  0.9357  0.6358  0.6978  0.6978

 Free energy of the ion-electron system (eV)
  ---------------------------------------------------
  alpha Z        PSCENC =        12.70137355
  Ewald energy   TEWEN  =     12453.46285566
  -Hartree energ DENC   =    -23373.95147212
  -exchange      EXHF   =         0.00000000
  -V(xc)+E(xc)   XCENC  =      -125.47600576
  PAW double counting   =     11775.30313239   -11284.50209542
  entropy T*S    EENTRO =         0.00000000
  eigenvalues    EBANDS =      -886.25421111
  atomic energy  EATOM  =     11409.89059604
  ---------------------------------------------------
  free energy    TOTEN  =       -18.82582678 eV

  energy without entropy =      -18.82582678  energy(sigma->0) =      -18.82582678


--------------------------------------------------------------------------------------------------------




----------------------------------------- Iteration    1(  14)  ---------------------------------------


    POTLOK:  cpu time    0.69: real time    0.69
    SETDIJ:  cpu time    0.01: real time    0.01
     EDDAV:  cpu time    3.28: real time    3.28
       DOS:  cpu time    0.00: real time    0.00
    CHARGE:  cpu time    0.26: real time    0.26
    MIXING:  cpu time    0.03: real time    0.03
    --------------------------------------------
      LOOP:  cpu time    4.27: real time    4.27

 eigenvalue-minimisations  :   360
 total energy-change (2. order) :-0.3522901E+00  (-0.2532493E-02)
 number of electron     120.9999976 magnetization       1.2499368
 augmentation part       58.2593679 magnetization       0.2004033

 Broyden mixing:
  rms(total) = 0.18028E-01    rms(broyden)= 0.18028E-01
  rms(prec ) = 0.20451E-01
  weight for this iteration     100.00

 eigenvalues of (default mixing * dielectric matrix)
  average eigenvalue GAMMA=   1.6853
  5.2313  2.6406  1.8029  1.6660  0.9162  0.9162  0.6473  0.6473  0.6994

 Free energy of the ion-electron system (eV)
  ---------------------------------------------------
  alpha Z        PSCENC =        12.70137355
  Ewald energy   TEWEN  =     12453.46285566
  -Hartree energ DENC   =    -23371.64719336
  -exchange      EXHF   =         0.00000000
  -V(xc)+E(xc)   XCENC  =      -125.83086795
  PAW double counting   =     11778.59040851   -11287.83829163
  entropy T*S    EENTRO =         0.00000000
  eigenvalues    EBANDS =      -888.50699770
  atomic energy  EATOM  =     11409.89059604
  ---------------------------------------------------
  free energy    TOTEN  =       -19.17811688 eV

  energy without entropy =      -19.17811688  energy(sigma->0) =      -19.17811688


--------------------------------------------------------------------------------------------------------




----------------------------------------- Iteration    1(  15)  ---------------------------------------


    POTLOK:  cpu time    0.69: real time    0.69
    SETDIJ:  cpu time    0.01: real time    0.01
     EDDAV:  cpu time    3.17: real time    3.17
       DOS:  cpu time    0.00: real time    0.00
    CHARGE:  cpu time    0.26: real time    0.26
    MIXING:  cpu time    0.03: real time    0.03
    --------------------------------------------
      LOOP:  cpu time    4.16: real time    4.17

 eigenvalue-minimisations  :   344
 total energy-change (2. order) :-0.3667734E+00  (-0.2028686E-02)
 number of electron     120.9999976 magnetization       1.1092085
 augmentation part       58.2642678 magnetization       0.0627758

 Broyden mixing:
  rms(total) = 0.87699E-02    rms(broyden)= 0.87699E-02
  rms(prec ) = 0.10676E-01
  weight for this iteration     100.00

 eigenvalues of (default mixing * dielectric matrix)
  average eigenvalue GAMMA=   1.7700
  5.8130  3.0968  2.0508  2.0508  1.0337  0.6253  0.6253  0.8207  0.8207  0.7632

 Free energy of the ion-electron system (eV)
  ---------------------------------------------------
  alpha Z        PSCENC =        12.70137355
  Ewald energy   TEWEN  =     12453.46285566
  -Hartree energ DENC   =    -23367.47969807
  -exchange      EXHF   =         0.00000000
  -V(xc)+E(xc)   XCENC  =      -126.23898564
  PAW double counting   =     11780.05451333   -11289.24708153
  entropy T*S    EENTRO =         0.00000000
  eigenvalues    EBANDS =      -892.68846365
  atomic energy  EATOM  =     11409.89059604
  ---------------------------------------------------
  free energy    TOTEN  =       -19.54489032 eV

  energy without entropy =      -19.54489032  energy(sigma->0) =      -19.54489032


--------------------------------------------------------------------------------------------------------




----------------------------------------- Iteration    1(  16)  ---------------------------------------


    POTLOK:  cpu time    0.69: real time    0.69
    SETDIJ:  cpu time    0.01: real time    0.01
     EDDAV:  cpu time    3.12: real time    3.13
       DOS:  cpu time    0.00: real time    0.00
    CHARGE:  cpu time    0.25: real time    0.25
    MIXING:  cpu time    0.04: real time    0.03
    --------------------------------------------
      LOOP:  cpu time    4.12: real time    4.12

 eigenvalue-minimisations  :   336
 total energy-change (2. order) :-0.1525588E+00  (-0.5463903E-03)
 number of electron     120.9999976 magnetization       1.0429741
 augmentation part       58.2664000 magnetization      -0.0006432

 Broyden mixing:
  rms(total) = 0.45371E-02    rms(broyden)= 0.45371E-02
  rms(prec ) = 0.61634E-02
  weight for this iteration     100.00

 eigenvalues of (default mixing * dielectric matrix)
  average eigenvalue GAMMA=   1.7992
  6.4810  3.1931  2.2712  2.1170  1.1815  0.9450  0.9450  0.7214  0.6285  0.6285
  0.6786

 Free energy of the ion-electron system (eV)
  ---------------------------------------------------
  alpha Z        PSCENC =        12.70137355
  Ewald energy   TEWEN  =     12453.46285566
  -Hartree energ DENC   =    -23364.78384062
  -exchange      EXHF   =         0.00000000
  -V(xc)+E(xc)   XCENC  =      -126.42142138
  PAW double counting   =     11781.92243872   -11291.10079453
  entropy T*S    EENTRO =         0.00000000
  eigenvalues    EBANDS =      -895.36865650
  atomic energy  EATOM  =     11409.89059604
  ---------------------------------------------------
  free energy    TOTEN  =       -19.69744907 eV

  energy without entropy =      -19.69744907  energy(sigma->0) =      -19.69744907


--------------------------------------------------------------------------------------------------------




----------------------------------------- Iteration    1(  17)  ---------------------------------------


    POTLOK:  cpu time    0.69: real time    0.69
    SETDIJ:  cpu time    0.01: real time    0.01
     EDDAV:  cpu time    2.91: real time    2.91
       DOS:  cpu time    0.00: real time    0.00
    CHARGE:  cpu time    0.25: real time    0.26
    MIXING:  cpu time    0.04: real time    0.04
    --------------------------------------------
      LOOP:  cpu time    3.91: real time    3.91

 eigenvalue-minimisations  :   304
 total energy-change (2. order) :-0.4390337E-01  (-0.2597460E-03)
 number of electron     120.9999976 magnetization       1.0204510
 augmentation part       58.2677128 magnetization      -0.0221552

 Broyden mixing:
  rms(total) = 0.24351E-02    rms(broyden)= 0.24351E-02
  rms(prec ) = 0.39789E-02
  weight for this iteration     100.00

 eigenvalues of (default mixing * dielectric matrix)
  average eigenvalue GAMMA=   1.8276
  6.6084  3.4763  2.6034  1.8809  1.8809  1.0402  0.8959  0.8959  0.7577  0.6302
  0.6302  0.6310

 Free energy of the ion-electron system (eV)
  ---------------------------------------------------
  alpha Z        PSCENC =        12.70137355
  Ewald energy   TEWEN  =     12453.46285566
  -Hartree energ DENC   =    -23363.30836587
  -exchange      EXHF   =         0.00000000
  -V(xc)+E(xc)   XCENC  =      -126.47749476
  PAW double counting   =     11782.97317238   -11292.15234776
  entropy T*S    EENTRO =         0.00000000
  eigenvalues    EBANDS =      -896.83114167
  atomic energy  EATOM  =     11409.89059604
  ---------------------------------------------------
  free energy    TOTEN  =       -19.74135244 eV

  energy without entropy =      -19.74135244  energy(sigma->0) =      -19.74135244


--------------------------------------------------------------------------------------------------------




----------------------------------------- Iteration    1(  18)  ---------------------------------------


    POTLOK:  cpu time    0.69: real time    0.69
    SETDIJ:  cpu time    0.01: real time    0.01
     EDDAV:  cpu time    2.96: real time    2.96
       DOS:  cpu time    0.00: real time    0.00
    CHARGE:  cpu time    0.26: real time    0.26
    MIXING:  cpu time    0.04: real time    0.04
    --------------------------------------------
      LOOP:  cpu time    3.96: real time    3.97

 eigenvalue-minimisations  :   312
 total energy-change (2. order) :-0.9957571E-02  (-0.1254808E-03)
 number of electron     120.9999976 magnetization       1.0059550
 augmentation part       58.2668599 magnetization      -0.0364113

 Broyden mixing:
  rms(total) = 0.13733E-02    rms(broyden)= 0.13733E-02
  rms(prec ) = 0.25690E-02
  weight for this iteration     100.00

 eigenvalues of (default mixing * dielectric matrix)
  average eigenvalue GAMMA=   1.8281
  6.7587  3.7167  2.6475  2.3697  1.8200  1.1636  0.9227  0.9227  0.8162  0.7437
  0.6160  0.6342  0.6342

 Free energy of the ion-electron system (eV)
  ---------------------------------------------------
  alpha Z        PSCENC =        12.70137355
  Ewald energy   TEWEN  =     12453.46285566
  -Hartree energ DENC   =    -23362.20958939
  -exchange      EXHF   =         0.00000000
  -V(xc)+E(xc)   XCENC  =      -126.49103655
  PAW double counting   =     11784.24458165   -11293.43733712
  entropy T*S    EENTRO =         0.00000000
  eigenvalues    EBANDS =      -897.91275385
  atomic energy  EATOM  =     11409.89059604
  ---------------------------------------------------
  free energy    TOTEN  =       -19.75131002 eV

  energy without entropy =      -19.75131002  energy(sigma->0) =      -19.75131002


--------------------------------------------------------------------------------------------------------




----------------------------------------- Iteration    1(  19)  ---------------------------------------


    POTLOK:  cpu time    0.69: real time    0.69
    SETDIJ:  cpu time    0.01: real time    0.01
     EDDAV:  cpu time    2.70: real time    2.70
       DOS:  cpu time    0.00: real time    0.00
    CHARGE:  cpu time    0.26: real time    0.25
    MIXING:  cpu time    0.04: real time    0.05
    --------------------------------------------
      LOOP:  cpu time    3.70: real time    3.71

 eigenvalue-minimisations  :   272
 total energy-change (2. order) :-0.3410896E-03  (-0.4355754E-04)
 number of electron     120.9999976 magnetization       1.0007004
 augmentation part       58.2679344 magnetization      -0.0413924

 Broyden mixing:
  rms(total) = 0.10039E-02    rms(broyden)= 0.10039E-02
  rms(prec ) = 0.17360E-02
  weight for this iteration     100.00

 eigenvalues of (default mixing * dielectric matrix)
  average eigenvalue GAMMA=   1.8130
  6.8501  3.8594  2.9032  2.2399  1.9853  1.3643  0.9934  0.9934  0.8571  0.7368
  0.7368  0.6072  0.6279  0.6279

 Free energy of the ion-electron system (eV)
  ---------------------------------------------------
  alpha Z        PSCENC =        12.70137355
  Ewald energy   TEWEN  =     12453.46285566
  -Hartree energ DENC   =    -23361.24554861
  -exchange      EXHF   =         0.00000000
  -V(xc)+E(xc)   XCENC  =      -126.49867284
  PAW double counting   =     11783.68366667   -11292.86825966
  entropy T*S    EENTRO =         0.00000000
  eigenvalues    EBANDS =      -898.87766190
  atomic energy  EATOM  =     11409.89059604
  ---------------------------------------------------
  free energy    TOTEN  =       -19.75165110 eV

  energy without entropy =      -19.75165110  energy(sigma->0) =      -19.75165110


--------------------------------------------------------------------------------------------------------




----------------------------------------- Iteration    1(  20)  ---------------------------------------


    POTLOK:  cpu time    0.68: real time    0.69
    SETDIJ:  cpu time    0.01: real time    0.01
     EDDAV:  cpu time    2.43: real time    2.43
       DOS:  cpu time    0.00: real time    0.00
    CHARGE:  cpu time    0.26: real time    0.25
    MIXING:  cpu time    0.05: real time    0.05
    --------------------------------------------
      LOOP:  cpu time    3.44: real time    4.16

 eigenvalue-minimisations  :   232
 total energy-change (2. order) :-0.1356759E-02  (-0.1541343E-04)
 number of electron     120.9999976 magnetization       1.0016004
 augmentation part       58.2681258 magnetization      -0.0402666

 Broyden mixing:
  rms(total) = 0.58926E-03    rms(broyden)= 0.58926E-03
  rms(prec ) = 0.10531E-02
  weight for this iteration     100.00

 eigenvalues of (default mixing * dielectric matrix)
  average eigenvalue GAMMA=   1.8552
  6.8800  4.4707  3.0315  2.2841  2.2841  1.5602  1.2023  1.0207  0.8810  0.8810
  0.7739  0.6054  0.6258  0.6407  0.6862

 Free energy of the ion-electron system (eV)
  ---------------------------------------------------
  alpha Z        PSCENC =        12.70137355
  Ewald energy   TEWEN  =     12453.46285566
  -Hartree energ DENC   =    -23360.52913329
  -exchange      EXHF   =         0.00000000
  -V(xc)+E(xc)   XCENC  =      -126.50517469
  PAW double counting   =     11783.43578688   -11292.61967642
  entropy T*S    EENTRO =         0.00000000
  eigenvalues    EBANDS =      -899.58963559
  atomic energy  EATOM  =     11409.89059604
  ---------------------------------------------------
  free energy    TOTEN  =       -19.75300786 eV

  energy without entropy =      -19.75300786  energy(sigma->0) =      -19.75300786


--------------------------------------------------------------------------------------------------------




----------------------------------------- Iteration    1(  21)  ---------------------------------------


    POTLOK:  cpu time    0.69: real time    0.69
    SETDIJ:  cpu time    0.01: real time    0.01
     EDDAV:  cpu time    2.42: real time    2.42
       DOS:  cpu time    0.00: real time    0.00
    CHARGE:  cpu time    0.25: real time    0.25
    MIXING:  cpu time    0.06: real time    0.06
    --------------------------------------------
      LOOP:  cpu time    3.44: real time    4.98

 eigenvalue-minimisations  :   232
 total energy-change (2. order) :-0.1856644E-02  (-0.6894771E-05)
 number of electron     120.9999976 magnetization       1.0001699
 augmentation part       58.2682687 magnetization      -0.0416587

 Broyden mixing:
  rms(total) = 0.41936E-03    rms(broyden)= 0.41936E-03
  rms(prec ) = 0.68458E-03
  weight for this iteration     100.00

 eigenvalues of (default mixing * dielectric matrix)
  average eigenvalue GAMMA=   1.8792
  6.8899  5.1339  3.1422  2.3871  2.3871  1.7231  1.3583  1.1224  0.8918  0.8611
  0.8611  0.7591  0.6819  0.6390  0.6147  0.6147

 Free energy of the ion-electron system (eV)
  ---------------------------------------------------
  alpha Z        PSCENC =        12.70137355
  Ewald energy   TEWEN  =     12453.46285566
  -Hartree energ DENC   =    -23360.08153500
  -exchange      EXHF   =         0.00000000
  -V(xc)+E(xc)   XCENC  =      -126.51007246
  PAW double counting   =     11783.52483572   -11292.71020829
  entropy T*S    EENTRO =         0.00000000
  eigenvalues    EBANDS =      -900.03270972
  atomic energy  EATOM  =     11409.89059604
  ---------------------------------------------------
  free energy    TOTEN  =       -19.75486451 eV

  energy without entropy =      -19.75486451  energy(sigma->0) =      -19.75486451


--------------------------------------------------------------------------------------------------------




----------------------------------------- Iteration    1(  22)  ---------------------------------------


    POTLOK:  cpu time    0.69: real time    0.69
    SETDIJ:  cpu time    0.01: real time    0.01
     EDDAV:  cpu time    2.42: real time    2.42
       DOS:  cpu time    0.00: real time    0.00
    CHARGE:  cpu time    0.26: real time    0.26
    MIXING:  cpu time    0.07: real time    0.07
    --------------------------------------------
      LOOP:  cpu time    3.45: real time    3.45

 eigenvalue-minimisations  :   232
 total energy-change (2. order) :-0.7409579E-03  (-0.2931341E-05)
 number of electron     120.9999976 magnetization       1.0000924
 augmentation part       58.2685742 magnetization      -0.0416415

 Broyden mixing:
  rms(total) = 0.23026E-03    rms(broyden)= 0.23026E-03
  rms(prec ) = 0.39857E-03
  weight for this iteration     100.00

 eigenvalues of (default mixing * dielectric matrix)
  average eigenvalue GAMMA=   1.9396
  6.8268  6.1418  3.3861  2.4869  2.4869  2.1124  1.5637  1.1718  0.9699  0.9072
  0.9072  0.7465  0.7465  0.6125  0.6125  0.6474  0.6474

 Free energy of the ion-electron system (eV)
  ---------------------------------------------------
  alpha Z        PSCENC =        12.70137355
  Ewald energy   TEWEN  =     12453.46285566
  -Hartree energ DENC   =    -23359.74309070
  -exchange      EXHF   =         0.00000000
  -V(xc)+E(xc)   XCENC  =      -126.51386777
  PAW double counting   =     11783.51760769   -11292.70140673
  entropy T*S    EENTRO =         0.00000000
  eigenvalues    EBANDS =      -900.36967319
  atomic energy  EATOM  =     11409.89059604
  ---------------------------------------------------
  free energy    TOTEN  =       -19.75560547 eV

  energy without entropy =      -19.75560547  energy(sigma->0) =      -19.75560547


--------------------------------------------------------------------------------------------------------




----------------------------------------- Iteration    1(  23)  ---------------------------------------


    POTLOK:  cpu time    0.69: real time    0.69
    SETDIJ:  cpu time    0.01: real time    0.01
     EDDAV:  cpu time    2.53: real time    2.54
       DOS:  cpu time    0.00: real time    0.00
    CHARGE:  cpu time    0.26: real time    0.26
    MIXING:  cpu time    0.07: real time    0.07
    --------------------------------------------
      LOOP:  cpu time    3.56: real time    3.76

 eigenvalue-minimisations  :   248
 total energy-change (2. order) :-0.7623897E-04  (-0.7832127E-06)
 number of electron     120.9999976 magnetization       1.0005035
 augmentation part       58.2686482 magnetization      -0.0411924

 Broyden mixing:
  rms(total) = 0.15057E-03    rms(broyden)= 0.15057E-03
  rms(prec ) = 0.26666E-03
  weight for this iteration     100.00

 eigenvalues of (default mixing * dielectric matrix)
  average eigenvalue GAMMA=   1.9582
  6.8231  6.8231  3.5252  2.6084  2.6084  2.2398  1.6074  1.3131  1.0511  0.9332
  0.8304  0.8304  0.8432  0.7027  0.6063  0.6280  0.6280  0.6465

 Free energy of the ion-electron system (eV)
  ---------------------------------------------------
  alpha Z        PSCENC =        12.70137355
  Ewald energy   TEWEN  =     12453.46285566
  -Hartree energ DENC   =    -23359.60855408
  -exchange      EXHF   =         0.00000000
  -V(xc)+E(xc)   XCENC  =      -126.51498416
  PAW double counting   =     11783.63996233   -11292.82401804
  entropy T*S    EENTRO =         0.00000000
  eigenvalues    EBANDS =      -900.50291299
  atomic energy  EATOM  =     11409.89059604
  ---------------------------------------------------
  free energy    TOTEN  =       -19.75568170 eV

  energy without entropy =      -19.75568170  energy(sigma->0) =      -19.75568170


--------------------------------------------------------------------------------------------------------




----------------------------------------- Iteration    1(  24)  ---------------------------------------


    POTLOK:  cpu time    0.69: real time    0.69
    SETDIJ:  cpu time    0.01: real time    0.01
     EDDAV:  cpu time    2.48: real time    2.48
       DOS:  cpu time    0.00: real time    0.00
    --------------------------------------------
      LOOP:  cpu time    3.18: real time    3.19

 eigenvalue-minimisations  :   240
 total energy-change (2. order) : 0.2350014E-04  (-0.2992110E-06)
 number of electron     120.9999976 magnetization       1.0005035
 augmentation part       58.2686482 magnetization      -0.0411924

 Free energy of the ion-electron system (eV)
  ---------------------------------------------------
  alpha Z        PSCENC =        12.70137355
  Ewald energy   TEWEN  =     12453.46285566
  -Hartree energ DENC   =    -23359.59236086
  -exchange      EXHF   =         0.00000000
  -V(xc)+E(xc)   XCENC  =      -126.51475986
  PAW double counting   =     11783.77632038   -11292.96128975
  entropy T*S    EENTRO =         0.00000000
  eigenvalues    EBANDS =      -900.51839336
  atomic energy  EATOM  =     11409.89059604
  ---------------------------------------------------
  free energy    TOTEN  =       -19.75565820 eV

  energy without entropy =      -19.75565820  energy(sigma->0) =      -19.75565820


--------------------------------------------------------------------------------------------------------




 average (electrostatic) potential at core
  the test charge radii are     1.1249
  (the norm of the test charge is              1.0000)
       1 -82.4021       2 -82.3045       3 -82.5156       4 -82.4144       5 -82.5117
       6 -82.3341       7 -82.3114       8 -82.4049       9 -82.3172      10 -82.4124
      11 -82.3389
 
 
 
 E-fermi :  -4.0094     XC(G=0):  -0.6009     alpha+bet : -0.3116


 spin component 1

 k-point     1 :       0.0000    0.0000    0.0000
  band No.  band energies     occupation 
      1      -9.1793      1.00000
      2      -9.0777      1.00000
      3      -9.0222      1.00000
      4      -8.9297      1.00000
      5      -8.8741      1.00000
      6      -8.6986      1.00000
      7      -8.6585      1.00000
      8      -8.6042      1.00000
      9      -8.5429      1.00000
     10      -8.5127      1.00000
     11      -8.5101      1.00000
     12      -8.5083      1.00000
     13      -8.4246      1.00000
     14      -8.3256      1.00000
     15      -8.2633      1.00000
     16      -8.2023      1.00000
     17      -8.1592      1.00000
     18      -8.1342      1.00000
     19      -8.0933      1.00000
     20      -7.9919      1.00000
     21      -7.9877      1.00000
     22      -7.9248      1.00000
     23      -7.8475      1.00000
     24      -7.7133      1.00000
     25      -7.6549      1.00000
     26      -7.6100      1.00000
     27      -7.6010      1.00000
     28      -7.5454      1.00000
     29      -7.5233      1.00000
     30      -7.4312      1.00000
     31      -7.3694      1.00000
     32      -7.3404      1.00000
     33      -7.2564      1.00000
     34      -7.2529      1.00000
     35      -7.2494      1.00000
     36      -7.2469      1.00000
     37      -7.1951      1.00000
     38      -7.1830      1.00000
     39      -7.1543      1.00000
     40      -7.1216      1.00000
     41      -7.0159      1.00000
     42      -7.0039      1.00000
     43      -6.9639      1.00000
     44      -6.8931      1.00000
     45      -6.8724      1.00000
     46      -6.8618      1.00000
     47      -6.8363      1.00000
     48      -6.8279      1.00000
     49      -6.8114      1.00000
     50      -6.7487      1.00000
     51      -6.7061      1.00000
     52      -6.6784      1.00000
     53      -6.6456      1.00000
     54      -6.6397      1.00000
     55      -6.6052      1.00000
     56      -6.5559      1.00000
     57      -6.2939      1.00000
     58      -5.1592      1.00000
     59      -4.5843      1.00000
     60      -4.4396      1.00000
     61      -4.0268      1.00000
     62      -2.9443      0.00000
     63      -2.8790      0.00000
     64      -2.4266      0.00000
     65      -2.1819      0.00000
     66      -1.9611      0.00000
     67      -1.8369      0.00000
     68      -1.4111      0.00000
     69      -1.1985      0.00000
     70      -0.7062      0.00000
     71      -0.6474      0.00000
     72      -0.4916      0.00000
     73      -0.3478      0.00000
     74      -0.2612      0.00000
     75       0.0836      0.00000
     76       0.1580      0.00000
     77       0.2685      0.00000
     78       0.4692      0.00000
     79       0.5051      0.00000
     80       0.5197      0.00000

 spin component 2

 k-point     1 :       0.0000    0.0000    0.0000
  band No.  band energies     occupation 
      1      -9.1577      1.00000
      2      -9.0505      1.00000
      3      -8.9954      1.00000
      4      -8.9115      1.00000
      5      -8.8562      1.00000
      6      -8.6641      1.00000
      7      -8.6498      1.00000
      8      -8.5700      1.00000
      9      -8.5260      1.00000
     10      -8.4847      1.00000
     11      -8.4722      1.00000
     12      -8.4646      1.00000
     13      -8.3994      1.00000
     14      -8.3052      1.00000
     15      -8.2234      1.00000
     16      -8.1849      1.00000
     17      -8.1392      1.00000
     18      -8.1040      1.00000
     19      -8.0732      1.00000
     20      -7.9585      1.00000
     21      -7.9536      1.00000
     22      -7.8971      1.00000
     23      -7.8285      1.00000
     24      -7.6772      1.00000
     25      -7.6202      1.00000
     26      -7.5833      1.00000
     27      -7.5749      1.00000
     28      -7.5229      1.00000
     29      -7.4766      1.00000
     30      -7.4099      1.00000
     31      -7.3548      1.00000
     32      -7.3028      1.00000
     33      -7.2423      1.00000
     34      -7.2312      1.00000
     35      -7.2254      1.00000
     36      -7.2231      1.00000
     37      -7.1739      1.00000
     38      -7.1473      1.00000
     39      -7.1372      1.00000
     40      -7.0733      1.00000
     41      -7.0018      1.00000
     42      -6.9860      1.00000
     43      -6.9443      1.00000
     44      -6.8799      1.00000
     45      -6.8598      1.00000
     46      -6.8330      1.00000
     47      -6.8137      1.00000
     48      -6.8016      1.00000
     49      -6.7698      1.00000
     50      -6.7370      1.00000
     51      -6.6772      1.00000
     52      -6.6631      1.00000
     53      -6.6273      1.00000
     54      -6.6006      1.00000
     55      -6.5924      1.00000
     56      -6.5348      1.00000
     57      -6.2334      1.00000
     58      -5.0801      1.00000
     59      -4.5506      1.00000
     60      -4.3950      1.00000
     61      -3.7988      0.00000
     62      -2.9009      0.00000
     63      -2.8021      0.00000
     64      -2.3562      0.00000
     65      -2.0370      0.00000
     66      -1.9159      0.00000
     67      -1.7548      0.00000
     68      -1.2271      0.00000
     69      -1.1515      0.00000
     70      -0.6533      0.00000
     71      -0.5489      0.00000
     72      -0.3581      0.00000
     73      -0.3116      0.00000
     74      -0.1397      0.00000
     75       0.1963      0.00000
     76       0.2051      0.00000
     77       0.2827      0.00000
     78       0.5513      0.00000
     79       0.5607      0.00000
     80       0.5706      0.00000


--------------------------------------------------------------------------------------------------------


 soft charge-density along one line, spin component           1
         0         1         2         3         4         5         6         7         8         9
 total charge-density along one line
 
 soft charge-density along one line, spin component           2
         0         1         2         3         4         5         6         7         8         9
 total charge-density along one line
 
 pseudopotential strength for first ion, spin component:           1
-10.422   0.007  -0.004   0.002   0.002 -10.392   0.007  -0.004
  0.007 -10.431  -0.001   0.003   0.004   0.007 -10.401  -0.001
 -0.004  -0.001 -10.433   0.004   0.006  -0.004  -0.001 -10.403
  0.002   0.003   0.004 -10.436   0.003   0.002   0.002   0.003
  0.002   0.004   0.006   0.003 -10.423   0.002   0.004   0.006
-10.392   0.007  -0.004   0.002   0.002 -10.338   0.006  -0.004
  0.007 -10.401  -0.001   0.002   0.004   0.006 -10.347  -0.001
 -0.004  -0.001 -10.403   0.003   0.006  -0.004  -0.001 -10.349
  0.002   0.002   0.003 -10.405   0.003   0.002   0.002   0.003
  0.002   0.004   0.006   0.003 -10.393   0.002   0.004   0.005
 -0.003   0.000   0.002  -0.001   0.003  -0.003   0.000   0.002
 -0.004   0.000   0.004  -0.002   0.006  -0.004   0.000   0.004
  0.013  -0.031   0.001  -0.000   0.003   0.013  -0.030   0.001
 -0.000  -0.003  -0.035   0.013   0.000  -0.000  -0.003  -0.034
 -0.003  -0.000  -0.008  -0.031   0.013  -0.002  -0.000  -0.007
  0.016  -0.038   0.002  -0.000   0.003   0.016  -0.036   0.002
 -0.000  -0.003  -0.043   0.016   0.000  -0.000  -0.003  -0.041
 -0.003  -0.000  -0.009  -0.037   0.016  -0.003  -0.000  -0.009
 pseudopotential strength for first ion, spin component:           2
-10.424   0.007  -0.004   0.002   0.002 -10.395   0.007  -0.004
  0.007 -10.433  -0.001   0.003   0.004   0.007 -10.403  -0.001
 -0.004  -0.001 -10.436   0.003   0.006  -0.004  -0.001 -10.406
  0.002   0.003   0.003 -10.438   0.003   0.002   0.002   0.003
  0.002   0.004   0.006   0.003 -10.425   0.002   0.004   0.006
-10.395   0.007  -0.004   0.002   0.002 -10.341   0.006  -0.004
  0.007 -10.403  -0.001   0.002   0.004   0.006 -10.349  -0.001
 -0.004  -0.001 -10.406   0.003   0.006  -0.004  -0.001 -10.352
  0.002   0.002   0.003 -10.408   0.003   0.002   0.002   0.003
  0.002   0.004   0.006   0.003 -10.396   0.002   0.004   0.006
 -0.003   0.000   0.003  -0.001   0.003  -0.003   0.000   0.003
 -0.004   0.000   0.004  -0.002   0.006  -0.004   0.000   0.004
  0.013  -0.031   0.002  -0.000   0.003   0.013  -0.029   0.001
 -0.000  -0.003  -0.035   0.013   0.000  -0.000  -0.003  -0.033
 -0.003  -0.000  -0.008  -0.030   0.013  -0.003  -0.000  -0.007
  0.016  -0.038   0.002  -0.000   0.003   0.016  -0.036   0.002
 -0.000  -0.003  -0.042   0.016   0.000  -0.000  -0.003  -0.041
 -0.003  -0.000  -0.009  -0.037   0.016  -0.003  -0.000  -0.009
 total augmentation occupancy for first ion, spin component:           1
  2.449  -0.032   0.052   0.098  -0.044  -0.419   0.056  -0.085  -0.055   0.078   0.258  -0.040   0.026   0.014  -0.044   0.006
 -0.032   2.633  -0.058  -0.071   0.070   0.056  -0.646   0.049   0.086  -0.037   0.018   0.006  -0.101   0.011   0.032  -0.013
  0.052  -0.058   2.797   0.152  -0.089  -0.085   0.049  -0.783  -0.140   0.142  -0.280   0.089   0.028  -0.145  -0.090  -0.000
  0.098  -0.071   0.152   2.817  -0.166  -0.055   0.086  -0.140  -0.849   0.136   0.067  -0.048   0.030  -0.010  -0.179  -0.002
 -0.044   0.070  -0.089  -0.166   2.500   0.078  -0.037   0.141   0.136  -0.486  -0.351   0.056  -0.023  -0.015   0.085   0.002
 -0.419   0.056  -0.085  -0.055   0.078   0.370  -0.076   0.114   0.020  -0.109  -0.238   0.040  -0.041  -0.014   0.043   0.003
  0.056  -0.646   0.049   0.086  -0.037  -0.076   0.633  -0.041  -0.100   0.010  -0.023  -0.001   0.135  -0.008  -0.030  -0.008
 -0.085   0.049  -0.783  -0.140   0.141   0.114  -0.041   0.750   0.130  -0.187   0.245  -0.076  -0.028   0.172   0.095   0.001
 -0.055   0.086  -0.140  -0.849   0.136   0.020  -0.100   0.130   0.854  -0.113  -0.040   0.031  -0.028   0.000   0.204   0.002
  0.078  -0.037   0.142   0.136  -0.486  -0.109   0.010  -0.187  -0.113   0.451   0.323  -0.056   0.016   0.014  -0.094  -0.001
  0.258   0.018  -0.280   0.067  -0.351  -0.238  -0.023   0.245  -0.040   0.323   1.777  -0.224   0.018   0.235  -0.091  -0.002
 -0.040   0.006   0.089  -0.048   0.056   0.040  -0.001  -0.076   0.031  -0.056  -0.224   0.043  -0.003  -0.048   0.016   0.000
  0.026  -0.101   0.028   0.030  -0.023  -0.041   0.135  -0.028  -0.028   0.016   0.018  -0.003   0.037  -0.004  -0.016  -0.002
  0.014   0.011  -0.145  -0.010  -0.015  -0.014  -0.008   0.172   0.000   0.014   0.235  -0.048  -0.004   0.070   0.008   0.000
 -0.044   0.032  -0.090  -0.179   0.085   0.043  -0.030   0.095   0.204  -0.094  -0.091   0.016  -0.016   0.008   0.081   0.001
  0.006  -0.013  -0.000  -0.002   0.002   0.003  -0.008   0.001   0.002  -0.001  -0.002   0.000  -0.002   0.000   0.001   0.000
 -0.002  -0.002  -0.010   0.006   0.002   0.002   0.000  -0.012   0.001  -0.002  -0.022   0.004   0.000  -0.006   0.000   0.000
  0.001  -0.002  -0.001  -0.008   0.003  -0.002   0.002  -0.004  -0.012   0.006   0.008  -0.001   0.001   0.000  -0.005  -0.000
 total augmentation occupancy for first ion, spin component:           2
 -0.041  -0.001   0.002  -0.001  -0.000   0.020   0.001  -0.001   0.001   0.000  -0.002  -0.001  -0.000  -0.001   0.000  -0.000
 -0.001  -0.048   0.002   0.001  -0.001   0.001   0.025  -0.001  -0.001   0.001   0.005   0.001  -0.001  -0.001  -0.001   0.000
  0.002   0.002  -0.047  -0.005  -0.002  -0.001  -0.001   0.024   0.004   0.002   0.010   0.001  -0.000  -0.003   0.000  -0.000
 -0.001   0.001  -0.005  -0.050   0.001   0.001  -0.001   0.004   0.027  -0.001  -0.017  -0.003  -0.001   0.003   0.002   0.000
 -0.000  -0.001  -0.002   0.001  -0.041   0.000   0.001   0.002  -0.001   0.020   0.004   0.001  -0.000   0.001  -0.000  -0.000
  0.020   0.001  -0.001   0.001   0.000  -0.000  -0.001   0.001  -0.001  -0.000   0.002   0.001  -0.000   0.001   0.000   0.000
  0.001   0.025  -0.001  -0.001   0.001  -0.001  -0.004   0.001   0.001  -0.001  -0.004  -0.000  -0.000   0.001   0.001  -0.000
 -0.001  -0.001   0.024   0.004   0.002   0.001   0.001  -0.002  -0.004  -0.001  -0.008  -0.000  -0.000   0.001   0.000   0.000
  0.001  -0.001   0.004   0.027  -0.001  -0.001   0.001  -0.004  -0.006   0.001   0.014   0.001   0.001  -0.002  -0.003  -0.000
  0.000   0.001   0.002  -0.001   0.020  -0.000  -0.001  -0.001   0.001  -0.000  -0.004  -0.001  -0.000  -0.001  -0.000   0.000
 -0.002   0.005   0.010  -0.017   0.004   0.002  -0.004  -0.008   0.014  -0.004   0.127   0.004   0.003  -0.012  -0.008  -0.000
 -0.001   0.001   0.001  -0.003   0.001   0.001  -0.000  -0.000   0.001  -0.001   0.004   0.002   0.000  -0.001  -0.000  -0.000
 -0.000  -0.001  -0.000  -0.001  -0.000  -0.000  -0.000  -0.000   0.001  -0.000   0.003   0.000   0.000  -0.000   0.000  -0.000
 -0.001  -0.001  -0.003   0.003   0.001   0.001   0.001   0.001  -0.002  -0.001  -0.012  -0.001  -0.000   0.001   0.001   0.000
  0.000  -0.001   0.000   0.002  -0.000   0.000   0.001   0.000  -0.003  -0.000  -0.008  -0.000   0.000   0.001   0.000   0.000
 -0.000   0.000  -0.000   0.000  -0.000   0.000  -0.000   0.000  -0.000   0.000  -0.000  -0.000  -0.000   0.000   0.000   0.000
  0.000   0.000   0.000  -0.000  -0.000  -0.000  -0.000  -0.000   0.000   0.000  -0.000   0.000  -0.000   0.000   0.000   0.000
  0.000   0.000   0.000  -0.000  -0.000  -0.000  -0.000  -0.000  -0.000   0.000   0.001   0.000   0.000  -0.000  -0.000  -0.000


------------------------ aborting loop because EDIFF is reached ----------------------------------------


    CHARGE:  cpu time    0.25: real time    0.25
    FORLOC:  cpu time    0.02: real time    0.02
    FORNL :  cpu time    0.97: real time    0.97
    STRESS:  cpu time    2.02: real time    2.03
    FORCOR:  cpu time    0.68: real time    0.68
    FORHAR:  cpu time    0.09: real time    0.09
    MIXING:  cpu time    0.08: real time    0.08
    OFIELD:  cpu time    0.00: real time    0.00

  FORCE on cell =-STRESS in cart. coord.  units (eV):
  Direction    XX          YY          ZZ          XY          YZ          ZX
  --------------------------------------------------------------------------------------
  Alpha Z    12.70137    12.70137    12.70137
  Ewald    5656.25608  1205.74698  5591.45233 -1509.96942  -849.77433  2011.72516
  Hartree  9099.53548  5235.27496  9024.72911 -1290.95867  -744.82625  1778.37011
  E(xc)    -636.98873  -638.62701  -636.93508    -0.61554    -0.26209     0.54603
  Local  -16525.41142 -8222.27786-16384.74164  2796.69833  1593.49938 -3788.65129
  n-local  -120.16547  -120.13427  -120.41877    -0.03501    -0.36456     1.28646
  augment  1009.39322  1013.23171  1009.17466     1.42399     0.52316    -1.00997
  Kinetic  1504.38941  1513.74981  1503.87156     3.47869     1.26525    -2.33657
  Fock        0.00000     0.00000     0.00000     0.00000     0.00000     0.00000
  -------------------------------------------------------------------------------------
  Total      -0.29007    -0.33432    -0.16646     0.02235     0.06055    -0.07008
  in kB      -0.05735    -0.06610    -0.03291     0.00442     0.01197    -0.01386
  external pressure =       -0.05 kB  Pullay stress =        0.00 kB


 VOLUME and BASIS-vectors are now :
 -----------------------------------------------------------------------------
  energy-cutoff  :      520.00
  volume of cell :     8103.06
      direct lattice vectors                 reciprocal lattice vectors
    20.085514186  0.000000000  0.000000000     0.049787125  0.000000000  0.000000000
     0.000000000 20.085514186  0.000000000     0.000000000  0.049787125  0.000000000
     0.000000000  0.000000000 20.085514186     0.000000000  0.000000000  0.049787125

  length of vectors
    20.085514186 20.085514186 20.085514186     0.049787125  0.049787125  0.049787125


 FORCES acting on ions
    electron-ion (+dipol)            ewald-force                    non-local-force                 convergence-correction
 -----------------------------------------------------------------------------------------------
   -.179E+03 0.110E+02 0.916E+03   0.176E+03 -.106E+02 -.911E+03   0.228E+01 -.475E+00 -.532E+01   0.872E-03 -.295E-03 -.176E-02
   0.640E+03 -.231E+03 0.605E+03   -.637E+03 0.230E+03 -.602E+03   -.370E+01 0.130E+01 -.353E+01   -.126E-02 0.403E-03 -.119E-02
   -.144E+02 -.856E+03 0.185E+03   0.160E+02 0.853E+03 -.183E+03   -.162E+01 0.309E+01 -.212E+01   -.957E-04 0.282E-02 -.536E-03
   -.633E+03 0.194E+03 0.540E+03   0.630E+03 -.194E+03 -.539E+03   0.282E+01 -.849E+00 -.147E+01   0.259E-02 -.836E-03 -.126E-02
   0.481E+03 0.688E+03 0.253E+03   -.478E+03 -.687E+03 -.251E+03   -.310E+01 -.137E+01 -.234E+01   -.155E-02 -.218E-02 -.832E-03
   -.878E+03 0.291E+03 -.117E+03   0.873E+03 -.289E+03 0.118E+03   0.509E+01 -.169E+01 -.392E+00   0.216E-02 -.682E-03 -.644E-03
   0.155E+02 0.919E+03 -.210E+03   -.164E+02 -.915E+03 0.208E+03   0.859E+00 -.417E+01 0.177E+01   0.206E-04 -.191E-02 0.392E-03
   0.852E+03 -.262E+03 -.282E+03   -.847E+03 0.261E+03 0.279E+03   -.481E+01 0.140E+01 0.297E+01   -.144E-02 0.427E-03 0.106E-02
   -.523E+03 -.737E+03 -.265E+03   0.520E+03 0.734E+03 0.263E+03   0.309E+01 0.273E+01 0.197E+01   0.114E-02 0.145E-02 0.456E-03
   0.443E+03 -.116E+03 -.721E+03   -.442E+03 0.116E+03 0.718E+03   -.111E+01 0.194E+00 0.309E+01   -.929E-03 0.221E-03 0.281E-02
   -.206E+03 0.984E+02 -.904E+03   0.205E+03 -.981E+02 0.899E+03   0.190E+00 -.237E+00 0.535E+01   -.386E-03 -.225E-04 0.231E-02
[...]
     26      -7.6108      1.00000
     27      -7.6024      1.00000
     28      -7.5469      1.00000
     29      -7.5243      1.00000
     30      -7.4327      1.00000
     31      -7.3703      1.00000
     32      -7.3413      1.00000
     33      -7.2570      1.00000
     34      -7.2530      1.00000
     35      -7.2500      1.00000
     36      -7.2475      1.00000
     37      -7.1961      1.00000
     38      -7.1837      1.00000
     39      -7.1549      1.00000
     40      -7.1227      1.00000
     41      -7.0164      1.00000
     42      -7.0046      1.00000
     43      -6.9641      1.00000
     44      -6.8933      1.00000
     45      -6.8722      1.00000
     46      -6.8624      1.00000
     47      -6.8364      1.00000
     48      -6.8284      1.00000
     49      -6.8115      1.00000
     50      -6.7489      1.00000
     51      -6.7060      1.00000
     52      -6.6783      1.00000
     53      -6.6454      1.00000
     54      -6.6400      1.00000
     55      -6.6051      1.00000
     56      -6.5558      1.00000
     57      -6.2947      1.00000
     58      -5.1601      1.00000
     59      -4.5836      1.00000
     60      -4.4401      1.00000
     61      -4.0274      1.00000
     62      -2.9440      0.00000
     63      -2.8791      0.00000
     64      -2.4263      0.00000
     65      -2.1818      0.00000
     66      -1.9594      0.00000
     67      -1.8372      0.00000
     68      -1.4111      0.00000
     69      -1.1981      0.00000
     70      -0.7052      0.00000
     71      -0.6472      0.00000
     72      -0.4910      0.00000
     73      -0.3455      0.00000
     74      -0.2605      0.00000
     75       0.0837      0.00000
     76       0.1625      0.00000
     77       0.2689      0.00000
     78       0.4696      0.00000
     79       0.5059      0.00000
     80       0.5242      0.00000

 spin component 2

 k-point     1 :       0.0000    0.0000    0.0000
  band No.  band energies     occupation 
      1      -9.1610      1.00000
      2      -9.0542      1.00000
      3      -8.9983      1.00000
      4      -8.9141      1.00000
      5      -8.8594      1.00000
      6      -8.6669      1.00000
      7      -8.6518      1.00000
      8      -8.5731      1.00000
      9      -8.5283      1.00000
     10      -8.4870      1.00000
     11      -8.4747      1.00000
     12      -8.4674      1.00000
     13      -8.4021      1.00000
     14      -8.3074      1.00000
     15      -8.2255      1.00000
     16      -8.1867      1.00000
     17      -8.1410      1.00000
     18      -8.1061      1.00000
     19      -8.0747      1.00000
     20      -7.9608      1.00000
     21      -7.9555      1.00000
     22      -7.8995      1.00000
     23      -7.8298      1.00000
     24      -7.6789      1.00000
     25      -7.6220      1.00000
     26      -7.5841      1.00000
     27      -7.5763      1.00000
     28      -7.5244      1.00000
     29      -7.4776      1.00000
     30      -7.4114      1.00000
     31      -7.3557      1.00000
     32      -7.3037      1.00000
     33      -7.2424      1.00000
     34      -7.2318      1.00000
     35      -7.2260      1.00000
     36      -7.2237      1.00000
     37      -7.1746      1.00000
     38      -7.1480      1.00000
     39      -7.1381      1.00000
     40      -7.0745      1.00000
     41      -7.0024      1.00000
     42      -6.9866      1.00000
     43      -6.9446      1.00000
     44      -6.8801      1.00000
     45      -6.8595      1.00000
     46      -6.8335      1.00000
     47      -6.8142      1.00000
     48      -6.8019      1.00000
     49      -6.7698      1.00000
     50      -6.7372      1.00000
     51      -6.6771      1.00000
     52      -6.6631      1.00000
     53      -6.6270      1.00000
     54      -6.6008      1.00000
     55      -6.5923      1.00000
     56      -6.5347      1.00000
     57      -6.2342      1.00000
     58      -5.0810      1.00000
     59      -4.5497      1.00000
     60      -4.3956      1.00000
     61      -3.7994      0.00000
     62      -2.9005      0.00000
     63      -2.8021      0.00000
     64      -2.3560      0.00000
     65      -2.0369      0.00000
     66      -1.9144      0.00000
     67      -1.7551      0.00000
     68      -1.2269      0.00000
     69      -1.1513      0.00000
     70      -0.6528      0.00000
     71      -0.5491      0.00000
     72      -0.3582      0.00000
     73      -0.3104      0.00000
     74      -0.1394      0.00000
     75       0.1960      0.00000
     76       0.2043      0.00000
     77       0.2892      0.00000
     78       0.5465      0.00000
     79       0.5546      0.00000
     80       0.5669      0.00000


--------------------------------------------------------------------------------------------------------


 soft charge-density along one line, spin component           1
         0         1         2         3         4         5         6         7         8         9
 total charge-density along one line
 
 soft charge-density along one line, spin component           2
         0         1         2         3         4         5         6         7         8         9
 total charge-density along one line
 
 pseudopotential strength for first ion, spin component:           1
-10.422   0.007  -0.004   0.002   0.002 -10.393   0.007  -0.004
  0.007 -10.431  -0.001   0.003   0.004   0.007 -10.401  -0.001
 -0.004  -0.001 -10.434   0.004   0.006  -0.004  -0.001 -10.404
  0.002   0.003   0.004 -10.436   0.003   0.002   0.002   0.003
  0.002   0.004   0.006   0.003 -10.423   0.002   0.004   0.006
-10.393   0.007  -0.004   0.002   0.002 -10.339   0.007  -0.004
  0.007 -10.401  -0.001   0.002   0.004   0.007 -10.347  -0.001
 -0.004  -0.001 -10.404   0.003   0.006  -0.004  -0.001 -10.350
  0.002   0.002   0.003 -10.406   0.003   0.002   0.002   0.003
  0.002   0.004   0.006   0.003 -10.394   0.002   0.004   0.006
 -0.003   0.000   0.002  -0.001   0.003  -0.003   0.000   0.002
 -0.004   0.000   0.004  -0.002   0.006  -0.004   0.000   0.004
  0.013  -0.031   0.001  -0.000   0.003   0.013  -0.030   0.001
 -0.000  -0.003  -0.035   0.013   0.000  -0.000  -0.002  -0.034
 -0.003  -0.000  -0.008  -0.031   0.013  -0.002  -0.000  -0.007
  0.016  -0.038   0.002  -0.000   0.003   0.016  -0.037   0.002
 -0.000  -0.003  -0.043   0.016   0.000  -0.000  -0.003  -0.041
 -0.003  -0.000  -0.009  -0.037   0.016  -0.003  -0.000  -0.009
 pseudopotential strength for first ion, spin component:           2
-10.425   0.007  -0.004   0.002   0.002 -10.395   0.007  -0.004
  0.007 -10.434  -0.001   0.003   0.004   0.007 -10.404  -0.001
 -0.004  -0.001 -10.436   0.003   0.006  -0.004  -0.001 -10.406
  0.002   0.003   0.003 -10.439   0.003   0.002   0.002   0.003
  0.002   0.004   0.006   0.003 -10.426   0.002   0.004   0.006
-10.395   0.007  -0.004   0.002   0.002 -10.342   0.006  -0.004
  0.007 -10.404  -0.001   0.002   0.004   0.006 -10.350  -0.001
 -0.004  -0.001 -10.406   0.003   0.006  -0.004  -0.001 -10.352
  0.002   0.002   0.003 -10.409   0.003   0.002   0.002   0.003
  0.002   0.004   0.006   0.003 -10.396   0.002   0.004   0.006
 -0.003   0.000   0.003  -0.001   0.003  -0.003   0.000   0.003
 -0.004   0.000   0.004  -0.002   0.006  -0.004   0.000   0.004
  0.013  -0.031   0.001  -0.000   0.003   0.013  -0.030   0.001
 -0.000  -0.003  -0.035   0.013   0.000  -0.000  -0.003  -0.033
 -0.003  -0.000  -0.008  -0.030   0.013  -0.002  -0.000  -0.007
  0.016  -0.038   0.002  -0.000   0.003   0.016  -0.036   0.002
 -0.000  -0.003  -0.043   0.016   0.000  -0.000  -0.003  -0.041
 -0.003  -0.000  -0.009  -0.037   0.016  -0.003  -0.000  -0.009
 total augmentation occupancy for first ion, spin component:           1
  2.450  -0.032   0.052   0.098  -0.044  -0.421   0.056  -0.086  -0.055   0.079   0.258  -0.040   0.026   0.014  -0.045   0.006
 -0.032   2.635  -0.059  -0.071   0.070   0.056  -0.648   0.049   0.086  -0.037   0.018   0.006  -0.102   0.011   0.032  -0.013
  0.052  -0.059   2.799   0.152  -0.089  -0.086   0.049  -0.785  -0.140   0.142  -0.280   0.089   0.028  -0.145  -0.091  -0.000
  0.098  -0.071   0.152   2.820  -0.167  -0.055   0.086  -0.140  -0.852   0.137   0.067  -0.048   0.030  -0.010  -0.180  -0.002
 -0.044   0.070  -0.089  -0.167   2.502   0.079  -0.037   0.142   0.137  -0.488  -0.352   0.057  -0.023  -0.015   0.085   0.002
 -0.421   0.056  -0.086  -0.055   0.079   0.372  -0.076   0.115   0.020  -0.109  -0.238   0.040  -0.041  -0.014   0.043   0.003
  0.056  -0.648   0.049   0.086  -0.037  -0.076   0.635  -0.041  -0.100   0.010  -0.023  -0.001   0.136  -0.008  -0.030  -0.008
 -0.086   0.049  -0.785  -0.140   0.142   0.115  -0.041   0.753   0.130  -0.187   0.245  -0.076  -0.028   0.172   0.095   0.001
 -0.055   0.086  -0.140  -0.852   0.137   0.020  -0.100   0.130   0.857  -0.113  -0.040   0.031  -0.028   0.000   0.205   0.002
  0.079  -0.037   0.142   0.137  -0.488  -0.109   0.010  -0.187  -0.113   0.453   0.324  -0.056   0.016   0.014  -0.094  -0.001
  0.258   0.018  -0.280   0.067  -0.352  -0.238  -0.023   0.245  -0.040   0.324   1.778  -0.224   0.018   0.235  -0.091  -0.002
 -0.040   0.006   0.089  -0.048   0.057   0.040  -0.001  -0.076   0.031  -0.056  -0.224   0.044  -0.003  -0.048   0.016   0.000
  0.026  -0.102   0.028   0.030  -0.023  -0.041   0.136  -0.028  -0.028   0.016   0.018  -0.003   0.037  -0.004  -0.016  -0.002
  0.014   0.011  -0.145  -0.010  -0.015  -0.014  -0.008   0.172   0.000   0.014   0.235  -0.048  -0.004   0.071   0.008   0.000
 -0.045   0.032  -0.091  -0.180   0.085   0.043  -0.030   0.095   0.205  -0.094  -0.091   0.016  -0.016   0.008   0.081   0.001
  0.006  -0.013  -0.000  -0.002   0.002   0.003  -0.008   0.001   0.002  -0.001  -0.002   0.000  -0.002   0.000   0.001   0.000
 -0.002  -0.002  -0.010   0.006   0.002   0.002   0.000  -0.012   0.001  -0.002  -0.022   0.004   0.000  -0.006   0.000   0.000
  0.001  -0.002  -0.001  -0.008   0.003  -0.002   0.002  -0.004  -0.012   0.006   0.008  -0.001   0.001   0.000  -0.005  -0.000
 total augmentation occupancy for first ion, spin component:           2
 -0.041  -0.001   0.002  -0.001  -0.000   0.020   0.001  -0.001   0.001   0.000  -0.002  -0.001  -0.000  -0.001   0.000  -0.000
 -0.001  -0.048   0.002   0.001  -0.001   0.001   0.025  -0.001  -0.001   0.001   0.005   0.001  -0.001  -0.001  -0.001   0.000
  0.002   0.002  -0.047  -0.005  -0.002  -0.001  -0.001   0.024   0.004   0.002   0.010   0.001  -0.000  -0.003   0.000  -0.000
 -0.001   0.001  -0.005  -0.049   0.001   0.001  -0.001   0.004   0.027  -0.001  -0.017  -0.003  -0.001   0.003   0.002   0.000
 -0.000  -0.001  -0.002   0.001  -0.041   0.000   0.001   0.002  -0.001   0.020   0.004   0.001  -0.000   0.001  -0.000  -0.000
  0.020   0.001  -0.001   0.001   0.000  -0.000  -0.000   0.001  -0.001  -0.000   0.002   0.001  -0.000   0.001   0.000   0.000
  0.001   0.025  -0.001  -0.001   0.001  -0.000  -0.004   0.001   0.001  -0.001  -0.004  -0.000  -0.000   0.001   0.001  -0.000
 -0.001  -0.001   0.024   0.004   0.002   0.001   0.001  -0.002  -0.004  -0.001  -0.008  -0.000  -0.000   0.001   0.000   0.000
  0.001  -0.001   0.004   0.027  -0.001  -0.001   0.001  -0.004  -0.006   0.001   0.014   0.001   0.001  -0.003  -0.003  -0.000
  0.000   0.001   0.002  -0.001   0.020  -0.000  -0.001  -0.001   0.001  -0.000  -0.004  -0.001  -0.000  -0.001  -0.000   0.000
 -0.002   0.005   0.010  -0.017   0.004   0.002  -0.004  -0.008   0.014  -0.004   0.127   0.004   0.003  -0.012  -0.008  -0.000
 -0.001   0.001   0.001  -0.003   0.001   0.001  -0.000  -0.000   0.001  -0.001   0.004   0.002   0.000  -0.001   0.000  -0.000
 -0.000  -0.001  -0.000  -0.001  -0.000  -0.000  -0.000  -0.000   0.001  -0.000   0.003   0.000   0.000  -0.000   0.000  -0.000
 -0.001  -0.001  -0.003   0.003   0.001   0.001   0.001   0.001  -0.003  -0.001  -0.012  -0.001  -0.000   0.001   0.001   0.000
  0.000  -0.001   0.000   0.002  -0.000   0.000   0.001   0.000  -0.003  -0.000  -0.008   0.000   0.000   0.001   0.000   0.000
 -0.000   0.000  -0.000   0.000  -0.000   0.000  -0.000   0.000  -0.000   0.000  -0.000  -0.000  -0.000   0.000   0.000   0.000
  0.000   0.000   0.000  -0.000  -0.000  -0.000  -0.000  -0.000   0.000   0.000  -0.000   0.000  -0.000   0.000   0.000   0.000
  0.000   0.000   0.000  -0.000  -0.000  -0.000  -0.000  -0.000  -0.000   0.000   0.001   0.000   0.000  -0.000  -0.000  -0.000


------------------------ aborting loop because EDIFF is reached ----------------------------------------


    CHARGE:  cpu time    0.25: real time    0.25
    FORLOC:  cpu time    0.02: real time    0.03
    FORNL :  cpu time    1.01: real time    1.01
    STRESS:  cpu time    2.02: real time    2.02
    FORCOR:  cpu time    0.68: real time    0.68
    FORHAR:  cpu time    0.09: real time    0.09
    MIXING:  cpu time    0.02: real time    0.02
    OFIELD:  cpu time    0.00: real time    0.00

  FORCE on cell =-STRESS in cart. coord.  units (eV):
  Direction    XX          YY          ZZ          XY          YZ          ZX
  --------------------------------------------------------------------------------------
  Alpha Z    12.70137    12.70137    12.70137
  Ewald    5659.40580  1204.48435  5596.12760 -1511.23312  -849.51776  2012.05370
  Hartree  9102.30970  5234.61820  9028.98041 -1291.91953  -744.62269  1778.63306
  E(xc)    -636.99838  -638.63860  -636.94480    -0.61597    -0.26165     0.54587
  Local  -16531.37267 -8220.43301-16393.71974  2798.91277  1593.04469 -3789.24648
  n-local  -120.05076  -120.02202  -120.30582    -0.03898    -0.36803     1.29004
  augment  1009.38047  1013.22717  1009.16443     1.42660     0.52242    -1.00980
  Kinetic  1504.38890  1513.76728  1503.87352     3.48246     1.26181    -2.33496
  Fock        0.00000     0.00000     0.00000     0.00000     0.00000     0.00000
  -------------------------------------------------------------------------------------
  Total      -0.23556    -0.29525    -0.12302     0.01423     0.05881    -0.06858
  in kB      -0.04658    -0.05838    -0.02432     0.00281     0.01163    -0.01356
  external pressure =       -0.04 kB  Pullay stress =        0.00 kB


 VOLUME and BASIS-vectors are now :
 -----------------------------------------------------------------------------
  energy-cutoff  :      520.00
  volume of cell :     8103.06
      direct lattice vectors                 reciprocal lattice vectors
    20.085514186  0.000000000  0.000000000     0.049787125  0.000000000  0.000000000
     0.000000000 20.085514186  0.000000000     0.000000000  0.049787125  0.000000000
     0.000000000  0.000000000 20.085514186     0.000000000  0.000000000  0.049787125

  length of vectors
    20.085514186 20.085514186 20.085514186     0.049787125  0.049787125  0.049787125


 FORCES acting on ions
    electron-ion (+dipol)            ewald-force                    non-local-force                 convergence-correction
 -----------------------------------------------------------------------------------------------
   -.179E+03 0.112E+02 0.917E+03   0.176E+03 -.107E+02 -.912E+03   0.229E+01 -.475E+00 -.532E+01   -.535E-02 -.534E-02 0.893E-02
   0.641E+03 -.232E+03 0.605E+03   -.637E+03 0.230E+03 -.602E+03   -.372E+01 0.131E+01 -.353E+01   0.857E-02 -.377E-02 0.192E-02
   -.145E+02 -.857E+03 0.185E+03   0.161E+02 0.854E+03 -.183E+03   -.162E+01 0.309E+01 -.211E+01   0.405E-02 -.120E-01 -.163E-02
   -.633E+03 0.194E+03 0.541E+03   0.630E+03 -.193E+03 -.539E+03   0.282E+01 -.848E+00 -.147E+01   0.262E-02 0.409E-02 -.825E-02
   0.481E+03 0.689E+03 0.253E+03   -.478E+03 -.687E+03 -.251E+03   -.309E+01 -.138E+01 -.233E+01   -.131E-02 0.738E-02 -.339E-02
   -.878E+03 0.291E+03 -.117E+03   0.873E+03 -.290E+03 0.118E+03   0.510E+01 -.168E+01 -.389E+00   -.919E-02 -.293E-02 -.629E-02
   0.156E+02 0.920E+03 -.210E+03   -.164E+02 -.915E+03 0.208E+03   0.849E+00 -.418E+01 0.176E+01   0.749E-02 0.360E-01 -.138E-02
   0.853E+03 -.262E+03 -.282E+03   -.848E+03 0.261E+03 0.279E+03   -.482E+01 0.141E+01 0.296E+01   0.452E-02 -.224E-02 0.294E-02
   -.523E+03 -.737E+03 -.266E+03   0.520E+03 0.734E+03 0.264E+03   0.309E+01 0.273E+01 0.196E+01   -.662E-02 -.108E-01 0.751E-02
   0.443E+03 -.116E+03 -.722E+03   -.442E+03 0.116E+03 0.719E+03   -.111E+01 0.199E+00 0.309E+01   -.283E-02 -.447E-03 -.363E-03
   -.206E+03 0.985E+02 -.905E+03   0.205E+03 -.982E+02 0.900E+03   0.191E+00 -.233E+00 0.535E+01   -.129E-02 -.349E-02 0.140E-03
 -----------------------------------------------------------------------------------------------
   0.881E-02 0.463E-01 0.181E-01   0.313E-12 0.185E-12 0.568E-12   -.110E-01 -.508E-01 -.187E-01   0.653E-03 0.646E-02 0.137E-03
 
 
 POSITION                                       TOTAL-FORCE (eV/Angst)
 -----------------------------------------------------------------------------------
      8.40441      8.72705      5.39310        -0.007663     -0.010689      0.012878
      5.87372      9.49331      6.02988         0.014690     -0.008157      0.002115
      8.11694     10.19176      7.79491         0.008707     -0.012701     -0.002405
     10.03274      8.06690      7.51960         0.005603      0.005831     -0.015010
      7.25465      7.48387      7.68309        -0.004696      0.007337     -0.005760
     11.70005      7.46561      9.67849        -0.016801     -0.008940     -0.012843
      9.05542      6.36763      9.50345         0.013085      0.054979     -0.001397
      5.53237      9.48539      8.72343         0.008927     -0.005739      0.007856
     10.19970      9.88873      9.61669        -0.011138     -0.013259      0.012489
      7.73042      8.72618     10.21039        -0.007082     -0.001008      0.000766
      9.95471      7.95869     11.70210        -0.003632     -0.007655      0.001312
 -----------------------------------------------------------------------------------
    total drift:                               -0.001581      0.001936     -0.000528


--------------------------------------------------------------------------------------------------------



  FREE ENERGIE OF THE ION-ELECTRON SYSTEM (eV)
  ---------------------------------------------------
  free  energy   TOTEN  =       -19.75616720 eV

  energy  without entropy=      -19.75616720  energy(sigma->0) =      -19.75616720
 
 d Force = 0.2324592E-03[ 0.215E-03, 0.250E-03]  d Energy = 0.3083271E-03-0.759E-04
 d Force =-0.4922079E+01[-0.492E+01,-0.492E+01]  d Ewald  =-0.4922079E+01 0.474E-07


--------------------------------------------------------------------------------------------------------


    POTLOK:  cpu time    0.71: real time    0.71


--------------------------------------------------------------------------------------------------------




--------------------------------------------------------------------------------------------------------


  
 reached required accuracy - stopping structural energy minimisation
     LOOP+:  cpu time   16.01: real time   20.39
    4ORBIT:  cpu time    0.00: real time    0.00

 total amount of memory used by VASP on root node    98407. kBytes
========================================================================

   base      :      30000. kBytes
   nonl-proj :       4366. kBytes
   fftplans  :      15704. kBytes
   grid      :      39563. kBytes
   one-center:         31. kBytes
   wavefun   :       8743. kBytes
 
  
  
 General timing and accounting informations for this job:
 ========================================================
  
                  Total CPU time used (sec):      130.328
                            User time (sec):      129.032
                          System time (sec):        1.296
                         Elapsed time (sec):      142.713
  
                   Maximum memory used (kb):      139432.
                   Average memory used (kb):           0.
  
                          Minor page faults:       248458
                          Major page faults:            0
                 Voluntary context switches:         2999
