 running on   32 total cores
 distrk:  each k-point on   32 cores,    1 groups
 distr:  one band on    8 cores,    4 groups
 using from now: INCAR     
 vasp.5.3.5 31Mar14 (build Feb 01 2018 12:10:03) gamma-only                     
  
 POSCAR found type information on POSCAR  Ag
 POSCAR found :  1 types and      17 ions
 scaLAPACK will be used

 ----------------------------------------------------------------------------- 
|                                                                             |
|  ADVICE TO THIS USER RUNNING 'VASP/VAMP'   (HEAR YOUR MASTER'S VOICE ...):  |
|                                                                             |
|      You have a (more or less) 'large supercell' and for larger cells       |
|      it might be more efficient to use real space projection opertators     |
|      So try LREAL= Auto  in the INCAR   file.                               |
|      Mind: At the moment your POTCAR file does not contain real space       |
|       projectors, and has to be modified,  BUT if you                       |
|      want to do an extremely  accurate calculation you might also keep the  |
|      reciprocal projection scheme          (i.e. LREAL=.FALSE.)             |
|                                                                             |
 ----------------------------------------------------------------------------- 

 LDA part: xc-table for Pade appr. of Perdew
 POSCAR, INCAR and KPOINTS ok, starting setup
 WARNING: small aliasing (wrap around) errors must be expected
 FFT: planning ...
 WAVECAR not read
 entering main loop
       N       E                     dE             d eps       ncg     rms          rms(c)
DAV:   1     0.162425549893E+04    0.16243E+04   -0.31825E+04   496   0.560E+02
DAV:   2     0.435053262411E+03   -0.11892E+04   -0.10498E+04   896   0.124E+02
DAV:   3    -0.474267748076E+01   -0.43980E+03   -0.39684E+03   664   0.870E+01
DAV:   4    -0.326580422093E+02   -0.27915E+02   -0.27626E+02   556   0.244E+01
DAV:   5    -0.330283970237E+02   -0.37035E+00   -0.36998E+00   560   0.341E+00    0.215E+01
DAV:   6    -0.102584061480E+02    0.22770E+02   -0.61368E+01   500   0.140E+01    0.101E+01
DAV:   7    -0.972662081107E+01    0.53179E+00   -0.34689E+00   548   0.357E+00    0.658E+00
DAV:   8    -0.632915139991E+01    0.33975E+01   -0.12895E+00   528   0.385E+00    0.337E+00
DAV:   9    -0.114982594068E+02   -0.51691E+01   -0.15434E+00   512   0.217E+00    0.305E+00
DAV:  10    -0.127535705746E+02   -0.12553E+01   -0.18787E-01   544   0.870E-01    0.266E+00
DAV:  11    -0.191298236214E+02   -0.63763E+01   -0.28805E+00   496   0.305E+00    0.174E+00
DAV:  12    -0.256705338445E+02   -0.65407E+01   -0.37193E+00   512   0.266E+00    0.105E+00
DAV:  13    -0.279954134316E+02   -0.23249E+01   -0.61345E-01   504   0.966E-01    0.841E-01
DAV:  14    -0.310142622931E+02   -0.30188E+01   -0.10029E+00   496   0.123E+00    0.455E-01
DAV:  15    -0.319281697487E+02   -0.91391E+00   -0.13719E-01   512   0.483E-01    0.255E-01
DAV:  16    -0.324142586929E+02   -0.48609E+00   -0.22839E-02   520   0.205E-01    0.174E-01
DAV:  17    -0.328493212992E+02   -0.43506E+00   -0.18250E-02   524   0.166E-01    0.927E-02
DAV:  18    -0.329436802468E+02   -0.94359E-01   -0.58850E-03   540   0.117E-01    0.548E-02
DAV:  19    -0.329554483176E+02   -0.11768E-01   -0.86025E-04   476   0.770E-02    0.505E-02
DAV:  20    -0.329592199082E+02   -0.37716E-02   -0.12451E-03   440   0.512E-02    0.247E-02
DAV:  21    -0.329600806205E+02   -0.86071E-03   -0.33984E-04   372   0.276E-02    0.140E-02
DAV:  22    -0.329631002738E+02   -0.30197E-02   -0.22540E-04   336   0.158E-02    0.915E-03
DAV:  23    -0.329658948719E+02   -0.27946E-02   -0.15009E-04   332   0.129E-02    0.635E-03
DAV:  24    -0.329663943642E+02   -0.49949E-03   -0.18763E-05   352   0.667E-03    0.442E-03
DAV:  25    -0.329663304660E+02    0.63898E-04   -0.12162E-05   356   0.570E-03
   1 F= -.32966330E+02 E0= -.32966330E+02  d E =-.329663E+02  mag=     0.9988
 curvature:   0.00 expect dE= 0.000E+00 dE for cont linesearch  0.000E+00
 trial: gam= 0.00000 g(F)=  0.167E-01 g(S)=  0.000E+00 ort = 0.000E+00 (trialstep = 0.100E+01)
 search vector abs. value=  0.167E-01
 bond charge predicted
       N       E                     dE             d eps       ncg     rms          rms(c)
DAV:   1    -0.329821600098E+02   -0.15766E-01   -0.11354E+00   512   0.255E+00    0.829E-02
DAV:   2    -0.329828069928E+02   -0.64698E-03   -0.55317E-03   516   0.246E-01    0.557E-02
DAV:   3    -0.329828807715E+02   -0.73779E-04   -0.91999E-05   320   0.308E-02
   2 F= -.32982881E+02 E0= -.32982881E+02  d E =-.165503E-01  mag=     0.9994
 ZBRENT: can't locate minimum, use default step
 trial-energy change:   -0.016550  1 .order   -0.016126   -0.016711   -0.015540
 step:   4.0000(harm= 14.2756)  dis= 0.01295  next Energy=   -33.085609 (dE=-0.119E+00)
 bond charge predicted
       N       E                     dE             d eps       ncg     rms          rms(c)
DAV:   1    -0.330224655491E+02   -0.39659E-01   -0.10243E+01   500   0.765E+00    0.263E-01
DAV:   2    -0.330273013419E+02   -0.48358E-02   -0.50419E-02   516   0.739E-01    0.165E-01
DAV:   3    -0.330272542918E+02    0.47050E-04   -0.95509E-04   528   0.949E-02
   3 F= -.33027254E+02 E0= -.33027254E+02  d E =-.609238E-01  mag=     0.9997
 curvature:  -2.86 expect dE=-0.305E-01 dE for cont linesearch -0.305E-01
 ZBRENT: increasing intervall
 opt :  10.0000  next Energy=   -33.094105 (dE=-0.128E+00)
 bond charge predicted
       N       E                     dE             d eps       ncg     rms          rms(c)
DAV:   1    -0.330743504027E+02   -0.47049E-01   -0.40975E+01   500   0.153E+01    0.568E-01
DAV:   2    -0.330941629970E+02   -0.19813E-01   -0.20556E-01   508   0.149E+00    0.334E-01
DAV:   3    -0.330939714393E+02    0.19156E-03   -0.39902E-03   528   0.195E-01    0.202E-01
DAV:   4    -0.330939721115E+02   -0.67218E-06   -0.10959E-03   512   0.957E-02    0.305E-02
DAV:   5    -0.330939625611E+02    0.95504E-05   -0.10052E-04   344   0.246E-02
   4 F= -.33093963E+02 E0= -.33093963E+02  d E =-.127632E+00  mag=     0.9999
 curvature:  -6.28 expect dE=-0.288E-01 dE for cont linesearch -0.282E-01
 ZBRENT: increasing intervall
 opt :  22.0000  next Energy=   -33.141644 (dE=-0.175E+00)
 bond charge predicted
       N       E                     dE             d eps       ncg     rms          rms(c)
DAV:   1    -0.330519262873E+02    0.42046E-01   -0.16428E+02   496   0.308E+01    0.130E+00
DAV:   2    -0.331329568690E+02   -0.81031E-01   -0.83389E-01   520   0.299E+00    0.695E-01
DAV:   3    -0.331312457750E+02    0.17111E-02   -0.17644E-02   532   0.416E-01    0.412E-01
DAV:   4    -0.331311939624E+02    0.51813E-04   -0.40032E-03   524   0.192E-01    0.656E-02
DAV:   5    -0.331310934614E+02    0.10050E-03   -0.52999E-04   508   0.544E-02    0.302E-02
DAV:   6    -0.331311371280E+02   -0.43667E-04   -0.10171E-04   364   0.248E-02
   5 F= -.33131137E+02 E0= -.33131137E+02  d E =-.164807E+00  mag=     1.0000
 curvature: -10.63 expect dE=-0.110E-01 dE for cont linesearch -0.533E-02
 ZBRENT: bracketing found
 ZBRENT: interpolating
 opt :  18.9928  next Energy=   -33.135490 (dE=-0.169E+00)
 bond charge predicted
       N       E                     dE             d eps       ncg     rms          rms(c)
DAV:   1    -0.331302690917E+02    0.82437E-03   -0.10279E+01   496   0.767E+00    0.291E-01
DAV:   2    -0.331350652644E+02   -0.47962E-02   -0.49007E-02   516   0.737E-01    0.211E-01
DAV:   3    -0.331350069380E+02    0.58326E-04   -0.97680E-04   520   0.974E-02
   6 F= -.33135007E+02 E0= -.33135007E+02  d E =-.168676E+00  mag=     1.0000
 curvature:  -8.68 expect dE=-0.338E-02 dE for cont linesearch -0.116E-03
 trial: gam=-0.00502 g(F)=  0.390E-03 g(S)=  0.000E+00 ort = 0.473E-03 (trialstep = 0.460E+01)
 search vector abs. value=  0.385E-03
 bond charge predicted
       N       E                     dE             d eps       ncg     rms          rms(c)
DAV:   1    -0.331363839947E+02   -0.13187E-02   -0.54825E-01   520   0.176E+00    0.309E-02
DAV:   2    -0.331366356229E+02   -0.25163E-03   -0.25954E-03   524   0.166E-01    0.229E-02
DAV:   3    -0.331366369358E+02   -0.13130E-05   -0.35340E-05   324   0.182E-02
   7 F= -.33136637E+02 E0= -.33136637E+02  d E =-.163000E-02  mag=     1.0000
 ZBRENT: can't locate minimum, use default step
 trial-energy change:   -0.001630  1 .order   -0.001559   -0.001781   -0.001337
 step:  18.3943(harm= 18.4624)  dis= 0.01245  next Energy=   -33.138582 (dE=-0.357E-02)
 bond charge predicted
       N       E                     dE             d eps       ncg     rms          rms(c)
DAV:   1    -0.331375894491E+02   -0.95383E-03   -0.49470E+00   504   0.528E+00    0.858E-02
DAV:   2    -0.331399104780E+02   -0.23210E-02   -0.23190E-02   528   0.494E-01    0.644E-02
DAV:   3    -0.331398948488E+02    0.15629E-04   -0.32615E-04   472   0.536E-02
   8 F= -.33139895E+02 E0= -.33139895E+02  d E =-.488791E-02  mag=     1.0000
 curvature:  -9.18 expect dE=-0.397E-03 dE for cont linesearch -0.289E-03
 trial: gam=-0.17431 g(F)=  0.432E-04 g(S)=  0.000E+00 ort = 0.110E-03 (trialstep = 0.736E+01)
 search vector abs. value=  0.165E-04
 reached required accuracy - stopping structural energy minimisation
Application 90932362 resources: utime ~3470s, stime ~82s, Rss ~67456, inblocks ~81255, outblocks ~150135
