<?xml version="1.0" encoding="ISO-8859-1"?>
<modeling>
 <generator>
  <i name="program" type="string">vasp </i>
  <i name="version" type="string">5.3.5  </i>
  <i name="subversion" type="string">31Mar14 (build Feb 01 2018 12:10:03) gamma-only                       parallel </i>
  <i name="platform" type="string">LinuxIFC </i>
  <i name="date" type="string">2019 03 22 </i>
  <i name="time" type="string">10:43:24 </i>
 </generator>
 <incar>
  <i type="string" name="PREC">normal</i>
  <i type="int" name="ISPIN">     2</i>
  <i type="int" name="IBRION">     2</i>
  <i type="int" name="NSW">  1000</i>
  <i type="int" name="ISIF">     2</i>
  <i name="POTIM">      0.10000000</i>
  <i type="logical" name="LPLANE"> T  </i>
  <i type="int" name="ISMEAR">     0</i>
  <i name="SIGMA">      0.00010000</i>
  <i type="logical" name="LWAVE"> F  </i>
  <i type="logical" name="LCHARG"> F  </i>
  <i type="logical" name="LVTOT"> F  </i>
  <i type="string" name="GGA"> PE</i>
 </incar>
 <kpoints>
  <varray name="kpointlist" >
   <v>       0.00000000       0.00000000       0.00000000 </v>
  </varray>
  <varray name="weights" >
   <v>       1.00000000 </v>
  </varray>
 </kpoints>
 <parameters>
  <separator name="general" >
   <i type="string" name="SYSTEM">unknown system</i>
   <i type="logical" name="LCOMPAT"> F  </i>
  </separator>
  <separator name="electronic" >
   <i type="string" name="PREC">normal</i>
   <i name="ENMAX">    249.84400000</i>
   <i name="ENAUG">    412.49600000</i>
   <i name="EDIFF">      0.00010000</i>
   <i type="int" name="IALGO">    38</i>
   <i type="int" name="IWAVPR">    11</i>
   <i type="int" name="NBANDS">   220</i>
   <i name="NELECT">    341.00000000</i>
   <i type="int" name="TURBO">     0</i>
   <i type="int" name="IRESTART">     0</i>
   <i type="int" name="NREBOOT">     0</i>
   <i type="int" name="NMIN">     0</i>
   <i name="EREF">      0.00000000</i>
   <separator name="electronic smearing" >
    <i type="int" name="ISMEAR">     0</i>
    <i name="SIGMA">      0.00010000</i>
    <i name="KSPACING">      0.50000000</i>
    <i type="logical" name="KGAMMA"> T  </i>
   </separator>
   <separator name="electronic projectors" >
    <i type="logical" name="LREAL"> F  </i>
    <v name="ROPT">      0.00000000</v>
    <i type="int" name="LMAXPAW">  -100</i>
    <i type="int" name="LMAXMIX">     2</i>
    <i type="logical" name="NLSPLINE"> F  </i>
   </separator>
   <separator name="electronic startup" >
    <i type="int" name="ISTART">     0</i>
    <i type="int" name="ICHARG">     2</i>
    <i type="int" name="INIWAV">     1</i>
   </separator>
   <separator name="electronic spin" >
    <i type="int" name="ISPIN">     2</i>
    <i type="logical" name="LNONCOLLINEAR"> F  </i>
    <v name="MAGMOM">      1.00000000      1.00000000      1.00000000      1.00000000      1.00000000      1.00000000      1.00000000      1.00000000      1.00000000      1.00000000      1.00000000      1.00000000      1.00000000      1.00000000      1.00000000      1.00000000      1.00000000      1.00000000      1.00000000      1.00000000
      1.00000000      1.00000000      1.00000000      1.00000000      1.00000000      1.00000000      1.00000000      1.00000000      1.00000000      1.00000000      1.00000000</v>
    <i name="NUPDOWN">     -1.00000000</i>
    <i type="logical" name="LSORBIT"> F  </i>
    <v name="SAXIS">      0.00000000      0.00000000      1.00000000</v>
    <i type="logical" name="LSPIRAL"> F  </i>
    <v name="QSPIRAL">      0.00000000      0.00000000      0.00000000</v>
    <i type="logical" name="LZEROZ"> F  </i>
   </separator>
   <separator name="electronic exchange-correlation" >
    <i type="logical" name="LASPH"> F  </i>
    <i type="logical" name="LMETAGGA"> F  </i>
   </separator>
   <separator name="electronic convergence" >
    <i type="int" name="NELM">    60</i>
    <i type="int" name="NELMDL">    -5</i>
    <i type="int" name="NELMIN">     2</i>
    <i name="ENINI">    249.84400000</i>
    <separator name="electronic convergence detail" >
     <i type="logical" name="LDIAG"> T  </i>
     <i type="logical" name="LSUBROT"> F  </i>
     <i name="WEIMIN">      0.00100000</i>
     <i name="EBREAK">      0.00000011</i>
     <i name="DEPER">      0.30000000</i>
     <i type="int" name="NRMM">     4</i>
     <i name="TIME">      0.40000000</i>
    </separator>
   </separator>
   <separator name="electronic mixer" >
    <i name="AMIX">      0.40000000</i>
    <i name="BMIX">      1.00000000</i>
    <i name="AMIN">      0.10000000</i>
    <i name="AMIX_MAG">      1.60000000</i>
    <i name="BMIX_MAG">      1.00000000</i>
    <separator name="electronic mixer details" >
     <i type="int" name="IMIX">     4</i>
     <i type="int" name="MAXMIX">   -45</i>
     <i name="WC">    100.00000000</i>
     <i type="int" name="INIMIX">     1</i>
     <i type="int" name="MIXPRE">     1</i>
     <i type="int" name="MREMOVE">     5</i>
    </separator>
   </separator>
   <separator name="electronic dipolcorrection" >
    <i type="logical" name="LDIPOL"> F  </i>
    <i type="logical" name="LMONO"> F  </i>
    <i type="int" name="IDIPOL">     0</i>
    <i name="EPSILON">      1.00000000</i>
    <v name="DIPOL">   -100.00000000   -100.00000000   -100.00000000</v>
    <i name="EFIELD">      0.00000000</i>
   </separator>
  </separator>
  <separator name="grids" >
   <i type="int" name="NGX">    84</i>
   <i type="int" name="NGY">    84</i>
   <i type="int" name="NGZ">    84</i>
   <i type="int" name="NGXF">   168</i>
   <i type="int" name="NGYF">   168</i>
   <i type="int" name="NGZF">   168</i>
   <i type="logical" name="ADDGRID"> F  </i>
  </separator>
  <separator name="ionic" >
   <i type="int" name="NSW">  1000</i>
   <i type="int" name="IBRION">     2</i>
   <i type="int" name="ISIF">     2</i>
   <i name="PSTRESS">      0.00000000</i>
   <i name="EDIFFG">      0.00100000</i>
   <i type="int" name="NFREE">     1</i>
   <i name="POTIM">      0.10000000</i>
   <i name="SMASS">     -3.00000000</i>
   <i name="SCALEE">      1.00000000</i>
  </separator>
  <separator name="ionic md" >
   <i name="TEBEG">      0.00010000</i>
   <i name="TEEND">      0.00010000</i>
   <i type="int" name="NBLOCK">     1</i>
   <i type="int" name="KBLOCK">  1000</i>
   <i type="int" name="NPACO">   256</i>
   <i name="APACO">     16.00000000</i>
  </separator>
  <separator name="symmetry" >
   <i type="int" name="ISYM">     2</i>
   <i name="SYMPREC">      0.00001000</i>
  </separator>
  <separator name="dos" >
   <i type="logical" name="LORBIT"> F  </i>
   <v name="RWIGS">     -1.00000000</v>
   <i type="int" name="NEDOS">   301</i>
   <i name="EMIN">     10.00000000</i>
   <i name="EMAX">    -10.00000000</i>
   <i name="EFERMI">      0.00000000</i>
  </separator>
  <separator name="writing" >
   <i type="int" name="NWRITE">     2</i>
   <i type="logical" name="LWAVE"> F  </i>
   <i type="logical" name="LCHARG"> F  </i>
   <i type="logical" name="LPARD"> F  </i>
   <i type="logical" name="LVTOT"> F  </i>
   <i type="logical" name="LVHAR"> F  </i>
   <i type="logical" name="LELF"> F  </i>
   <i type="logical" name="LOPTICS"> F  </i>
   <v name="STM">      0.00000000      0.00000000      0.00000000      0.00000000      0.00000000      0.00000000      0.00000000</v>
  </separator>
  <separator name="performance" >
   <i type="int" name="NPAR">     4</i>
   <i type="int" name="NSIM">     4</i>
   <i type="int" name="NBLK">    -1</i>
   <i type="logical" name="LPLANE"> T  </i>
   <i type="logical" name="LSCALAPACK"> T  </i>
   <i type="logical" name="LSCAAWARE"> F  </i>
   <i type="logical" name="LSCALU"> F  </i>
   <i type="logical" name="LASYNC"> F  </i>
   <i type="logical" name="LORBITALREAL"> F  </i>
  </separator>
  <separator name="miscellaneous" >
   <i type="int" name="IDIOT">     3</i>
   <i type="logical" name="LMUSIC"> F  </i>
   <v name="POMASS">    107.86800000</v>
   <v name="DARWINR">      0.00000000</v>
   <v name="DARWINV">      1.00000000</v>
   <i type="logical" name="LCORR"> T  </i>
  </separator>
  <i type="logical" name="GGA_COMPAT"> T  </i>
  <i type="logical" name="LBERRY"> F  </i>
  <i type="int" name="ICORELEVEL">     0</i>
  <i type="logical" name="LDAU"> F  </i>
  <i type="int" name="I_CONSTRAINED_M">     0</i>
  <separator name="electronic exchange-correlation" >
   <i type="string" name="GGA">PE</i>
   <i type="int" name="VOSKOWN">     0</i>
   <i type="logical" name="LHFCALC"> F  </i>
   <i type="string" name="PRECFOCK"></i>
   <i type="logical" name="LSYMGRAD"> F  </i>
   <i type="logical" name="LHFONE"> F  </i>
   <i type="logical" name="LRHFCALC"> F  </i>
   <i type="logical" name="LTHOMAS"> F  </i>
   <i type="logical" name="LMODELHF"> F  </i>
   <i name="ENCUT4O">     -1.00000000</i>
   <i type="int" name="EXXOEP">     0</i>
   <i type="int" name="FOURORBIT">     0</i>
   <i name="AEXX">      0.00000000</i>
   <i name="HFALPHA">      0.00000000</i>
   <i name="MCALPHA">      0.00000000</i>
   <i name="ALDAX">      1.00000000</i>
   <i name="AGGAX">      1.00000000</i>
   <i name="ALDAC">      1.00000000</i>
   <i name="AGGAC">      1.00000000</i>
   <i type="int" name="NKREDX">     1</i>
   <i type="int" name="NKREDY">     1</i>
   <i type="int" name="NKREDZ">     1</i>
   <i type="logical" name="SHIFTRED"> F  </i>
   <i type="logical" name="ODDONLY"> F  </i>
   <i type="logical" name="EVENONLY"> F  </i>
   <i type="int" name="LMAXFOCK">     0</i>
   <i type="int" name="NMAXFOCKAE">     0</i>
   <i type="logical" name="LFOCKAEDFT"> F  </i>
   <i name="HFSCREEN">      0.00000000</i>
   <i name="HFSCREENC">      0.00000000</i>
   <i type="int" name="NBANDSGWLOW">     0</i>
  </separator>
  <separator name="vdW DFT" >
   <i type="logical" name="LUSE_VDW"> F  </i>
   <i name="Zab_VDW">     -0.84910000</i>
   <i name="PARAM1">      0.12340000</i>
   <i name="PARAM2">      1.00000000</i>
   <i name="PARAM3">      0.00000000</i>
  </separator>
  <separator name="model GW" >
   <i type="int" name="MODEL_GW">     0</i>
   <i name="MODEL_EPS0">    176.53436390</i>
   <i name="MODEL_ALPHA">      1.00000000</i>
  </separator>
  <separator name="linear response parameters" >
   <i type="logical" name="LEPSILON"> F  </i>
   <i type="logical" name="LRPA"> F  </i>
   <i type="logical" name="LNABLA"> F  </i>
   <i type="logical" name="LVEL"> F  </i>
   <i type="int" name="KINTER">     0</i>
   <i name="CSHIFT">      0.10000000</i>
   <i name="OMEGAMAX">     -1.00000000</i>
   <i name="DEG_THRESHOLD">      0.00200000</i>
  </separator>
  <separator name="orbital magnetization" >
   <i type="logical" name="NUCIND"> F  </i>
   <v name="MAGPOS">      0.00000000      0.00000000      0.00000000</v>
   <i type="logical" name="LNICSALL"> T  </i>
   <i type="logical" name="ORBITALMAG"> F  </i>
   <i type="logical" name="LMAGBLOCH"> F  </i>
   <i type="logical" name="LCHIMAG"> F  </i>
   <i type="logical" name="LGAUGE"> T  </i>
   <i type="int" name="MAGATOM">     0</i>
   <v name="MAGDIPOL">      0.00000000      0.00000000      0.00000000</v>
   <v name="AVECCONST">      0.00000000      0.00000000      0.00000000</v>
  </separator>
  <separator name="response functions" >
   <i type="logical" name="LADDER"> F  </i>
   <i type="logical" name="LFXC"> F  </i>
   <i type="logical" name="LHARTREE"> T  </i>
   <i type="int" name="IBSE">     0</i>
   <i type="logical" name="LTCTE"> F  </i>
   <i type="logical" name="LTETE"> F  </i>
   <i type="logical" name="LTRIPLET"> F  </i>
   <i type="logical" name="LFXCEPS"> F  </i>
   <i type="logical" name="LFXHEG"> F  </i>
   <i type="logical" name="L2ORDER"> F  </i>
   <i type="logical" name="LUSEW"> F  </i>
   <i name="ENCUTGW">     -2.00000000</i>
   <i name="ENCUTGWSOFT">     -2.00000000</i>
   <i name="ENCUTLF">     -1.00000000</i>
   <i type="int" name="LMAXMP2">    -1</i>
   <i name="SCISSOR">      0.00000000</i>
   <i type="int" name="NOMEGA">     0</i>
   <i type="int" name="NOMEGAR">     0</i>
   <i type="int" name="NBANDSGW">    -1</i>
   <i type="int" name="NBANDSO">    -1</i>
   <i type="int" name="NBANDSV">    -1</i>
   <i type="int" name="NELM">     1</i>
   <i type="int" name="DIM">     3</i>
   <i type="int" name="ANTIRES">     0</i>
   <i name="OMEGAMAX">    -30.00000000</i>
   <i name="OMEGAMIN">    -30.00000000</i>
   <i name="OMEGATL">   -200.00000000</i>
   <i type="int" name="OMEGAGRID">     0</i>
   <i name="CSHIFT">     -0.10000000</i>
   <i type="logical" name="SELFENERGY"> F  </i>
   <i type="logical" name="LSPECTRAL"> F  </i>
   <i type="logical" name="ODDONLYGW"> F  </i>
   <i type="logical" name="EVENONLYGW"> F  </i>
   <i type="int" name="NKREDLFX">     1</i>
   <i type="int" name="NKREDLFY">     1</i>
   <i type="int" name="NKREDLFZ">     1</i>
   <i type="int" name="MAXMEM">  1800</i>
   <i type="int" name="TELESCOPE">     0</i>
   <i type="int" name="TAUPAR">     1</i>
  </separator>
  <separator name="External order field" >
   <i name="OFIELD_KAPPA">      0.00000000</i>
   <v name="OFIELD_K">      0.00000000      0.00000000      0.00000000</v>
   <i name="OFIELD_Q6_NEAR">      0.00000000</i>
   <i name="OFIELD_Q6_FAR">      0.00000000</i>
   <i name="OFIELD_A">      0.00000000</i>
  </separator>
 </parameters>
 <atominfo>
  <atoms>      31 </atoms>
  <types>       1 </types>
  <array name="atoms" >
   <dimension dim="1">ion</dimension>
   <field type="string">element</field>
   <field type="int">atomtype</field>
   <set>
    <rc><c>Ag</c><c>   1</c></rc>
    <rc><c>Ag</c><c>   1</c></rc>
    <rc><c>Ag</c><c>   1</c></rc>
    <rc><c>Ag</c><c>   1</c></rc>
    <rc><c>Ag</c><c>   1</c></rc>
    <rc><c>Ag</c><c>   1</c></rc>
    <rc><c>Ag</c><c>   1</c></rc>
    <rc><c>Ag</c><c>   1</c></rc>
    <rc><c>Ag</c><c>   1</c></rc>
    <rc><c>Ag</c><c>   1</c></rc>
    <rc><c>Ag</c><c>   1</c></rc>
    <rc><c>Ag</c><c>   1</c></rc>
    <rc><c>Ag</c><c>   1</c></rc>
    <rc><c>Ag</c><c>   1</c></rc>
    <rc><c>Ag</c><c>   1</c></rc>
    <rc><c>Ag</c><c>   1</c></rc>
    <rc><c>Ag</c><c>   1</c></rc>
    <rc><c>Ag</c><c>   1</c></rc>
    <rc><c>Ag</c><c>   1</c></rc>
    <rc><c>Ag</c><c>   1</c></rc>
    <rc><c>Ag</c><c>   1</c></rc>
    <rc><c>Ag</c><c>   1</c></rc>
    <rc><c>Ag</c><c>   1</c></rc>
    <rc><c>Ag</c><c>   1</c></rc>
    <rc><c>Ag</c><c>   1</c></rc>
    <rc><c>Ag</c><c>   1</c></rc>
    <rc><c>Ag</c><c>   1</c></rc>
    <rc><c>Ag</c><c>   1</c></rc>
    <rc><c>Ag</c><c>   1</c></rc>
    <rc><c>Ag</c><c>   1</c></rc>
    <rc><c>Ag</c><c>   1</c></rc>
   </set>
  </array>
  <array name="atomtypes" >
   <dimension dim="1">type</dimension>
   <field type="int">atomspertype</field>
   <field type="string">element</field>
   <field>mass</field>
   <field>valence</field>
   <field type="string">pseudopotential</field>
   <set>
    <rc><c>  31</c><c>Ag</c><c>    107.86800000</c><c>     11.00000000</c><c>  PAW_PBE Ag 02Apr2005                  </c></rc>
   </set>
  </array>
 </atominfo>
 <structure name="initialpos" >
  <crystal>
   <varray name="basis" >
    <v>      20.89359795       0.00000000       0.00000000 </v>
    <v>       0.00000000      20.89359795       0.00000000 </v>
    <v>       0.00000000       0.00000000      20.89359795 </v>
   </varray>
   <i name="volume">   9120.94213470 </i>
   <varray name="rec_basis" >
    <v>       0.04786155       0.00000000       0.00000000 </v>
    <v>       0.00000000       0.04786155       0.00000000 </v>
    <v>       0.00000000       0.00000000       0.04786155 </v>
   </varray>
  </crystal>
  <varray name="positions" >
   <v>       0.67779022       0.58506604       0.46809328 </v>
   <v>       0.67279202       0.46229413       0.38810362 </v>
   <v>       0.67562826       0.56369303       0.59772507 </v>
   <v>       0.61399602       0.34004875       0.57360890 </v>
   <v>       0.55194604       0.44066153       0.33592245 </v>
   <v>       0.65415918       0.58310540       0.33713465 </v>
   <v>       0.57445531       0.62395241       0.54086993 </v>
   <v>       0.57811173       0.38341927       0.45453314 </v>
   <v>       0.63247631       0.44880709       0.64909408 </v>
   <v>       0.57369096       0.65853695       0.41158237 </v>
   <v>       0.52601564       0.57013624       0.31537349 </v>
   <v>       0.65745189       0.46132134       0.51874767 </v>
   <v>       0.55512292       0.52354584       0.44503571 </v>
   <v>       0.55302658       0.55636423       0.65021716 </v>
   <v>       0.50808545       0.31967484       0.65090730 </v>
   <v>       0.48155477       0.70664290       0.49971030 </v>
   <v>       0.52379703       0.45097404       0.56448548 </v>
   <v>       0.47474149       0.32654745       0.52268202 </v>
   <v>       0.43631226       0.62697756       0.39279939 </v>
   <v>       0.47219881       0.65721270       0.62414158 </v>
   <v>       0.51073151       0.43966992       0.70315238 </v>
   <v>       0.43669310       0.49363084       0.37959786 </v>
   <v>       0.40646245       0.39981248       0.62052670 </v>
   <v>       0.44937588       0.56305548       0.52652846 </v>
   <v>       0.46244640       0.36406802       0.39738056 </v>
   <v>       0.40536581       0.43487040       0.49140103 </v>
   <v>       0.42308763       0.53268445       0.66992863 </v>
   <v>       0.35610069       0.67060201       0.48956114 </v>
   <v>       0.32562876       0.49865168       0.57372416 </v>
   <v>       0.33715180       0.54468392       0.44873611 </v>
   <v>       0.34400087       0.62240696       0.61137315 </v>
  </varray>
 </structure>
 <calculation>
  <scstep>
   <time name="dav">    3.98    3.98</time>
   <time name="total">    4.28    4.31</time>
   <energy>
    <i name="alphaZ">     89.61854074 </i>
    <i name="ewald">  67480.60016317 </i>
    <i name="hartreedc"> -98375.53286316 </i>
    <i name="XCdc">   -339.34387736 </i>
    <i name="pawpsdc">  31104.53752016 </i>
    <i name="pawaedc"> -29675.20287524 </i>
    <i name="eentropy">      0.00000000 </i>
    <i name="bandstr">    471.21168402 </i>
    <i name="atom">  32153.15753268 </i>
    <i name="e_fr_energy">   2909.04582500 </i>
    <i name="e_wo_entrp">   2909.04582500 </i>
    <i name="e_0_energy">   2909.04582500 </i>
   </energy>
  </scstep>
  <scstep>
   <time name="dav">    6.01    6.01</time>
   <time name="total">    6.01    6.02</time>
   <energy>
    <i name="e_fr_energy">    527.72199441 </i>
    <i name="e_wo_entrp">    527.72199441 </i>
    <i name="e_0_energy">    527.72199441 </i>
   </energy>
  </scstep>
  <scstep>
   <time name="dav">    4.78    4.78</time>
   <time name="total">    4.78    4.80</time>
   <energy>
    <i name="e_fr_energy">    -40.42605789 </i>
    <i name="e_wo_entrp">    -40.42605789 </i>
    <i name="e_0_energy">    -40.42605789 </i>
   </energy>
  </scstep>
  <scstep>
   <time name="dav">    4.26    4.26</time>
   <time name="total">    4.26    4.27</time>
   <energy>
    <i name="e_fr_energy">    -64.79439891 </i>
    <i name="e_wo_entrp">    -64.79439891 </i>
    <i name="e_0_energy">    -64.79439891 </i>
   </energy>
  </scstep>
  <scstep>
   <time name="dav">    4.40    4.40</time>
   <time name="total">    4.56    4.56</time>
   <energy>
    <i name="e_fr_energy">    -65.14878047 </i>
    <i name="e_wo_entrp">    -65.14878047 </i>
    <i name="e_0_energy">    -65.14878047 </i>
   </energy>
  </scstep>
  <scstep>
   <time name="dav">    3.91    3.91</time>
   <time name="total">    4.37    5.91</time>
   <energy>
    <i name="e_fr_energy">    -29.69889124 </i>
    <i name="e_wo_entrp">    -29.69889124 </i>
    <i name="e_0_energy">    -29.69889124 </i>
   </energy>
  </scstep>
  <scstep>
   <time name="dav">    4.12    4.13</time>
   <time name="total">    4.58    4.58</time>
   <energy>
    <i name="e_fr_energy">    -21.52695848 </i>
    <i name="e_wo_entrp">    -21.52695848 </i>
    <i name="e_0_energy">    -21.52695848 </i>
   </energy>
  </scstep>
  <scstep>
   <time name="dav">    4.22    4.22</time>
   <time name="total">    4.68    4.70</time>
   <energy>
    <i name="e_fr_energy">    -21.90588451 </i>
    <i name="e_wo_entrp">    -21.90588451 </i>
    <i name="e_0_energy">    -21.90588451 </i>
   </energy>
  </scstep>
  <scstep>
   <time name="dav">    4.18    4.18</time>
   <time name="total">    4.64    4.67</time>
   <energy>
    <i name="e_fr_energy">    -25.88391469 </i>
    <i name="e_wo_entrp">    -25.88391469 </i>
    <i name="e_0_energy">    -25.88391469 </i>
   </energy>
  </scstep>
  <scstep>
   <time name="dav">    4.30    4.30</time>
   <time name="total">    4.75    5.14</time>
   <energy>
    <i name="e_fr_energy">    -27.91029090 </i>
    <i name="e_wo_entrp">    -27.91029090 </i>
    <i name="e_0_energy">    -27.91029090 </i>
   </energy>
  </scstep>
  <scstep>
   <time name="dav">    4.02    4.03</time>
   <time name="total">    4.49    4.49</time>
   <energy>
    <i name="e_fr_energy">    -38.74961331 </i>
    <i name="e_wo_entrp">    -38.74961331 </i>
    <i name="e_0_energy">    -38.74961331 </i>
   </energy>
  </scstep>
  <scstep>
   <time name="dav">    4.17    4.17</time>
   <time name="total">    4.63    4.63</time>
   <energy>
    <i name="e_fr_energy">    -44.82974786 </i>
    <i name="e_wo_entrp">    -44.82974786 </i>
    <i name="e_0_energy">    -44.82974786 </i>
   </energy>
  </scstep>
  <scstep>
   <time name="dav">    4.06    4.06</time>
   <time name="total">    4.52    5.69</time>
   <energy>
    <i name="e_fr_energy">    -52.12535800 </i>
    <i name="e_wo_entrp">    -52.12535800 </i>
    <i name="e_0_energy">    -52.12535800 </i>
   </energy>
  </scstep>
  <scstep>
   <time name="dav">    4.03    4.04</time>
   <time name="total">    4.49    4.52</time>
   <energy>
    <i name="e_fr_energy">    -57.46793008 </i>
    <i name="e_wo_entrp">    -57.46793008 </i>
    <i name="e_0_energy">    -57.46793008 </i>
   </energy>
  </scstep>
  <scstep>
   <time name="dav">    4.28    4.28</time>
   <time name="total">    4.74    4.80</time>
   <energy>
    <i name="e_fr_energy">    -60.19231806 </i>
    <i name="e_wo_entrp">    -60.19231806 </i>
    <i name="e_0_energy">    -60.19231806 </i>
   </energy>
  </scstep>
  <scstep>
   <time name="dav">    4.48    4.48</time>
   <time name="total">    4.94    4.97</time>
   <energy>
    <i name="e_fr_energy">    -60.48568688 </i>
    <i name="e_wo_entrp">    -60.48568688 </i>
    <i name="e_0_energy">    -60.48568688 </i>
   </energy>
  </scstep>
  <scstep>
   <time name="dav">    4.04    4.03</time>
   <time name="total">    4.49    4.52</time>
   <energy>
    <i name="e_fr_energy">    -61.52878990 </i>
    <i name="e_wo_entrp">    -61.52878990 </i>
    <i name="e_0_energy">    -61.52878990 </i>
   </energy>
  </scstep>
  <scstep>
   <time name="dav">    4.09    4.09</time>
   <time name="total">    4.55    4.57</time>
   <energy>
    <i name="e_fr_energy">    -62.79627187 </i>
    <i name="e_wo_entrp">    -62.79627187 </i>
    <i name="e_0_energy">    -62.79627187 </i>
   </energy>
  </scstep>
  <scstep>
   <time name="dav">    4.14    4.15</time>
   <time name="total">    4.61    4.64</time>
   <energy>
    <i name="e_fr_energy">    -63.51774982 </i>
    <i name="e_wo_entrp">    -63.51774982 </i>
    <i name="e_0_energy">    -63.51774982 </i>
   </energy>
  </scstep>
  <scstep>
   <time name="dav">    4.26    4.26</time>
   <time name="total">    4.72    4.76</time>
   <energy>
    <i name="e_fr_energy">    -63.82568192 </i>
    <i name="e_wo_entrp">    -63.82568192 </i>
    <i name="e_0_energy">    -63.82568192 </i>
   </energy>
  </scstep>
  <scstep>
   <time name="dav">    4.14    4.15</time>
   <time name="total">    4.61    4.64</time>
   <energy>
    <i name="e_fr_energy">    -64.05892817 </i>
    <i name="e_wo_entrp">    -64.05892817 </i>
    <i name="e_0_energy">    -64.05892817 </i>
   </energy>
  </scstep>
  <scstep>
   <time name="dav">    3.83    3.83</time>
   <time name="total">    4.29    4.32</time>
   <energy>
    <i name="e_fr_energy">    -64.09502646 </i>
    <i name="e_wo_entrp">    -64.09502646 </i>
    <i name="e_0_energy">    -64.09502646 </i>
   </energy>
  </scstep>
  <scstep>
   <time name="dav">    4.16    4.17</time>
   <time name="total">    4.63    4.67</time>
   <energy>
    <i name="e_fr_energy">    -64.16715367 </i>
    <i name="e_wo_entrp">    -64.16715367 </i>
    <i name="e_0_energy">    -64.16715367 </i>
   </energy>
  </scstep>
  <scstep>
   <time name="dav">    3.40    3.40</time>
   <time name="total">    3.86    3.91</time>
   <energy>
    <i name="e_fr_energy">    -64.18919991 </i>
    <i name="e_wo_entrp">    -64.18919991 </i>
    <i name="e_0_energy">    -64.18919991 </i>
   </energy>
  </scstep>
  <scstep>
   <time name="dav">    3.20    3.20</time>
   <time name="total">    3.66    3.69</time>
   <energy>
    <i name="e_fr_energy">    -64.19880358 </i>
    <i name="e_wo_entrp">    -64.19880358 </i>
    <i name="e_0_energy">    -64.19880358 </i>
   </energy>
  </scstep>
  <scstep>
   <time name="dav">    3.24    3.24</time>
   <time name="total">    3.71    3.73</time>
   <energy>
    <i name="e_fr_energy">    -64.20265553 </i>
    <i name="e_wo_entrp">    -64.20265553 </i>
    <i name="e_0_energy">    -64.20265553 </i>
   </energy>
  </scstep>
  <scstep>
   <time name="dav">    3.16    3.16</time>
   <time name="total">    3.62    3.80</time>
   <energy>
    <i name="e_fr_energy">    -64.20786048 </i>
    <i name="e_wo_entrp">    -64.20786048 </i>
    <i name="e_0_energy">    -64.20786048 </i>
   </energy>
  </scstep>
  <scstep>
   <time name="dav">    3.19    3.19</time>
   <time name="total">    3.66    3.68</time>
   <energy>
    <i name="e_fr_energy">    -64.21022933 </i>
    <i name="e_wo_entrp">    -64.21022933 </i>
    <i name="e_0_energy">    -64.21022933 </i>
   </energy>
  </scstep>
  <scstep>
   <time name="dav">    3.08    3.08</time>
   <time name="total">    3.55    3.58</time>
   <energy>
    <i name="e_fr_energy">    -64.21090154 </i>
    <i name="e_wo_entrp">    -64.21090154 </i>
    <i name="e_0_energy">    -64.21090154 </i>
   </energy>
  </scstep>
  <scstep>
   <time name="dav">    3.08    3.08</time>
   <time name="total">    3.54    3.55</time>
   <energy>
    <i name="e_fr_energy">    -64.21101645 </i>
    <i name="e_wo_entrp">    -64.21101645 </i>
    <i name="e_0_energy">    -64.21101645 </i>
   </energy>
  </scstep>
  <scstep>
   <time name="dav">    3.03    3.03</time>
   <time name="total">    3.33    3.33</time>
   <energy>
    <i name="alphaZ">     89.61854074 </i>
    <i name="ewald">  67480.60016317 </i>
    <i name="hartreedc"> -98323.22435806 </i>
    <i name="XCdc">   -351.16891472 </i>
    <i name="pawpsdc">  33594.22969289 </i>
    <i name="pawaedc"> -32222.50073823 </i>
    <i name="eentropy">     -0.00000000 </i>
    <i name="bandstr">  -2484.92294483 </i>
    <i name="atom">  32153.15753268 </i>
    <i name="e_fr_energy">    -64.21102637 </i>
    <i name="e_wo_entrp">    -64.21102637 </i>
    <i name="e_0_energy">    -64.21102637 </i>
   </energy>
  </scstep>
  <structure>
   <crystal>
    <varray name="basis" >
     <v>      20.89359795       0.00000000       0.00000000 </v>
     <v>       0.00000000      20.89359795       0.00000000 </v>
     <v>       0.00000000       0.00000000      20.89359795 </v>
    </varray>
    <i name="volume">   9120.94213470 </i>
    <varray name="rec_basis" >
     <v>       0.04786155       0.00000000       0.00000000 </v>
     <v>       0.00000000       0.04786155       0.00000000 </v>
     <v>       0.00000000       0.00000000       0.04786155 </v>
    </varray>
   </crystal>
   <varray name="positions" >
    <v>       0.67779022       0.58506604       0.46809328 </v>
    <v>       0.67279202       0.46229413       0.38810362 </v>
    <v>       0.67562826       0.56369303       0.59772507 </v>
    <v>       0.61399602       0.34004875       0.57360890 </v>
    <v>       0.55194604       0.44066153       0.33592245 </v>
    <v>       0.65415918       0.58310540       0.33713465 </v>
    <v>       0.57445531       0.62395241       0.54086993 </v>
    <v>       0.57811173       0.38341927       0.45453314 </v>
    <v>       0.63247631       0.44880709       0.64909408 </v>
    <v>       0.57369096       0.65853695       0.41158237 </v>
    <v>       0.52601564       0.57013624       0.31537349 </v>
    <v>       0.65745189       0.46132134       0.51874767 </v>
    <v>       0.55512292       0.52354584       0.44503571 </v>
    <v>       0.55302658       0.55636423       0.65021716 </v>
    <v>       0.50808545       0.31967484       0.65090730 </v>
    <v>       0.48155477       0.70664290       0.49971030 </v>
    <v>       0.52379703       0.45097404       0.56448548 </v>
    <v>       0.47474149       0.32654745       0.52268202 </v>
    <v>       0.43631226       0.62697756       0.39279939 </v>
    <v>       0.47219881       0.65721270       0.62414158 </v>
    <v>       0.51073151       0.43966992       0.70315238 </v>
    <v>       0.43669310       0.49363084       0.37959786 </v>
    <v>       0.40646245       0.39981248       0.62052670 </v>
    <v>       0.44937588       0.56305548       0.52652846 </v>
    <v>       0.46244640       0.36406802       0.39738056 </v>
    <v>       0.40536581       0.43487040       0.49140103 </v>
    <v>       0.42308763       0.53268445       0.66992863 </v>
    <v>       0.35610069       0.67060201       0.48956114 </v>
    <v>       0.32562876       0.49865168       0.57372416 </v>
    <v>       0.33715180       0.54468392       0.44873611 </v>
    <v>       0.34400087       0.62240696       0.61137315 </v>
   </varray>
  </structure>
  <varray name="forces" >
   <v>       0.05997137       0.04013055      -0.33577265 </v>
   <v>      -0.04686936       0.09289382      -0.08862529 </v>
   <v>       0.36824932       0.08718244       0.27873821 </v>
   <v>      -0.07428317       0.02894895       0.11861146 </v>
   <v>       0.07985489       0.09475140      -0.26189618 </v>
   <v>       0.04830431      -0.07013558      -0.06836019 </v>
   <v>      -0.06978038       0.34656169      -0.11069475 </v>
   <v>      -0.07626279      -0.11739390      -0.32529041 </v>
   <v>      -0.01492963      -0.15209698       0.26321772 </v>
   <v>      -0.17862807       0.04883469      -0.01346232 </v>
   <v>       0.00713171       0.09314523      -0.15540544 </v>
   <v>       0.17662129       0.01744449       0.28483583 </v>
   <v>       0.07664785       0.04260730      -0.06049820 </v>
   <v>      -0.05144341      -0.16018410       0.32444332 </v>
   <v>       0.10514474      -0.03864635       0.05114108 </v>
   <v>       0.15166397      -0.06361014      -0.33870143 </v>
   <v>      -0.02731035      -0.09286023       0.03878097 </v>
   <v>       0.09140924      -0.10379885       0.29748461 </v>
   <v>       0.11891238       0.18396652       0.31191848 </v>
   <v>       0.03300709      -0.04864646      -0.03069361 </v>
   <v>      -0.04433638      -0.02765606       0.14554448 </v>
   <v>       0.06717001       0.13161525      -0.32925389 </v>
   <v>      -0.07764557       0.14213731       0.07051103 </v>
   <v>      -0.13442386       0.11138904       0.04115448 </v>
   <v>      -0.11616768      -0.30787589      -0.33993851 </v>
   <v>      -0.30593609      -0.04579890       0.20334523 </v>
   <v>      -0.22008568      -0.08787206      -0.30139196 </v>
   <v>      -0.03740752       0.08931793      -0.08049217 </v>
   <v>       0.14653593      -0.22764046       0.27311601 </v>
   <v>       0.03248210       0.00222992       0.02154711 </v>
   <v>      -0.08759627      -0.00894060       0.11608696 </v>
  </varray>
  <varray name="stress" >
   <v>      -1.55720046       0.17157247      -0.10822206 </v>
   <v>       0.17157248      -1.41734970      -0.36911582 </v>
   <v>      -0.10822206      -0.36911582      -0.79647832 </v>
  </varray>
  <energy>
   <i name="e_fr_energy">    -64.21102637 </i>
   <i name="e_wo_entrp">    -64.21102637 </i>
   <i name="e_0_energy">     -0.00000000 </i>
  </energy>
  <time name="totalsc">  143.03  146.91</time>
 </calculation>
 <calculation>
  <scstep>
   <time name="dav">    4.10    4.11</time>
   <time name="total">    4.56    4.58</time>
   <energy>
    <i name="alphaZ">     89.61854074 </i>
    <i name="ewald">  67439.15654895 </i>
    <i name="hartreedc"> -98281.99040330 </i>
    <i name="XCdc">   -351.21428770 </i>
    <i name="pawpsdc">  33594.33878686 </i>
    <i name="pawaedc"> -32222.61075768 </i>
    <i name="eentropy">      0.00000000 </i>
    <i name="bandstr">  -2484.68965485 </i>
    <i name="atom">  32153.15753268 </i>
    <i name="e_fr_energy">    -64.23369430 </i>
    <i name="e_wo_entrp">    -64.23369430 </i>
    <i name="e_0_energy">    -64.23369430 </i>
   </energy>
  </scstep>
  <scstep>
   <time name="dav">    4.26    4.26</time>
   <time name="total">    4.72    5.12</time>
   <energy>
    <i name="e_fr_energy">    -64.23429824 </i>
    <i name="e_wo_entrp">    -64.23429824 </i>
    <i name="e_0_energy">    -64.23429824 </i>
   </energy>
  </scstep>
  <scstep>
   <time name="dav">    3.30    3.30</time>
   <time name="total">    3.60    3.62</time>
   <energy>
    <i name="alphaZ">     89.61854074 </i>
    <i name="ewald">  67439.15654895 </i>
    <i name="hartreedc"> -98282.23959239 </i>
    <i name="XCdc">   -351.20773458 </i>
    <i name="pawpsdc">  33590.90181382 </i>
    <i name="pawaedc"> -32219.11997698 </i>
    <i name="eentropy">     -0.00000000 </i>
    <i name="bandstr">  -2484.50142055 </i>
    <i name="atom">  32153.15753268 </i>
    <i name="e_fr_energy">    -64.23428830 </i>
    <i name="e_wo_entrp">    -64.23428830 </i>
    <i name="e_0_energy">    -64.23428830 </i>
   </energy>
  </scstep>
  <structure>
   <crystal>
    <varray name="basis" >
     <v>      20.89359795       0.00000000       0.00000000 </v>
     <v>       0.00000000      20.89359795       0.00000000 </v>
     <v>       0.00000000       0.00000000      20.89359795 </v>
    </varray>
    <i name="volume">   9120.94213470 </i>
    <varray name="rec_basis" >
     <v>       0.04786155       0.00000000       0.00000000 </v>
     <v>       0.00000000       0.04786155       0.00000000 </v>
     <v>       0.00000000       0.00000000       0.04786155 </v>
    </varray>
   </crystal>
   <varray name="positions" >
    <v>       0.67781792       0.58508457       0.46793822 </v>
    <v>       0.67277038       0.46233703       0.38806269 </v>
    <v>       0.67579831       0.56373329       0.59785379 </v>
    <v>       0.61396172       0.34006212       0.57366367 </v>
    <v>       0.55198292       0.44070529       0.33580150 </v>
    <v>       0.65418149       0.58307301       0.33710308 </v>
    <v>       0.57442309       0.62411245       0.54081881 </v>
    <v>       0.57807651       0.38336506       0.45438292 </v>
    <v>       0.63246942       0.44873686       0.64921563 </v>
    <v>       0.57360847       0.65855950       0.41157615 </v>
    <v>       0.52601893       0.57017926       0.31530172 </v>
    <v>       0.65753345       0.46132940       0.51887921 </v>
    <v>       0.55515831       0.52356552       0.44500777 </v>
    <v>       0.55300283       0.55629026       0.65036698 </v>
    <v>       0.50813400       0.31965700       0.65093091 </v>
    <v>       0.48162481       0.70661353       0.49955389 </v>
    <v>       0.52378442       0.45093116       0.56450339 </v>
    <v>       0.47478370       0.32649952       0.52281939 </v>
    <v>       0.43636718       0.62706252       0.39294343 </v>
    <v>       0.47221405       0.65719023       0.62412741 </v>
    <v>       0.51071104       0.43965715       0.70321959 </v>
    <v>       0.43672412       0.49369162       0.37944581 </v>
    <v>       0.40642659       0.39987812       0.62055926 </v>
    <v>       0.44931381       0.56310692       0.52654747 </v>
    <v>       0.46239276       0.36392584       0.39722358 </v>
    <v>       0.40522453       0.43484925       0.49149494 </v>
    <v>       0.42298599       0.53264387       0.66978945 </v>
    <v>       0.35608341       0.67064325       0.48952397 </v>
    <v>       0.32569643       0.49854656       0.57385029 </v>
    <v>       0.33716680       0.54468495       0.44874606 </v>
    <v>       0.34396042       0.62240283       0.61142676 </v>
   </varray>
  </structure>
  <varray name="forces" >
   <v>       0.05223941       0.03336235      -0.30037552 </v>
   <v>      -0.04843303       0.08921384      -0.07575098 </v>
   <v>       0.33463552       0.08603672       0.25294399 </v>
   <v>      -0.07516140       0.03367065       0.10531610 </v>
   <v>       0.07262704       0.08916392      -0.25163567 </v>
   <v>       0.04138743      -0.06288499      -0.07216513 </v>
   <v>      -0.04340039       0.30863300      -0.08660762 </v>
   <v>      -0.07098933      -0.10310355      -0.29934457 </v>
   <v>      -0.01281325      -0.14217128       0.25373501 </v>
   <v>      -0.16260307       0.04287850      -0.02410467 </v>
   <v>       0.00505143       0.09458229      -0.14859864 </v>
   <v>       0.15852695       0.01696440       0.26352781 </v>
   <v>       0.07373913       0.03791061      -0.05595551 </v>
   <v>      -0.04248534      -0.14527429       0.29605211 </v>
   <v>       0.09829055      -0.03410974       0.05792619 </v>
   <v>       0.13367913      -0.05207390      -0.31811026 </v>
   <v>      -0.02349509      -0.08806137       0.03446817 </v>
   <v>       0.08592930      -0.08984386       0.26609528 </v>
   <v>       0.11627684       0.16683219       0.28903468 </v>
   <v>       0.03012073      -0.04867582      -0.03290960 </v>
   <v>      -0.04760246      -0.02678918       0.14096525 </v>
   <v>       0.06067547       0.11674750      -0.30016008 </v>
   <v>      -0.06675482       0.12588849       0.07517094 </v>
   <v>      -0.12512595       0.10308152       0.03798660 </v>
   <v>      -0.11222393      -0.28300984      -0.30715165 </v>
   <v>      -0.27407187      -0.05479733       0.16420734 </v>
   <v>      -0.20211485      -0.08645034      -0.28438877 </v>
   <v>      -0.03534295       0.08614258      -0.07190879 </v>
   <v>       0.12924257      -0.20685950       0.26054470 </v>
   <v>       0.03535457       0.00165718       0.02422829 </v>
   <v>      -0.08515829      -0.00866074       0.10696500 </v>
  </varray>
  <varray name="stress" >
   <v>      -1.59444691       0.17366661      -0.09981249 </v>
   <v>       0.17366661      -1.45833268      -0.35883100 </v>
   <v>      -0.09981249      -0.35883101      -0.84003243 </v>
  </varray>
  <energy>
   <i name="e_fr_energy">    -64.23428830 </i>
   <i name="e_wo_entrp">    -64.23428830 </i>
   <i name="e_0_energy">     -0.00000000 </i>
  </energy>
  <time name="totalsc">   20.31   20.83</time>
 </calculation>
 <calculation>
  <scstep>
   <time name="dav">    4.06    4.07</time>
   <time name="total">    4.52    4.55</time>
   <energy>
    <i name="alphaZ">     89.61854074 </i>
    <i name="ewald">  67315.26833363 </i>
    <i name="hartreedc"> -98159.18574843 </i>
    <i name="XCdc">   -351.33950122 </i>
    <i name="pawpsdc">  33589.43094468 </i>
    <i name="pawaedc"> -32217.62685370 </i>
    <i name="eentropy">     -0.00000000 </i>
    <i name="bandstr">  -2483.61241229 </i>
    <i name="atom">  32153.15753268 </i>
    <i name="e_fr_energy">    -64.28916390 </i>
    <i name="e_wo_entrp">    -64.28916390 </i>
    <i name="e_0_energy">    -64.28916390 </i>
   </energy>
  </scstep>
  <scstep>
   <time name="dav">    4.27    4.27</time>
   <time name="total">    4.73    4.73</time>
   <energy>
    <i name="e_fr_energy">    -64.29494685 </i>
    <i name="e_wo_entrp">    -64.29494685 </i>
    <i name="e_0_energy">    -64.29494685 </i>
   </energy>
  </scstep>
  <scstep>
   <time name="dav">    4.36    4.36</time>
   <time name="total">    4.81    4.82</time>
   <energy>
    <i name="e_fr_energy">    -64.29467164 </i>
    <i name="e_wo_entrp">    -64.29467164 </i>
    <i name="e_0_energy">    -64.29467164 </i>
   </energy>
  </scstep>
  <scstep>
   <time name="dav">    4.18    4.19</time>
   <time name="total">    4.48    4.51</time>
   <energy>
    <i name="alphaZ">     89.61854074 </i>
    <i name="ewald">  67315.26833363 </i>
    <i name="hartreedc"> -98160.31579870 </i>
    <i name="XCdc">   -351.31623287 </i>
    <i name="pawpsdc">  33572.52752038 </i>
    <i name="pawaedc"> -32200.45268507 </i>
    <i name="eentropy">      0.00000000 </i>
    <i name="bandstr">  -2482.78184143 </i>
    <i name="atom">  32153.15753268 </i>
    <i name="e_fr_energy">    -64.29463063 </i>
    <i name="e_wo_entrp">    -64.29463063 </i>
    <i name="e_0_energy">    -64.29463063 </i>
   </energy>
  </scstep>
  <structure>
   <crystal>
    <varray name="basis" >
     <v>      20.89359795       0.00000000       0.00000000 </v>
     <v>       0.00000000      20.89359795       0.00000000 </v>
     <v>       0.00000000       0.00000000      20.89359795 </v>
    </varray>
    <i name="volume">   9120.94213470 </i>
    <varray name="rec_basis" >
     <v>       0.04786155       0.00000000       0.00000000 </v>
     <v>       0.00000000       0.04786155       0.00000000 </v>
     <v>       0.00000000       0.00000000       0.04786155 </v>
    </varray>
   </crystal>
   <varray name="positions" >
    <v>       0.67790100       0.58514017       0.46747305 </v>
    <v>       0.67270545       0.46246572       0.38793991 </v>
    <v>       0.67630848       0.56385407       0.59823995 </v>
    <v>       0.61385881       0.34010223       0.57382799 </v>
    <v>       0.55209354       0.44083655       0.33543868 </v>
    <v>       0.65424841       0.58297585       0.33700838 </v>
    <v>       0.57432642       0.62459257       0.54066546 </v>
    <v>       0.57797086       0.38320242       0.45393227 </v>
    <v>       0.63244874       0.44852614       0.64958029 </v>
    <v>       0.57336100       0.65862715       0.41155750 </v>
    <v>       0.52602881       0.57030830       0.31508643 </v>
    <v>       0.65777814       0.46135357       0.51927381 </v>
    <v>       0.55526450       0.52362454       0.44492396 </v>
    <v>       0.55293156       0.55606834       0.65081646 </v>
    <v>       0.50827967       0.31960346       0.65100176 </v>
    <v>       0.48183492       0.70652540       0.49908466 </v>
    <v>       0.52374658       0.45080251       0.56455711 </v>
    <v>       0.47491034       0.32635572       0.52323152 </v>
    <v>       0.43653192       0.62731738       0.39337556 </v>
    <v>       0.47225978       0.65712284       0.62408488 </v>
    <v>       0.51064961       0.43961884       0.70342122 </v>
    <v>       0.43681717       0.49387395       0.37898967 </v>
    <v>       0.40631902       0.40007504       0.62065695 </v>
    <v>       0.44912758       0.56326123       0.52660448 </v>
    <v>       0.46223182       0.36349932       0.39675263 </v>
    <v>       0.40480069       0.43478580       0.49177665 </v>
    <v>       0.42268109       0.53252213       0.66937191 </v>
    <v>       0.35603159       0.67076699       0.48941246 </v>
    <v>       0.32589944       0.49823119       0.57422866 </v>
    <v>       0.33721180       0.54468804       0.44877591 </v>
    <v>       0.34383906       0.62239045       0.61158759 </v>
   </varray>
  </structure>
  <varray name="forces" >
   <v>       0.03660675       0.01726533      -0.22745417 </v>
   <v>      -0.05673295       0.08489425      -0.04982785 </v>
   <v>       0.26945493       0.08756606       0.20394973 </v>
   <v>      -0.08200337       0.04863938       0.07790602 </v>
   <v>       0.05804532       0.08202066      -0.24346420 </v>
   <v>       0.02419117      -0.04822436      -0.08841687 </v>
   <v>       0.02549412       0.22866081      -0.02734114 </v>
   <v>      -0.06102551      -0.07172641      -0.25018416 </v>
   <v>      -0.00895936      -0.12631980       0.24763339 </v>
   <v>      -0.13130630       0.02995624      -0.05786771 </v>
   <v>      -0.00093735       0.10507459      -0.14045210 </v>
   <v>       0.12126961       0.01608866       0.22480317 </v>
   <v>       0.07209975       0.02846012      -0.04962501 </v>
   <v>      -0.02197363      -0.11724220       0.24490543 </v>
   <v>       0.08701418      -0.02352758       0.08176137 </v>
   <v>       0.09325680      -0.02254258      -0.28875195 </v>
   <v>      -0.01503696      -0.08271965       0.02725637 </v>
   <v>       0.07816489      -0.06021424       0.20014459 </v>
   <v>       0.11833528       0.13266506       0.24654304 </v>
   <v>       0.02460433      -0.05456633      -0.03835494 </v>
   <v>      -0.06021495      -0.02543486       0.13916960 </v>
   <v>       0.04722040       0.08646928      -0.24692213 </v>
   <v>      -0.04123930       0.09156416       0.09615139 </v>
   <v>      -0.11271987       0.09102137       0.03323370 </v>
   <v>      -0.10758524      -0.23659298      -0.24304665 </v>
   <v>      -0.20690748      -0.08347198       0.07015706 </v>
   <v>      -0.16929789      -0.08983640      -0.25854707 </v>
   <v>      -0.03296351       0.08500722      -0.05606754 </v>
   <v>       0.09046794      -0.16537840       0.24985095 </v>
   <v>       0.04683356       0.00134905       0.02941585 </v>
   <v>      -0.08415539      -0.00890447       0.09344182 </v>
  </varray>
  <varray name="stress" >
   <v>      -1.68619677       0.16879877      -0.08264016 </v>
   <v>       0.16879878      -1.56125825      -0.33482750 </v>
   <v>      -0.08264017      -0.33482751      -0.95092240 </v>
  </varray>
  <energy>
   <i name="e_fr_energy">    -64.29463063 </i>
   <i name="e_wo_entrp">    -64.29463063 </i>
   <i name="e_0_energy">      0.00000000 </i>
  </energy>
  <time name="totalsc">   25.97   27.02</time>
 </calculation>
 <calculation>
  <scstep>
   <time name="dav">    4.06    4.07</time>
   <time name="total">    4.52    4.54</time>
   <energy>
    <i name="alphaZ">     89.61854074 </i>
    <i name="ewald">  67069.47664651 </i>
    <i name="hartreedc"> -97915.92891852 </i>
    <i name="XCdc">   -351.56209109 </i>
    <i name="pawpsdc">  33569.40817597 </i>
    <i name="pawaedc"> -32197.28738659 </i>
    <i name="eentropy">      0.00000000 </i>
    <i name="bandstr">  -2481.23472751 </i>
    <i name="atom">  32153.15753268 </i>
    <i name="e_fr_energy">    -64.35222780 </i>
    <i name="e_wo_entrp">    -64.35222780 </i>
    <i name="e_0_energy">    -64.35222780 </i>
   </energy>
  </scstep>
  <scstep>
   <time name="dav">    4.16    4.16</time>
   <time name="total">    4.62    4.70</time>
   <energy>
    <i name="e_fr_energy">    -64.37808527 </i>
    <i name="e_wo_entrp">    -64.37808527 </i>
    <i name="e_0_energy">    -64.37808527 </i>
   </energy>
  </scstep>
  <scstep>
   <time name="dav">    4.32    4.33</time>
   <time name="total">    4.78    4.79</time>
   <energy>
    <i name="e_fr_energy">    -64.37738109 </i>
    <i name="e_wo_entrp">    -64.37738109 </i>
    <i name="e_0_energy">    -64.37738109 </i>
   </energy>
  </scstep>
  <scstep>
   <time name="dav">    4.17    4.17</time>
   <time name="total">    4.63    4.66</time>
   <energy>
    <i name="e_fr_energy">    -64.37696344 </i>
    <i name="e_wo_entrp">    -64.37696344 </i>
    <i name="e_0_energy">    -64.37696344 </i>
   </energy>
  </scstep>
  <scstep>
   <time name="dav">    3.12    3.13</time>
   <time name="total">    3.58    3.61</time>
   <energy>
    <i name="e_fr_energy">    -64.37722318 </i>
    <i name="e_wo_entrp">    -64.37722318 </i>
    <i name="e_0_energy">    -64.37722318 </i>
   </energy>
  </scstep>
  <scstep>
   <time name="dav">    3.19    3.20</time>
   <time name="total">    3.65    3.67</time>
   <energy>
    <i name="e_fr_energy">    -64.37742237 </i>
    <i name="e_wo_entrp">    -64.37742237 </i>
    <i name="e_0_energy">    -64.37742237 </i>
   </energy>
  </scstep>
  <scstep>
   <time name="dav">    3.06    3.06</time>
   <time name="total">    3.52    3.52</time>
   <energy>
    <i name="e_fr_energy">    -64.37763286 </i>
    <i name="e_wo_entrp">    -64.37763286 </i>
    <i name="e_0_energy">    -64.37763286 </i>
   </energy>
  </scstep>
  <scstep>
   <time name="dav">    3.08    3.09</time>
   <time name="total">    3.54    3.57</time>
   <energy>
    <i name="e_fr_energy">    -64.37773930 </i>
    <i name="e_wo_entrp">    -64.37773930 </i>
    <i name="e_0_energy">    -64.37773930 </i>
   </energy>
  </scstep>
  <scstep>
   <time name="dav">    3.00    3.01</time>
   <time name="total">    3.47    3.47</time>
   <energy>
    <i name="e_fr_energy">    -64.37787345 </i>
    <i name="e_wo_entrp">    -64.37787345 </i>
    <i name="e_0_energy">    -64.37787345 </i>
   </energy>
  </scstep>
  <scstep>
   <time name="dav">    3.06    3.06</time>
   <time name="total">    3.36    3.40</time>
   <energy>
    <i name="alphaZ">     89.61854074 </i>
    <i name="ewald">  67069.47664651 </i>
    <i name="hartreedc"> -97918.27625185 </i>
    <i name="XCdc">   -351.51414705 </i>
    <i name="pawpsdc">  33535.81773151 </i>
    <i name="pawaedc"> -32163.14450359 </i>
    <i name="eentropy">      0.00000000 </i>
    <i name="bandstr">  -2479.51350679 </i>
    <i name="atom">  32153.15753268 </i>
    <i name="e_fr_energy">    -64.37795783 </i>
    <i name="e_wo_entrp">    -64.37795783 </i>
    <i name="e_0_energy">    -64.37795783 </i>
   </energy>
  </scstep>
  <structure>
   <crystal>
    <varray name="basis" >
     <v>      20.89359795       0.00000000       0.00000000 </v>
     <v>       0.00000000      20.89359795       0.00000000 </v>
     <v>       0.00000000       0.00000000      20.89359795 </v>
    </varray>
    <i name="volume">   9120.94213470 </i>
    <varray name="rec_basis" >
     <v>       0.04786155       0.00000000       0.00000000 </v>
     <v>       0.00000000       0.04786155       0.00000000 </v>
     <v>       0.00000000       0.00000000       0.04786155 </v>
    </varray>
   </crystal>
   <varray name="positions" >
    <v>       0.67806717       0.58525136       0.46654270 </v>
    <v>       0.67257558       0.46272311       0.38769435 </v>
    <v>       0.67732881       0.56409563       0.59901226 </v>
    <v>       0.61365299       0.34018244       0.57415664 </v>
    <v>       0.55231480       0.44109909       0.33471303 </v>
    <v>       0.65438225       0.58278152       0.33681897 </v>
    <v>       0.57413307       0.62555281       0.54035875 </v>
    <v>       0.57775955       0.38287715       0.45303097 </v>
    <v>       0.63240737       0.44810472       0.65030960 </v>
    <v>       0.57286607       0.65876246       0.41152020 </v>
    <v>       0.52604857       0.57056638       0.31465584 </v>
    <v>       0.65826752       0.46140190       0.52006303 </v>
    <v>       0.55547687       0.52374260       0.44475633 </v>
    <v>       0.55278902       0.55562451       0.65171542 </v>
    <v>       0.50857100       0.31949638       0.65114346 </v>
    <v>       0.48225515       0.70634916       0.49814620 </v>
    <v>       0.52367091       0.45054522       0.56466456 </v>
    <v>       0.47516361       0.32606812       0.52405578 </v>
    <v>       0.43686139       0.62782711       0.39423981 </v>
    <v>       0.47235123       0.65698805       0.62399984 </v>
    <v>       0.51052677       0.43954221       0.70382449 </v>
    <v>       0.43700329       0.49423863       0.37807739 </v>
    <v>       0.40610388       0.40046887       0.62085231 </v>
    <v>       0.44875512       0.56356987       0.52671851 </v>
    <v>       0.46190995       0.36264626       0.39581074 </v>
    <v>       0.40395301       0.43465890       0.49234007 </v>
    <v>       0.42207129       0.53227866       0.66853682 </v>
    <v>       0.35592794       0.67101447       0.48918943 </v>
    <v>       0.32630545       0.49760045       0.57498540 </v>
    <v>       0.33730180       0.54469422       0.44883561 </v>
    <v>       0.34359636       0.62236568       0.61190924 </v>
   </varray>
  </structure>
  <varray name="forces" >
   <v>       0.00020915      -0.00943391      -0.06968432 </v>
   <v>      -0.06380107       0.05940787       0.00832117 </v>
   <v>       0.12445454       0.07973215       0.09904429 </v>
   <v>      -0.07884561       0.07049342       0.01082271 </v>
   <v>       0.02468805       0.06204295      -0.20746315 </v>
   <v>      -0.01140892      -0.01233807      -0.11870525 </v>
   <v>       0.16045811       0.05770667       0.09218299 </v>
   <v>      -0.03554437      -0.00475784      -0.13694004 </v>
   <v>      -0.00164365      -0.08584327       0.21514829 </v>
   <v>      -0.05043882       0.00124461      -0.12756332 </v>
   <v>      -0.00824518       0.12113910      -0.11485473 </v>
   <v>       0.04129801       0.01133916       0.13347755 </v>
   <v>       0.06131008       0.00605912      -0.02767326 </v>
   <v>       0.02271169      -0.05129665       0.12494649 </v>
   <v>       0.05686513      -0.00301216       0.12776854 </v>
   <v>       0.00077390       0.05197966      -0.20401363 </v>
   <v>       0.00242914      -0.06204766       0.00586415 </v>
   <v>       0.05473432       0.00495766       0.05909495 </v>
   <v>       0.11650742       0.05209746       0.14355092 </v>
   <v>       0.01828354      -0.05793678      -0.04708372 </v>
   <v>      -0.08257771      -0.02623848       0.12612087 </v>
   <v>       0.01608624       0.01875169      -0.12577751 </v>
   <v>       0.01691419       0.00746986       0.13442993 </v>
   <v>      -0.07745898       0.05801119       0.02023857 </v>
   <v>      -0.09139705      -0.12959266      -0.10858424 </v>
   <v>      -0.06309876      -0.13534471      -0.11775055 </v>
   <v>      -0.09124391      -0.09135546      -0.18707699 </v>
   <v>      -0.03451935       0.08075656      -0.00632961 </v>
   <v>      -0.00660307      -0.06787341       0.21154477 </v>
   <v>       0.06367169      -0.00723225       0.03762562 </v>
   <v>      -0.08456875       0.00111418       0.04931850 </v>
  </varray>
  <varray name="stress" >
   <v>      -1.82437673       0.15326098      -0.04559515 </v>
   <v>       0.15326096      -1.72637723      -0.27540675 </v>
   <v>      -0.04559514      -0.27540675      -1.15385165 </v>
  </varray>
  <energy>
   <i name="e_fr_energy">    -64.37795783 </i>
   <i name="e_wo_entrp">    -64.37795783 </i>
   <i name="e_0_energy">      0.00000000 </i>
  </energy>
  <time name="totalsc">   47.12   47.53</time>
 </calculation>
 <calculation>
  <scstep>
   <time name="dav">    4.03    4.03</time>
   <time name="total">    4.49    4.51</time>
   <energy>
    <i name="alphaZ">     89.61854074 </i>
    <i name="ewald">  66585.77645094 </i>
    <i name="hartreedc"> -97436.77825124 </i>
    <i name="XCdc">   -351.94302378 </i>
    <i name="pawpsdc">  33535.77761684 </i>
    <i name="pawaedc"> -32163.10411119 </i>
    <i name="eentropy">      0.00000000 </i>
    <i name="bandstr">  -2476.79866537 </i>
    <i name="atom">  32153.15753268 </i>
    <i name="e_fr_energy">    -64.29391038 </i>
    <i name="e_wo_entrp">    -64.29391038 </i>
    <i name="e_0_energy">    -64.29391038 </i>
   </energy>
  </scstep>
  <scstep>
   <time name="dav">    4.24    4.24</time>
   <time name="total">    4.70    4.71</time>
   <energy>
    <i name="e_fr_energy">    -64.40027445 </i>
    <i name="e_wo_entrp">    -64.40027445 </i>
    <i name="e_0_energy">    -64.40027445 </i>
   </energy>
  </scstep>
  <scstep>
   <time name="dav">    4.28    4.29</time>
   <time name="total">    4.75    4.77</time>
   <energy>
    <i name="e_fr_energy">    -64.39815276 </i>
    <i name="e_wo_entrp">    -64.39815276 </i>
    <i name="e_0_energy">    -64.39815276 </i>
   </energy>
  </scstep>
  <scstep>
   <time name="dav">    4.17    4.17</time>
   <time name="total">    4.63    4.71</time>
   <energy>
    <i name="e_fr_energy">    -64.39593771 </i>
    <i name="e_wo_entrp">    -64.39593771 </i>
    <i name="e_0_energy">    -64.39593771 </i>
   </energy>
  </scstep>
  <scstep>
   <time name="dav">    4.18    4.19</time>
   <time name="total">    4.65    4.65</time>
   <energy>
    <i name="e_fr_energy">    -64.39616986 </i>
    <i name="e_wo_entrp">    -64.39616986 </i>
    <i name="e_0_energy">    -64.39616986 </i>
   </energy>
  </scstep>
  <scstep>
   <time name="dav">    3.16    3.17</time>
   <time name="total">    3.63    3.66</time>
   <energy>
    <i name="e_fr_energy">    -64.39628165 </i>
    <i name="e_wo_entrp">    -64.39628165 </i>
    <i name="e_0_energy">    -64.39628165 </i>
   </energy>
  </scstep>
  <scstep>
   <time name="dav">    3.07    3.07</time>
   <time name="total">    3.53    3.71</time>
   <energy>
    <i name="e_fr_energy">    -64.39641914 </i>
    <i name="e_wo_entrp">    -64.39641914 </i>
    <i name="e_0_energy">    -64.39641914 </i>
   </energy>
  </scstep>
  <scstep>
   <time name="dav">    3.06    3.06</time>
   <time name="total">    3.36    3.39</time>
   <energy>
    <i name="alphaZ">     89.61854074 </i>
    <i name="ewald">  66585.77645094 </i>
    <i name="hartreedc"> -97440.53898602 </i>
    <i name="XCdc">   -351.85819250 </i>
    <i name="pawpsdc">  33485.84491041 </i>
    <i name="pawaedc"> -32112.25709000 </i>
    <i name="eentropy">     -0.00000000 </i>
    <i name="bandstr">  -2474.13968481 </i>
    <i name="atom">  32153.15753268 </i>
    <i name="e_fr_energy">    -64.39651857 </i>
    <i name="e_wo_entrp">    -64.39651857 </i>
    <i name="e_0_energy">    -64.39651857 </i>
   </energy>
  </scstep>
  <structure>
   <crystal>
    <varray name="basis" >
     <v>      20.89359795       0.00000000       0.00000000 </v>
     <v>       0.00000000      20.89359795       0.00000000 </v>
     <v>       0.00000000       0.00000000      20.89359795 </v>
    </varray>
    <i name="volume">   9120.94213470 </i>
    <varray name="rec_basis" >
     <v>       0.04786155       0.00000000       0.00000000 </v>
     <v>       0.00000000       0.04786155       0.00000000 </v>
     <v>       0.00000000       0.00000000       0.04786155 </v>
    </varray>
   </crystal>
   <varray name="positions" >
    <v>       0.67839950       0.58547374       0.46468201 </v>
    <v>       0.67231585       0.46323788       0.38720323 </v>
    <v>       0.67936947       0.56457876       0.60055690 </v>
    <v>       0.61324134       0.34034286       0.57481392 </v>
    <v>       0.55275732       0.44162415       0.33326172 </v>
    <v>       0.65464993       0.58239286       0.33644015 </v>
    <v>       0.57374638       0.62747329       0.53974533 </v>
    <v>       0.57733694       0.38222661       0.45122836 </v>
    <v>       0.63232464       0.44726187       0.65176823 </v>
    <v>       0.57187619       0.65903308       0.41144560 </v>
    <v>       0.52608809       0.57108255       0.31379465 </v>
    <v>       0.65924627       0.46149857       0.52164145 </v>
    <v>       0.55590162       0.52397871       0.44442108 </v>
    <v>       0.55250394       0.55473685       0.65351333 </v>
    <v>       0.50915366       0.31928222       0.65142686 </v>
    <v>       0.48309560       0.70599666       0.49626927 </v>
    <v>       0.52351957       0.45003063       0.56487947 </v>
    <v>       0.47567016       0.32549291       0.52570430 </v>
    <v>       0.43752035       0.62884656       0.39596831 </v>
    <v>       0.47253414       0.65671848       0.62382975 </v>
    <v>       0.51028108       0.43938895       0.70463103 </v>
    <v>       0.43737551       0.49496798       0.37625282 </v>
    <v>       0.40567361       0.40125652       0.62124305 </v>
    <v>       0.44801021       0.56418713       0.52694657 </v>
    <v>       0.46126620       0.36094016       0.39392697 </v>
    <v>       0.40225766       0.43440510       0.49346691 </v>
    <v>       0.42085168       0.53179171       0.66686665 </v>
    <v>       0.35572065       0.67150943       0.48874338 </v>
    <v>       0.32711748       0.49633898       0.57649888 </v>
    <v>       0.33748180       0.54470657       0.44895501 </v>
    <v>       0.34311094       0.62231613       0.61255253 </v>
   </varray>
  </structure>
  <varray name="forces" >
   <v>      -0.05911292      -0.04756032       0.21190028 </v>
   <v>      -0.06999092      -0.00397628       0.11791672 </v>
   <v>      -0.10891899       0.05126308      -0.05635558 </v>
   <v>      -0.05432689       0.10615001      -0.11585487 </v>
   <v>      -0.03119305       0.02947129      -0.14486436 </v>
   <v>      -0.08122128       0.05993627      -0.19364507 </v>
   <v>       0.40538255      -0.25181309       0.30037856 </v>
   <v>      -0.00843412       0.10041085       0.05184469 </v>
   <v>       0.00831393      -0.01413157       0.15366632 </v>
   <v>       0.13050406      -0.05705909      -0.28546310 </v>
   <v>      -0.01637462       0.15586973      -0.07078250 </v>
   <v>      -0.09047124       0.01263157      -0.01863530 </v>
   <v>       0.03802511      -0.03577254       0.01449983 </v>
   <v>       0.09084154       0.07049988      -0.07645350 </v>
   <v>       0.00132447       0.03198375       0.23255941 </v>
   <v>      -0.20099334       0.23641760      -0.02660930 </v>
   <v>       0.03384609      -0.01866195      -0.03447759 </v>
   <v>       0.00897033       0.11905376      -0.18934578 </v>
   <v>       0.10313723      -0.11850038      -0.06861323 </v>
   <v>       0.01147985      -0.06342029      -0.05640698 </v>
   <v>      -0.12727341      -0.03680287       0.10137063 </v>
   <v>      -0.03941100      -0.08518180       0.06660205 </v>
   <v>       0.14581658      -0.18540043       0.22240509 </v>
   <v>      -0.01288123      -0.00353364      -0.00489601 </v>
   <v>      -0.05532102       0.05198943       0.10008228 </v>
   <v>       0.18609833      -0.23831091      -0.44279885 </v>
   <v>       0.08654877      -0.08670019      -0.02636961 </v>
   <v>      -0.04987699       0.08022231       0.09612997 </v>
   <v>      -0.24199128       0.13660067       0.13574480 </v>
   <v>       0.09382007      -0.02729151       0.04602288 </v>
   <v>      -0.09631663       0.03161667      -0.03955190 </v>
  </varray>
  <varray name="stress" >
   <v>      -2.01717876       0.10618910       0.02065666 </v>
   <v>       0.10618911      -1.97337678      -0.16693522 </v>
   <v>       0.02065667      -0.16693523      -1.46705106 </v>
  </varray>
  <energy>
   <i name="e_fr_energy">    -64.39651857 </i>
   <i name="e_wo_entrp">    -64.39651857 </i>
   <i name="e_0_energy">     -0.00000000 </i>
  </energy>
  <time name="totalsc">   41.17   41.60</time>
 </calculation>
 <calculation>
  <scstep>
   <time name="dav">    4.04    4.04</time>
   <time name="total">    4.50    4.51</time>
   <energy>
    <i name="alphaZ">     89.61854074 </i>
    <i name="ewald">  66776.06678797 </i>
    <i name="hartreedc"> -97630.30269787 </i>
    <i name="XCdc">   -351.69217046 </i>
    <i name="pawpsdc">  33485.64718285 </i>
    <i name="pawaedc"> -32112.05841276 </i>
    <i name="eentropy">      0.00000000 </i>
    <i name="bandstr">  -2474.83244737 </i>
    <i name="atom">  32153.15753268 </i>
    <i name="e_fr_energy">    -64.39568424 </i>
    <i name="e_wo_entrp">    -64.39568424 </i>
    <i name="e_0_energy">    -64.39568424 </i>
   </energy>
  </scstep>
  <scstep>
   <time name="dav">    4.28    4.28</time>
   <time name="total">    4.74    4.74</time>
   <energy>
    <i name="e_fr_energy">    -64.41238283 </i>
    <i name="e_wo_entrp">    -64.41238283 </i>
    <i name="e_0_energy">    -64.41238283 </i>
   </energy>
  </scstep>
  <scstep>
   <time name="dav">    4.36    4.36</time>
   <time name="total">    4.82    4.84</time>
   <energy>
    <i name="e_fr_energy">    -64.41209320 </i>
    <i name="e_wo_entrp">    -64.41209320 </i>
    <i name="e_0_energy">    -64.41209320 </i>
   </energy>
  </scstep>
  <scstep>
   <time name="dav">    4.25    4.25</time>
   <time name="total">    4.71    4.73</time>
   <energy>
    <i name="e_fr_energy">    -64.41189735 </i>
    <i name="e_wo_entrp">    -64.41189735 </i>
    <i name="e_0_energy">    -64.41189735 </i>
   </energy>
  </scstep>
  <scstep>
   <time name="dav">    2.99    3.00</time>
   <time name="total">    3.30    4.03</time>
   <energy>
    <i name="alphaZ">     89.61854074 </i>
    <i name="ewald">  66776.06678797 </i>
    <i name="hartreedc"> -97628.87838340 </i>
    <i name="XCdc">   -351.72984176 </i>
    <i name="pawpsdc">  33503.23330407 </i>
    <i name="pawaedc"> -32129.97912641 </i>
    <i name="eentropy">      0.00000000 </i>
    <i name="bandstr">  -2475.90075732 </i>
    <i name="atom">  32153.15753268 </i>
    <i name="e_fr_energy">    -64.41194344 </i>
    <i name="e_wo_entrp">    -64.41194344 </i>
    <i name="e_0_energy">    -64.41194344 </i>
   </energy>
  </scstep>
  <structure>
   <crystal>
    <varray name="basis" >
     <v>      20.89359795       0.00000000       0.00000000 </v>
     <v>       0.00000000      20.89359795       0.00000000 </v>
     <v>       0.00000000       0.00000000      20.89359795 </v>
    </varray>
    <i name="volume">   9120.94213470 </i>
    <varray name="rec_basis" >
     <v>       0.04786155       0.00000000       0.00000000 </v>
     <v>       0.00000000       0.04786155       0.00000000 </v>
     <v>       0.00000000       0.00000000       0.04786155 </v>
    </varray>
   </crystal>
   <varray name="positions" >
    <v>       0.67826790       0.58538568       0.46541883 </v>
    <v>       0.67241870       0.46303403       0.38739771 </v>
    <v>       0.67856138       0.56438744       0.59994523 </v>
    <v>       0.61340435       0.34027933       0.57455364 </v>
    <v>       0.55258209       0.44141623       0.33383643 </v>
    <v>       0.65454393       0.58254676       0.33659016 </v>
    <v>       0.57389951       0.62671280       0.53998824 </v>
    <v>       0.57750429       0.38248422       0.45194218 </v>
    <v>       0.63235740       0.44759563       0.65119062 </v>
    <v>       0.57226818       0.65892592       0.41147514 </v>
    <v>       0.52607244       0.57087815       0.31413568 </v>
    <v>       0.65885869       0.46146029       0.52101640 </v>
    <v>       0.55573342       0.52388521       0.44455384 </v>
    <v>       0.55261683       0.55508836       0.65280137 </v>
    <v>       0.50892293       0.31936702       0.65131464 </v>
    <v>       0.48276279       0.70613624       0.49701252 </v>
    <v>       0.52357950       0.45023441       0.56479437 </v>
    <v>       0.47546957       0.32572069       0.52505150 </v>
    <v>       0.43725941       0.62844287       0.39528384 </v>
    <v>       0.47246171       0.65682523       0.62389710 </v>
    <v>       0.51037837       0.43944964       0.70431165 </v>
    <v>       0.43722811       0.49467916       0.37697534 </v>
    <v>       0.40584400       0.40094462       0.62108832 </v>
    <v>       0.44830519       0.56394270       0.52685626 </v>
    <v>       0.46152112       0.36161577       0.39467293 </v>
    <v>       0.40292901       0.43450560       0.49302069 </v>
    <v>       0.42133463       0.53198454       0.66752803 </v>
    <v>       0.35580273       0.67131343       0.48892001 </v>
    <v>       0.32679593       0.49683851       0.57589955 </v>
    <v>       0.33741052       0.54470168       0.44890773 </v>
    <v>       0.34330316       0.62233575       0.61229779 </v>
   </varray>
  </structure>
  <varray name="forces" >
   <v>      -0.03824347      -0.03367843       0.10483273 </v>
   <v>      -0.06867682       0.02251543       0.07615546 </v>
   <v>      -0.02731875       0.06309483      -0.00249962 </v>
   <v>      -0.06598248       0.09312854      -0.06792061 </v>
   <v>      -0.01056892       0.04210511      -0.16879970 </v>
   <v>      -0.05389306       0.03137743      -0.16180138 </v>
   <v>       0.31171163      -0.13606943       0.22197112 </v>
   <v>      -0.01415080       0.06308221      -0.01733391 </v>
   <v>       0.00416288      -0.04163455       0.17797377 </v>
   <v>       0.05580477      -0.03367632      -0.22038943 </v>
   <v>      -0.01422494       0.14224862      -0.08682800 </v>
   <v>      -0.04320205       0.01043026       0.03821711 </v>
   <v>       0.04750676      -0.01978380      -0.00187325 </v>
   <v>       0.06749850       0.02445351      -0.00375188 </v>
   <v>       0.02265439       0.01934233       0.18897229 </v>
   <v>      -0.11887202       0.15763196      -0.09851563 </v>
   <v>       0.02205821      -0.03610570      -0.01925097 </v>
   <v>       0.02763745       0.07623778      -0.09504075 </v>
   <v>       0.11031412      -0.04868289       0.01588927 </v>
   <v>       0.01356527      -0.06146639      -0.05395526 </v>
   <v>      -0.10989372      -0.03126273       0.11067672 </v>
   <v>      -0.01734561      -0.04821042      -0.00074903 </v>
   <v>       0.09301175      -0.10500694       0.18568759 </v>
   <v>      -0.03703735       0.01980503       0.00482585 </v>
   <v>      -0.07100001      -0.01413552       0.02547455 </v>
   <v>       0.09252282      -0.19832649      -0.32104095 </v>
   <v>       0.01322891      -0.08890649      -0.09250697 </v>
   <v>      -0.04198786       0.07964379       0.05547575 </v>
   <v>      -0.14180835       0.05287256       0.16735789 </v>
   <v>       0.08266408      -0.01918509       0.04368982 </v>
   <v>      -0.09013530       0.01816180      -0.00494260 </v>
  </varray>
  <varray name="stress" >
   <v>      -1.95359244       0.12703426      -0.00351910 </v>
   <v>       0.12703425      -1.88858322      -0.20600978 </v>
   <v>      -0.00351909      -0.20600980      -1.36300779 </v>
  </varray>
  <energy>
   <i name="e_fr_energy">    -64.41194344 </i>
   <i name="e_wo_entrp">    -64.41194344 </i>
   <i name="e_0_energy">      0.00000000 </i>
  </energy>
  <time name="totalsc">   29.50   30.36</time>
 </calculation>
 <calculation>
  <scstep>
   <time name="dav">    4.07    4.07</time>
   <time name="total">    4.53    4.54</time>
   <energy>
    <i name="alphaZ">     89.61854074 </i>
    <i name="ewald">  66663.74509522 </i>
    <i name="hartreedc"> -97517.16660121 </i>
    <i name="XCdc">   -351.85375712 </i>
    <i name="pawpsdc">  33503.10193222 </i>
    <i name="pawaedc"> -32129.84695712 </i>
    <i name="eentropy">      0.00000000 </i>
    <i name="bandstr">  -2475.19304841 </i>
    <i name="atom">  32153.15753268 </i>
    <i name="e_fr_energy">    -64.43726299 </i>
    <i name="e_wo_entrp">    -64.43726299 </i>
    <i name="e_0_energy">    -64.43726299 </i>
   </energy>
  </scstep>
  <scstep>
   <time name="dav">    4.27    4.28</time>
   <time name="total">    4.74    4.74</time>
   <energy>
    <i name="e_fr_energy">    -64.44340176 </i>
    <i name="e_wo_entrp">    -64.44340176 </i>
    <i name="e_0_energy">    -64.44340176 </i>
   </energy>
  </scstep>
  <scstep>
   <time name="dav">    4.36    4.36</time>
   <time name="total">    4.82    4.86</time>
   <energy>
    <i name="e_fr_energy">    -64.44329574 </i>
    <i name="e_wo_entrp">    -64.44329574 </i>
    <i name="e_0_energy">    -64.44329574 </i>
   </energy>
  </scstep>
  <scstep>
   <time name="dav">    4.19    4.19</time>
   <time name="total">    4.66    4.98</time>
   <energy>
    <i name="e_fr_energy">    -64.44310320 </i>
    <i name="e_wo_entrp">    -64.44310320 </i>
    <i name="e_0_energy">    -64.44310320 </i>
   </energy>
  </scstep>
  <scstep>
   <time name="dav">    3.00    3.01</time>
   <time name="total">    3.31    3.33</time>
   <energy>
    <i name="alphaZ">     89.61854074 </i>
    <i name="ewald">  66663.74509522 </i>
    <i name="hartreedc"> -97518.13423133 </i>
    <i name="XCdc">   -351.83205501 </i>
    <i name="pawpsdc">  33485.91506148 </i>
    <i name="pawaedc"> -32112.37746607 </i>
    <i name="eentropy">      0.00000000 </i>
    <i name="bandstr">  -2474.53558134 </i>
    <i name="atom">  32153.15753268 </i>
    <i name="e_fr_energy">    -64.44310362 </i>
    <i name="e_wo_entrp">    -64.44310362 </i>
    <i name="e_0_energy">    -64.44310362 </i>
   </energy>
  </scstep>
  <structure>
   <crystal>
    <varray name="basis" >
     <v>      20.89359795       0.00000000       0.00000000 </v>
     <v>       0.00000000      20.89359795       0.00000000 </v>
     <v>       0.00000000       0.00000000      20.89359795 </v>
    </varray>
    <i name="volume">   9120.94213470 </i>
    <varray name="rec_basis" >
     <v>       0.04786155       0.00000000       0.00000000 </v>
     <v>       0.00000000       0.04786155       0.00000000 </v>
     <v>       0.00000000       0.00000000       0.04786155 </v>
    </varray>
   </crystal>
   <varray name="positions" >
    <v>       0.67823488       0.58534771       0.46538922 </v>
    <v>       0.67225108       0.46314333       0.38748505 </v>
    <v>       0.67876587       0.56457237       0.60013569 </v>
    <v>       0.61322280       0.34048238       0.57450348 </v>
    <v>       0.55261731       0.44156527       0.33332161 </v>
    <v>       0.65447202       0.58255919       0.33622472 </v>
    <v>       0.57446232       0.62668867       0.54034627 </v>
    <v>       0.57742307       0.38252574       0.45168018 </v>
    <v>       0.63235511       0.44740733       0.65172437 </v>
    <v>       0.57225249       0.65889406       0.41103320 </v>
    <v>       0.52604953       0.57122259       0.31385636 </v>
    <v>       0.65889770       0.46149298       0.52129104 </v>
    <v>       0.55588037       0.52387625       0.44450776 </v>
    <v>       0.55271324       0.55502408       0.65302140 </v>
    <v>       0.50904108       0.31937789       0.65172133 </v>
    <v>       0.48263580       0.70640101       0.49658180 </v>
    <v>       0.52360365       0.45009847       0.56478377 </v>
    <v>       0.47558787       0.32579755       0.52507349 </v>
    <v>       0.43755924       0.62847627       0.39553363 </v>
    <v>       0.47251146       0.65667051       0.62376971 </v>
    <v>       0.51013163       0.43936891       0.70463085 </v>
    <v>       0.43724115       0.49467680       0.37674310 </v>
    <v>       0.40597211       0.40083817       0.62150214 </v>
    <v>       0.44813829       0.56405963       0.52689458 </v>
    <v>       0.46130037       0.36137224       0.39448467 </v>
    <v>       0.40289616       0.43408430       0.49253318 </v>
    <v>       0.42120634       0.53174848       0.66713525 </v>
    <v>       0.35569412       0.67153233       0.48897247 </v>
    <v>       0.32662034       0.49678272       0.57641940 </v>
    <v>       0.33759551       0.54466559       0.44900857 </v>
    <v>       0.34306488       0.62236513       0.61236946 </v>
   </varray>
  </structure>
  <varray name="forces" >
   <v>      -0.03313799      -0.03394907       0.08552146 </v>
   <v>      -0.07043813       0.02475919       0.07500306 </v>
   <v>      -0.02959720       0.04120160       0.00749562 </v>
   <v>      -0.06658120       0.09025358      -0.06466364 </v>
   <v>      -0.02003357       0.04311643      -0.14470476 </v>
   <v>      -0.04273495       0.02246502      -0.13909234 </v>
   <v>       0.22649437      -0.08542330       0.16075767 </v>
   <v>      -0.01784424       0.07621539      -0.01555358 </v>
   <v>      -0.00455449      -0.03066802       0.15546655 </v>
   <v>       0.05776263      -0.03616039      -0.16565232 </v>
   <v>      -0.02714904       0.11869398      -0.08258247 </v>
   <v>      -0.05715607       0.01052241       0.03745676 </v>
   <v>       0.03107991      -0.01487313      -0.00403086 </v>
   <v>       0.06328002       0.01464847      -0.00790621 </v>
   <v>       0.02600178       0.01452252       0.16382149 </v>
   <v>      -0.05430950       0.11103056      -0.06055192 </v>
   <v>       0.01534764      -0.01959649      -0.00972197 </v>
   <v>       0.03082971       0.06604500      -0.07437311 </v>
   <v>       0.09244447      -0.06163830       0.00949782 </v>
   <v>       0.01457119      -0.05986938      -0.06716481 </v>
   <v>      -0.09280261      -0.01241739       0.10240518 </v>
   <v>      -0.00417427      -0.04635841      -0.00267870 </v>
   <v>       0.08035083      -0.09443899       0.13121875 </v>
   <v>      -0.01786917       0.00544601      -0.00074319 </v>
   <v>      -0.04935971      -0.00012561       0.01354565 </v>
   <v>       0.05565154      -0.14819972      -0.23063735 </v>
   <v>       0.03338257      -0.07448450      -0.07620177 </v>
   <v>      -0.03842860       0.06913113       0.05275698 </v>
   <v>      -0.10383782       0.00934280       0.10531883 </v>
   <v>       0.08369756      -0.02242049       0.05478617 </v>
   <v>      -0.08088568       0.02322913      -0.00879297 </v>
  </varray>
  <varray name="stress" >
   <v>      -2.02755567       0.13950915       0.01214965 </v>
   <v>       0.13950917      -1.96594668      -0.17826944 </v>
   <v>       0.01214966      -0.17826944      -1.48801092 </v>
  </varray>
  <energy>
   <i name="e_fr_energy">    -64.44310362 </i>
   <i name="e_wo_entrp">    -64.44310362 </i>
   <i name="e_0_energy">      0.00000000 </i>
  </energy>
  <time name="totalsc">   29.49   29.99</time>
 </calculation>
 <calculation>
  <scstep>
   <time name="dav">    4.02    4.03</time>
   <time name="total">    4.49    4.55</time>
   <energy>
    <i name="alphaZ">     89.61854074 </i>
    <i name="ewald">  66328.10875127 </i>
    <i name="hartreedc"> -97184.08978048 </i>
    <i name="XCdc">   -352.18116834 </i>
    <i name="pawpsdc">  33485.97663325 </i>
    <i name="pawaedc"> -32112.43932313 </i>
    <i name="eentropy">      0.00000000 </i>
    <i name="bandstr">  -2472.58865852 </i>
    <i name="atom">  32153.15753268 </i>
    <i name="e_fr_energy">    -64.43747254 </i>
    <i name="e_wo_entrp">    -64.43747254 </i>
    <i name="e_0_energy">    -64.43747254 </i>
   </energy>
  </scstep>
  <scstep>
   <time name="dav">    4.19    4.19</time>
   <time name="total">    4.66    4.66</time>
   <energy>
    <i name="e_fr_energy">    -64.49327615 </i>
    <i name="e_wo_entrp">    -64.49327615 </i>
    <i name="e_0_energy">    -64.49327615 </i>
   </energy>
  </scstep>
  <scstep>
   <time name="dav">    4.31    4.32</time>
   <time name="total">    4.77    4.78</time>
   <energy>
    <i name="e_fr_energy">    -64.49260945 </i>
    <i name="e_wo_entrp">    -64.49260945 </i>
    <i name="e_0_energy">    -64.49260945 </i>
   </energy>
  </scstep>
  <scstep>
   <time name="dav">    4.26    4.26</time>
   <time name="total">    4.72    4.73</time>
   <energy>
    <i name="e_fr_energy">    -64.49095937 </i>
    <i name="e_wo_entrp">    -64.49095937 </i>
    <i name="e_0_energy">    -64.49095937 </i>
   </energy>
  </scstep>
  <scstep>
   <time name="dav">    4.28    4.28</time>
   <time name="total">    4.74    4.75</time>
   <energy>
    <i name="e_fr_energy">    -64.49096019 </i>
    <i name="e_wo_entrp">    -64.49096019 </i>
    <i name="e_0_energy">    -64.49096019 </i>
   </energy>
  </scstep>
  <scstep>
   <time name="dav">    3.03    3.04</time>
   <time name="total">    3.34    3.34</time>
   <energy>
    <i name="alphaZ">     89.61854074 </i>
    <i name="ewald">  66328.10875127 </i>
    <i name="hartreedc"> -97186.79449027 </i>
    <i name="XCdc">   -352.11794631 </i>
    <i name="pawpsdc">  33440.52714448 </i>
    <i name="pawaedc"> -32066.20858759 </i>
    <i name="eentropy">      0.00000000 </i>
    <i name="bandstr">  -2470.78188511 </i>
    <i name="atom">  32153.15753268 </i>
    <i name="e_fr_energy">    -64.49094011 </i>
    <i name="e_wo_entrp">    -64.49094011 </i>
    <i name="e_0_energy">    -64.49094011 </i>
   </energy>
  </scstep>
  <structure>
   <crystal>
    <varray name="basis" >
     <v>      20.89359795       0.00000000       0.00000000 </v>
     <v>       0.00000000      20.89359795       0.00000000 </v>
     <v>       0.00000000       0.00000000      20.89359795 </v>
    </varray>
    <i name="volume">   9120.94213470 </i>
    <varray name="rec_basis" >
     <v>       0.04786155       0.00000000       0.00000000 </v>
     <v>       0.00000000       0.04786155       0.00000000 </v>
     <v>       0.00000000       0.00000000       0.04786155 </v>
    </varray>
   </crystal>
   <varray name="positions" >
    <v>       0.67813582       0.58523382       0.46530041 </v>
[...]
       <r>    -0.2506     0.0000   195.0000 </r>
       <r>    -0.2103     0.0000   195.0000 </r>
       <r>    -0.1700     0.0000   196.0000 </r>
       <r>    -0.1297     2.1393   196.0862 </r>
       <r>    -0.0895     0.0000   197.0000 </r>
       <r>    -0.0492     0.0000   197.0000 </r>
       <r>    -0.0089     0.0000   197.0000 </r>
       <r>     0.0314     0.0000   197.0000 </r>
       <r>     0.0717     0.0000   198.0000 </r>
       <r>     0.1120     0.0000   199.0000 </r>
       <r>     0.1523     0.0000   199.0000 </r>
       <r>     0.1926     0.0000   199.0000 </r>
       <r>     0.2329     0.0000   199.0000 </r>
       <r>     0.2732     0.0000   200.0000 </r>
       <r>     0.3134     0.0000   201.0000 </r>
       <r>     0.3537     0.0000   201.0000 </r>
       <r>     0.3940     0.0000   202.0000 </r>
       <r>     0.4343     0.0000   202.0000 </r>
       <r>     0.4746     0.0000   202.0000 </r>
       <r>     0.5149     0.0000   202.0000 </r>
       <r>     0.5552     0.0000   202.0000 </r>
       <r>     0.5955     0.0000   202.0000 </r>
       <r>     0.6358     0.0000   203.0000 </r>
       <r>     0.6761     0.0000   205.0000 </r>
       <r>     0.7163     0.0000   205.0000 </r>
       <r>     0.7566     0.0000   205.0000 </r>
       <r>     0.7969     0.0000   205.0000 </r>
       <r>     0.8372    10.6626   207.4296 </r>
       <r>     0.8775     0.0000   208.0000 </r>
       <r>     0.9178     0.0000   209.0000 </r>
       <r>     0.9581     0.0000   209.0000 </r>
       <r>     0.9984     0.0000   211.0000 </r>
       <r>     1.0387     0.0000   211.0000 </r>
       <r>     1.0789     0.0000   212.0000 </r>
       <r>     1.1192     0.0000   214.0000 </r>
       <r>     1.1595     0.0000   216.0000 </r>
       <r>     1.1998     0.0000   217.0000 </r>
       <r>     1.2401     0.0000   220.0000 </r>
       <r>     1.2804     0.0000   220.0000 </r>
       <r>     1.3207     0.0000   220.0000 </r>
       <r>     1.3610     0.0000   220.0000 </r>
       <r>     1.4013     0.0000   220.0000 </r>
       <r>     1.4416     0.0000   220.0000 </r>
       <r>     1.4818     0.0000   220.0000 </r>
       <r>     1.5221     0.0000   220.0000 </r>
       <r>     1.5624     0.0000   220.0000 </r>
       <r>     1.6027     0.0000   220.0000 </r>
       <r>     1.6430     0.0000   220.0000 </r>
       <r>     1.6833     0.0000   220.0000 </r>
       <r>     1.7236     0.0000   220.0000 </r>
       <r>     1.7639     0.0000   220.0000 </r>
       <r>     1.8042     0.0000   220.0000 </r>
      </set>
      <set comment="spin 2">
       <r>   -10.2827     0.0000     0.0000 </r>
       <r>   -10.2424     0.0000     0.0000 </r>
       <r>   -10.2021     0.0000     0.0000 </r>
       <r>   -10.1618     0.0000     0.0000 </r>
       <r>   -10.1215     0.0000     0.0000 </r>
       <r>   -10.0813     0.0000     0.0000 </r>
       <r>   -10.0410     0.0000     0.0000 </r>
       <r>   -10.0007     0.0000     0.0000 </r>
       <r>    -9.9604     0.0000     0.0000 </r>
       <r>    -9.9201     0.0000     0.0000 </r>
       <r>    -9.8798     0.0000     0.0000 </r>
       <r>    -9.8395     0.0000     0.0000 </r>
       <r>    -9.7992     0.0000     0.0000 </r>
       <r>    -9.7589     0.0000     0.0000 </r>
       <r>    -9.7186     0.0000     0.0000 </r>
       <r>    -9.6784     0.0000     1.0000 </r>
       <r>    -9.6381     0.0000     1.0000 </r>
       <r>    -9.5978     0.0000     1.0000 </r>
       <r>    -9.5575     0.0000     1.0000 </r>
       <r>    -9.5172     0.0000     1.0000 </r>
       <r>    -9.4769     0.0000     1.0000 </r>
       <r>    -9.4366     0.0000     1.0000 </r>
       <r>    -9.3963     0.0000     1.0000 </r>
       <r>    -9.3560     0.0000     1.0000 </r>
       <r>    -9.3158     0.0000     1.0000 </r>
       <r>    -9.2755     0.0000     1.0000 </r>
       <r>    -9.2352     0.0000     2.0000 </r>
       <r>    -9.1949     0.0000     3.0000 </r>
       <r>    -9.1546     0.0000     3.0000 </r>
       <r>    -9.1143     0.0000     5.0000 </r>
       <r>    -9.0740     0.0000     6.0000 </r>
       <r>    -9.0337     0.0000     6.0000 </r>
       <r>    -8.9934     0.0000     8.0000 </r>
       <r>    -8.9531     0.0000     9.0000 </r>
       <r>    -8.9129     0.0000    11.0000 </r>
       <r>    -8.8726     0.0000    11.0000 </r>
       <r>    -8.8323     0.0000    13.0000 </r>
       <r>    -8.7920     0.0000    13.0000 </r>
       <r>    -8.7517     5.3386    13.2151 </r>
       <r>    -8.7114     0.0000    14.0000 </r>
       <r>    -8.6711     0.0000    15.0000 </r>
       <r>    -8.6308     0.0000    15.0000 </r>
       <r>    -8.5905     0.0000    17.0000 </r>
       <r>    -8.5503     0.0000    19.0000 </r>
       <r>    -8.5100     0.0000    19.0000 </r>
       <r>    -8.4697     0.0000    20.0000 </r>
       <r>    -8.4294     0.0000    23.0000 </r>
       <r>    -8.3891     0.0000    24.0000 </r>
       <r>    -8.3488     0.0000    25.0000 </r>
       <r>    -8.3085     0.0000    27.0000 </r>
       <r>    -8.2682     0.0000    28.0000 </r>
       <r>    -8.2279     0.0000    31.0000 </r>
       <r>    -8.1876     0.0000    32.0000 </r>
       <r>    -8.1474     0.0000    33.0000 </r>
       <r>    -8.1071     0.0000    35.0000 </r>
       <r>    -8.0668     0.0000    37.0000 </r>
       <r>    -8.0265     0.0000    38.0000 </r>
       <r>    -7.9862     0.0000    40.0000 </r>
       <r>    -7.9459     0.0000    42.0000 </r>
       <r>    -7.9056     0.0000    42.0000 </r>
       <r>    -7.8653    24.7578    45.9975 </r>
       <r>    -7.8250     0.0000    47.0000 </r>
       <r>    -7.7848     0.0000    51.0000 </r>
       <r>    -7.7445     0.0000    53.0000 </r>
       <r>    -7.7042     0.0000    56.0000 </r>
       <r>    -7.6639     0.0000    58.0000 </r>
       <r>    -7.6236     0.0000    60.0000 </r>
       <r>    -7.5833     0.0000    63.0000 </r>
       <r>    -7.5430     0.0000    64.0000 </r>
       <r>    -7.5027     0.0000    66.0000 </r>
       <r>    -7.4624     0.0000    69.0000 </r>
       <r>    -7.4221     0.0000    70.0000 </r>
       <r>    -7.3819     0.0000    72.0000 </r>
       <r>    -7.3416     0.0000    74.0000 </r>
       <r>    -7.3013     0.0000    77.0000 </r>
       <r>    -7.2610     0.0000    80.0000 </r>
       <r>    -7.2207     0.0000    82.0000 </r>
       <r>    -7.1804     0.0000    85.0000 </r>
       <r>    -7.1401     0.0000    88.0000 </r>
       <r>    -7.0998     0.0000    90.0000 </r>
       <r>    -7.0595     0.0000    92.0000 </r>
       <r>    -7.0193     0.0000    93.0000 </r>
       <r>    -6.9790     0.0000    95.0000 </r>
       <r>    -6.9387     0.0000    97.0000 </r>
       <r>    -6.8984     0.0000   100.0000 </r>
       <r>    -6.8581     0.0000   102.0000 </r>
       <r>    -6.8178     0.0000   104.0000 </r>
       <r>    -6.7775     0.0000   107.0000 </r>
       <r>    -6.7372     0.0000   110.0000 </r>
       <r>    -6.6969     0.0000   112.0000 </r>
       <r>    -6.6566     0.0000   114.0000 </r>
       <r>    -6.6164     0.0395   117.0016 </r>
       <r>    -6.5761     0.0000   121.0000 </r>
       <r>    -6.5358     0.0000   125.0000 </r>
       <r>    -6.4955    24.8203   131.0000 </r>
       <r>    -6.4552    21.1773   133.8532 </r>
       <r>    -6.4149     0.0000   138.0000 </r>
       <r>    -6.3746     0.0000   142.0000 </r>
       <r>    -6.3343     0.0000   145.0000 </r>
       <r>    -6.2940     0.0000   146.0000 </r>
       <r>    -6.2537     0.0000   149.0000 </r>
       <r>    -6.2135     0.0000   152.0000 </r>
       <r>    -6.1732     0.0000   154.0000 </r>
       <r>    -6.1329     0.0000   156.0000 </r>
       <r>    -6.0926     0.0000   157.0000 </r>
       <r>    -6.0523     0.0000   159.0000 </r>
       <r>    -6.0120     0.0000   159.0000 </r>
       <r>    -5.9717     0.0000   159.0000 </r>
       <r>    -5.9314     0.0000   159.0000 </r>
       <r>    -5.8911     0.0000   159.0000 </r>
       <r>    -5.8509     0.0000   159.0000 </r>
       <r>    -5.8106     0.0000   159.0000 </r>
       <r>    -5.7703     0.0000   159.0000 </r>
       <r>    -5.7300     0.0000   159.0000 </r>
       <r>    -5.6897     0.0000   159.0000 </r>
       <r>    -5.6494     0.0000   160.0000 </r>
       <r>    -5.6091     0.0000   160.0000 </r>
       <r>    -5.5688     0.0000   161.0000 </r>
       <r>    -5.5285     0.0000   161.0000 </r>
       <r>    -5.4882     0.0000   161.0000 </r>
       <r>    -5.4480     0.0000   161.0000 </r>
       <r>    -5.4077     0.0000   161.0000 </r>
       <r>    -5.3674     0.0000   161.0000 </r>
       <r>    -5.3271     0.0000   161.0000 </r>
       <r>    -5.2868     0.0000   161.0000 </r>
       <r>    -5.2465     0.0000   162.0000 </r>
       <r>    -5.2062     0.0000   163.0000 </r>
       <r>    -5.1659     0.0000   163.0000 </r>
       <r>    -5.1256     0.0000   163.0000 </r>
       <r>    -5.0854     0.0000   163.0000 </r>
       <r>    -5.0451     0.0000   163.0000 </r>
       <r>    -5.0048     0.0000   163.0000 </r>
       <r>    -4.9645     0.0000   163.0000 </r>
       <r>    -4.9242     0.0000   163.0000 </r>
       <r>    -4.8839     0.0000   163.0000 </r>
       <r>    -4.8436     0.0000   164.0000 </r>
       <r>    -4.8033     0.0000   164.0000 </r>
       <r>    -4.7630     0.0000   164.0000 </r>
       <r>    -4.7227     0.0000   164.0000 </r>
       <r>    -4.6825     0.0000   164.0000 </r>
       <r>    -4.6422     0.0000   164.0000 </r>
       <r>    -4.6019     0.0000   164.0000 </r>
       <r>    -4.5616     0.0000   164.0000 </r>
       <r>    -4.5213     0.0000   165.0000 </r>
       <r>    -4.4810     0.0000   165.0000 </r>
       <r>    -4.4407     0.0000   165.0000 </r>
       <r>    -4.4004     0.0000   165.0000 </r>
       <r>    -4.3601     0.0000   165.0000 </r>
       <r>    -4.3199     0.0000   165.0000 </r>
       <r>    -4.2796     0.0000   165.0000 </r>
       <r>    -4.2393     0.0000   165.0000 </r>
       <r>    -4.1990     0.0000   166.0000 </r>
       <r>    -4.1587     0.0000   166.0000 </r>
       <r>    -4.1184     0.0000   166.0000 </r>
       <r>    -4.0781     0.0000   166.0000 </r>
       <r>    -4.0378     0.0000   166.0000 </r>
       <r>    -3.9975     0.0000   166.0000 </r>
       <r>    -3.9572     0.0000   166.0000 </r>
       <r>    -3.9170     0.0000   167.0000 </r>
       <r>    -3.8767     0.0000   168.0000 </r>
       <r>    -3.8364     0.0000   168.0000 </r>
       <r>    -3.7961     0.0000   168.0000 </r>
       <r>    -3.7558     0.0000   168.0000 </r>
       <r>    -3.7155     0.0000   169.0000 </r>
       <r>    -3.6752     0.0000   169.0000 </r>
       <r>    -3.6349     0.0000   169.0000 </r>
       <r>    -3.5946     0.0000   169.0000 </r>
       <r>    -3.5544     0.0000   169.0000 </r>
       <r>    -3.5141     0.0000   169.0000 </r>
       <r>    -3.4738     0.0000   170.0000 </r>
       <r>    -3.4335     0.0000   170.0000 </r>
       <r>    -3.3932     0.0000   170.0000 </r>
       <r>    -3.3529     0.0000   170.0000 </r>
       <r>    -3.3126     0.0000   170.0000 </r>
       <r>    -3.2723     0.0000   170.0000 </r>
       <r>    -3.2320     0.0000   170.0000 </r>
       <r>    -3.1917     0.0000   171.0000 </r>
       <r>    -3.1515     0.0000   171.0000 </r>
       <r>    -3.1112     0.0000   171.0000 </r>
       <r>    -3.0709     0.0000   171.0000 </r>
       <r>    -3.0306     0.0000   171.0000 </r>
       <r>    -2.9903     0.0000   171.0000 </r>
       <r>    -2.9500     0.0000   171.0000 </r>
       <r>    -2.9097     0.0000   172.0000 </r>
       <r>    -2.8694     0.0000   172.0000 </r>
       <r>    -2.8291     0.0000   173.0000 </r>
       <r>    -2.7888     0.0000   173.0000 </r>
       <r>    -2.7486     0.0000   173.0000 </r>
       <r>    -2.7083     0.0000   173.0000 </r>
       <r>    -2.6680     0.0000   173.0000 </r>
       <r>    -2.6277     0.0000   173.0000 </r>
       <r>    -2.5874     0.0000   174.0000 </r>
       <r>    -2.5471     0.0000   174.0000 </r>
       <r>    -2.5068     0.0000   175.0000 </r>
       <r>    -2.4665     0.0000   175.0000 </r>
       <r>    -2.4262     0.0000   175.0000 </r>
       <r>    -2.3860     0.0000   175.0000 </r>
       <r>    -2.3457     0.0000   175.0000 </r>
       <r>    -2.3054     0.0000   175.0000 </r>
       <r>    -2.2651     0.0000   175.0000 </r>
       <r>    -2.2248     0.0000   176.0000 </r>
       <r>    -2.1845     0.0000   176.0000 </r>
       <r>    -2.1442     0.0000   176.0000 </r>
       <r>    -2.1039     0.0000   177.0000 </r>
       <r>    -2.0636     0.0000   177.0000 </r>
       <r>    -2.0233     0.0000   178.0000 </r>
       <r>    -1.9831     0.0000   179.0000 </r>
       <r>    -1.9428     0.0000   179.0000 </r>
       <r>    -1.9025     0.0000   179.0000 </r>
       <r>    -1.8622     0.0000   180.0000 </r>
       <r>    -1.8219     0.0000   180.0000 </r>
       <r>    -1.7816     0.0000   180.0000 </r>
       <r>    -1.7413     0.0000   180.0000 </r>
       <r>    -1.7010     0.0000   181.0000 </r>
       <r>    -1.6607     0.0000   181.0000 </r>
       <r>    -1.6205     0.0000   181.0000 </r>
       <r>    -1.5802     0.0000   181.0000 </r>
       <r>    -1.5399     0.0000   181.0000 </r>
       <r>    -1.4996     0.0000   182.0000 </r>
       <r>    -1.4593     0.0000   182.0000 </r>
       <r>    -1.4190     0.0000   183.0000 </r>
       <r>    -1.3787     0.0000   183.0000 </r>
       <r>    -1.3384     0.0000   183.0000 </r>
       <r>    -1.2981     0.0000   183.0000 </r>
       <r>    -1.2578     0.0000   184.0000 </r>
       <r>    -1.2176     0.0000   184.0000 </r>
       <r>    -1.1773     0.0000   185.0000 </r>
       <r>    -1.1370     0.0000   185.0000 </r>
       <r>    -1.0967     0.0000   185.0000 </r>
       <r>    -1.0564     0.0000   186.0000 </r>
       <r>    -1.0161     0.0000   186.0000 </r>
       <r>    -0.9758     0.0000   187.0000 </r>
       <r>    -0.9355     0.0000   187.0000 </r>
       <r>    -0.8952     0.0000   187.0000 </r>
       <r>    -0.8550     0.0000   188.0000 </r>
       <r>    -0.8147     0.0000   188.0000 </r>
       <r>    -0.7744     0.0000   188.0000 </r>
       <r>    -0.7341     0.0000   188.0000 </r>
       <r>    -0.6938     0.0000   188.0000 </r>
       <r>    -0.6535     0.0000   189.0000 </r>
       <r>    -0.6132     0.0000   190.0000 </r>
       <r>    -0.5729     0.0000   190.0000 </r>
       <r>    -0.5326     0.0000   191.0000 </r>
       <r>    -0.4923     0.0000   191.0000 </r>
       <r>    -0.4521     0.0000   191.0000 </r>
       <r>    -0.4118     0.0000   191.0000 </r>
       <r>    -0.3715     0.0000   191.0000 </r>
       <r>    -0.3312     0.0000   193.0000 </r>
       <r>    -0.2909     0.0000   194.0000 </r>
       <r>    -0.2506     0.0000   195.0000 </r>
       <r>    -0.2103     0.0000   195.0000 </r>
       <r>    -0.1700     0.0000   195.0000 </r>
       <r>    -0.1297     0.0000   196.0000 </r>
       <r>    -0.0895     0.0000   196.0000 </r>
       <r>    -0.0492     0.0000   197.0000 </r>
       <r>    -0.0089     0.0000   197.0000 </r>
       <r>     0.0314     0.0000   197.0000 </r>
       <r>     0.0717     0.0000   197.0000 </r>
       <r>     0.1120     0.0000   198.0000 </r>
       <r>     0.1523     0.0000   199.0000 </r>
       <r>     0.1926     0.0000   199.0000 </r>
       <r>     0.2329     0.0000   199.0000 </r>
       <r>     0.2732     0.0000   199.0000 </r>
       <r>     0.3134     0.0000   200.0000 </r>
       <r>     0.3537     0.0000   201.0000 </r>
       <r>     0.3940     0.0000   202.0000 </r>
       <r>     0.4343     0.0000   202.0000 </r>
       <r>     0.4746     0.0000   202.0000 </r>
       <r>     0.5149     0.0000   202.0000 </r>
       <r>     0.5552     0.0000   202.0000 </r>
       <r>     0.5955     0.0000   202.0000 </r>
       <r>     0.6358     0.0000   203.0000 </r>
       <r>     0.6761     0.0000   203.0000 </r>
       <r>     0.7163     0.0000   205.0000 </r>
       <r>     0.7566     0.0000   205.0000 </r>
       <r>     0.7969     0.0000   205.0000 </r>
       <r>     0.8372     0.0000   207.0000 </r>
       <r>     0.8775     0.0000   208.0000 </r>
       <r>     0.9178     0.0000   208.0000 </r>
       <r>     0.9581     0.0000   209.0000 </r>
       <r>     0.9984     0.0000   210.0000 </r>
       <r>     1.0387     0.0000   211.0000 </r>
       <r>     1.0789     0.0000   212.0000 </r>
       <r>     1.1192     0.0000   213.0000 </r>
       <r>     1.1595     0.0000   215.0000 </r>
       <r>     1.1998     0.0000   216.0000 </r>
       <r>     1.2401     0.0000   219.0000 </r>
       <r>     1.2804     0.0000   220.0000 </r>
       <r>     1.3207     0.0000   220.0000 </r>
       <r>     1.3610     0.0000   220.0000 </r>
       <r>     1.4013     0.0000   220.0000 </r>
       <r>     1.4416     0.0000   220.0000 </r>
       <r>     1.4818     0.0000   220.0000 </r>
       <r>     1.5221     0.0000   220.0000 </r>
       <r>     1.5624     0.0000   220.0000 </r>
       <r>     1.6027     0.0000   220.0000 </r>
       <r>     1.6430     0.0000   220.0000 </r>
       <r>     1.6833     0.0000   220.0000 </r>
       <r>     1.7236     0.0000   220.0000 </r>
       <r>     1.7639     0.0000   220.0000 </r>
       <r>     1.8042     0.0000   220.0000 </r>
      </set>
     </set>
    </array>
   </total>
  </dos>
 </calculation>
 <structure name="finalpos" >
  <crystal>
   <varray name="basis" >
    <v>      20.89359795       0.00000000       0.00000000 </v>
    <v>       0.00000000      20.89359795       0.00000000 </v>
    <v>       0.00000000       0.00000000      20.89359795 </v>
   </varray>
   <i name="volume">   9120.94213470 </i>
   <varray name="rec_basis" >
    <v>       0.04786155       0.00000000       0.00000000 </v>
    <v>       0.00000000       0.04786155       0.00000000 </v>
    <v>       0.00000000       0.00000000       0.04786155 </v>
   </varray>
  </crystal>
  <varray name="positions" >
   <v>       0.68739317       0.58500133       0.45970500 </v>
   <v>       0.66766195       0.45461289       0.40565946 </v>
   <v>       0.67981461       0.57379878       0.60736182 </v>
   <v>       0.61451422       0.34895660       0.55819458 </v>
   <v>       0.55427542       0.45093678       0.32543020 </v>
   <v>       0.65464939       0.56271439       0.32447514 </v>
   <v>       0.58337569       0.63265001       0.53197104 </v>
   <v>       0.54491062       0.41171526       0.45705250 </v>
   <v>       0.62392015       0.44173012       0.66178564 </v>
   <v>       0.58815812       0.66987858       0.39699924 </v>
   <v>       0.52051933       0.58389016       0.30492791 </v>
   <v>       0.62468788       0.48643943       0.53236732 </v>
   <v>       0.56798751       0.54297916       0.42048959 </v>
   <v>       0.54934376       0.55491077       0.64000430 </v>
   <v>       0.53078315       0.32324061       0.66204027 </v>
   <v>       0.50023012       0.72588955       0.48672934 </v>
   <v>       0.51285827       0.43082573       0.58957367 </v>
   <v>       0.47816323       0.31687913       0.53189037 </v>
   <v>       0.45328913       0.62760508       0.41294124 </v>
   <v>       0.45970615       0.64591539       0.59032922 </v>
   <v>       0.49776197       0.44316553       0.71925394 </v>
   <v>       0.44172081       0.49517472       0.38972061 </v>
   <v>       0.40005471       0.38196113       0.63359619 </v>
   <v>       0.48144222       0.53599554       0.51838115 </v>
   <v>       0.45044580       0.36005581       0.38839759 </v>
   <v>       0.40079107       0.42234087       0.49898581 </v>
   <v>       0.41819336       0.52254029       0.64498369 </v>
   <v>       0.36991823       0.68791360       0.49860446 </v>
   <v>       0.31206216       0.47395978       0.58344674 </v>
   <v>       0.35514080       0.55112388       0.47916307 </v>
   <v>       0.32662480       0.60831702       0.59821664 </v>
  </varray>
 </structure>
</modeling>
