       N       E                     dE             d eps       ncg     rms          rms(c)
DAV:   1     0.561401462954E+03    0.56140E+03   -0.18752E+04   288   0.578E+02
DAV:   2     0.660036420008E+02   -0.49540E+03   -0.45170E+03   408   0.157E+02
DAV:   3    -0.266300925993E+02   -0.92634E+02   -0.83100E+02   360   0.102E+02
DAV:   4    -0.339042043108E+02   -0.72741E+01   -0.66658E+01   328   0.316E+01
DAV:   5    -0.340652244931E+02   -0.16102E+00   -0.16021E+00   344   0.398E+00    0.156E+01
DAV:   6    -0.365894791677E+02   -0.25243E+01   -0.51263E+01   328   0.579E+01    0.454E+01
DAV:   7    -0.356126765996E+02    0.97680E+00   -0.62856E+01   304   0.608E+01    0.324E+01
DAV:   8    -0.352671642364E+02    0.34551E+00   -0.16887E+01   400   0.466E+01    0.423E+01
DAV:   9    -0.329232923991E+02    0.23439E+01   -0.10382E+01   360   0.306E+01    0.363E+01
DAV:  10    -0.307151208958E+02    0.22082E+01   -0.73330E+00   384   0.236E+01    0.278E+01
DAV:  11    -0.304430772617E+02    0.27204E+00   -0.53549E+00   392   0.165E+01    0.270E+01
DAV:  12    -0.310053455945E+02   -0.56227E+00   -0.65869E+00   376   0.259E+01    0.327E+01
DAV:  13    -0.310989627260E+02   -0.93617E-01   -0.36738E+00   384   0.222E+01    0.388E+01
DAV:  14    -0.306523132885E+02    0.44665E+00   -0.33676E+00   368   0.184E+01    0.383E+01
DAV:  15    -0.297301417643E+02    0.92217E+00   -0.54409E+00   384   0.129E+01    0.225E+01
DAV:  16    -0.296479733038E+02    0.82168E-01   -0.29486E+00   344   0.147E+01    0.195E+01
DAV:  17    -0.298220539123E+02   -0.17408E+00   -0.19078E+00   368   0.104E+01    0.172E+01
DAV:  18    -0.296817916464E+02    0.14026E+00   -0.88096E-01   336   0.943E+00    0.181E+01
DAV:  19    -0.293985192456E+02    0.28327E+00   -0.72002E-01   320   0.814E+00    0.105E+01
DAV:  20    -0.294899323503E+02   -0.91413E-01   -0.31428E-01   360   0.511E+00    0.723E+00
DAV:  21    -0.295900464234E+02   -0.10011E+00   -0.12065E-01   312   0.395E+00    0.777E+00
DAV:  22    -0.296432545537E+02   -0.53208E-01   -0.83003E-02   368   0.303E+00    0.759E+00
DAV:  23    -0.296729944489E+02   -0.29740E-01   -0.41110E-02   376   0.162E+00    0.767E+00
DAV:  24    -0.297837717865E+02   -0.11078E+00   -0.52906E-02   392   0.205E+00    0.878E+00
DAV:  25    -0.298347586658E+02   -0.50987E-01   -0.40277E-02   384   0.228E+00    0.838E+00
DAV:  26    -0.299581411055E+02   -0.12338E+00   -0.63751E-02   376   0.239E+00    0.673E+00
DAV:  27    -0.300308528225E+02   -0.72712E-01   -0.66246E-02   320   0.212E+00    0.553E+00
DAV:  28    -0.300408786845E+02   -0.10026E-01   -0.47024E-02   320   0.148E+00    0.533E+00
DAV:  29    -0.299157279828E+02    0.12515E+00   -0.20827E-02   320   0.123E+00    0.540E+00
DAV:  30    -0.298510657214E+02    0.64662E-01   -0.10767E-02   376   0.553E-01    0.564E+00
DAV:  31    -0.297881322669E+02    0.62933E-01   -0.47976E-03   288   0.466E-01    0.579E+00
DAV:  32    -0.297628614668E+02    0.25271E-01   -0.20537E-03   344   0.324E-01    0.580E+00
DAV:  33    -0.297837234010E+02   -0.20862E-01   -0.39894E-03   408   0.809E-01    0.549E+00
DAV:  34    -0.298626323365E+02   -0.78909E-01   -0.12758E-02   408   0.116E+00    0.487E+00
DAV:  35    -0.299619522690E+02   -0.99320E-01   -0.24726E-02   376   0.135E+00    0.422E+00
DAV:  36    -0.299833433856E+02   -0.21391E-01   -0.17526E-02   344   0.110E+00    0.453E+00
DAV:  37    -0.299878252467E+02   -0.44819E-02   -0.52761E-03   328   0.595E-01    0.447E+00
DAV:  38    -0.300254809175E+02   -0.37656E-01   -0.31648E-02   376   0.117E+00    0.391E+00
DAV:  39    -0.300905885236E+02   -0.65108E-01   -0.30759E-02   360   0.107E+00    0.380E+00
DAV:  40    -0.300850439944E+02    0.55445E-02   -0.73717E-03   352   0.750E-01    0.384E+00
DAV:  41    -0.301107522344E+02   -0.25708E-01   -0.17252E-02   360   0.165E+00    0.285E+00
DAV:  42    -0.301666331467E+02   -0.55881E-01   -0.16720E-02   368   0.111E+00    0.301E+00
DAV:  43    -0.301194470404E+02    0.47186E-01   -0.66383E-03   336   0.610E-01    0.315E+00
DAV:  44    -0.300951789360E+02    0.24268E-01   -0.16124E-03   320   0.302E-01    0.324E+00
DAV:  45    -0.300677077771E+02    0.27471E-01   -0.53331E-03   400   0.651E-01    0.352E+00
DAV:  46    -0.300427479655E+02    0.24960E-01   -0.69499E-03   384   0.839E-01    0.374E+00
DAV:  47    -0.300112019502E+02    0.31546E-01   -0.35569E-03   328   0.404E-01    0.393E+00
DAV:  48    -0.299828104485E+02    0.28392E-01   -0.13301E-03   288   0.236E-01    0.407E+00
DAV:  49    -0.299652378082E+02    0.17573E-01   -0.83197E-04   256   0.187E-01    0.418E+00
DAV:  50    -0.299465314245E+02    0.18706E-01   -0.71335E-04   232   0.179E-01    0.424E+00
DAV:  51    -0.299346130451E+02    0.11918E-01   -0.21930E-03   360   0.396E-01    0.404E+00
DAV:  52    -0.299686493619E+02   -0.34036E-01   -0.18374E-03   352   0.514E-01    0.391E+00
DAV:  53    -0.300034029501E+02   -0.34754E-01   -0.32955E-03   392   0.550E-01    0.369E+00
DAV:  54    -0.300279707081E+02   -0.24568E-01   -0.31112E-03   368   0.463E-01    0.373E+00
DAV:  55    -0.300379343969E+02   -0.99637E-02   -0.10436E-03   304   0.275E-01    0.372E+00
DAV:  56    -0.300916341021E+02   -0.53700E-01   -0.14998E-01   376   0.214E+00    0.805E+00
DAV:  57    -0.299435973316E+02    0.14804E+00   -0.42022E-02   288   0.259E+00    0.752E+00
DAV:  58    -0.298591460745E+02    0.84451E-01   -0.11728E-02   320   0.650E-01    0.741E+00
DAV:  59    -0.298488025926E+02    0.10343E-01   -0.27957E-03   328   0.356E-01    0.774E+00
DAV:  60    -0.298007819727E+02    0.48021E-01   -0.94717E-03   376   0.660E-01
   1 F= -.29800782E+02 E0= -.29800782E+02  d E =-.298008E+02  mag=     9.9284
       N       E                     dE             d eps       ncg     rms          rms(c)
DAV:   1    -0.303093022248E+02   -0.46050E+00   -0.24767E+01   288   0.178E+01    0.862E+00
DAV:   2    -0.543906906917E+02   -0.24081E+02   -0.33359E+01   312   0.860E+01    0.797E+01
DAV:   3    -0.323859479576E+02    0.22005E+02   -0.42151E+01   336   0.227E+01    0.441E+01
DAV:   4    -0.299957000828E+02    0.23902E+01   -0.12532E+01   400   0.199E+01    0.182E+01
DAV:   5    -0.304097045735E+02   -0.41400E+00   -0.22984E+00   392   0.191E+01    0.160E+01
DAV:   6    -0.303380692496E+02    0.71635E-01   -0.26428E+00   336   0.153E+01    0.133E+01
DAV:   7    -0.303634380277E+02   -0.25369E-01   -0.13965E+00   336   0.177E+01    0.186E+01
DAV:   8    -0.305403665372E+02   -0.17693E+00   -0.31169E+00   328   0.138E+01    0.188E+01
DAV:   9    -0.299283802529E+02    0.61199E+00   -0.15700E+00   320   0.115E+01    0.884E+00
DAV:  10    -0.302708858505E+02   -0.34251E+00   -0.84894E-01   360   0.837E+00    0.109E+01
DAV:  11    -0.302217436253E+02    0.49142E-01   -0.65835E-01   336   0.735E+00    0.949E+00
DAV:  12    -0.301606499801E+02    0.61094E-01   -0.12013E-01   336   0.463E+00    0.740E+00
DAV:  13    -0.303648715696E+02   -0.20422E+00   -0.33392E-01   360   0.523E+00    0.843E+00
DAV:  14    -0.303584675231E+02    0.64040E-02   -0.10845E-01   336   0.489E+00    0.607E+00
DAV:  15    -0.304392004961E+02   -0.80733E-01   -0.74464E-02   360   0.337E+00    0.669E+00
DAV:  16    -0.304160752094E+02    0.23125E-01   -0.32669E-02   320   0.180E+00    0.642E+00
DAV:  17    -0.304291159190E+02   -0.13041E-01   -0.96684E-03   392   0.848E-01    0.646E+00
DAV:  18    -0.304162021718E+02    0.12914E-01   -0.22104E-03   312   0.447E-01    0.652E+00
DAV:  19    -0.304079531600E+02    0.82490E-02   -0.67379E-04   248   0.242E-01    0.650E+00
DAV:  20    -0.303777022814E+02    0.30251E-01   -0.32947E-03   352   0.527E-01    0.657E+00
DAV:  21    -0.303578940089E+02    0.19808E-01   -0.20514E-03   360   0.320E-01    0.666E+00
DAV:  22    -0.303807232505E+02   -0.22829E-01   -0.51439E-03   344   0.523E-01    0.639E+00
DAV:  23    -0.304605608297E+02   -0.79838E-01   -0.13136E-01   416   0.330E+00    0.528E+00
DAV:  24    -0.305203442190E+02   -0.59783E-01   -0.24759E-02   360   0.116E+00    0.522E+00
DAV:  25    -0.305487288881E+02   -0.28385E-01   -0.39352E-03   344   0.440E-01    0.522E+00
DAV:  26    -0.305126540495E+02    0.36075E-01   -0.88955E-03   448   0.110E+00    0.557E+00
DAV:  27    -0.305106843557E+02    0.19697E-02   -0.24971E-03   352   0.447E-01    0.563E+00
DAV:  28    -0.305008999802E+02    0.97844E-02   -0.56139E-03   384   0.729E-01    0.612E+00
DAV:  29    -0.304884515225E+02    0.12448E-01   -0.30262E-03   384   0.499E-01    0.624E+00
DAV:  30    -0.304841802601E+02    0.42713E-02   -0.27919E-02   416   0.121E+00    0.528E+00
DAV:  31    -0.305638526312E+02   -0.79672E-01   -0.30582E-02   400   0.141E+00    0.467E+00
DAV:  32    -0.306468020981E+02   -0.82949E-01   -0.12028E-02   344   0.935E-01    0.462E+00
DAV:  33    -0.306949603511E+02   -0.48158E-01   -0.45813E-03   336   0.585E-01    0.454E+00
DAV:  34    -0.306982546215E+02   -0.32943E-02   -0.62152E-03   344   0.987E-01    0.442E+00
DAV:  35    -0.306578374193E+02    0.40417E-01   -0.32564E-02   408   0.176E+00    0.420E+00
DAV:  36    -0.306800844785E+02   -0.22247E-01   -0.18853E-02   392   0.110E+00    0.415E+00
DAV:  37    -0.307165277027E+02   -0.36443E-01   -0.56750E-03   344   0.638E-01    0.412E+00
DAV:  38    -0.306644930680E+02    0.52035E-01   -0.12916E-02   384   0.906E-01    0.405E+00
DAV:  39    -0.306949487572E+02   -0.30456E-01   -0.27527E-03   312   0.503E-01    0.385E+00
DAV:  40    -0.307715294685E+02   -0.76581E-01   -0.16058E-02   400   0.118E+00    0.288E+00
DAV:  41    -0.308364830444E+02   -0.64954E-01   -0.23079E-02   392   0.117E+00    0.248E+00
DAV:  42    -0.308473177896E+02   -0.10835E-01   -0.11418E-02   320   0.916E-01    0.284E+00
DAV:  43    -0.308050190315E+02    0.42299E-01   -0.63895E-03   344   0.538E-01    0.332E+00
DAV:  44    -0.307614708604E+02    0.43548E-01   -0.95283E-03   408   0.781E-01    0.268E+00
DAV:  45    -0.308509075352E+02   -0.89437E-01   -0.16201E-02   400   0.136E+00    0.237E+00
DAV:  46    -0.308636901646E+02   -0.12783E-01   -0.30587E-02   416   0.129E+00    0.176E+00
DAV:  47    -0.309201589360E+02   -0.56469E-01   -0.12064E-02   312   0.110E+00    0.211E+00
DAV:  48    -0.308959984409E+02    0.24160E-01   -0.43752E-03   344   0.427E-01    0.244E+00
DAV:  49    -0.308638187167E+02    0.32180E-01   -0.18694E-03   288   0.363E-01    0.234E+00
DAV:  50    -0.308495669785E+02    0.14252E-01   -0.53392E-03   392   0.505E-01    0.282E+00
DAV:  51    -0.308030902490E+02    0.46477E-01   -0.40252E-03   344   0.488E-01    0.318E+00
DAV:  52    -0.308000822390E+02    0.30080E-02   -0.59602E-03   384   0.658E-01    0.329E+00
DAV:  53    -0.307763750961E+02    0.23707E-01   -0.16975E-03   328   0.373E-01    0.331E+00
DAV:  54    -0.307622791245E+02    0.14096E-01   -0.65168E-04   232   0.182E-01    0.347E+00
DAV:  55    -0.307529611426E+02    0.93180E-02   -0.11087E-03   264   0.298E-01    0.341E+00
DAV:  56    -0.307573321187E+02   -0.43710E-02   -0.19038E-03   352   0.385E-01    0.336E+00
DAV:  57    -0.307442457232E+02    0.13086E-01   -0.84167E-03   384   0.722E-01    0.302E+00
DAV:  58    -0.307707208153E+02   -0.26475E-01   -0.32666E-03   344   0.555E-01    0.294E+00
DAV:  59    -0.307831228074E+02   -0.12402E-01   -0.11240E-03   368   0.277E-01    0.305E+00
DAV:  60    -0.307911303604E+02   -0.80076E-02   -0.33097E-04   224   0.158E-01
   2 F= -.30791130E+02 E0= -.30791130E+02  d E =-.990348E+00  mag=     9.9487
       N       E                     dE             d eps       ncg     rms          rms(c)
DAV:   1    -0.321527728389E+02   -0.13697E+01   -0.22962E+02   288   0.565E+01    0.751E+00
DAV:   2    -0.374486441570E+02   -0.52959E+01   -0.11280E+01   368   0.466E+01    0.482E+01
DAV:   3    -0.319034796050E+02    0.55452E+01   -0.14364E+01   360   0.325E+01    0.217E+01
DAV:   4    -0.328840393453E+02   -0.98056E+00   -0.11475E+01   352   0.270E+01    0.249E+01
DAV:   5    -0.326379845729E+02    0.24605E+00   -0.71647E+00   360   0.189E+01    0.229E+01
DAV:   6    -0.319566824461E+02    0.68130E+00   -0.18215E+00   360   0.127E+01    0.943E+00
DAV:   7    -0.322851341502E+02   -0.32845E+00   -0.10841E+00   392   0.102E+01    0.900E+00
DAV:   8    -0.324625983160E+02   -0.17746E+00   -0.51987E-01   328   0.838E+00    0.113E+01
DAV:   9    -0.322792110824E+02    0.18339E+00   -0.90750E-01   336   0.925E+00    0.613E+00
DAV:  10    -0.325383779685E+02   -0.25917E+00   -0.26334E-01   368   0.714E+00    0.851E+00
DAV:  11    -0.324042286053E+02    0.13415E+00   -0.54801E-01   312   0.679E+00    0.612E+00
DAV:  12    -0.325040371634E+02   -0.99809E-01   -0.35933E-01   360   0.553E+00    0.734E+00
DAV:  13    -0.324441150808E+02    0.59922E-01   -0.15620E-01   328   0.475E+00    0.441E+00
DAV:  14    -0.324783344217E+02   -0.34219E-01   -0.69100E-02   368   0.300E+00    0.357E+00
DAV:  15    -0.325312661788E+02   -0.52932E-01   -0.32812E-02   360   0.205E+00    0.374E+00
DAV:  16    -0.325347304330E+02   -0.34643E-02   -0.26988E-02   336   0.245E+00    0.365E+00
DAV:  17    -0.325443015371E+02   -0.95711E-02   -0.35501E-02   376   0.218E+00    0.334E+00
DAV:  18    -0.325501749273E+02   -0.58734E-02   -0.30524E-02   344   0.232E+00    0.292E+00
DAV:  19    -0.325849906567E+02   -0.34816E-01   -0.49966E-02   384   0.173E+00    0.215E+00
DAV:  20    -0.326111188011E+02   -0.26128E-01   -0.50910E-02   360   0.152E+00    0.337E+00
DAV:  21    -0.325186630731E+02    0.92456E-01   -0.21739E-02   352   0.123E+00    0.351E+00
DAV:  22    -0.324554020663E+02    0.63261E-01   -0.56721E-03   352   0.554E-01    0.361E+00
DAV:  23    -0.324246471906E+02    0.30755E-01   -0.11957E-03   312   0.204E-01    0.371E+00
DAV:  24    -0.323523463290E+02    0.72301E-01   -0.46888E-03   384   0.713E-01    0.400E+00
DAV:  25    -0.323563079748E+02   -0.39616E-02   -0.10789E-03   304   0.376E-01    0.380E+00
DAV:  26    -0.323516162839E+02    0.46917E-02   -0.19566E-04   184   0.131E-01    0.386E+00
DAV:  27    -0.324069421747E+02   -0.55326E-01   -0.34167E-03   408   0.831E-01    0.340E+00
DAV:  28    -0.324465724073E+02   -0.39630E-01   -0.57656E-03   392   0.819E-01    0.288E+00
DAV:  29    -0.324760541091E+02   -0.29482E-01   -0.30904E-03   376   0.596E-01    0.267E+00
DAV:  30    -0.325315935678E+02   -0.55539E-01   -0.14551E-02   424   0.131E+00    0.164E+00
DAV:  31    -0.325987307452E+02   -0.67137E-01   -0.26486E-02   392   0.109E+00    0.142E+00
DAV:  32    -0.326528784449E+02   -0.54148E-01   -0.12984E-02   312   0.987E-01    0.211E+00
DAV:  33    -0.326168266334E+02    0.36052E-01   -0.73933E-03   344   0.538E-01    0.281E+00
DAV:  34    -0.325637845708E+02    0.53042E-01   -0.10365E-02   344   0.499E-01    0.367E+00
DAV:  35    -0.324936844060E+02    0.70100E-01   -0.52584E-03   328   0.604E-01    0.382E+00
DAV:  36    -0.324509650776E+02    0.42719E-01   -0.23539E-03   312   0.338E-01    0.401E+00
DAV:  37    -0.324091106894E+02    0.41854E-01   -0.23311E-03   368   0.435E-01    0.408E+00
DAV:  38    -0.323557965657E+02    0.53314E-01   -0.36991E-03   392   0.622E-01    0.424E+00
DAV:  39    -0.323090264217E+02    0.46770E-01   -0.48959E-03   392   0.720E-01    0.456E+00
DAV:  40    -0.322974717529E+02    0.11555E-01   -0.25935E-03   416   0.468E-01    0.477E+00
DAV:  41    -0.323094478627E+02   -0.11976E-01   -0.80968E-04   296   0.226E-01    0.472E+00
DAV:  42    -0.322750466456E+02    0.34401E-01   -0.14634E-03   336   0.542E-01    0.495E+00
DAV:  43    -0.322486649946E+02    0.26382E-01   -0.25181E-03   408   0.547E-01    0.537E+00
DAV:  44    -0.322486583242E+02    0.66704E-05   -0.80277E-04   320   0.255E-01
   3 F= -.32248658E+02 E0= -.32248658E+02  d E =-.244788E+01  mag=    10.0299
       N       E                     dE             d eps       ncg     rms          rms(c)
DAV:   1    -0.340033266342E+02   -0.17547E+01   -0.10021E+03   288   0.135E+02    0.124E+01
DAV:   2    -0.479072976873E+02   -0.13904E+02   -0.33437E+01   360   0.792E+01    0.667E+01
DAV:   3    -0.366074854694E+02    0.11300E+02   -0.49479E+01   360   0.414E+01    0.295E+01
DAV:   4    -0.372791059551E+02   -0.67162E+00   -0.14875E+01   344   0.417E+01    0.338E+01
DAV:   5    -0.369881963263E+02    0.29091E+00   -0.94687E+00   376   0.312E+01    0.319E+01
DAV:   6    -0.355545603776E+02    0.14336E+01   -0.38035E+00   368   0.219E+01    0.170E+01
DAV:   7    -0.355071447185E+02    0.47416E-01   -0.14187E+00   400   0.170E+01    0.190E+01
DAV:   8    -0.361428283570E+02   -0.63568E+00   -0.47228E+00   352   0.193E+01    0.211E+01
DAV:   9    -0.354850264855E+02    0.65780E+00   -0.21909E+00   320   0.172E+01    0.130E+01
DAV:  10    -0.354156555621E+02    0.69371E-01   -0.12687E+00   360   0.104E+01    0.829E+00
DAV:  11    -0.357636637537E+02   -0.34801E+00   -0.10306E+00   384   0.922E+00    0.984E+00
DAV:  12    -0.356447996448E+02    0.11886E+00   -0.35829E-01   312   0.940E+00    0.561E+00
DAV:  13    -0.357634926416E+02   -0.11869E+00   -0.21843E-01   416   0.609E+00    0.692E+00
DAV:  14    -0.357267499318E+02    0.36743E-01   -0.13694E-01   328   0.528E+00    0.448E+00
DAV:  15    -0.357830843598E+02   -0.56334E-01   -0.21362E-01   384   0.451E+00    0.609E+00
DAV:  16    -0.357736886726E+02    0.93957E-02   -0.11187E-01   352   0.499E+00    0.340E+00
DAV:  17    -0.358620910449E+02   -0.88402E-01   -0.25419E-01   336   0.517E+00    0.461E+00
DAV:  18    -0.358429860677E+02    0.19105E-01   -0.67621E-02   336   0.344E+00    0.287E+00
DAV:  19    -0.358610663745E+02   -0.18080E-01   -0.27814E-02   416   0.147E+00    0.254E+00
DAV:  20    -0.358781882572E+02   -0.17122E-01   -0.37698E-02   408   0.165E+00    0.252E+00
DAV:  21    -0.358899389805E+02   -0.11751E-01   -0.16645E-02   400   0.131E+00    0.201E+00
DAV:  22    -0.359023941768E+02   -0.12455E-01   -0.85198E-03   408   0.858E-01    0.153E+00
DAV:  23    -0.359208516925E+02   -0.18458E-01   -0.62382E-03   400   0.758E-01    0.119E+00
DAV:  24    -0.359441677097E+02   -0.23316E-01   -0.24258E-02   408   0.968E-01    0.474E+00
DAV:  25    -0.358147139647E+02    0.12945E+00   -0.16724E-02   296   0.163E+00    0.472E+00
DAV:  26    -0.357458026087E+02    0.68911E-01   -0.47536E-03   304   0.357E-01    0.476E+00
DAV:  27    -0.357272810197E+02    0.18522E-01   -0.74139E-04   272   0.160E-01    0.482E+00
DAV:  28    -0.357110800240E+02    0.16201E-01   -0.46021E-04   248   0.185E-01    0.484E+00
DAV:  29    -0.357054617090E+02    0.56183E-02   -0.37703E-04   208   0.166E-01    0.481E+00
DAV:  30    -0.357018829728E+02    0.35787E-02   -0.12303E-03   312   0.233E-01    0.473E+00
DAV:  31    -0.357004688687E+02    0.14141E-02   -0.44128E-03   360   0.401E-01    0.457E+00
DAV:  32    -0.357063037408E+02   -0.58349E-02   -0.57496E-03   320   0.511E-01    0.430E+00
DAV:  33    -0.357133578650E+02   -0.70541E-02   -0.43213E-03   352   0.420E-01    0.397E+00
DAV:  34    -0.357264657034E+02   -0.13108E-01   -0.16296E-03   328   0.337E-01    0.378E+00
DAV:  35    -0.357383361630E+02   -0.11870E-01   -0.19111E-03   384   0.325E-01    0.351E+00
DAV:  36    -0.357452669901E+02   -0.69308E-02   -0.64402E-04   304   0.201E-01    0.346E+00
DAV:  37    -0.357458286905E+02   -0.56170E-03   -0.17853E-04   176   0.860E-02    0.346E+00
DAV:  38    -0.357595571694E+02   -0.13728E-01   -0.17777E-03   336   0.339E-01    0.326E+00
DAV:  39    -0.357770245940E+02   -0.17467E-01   -0.67243E-03   352   0.659E-01    0.267E+00
DAV:  40    -0.357938131905E+02   -0.16789E-01   -0.49301E-03   304   0.473E-01    0.241E+00
DAV:  41    -0.358085886307E+02   -0.14775E-01   -0.35075E-03   336   0.408E-01    0.210E+00
DAV:  42    -0.358105993734E+02   -0.20107E-02   -0.98332E-04   296   0.246E-01    0.203E+00
DAV:  43    -0.358076935848E+02    0.29058E-02   -0.23187E-04   192   0.110E-01    0.202E+00
DAV:  44    -0.358064008777E+02    0.12927E-02   -0.17805E-04   184   0.150E-01    0.201E+00
DAV:  45    -0.358097112872E+02   -0.33104E-02   -0.67235E-04   272   0.235E-01    0.188E+00
DAV:  46    -0.358217421491E+02   -0.12031E-01   -0.22495E-03   344   0.405E-01    0.168E+00
DAV:  47    -0.358231745897E+02   -0.14324E-02   -0.21556E-03   344   0.348E-01    0.175E+00
DAV:  48    -0.358227505187E+02    0.42407E-03   -0.61337E-03   304   0.457E-01    0.247E+00
DAV:  49    -0.358054217747E+02    0.17329E-01   -0.11893E-02   296   0.686E-01    0.344E+00
DAV:  50    -0.357648725026E+02    0.40549E-01   -0.17180E-02   328   0.826E-01    0.399E+00
DAV:  51    -0.357148441474E+02    0.50028E-01   -0.89226E-03   336   0.697E-01    0.420E+00
DAV:  52    -0.356865104663E+02    0.28334E-01   -0.38859E-03   360   0.432E-01    0.429E+00
DAV:  53    -0.356770993378E+02    0.94111E-02   -0.13254E-03   312   0.326E-01    0.430E+00
DAV:  54    -0.356758514955E+02    0.12478E-02   -0.34989E-04   184   0.113E-01    0.429E+00
DAV:  55    -0.356747596214E+02    0.10919E-02   -0.10362E-04   184   0.987E-02    0.430E+00
DAV:  56    -0.356722730519E+02    0.24866E-02   -0.20477E-04   184   0.171E-01    0.437E+00
DAV:  57    -0.356681832686E+02    0.40898E-02   -0.79015E-04   296   0.198E-01    0.442E+00
DAV:  58    -0.356673643060E+02    0.81896E-03   -0.10636E-04   168   0.904E-02    0.442E+00
DAV:  59    -0.356663602098E+02    0.10041E-02   -0.25616E-05   168   0.585E-02    0.443E+00
DAV:  60    -0.356665523695E+02   -0.19216E-03   -0.13890E-05   144   0.248E-02
   4 F= -.35666552E+02 E0= -.35666552E+02  d E =-.586577E+01  mag=    11.5497
       N       E                     dE             d eps       ncg     rms          rms(c)
DAV:   1    -0.164618818603E+02    0.19204E+02   -0.54935E+03   288   0.441E+02    0.332E+01
DAV:   2    -0.499997698293E+02   -0.33538E+02   -0.23023E+02   320   0.131E+02    0.654E+01
DAV:   3    -0.511312140593E+02   -0.11314E+01   -0.16430E+02   304   0.134E+02    0.488E+01
DAV:   4    -0.547313093986E+02   -0.36001E+01   -0.61179E+01   352   0.951E+01    0.630E+01
DAV:   5    -0.449247514099E+02    0.98066E+01   -0.31757E+01   352   0.462E+01    0.373E+01
DAV:   6    -0.413274509931E+02    0.35973E+01   -0.20046E+01   320   0.607E+01    0.324E+01
DAV:   7    -0.409768918621E+02    0.35056E+00   -0.17596E+01   352   0.598E+01    0.365E+01
DAV:   8    -0.382179786152E+02    0.27589E+01   -0.18956E+01   344   0.458E+01    0.326E+01
DAV:   9    -0.363737072674E+02    0.18443E+01   -0.11160E+01   336   0.271E+01    0.128E+01
DAV:  10    -0.372376260443E+02   -0.86392E+00   -0.41375E+00   336   0.257E+01    0.198E+01
DAV:  11    -0.370307627138E+02    0.20686E+00   -0.13955E+00   304   0.160E+01    0.938E+00
DAV:  12    -0.372003181717E+02   -0.16956E+00   -0.90624E-01   312   0.119E+01    0.930E+00
DAV:  13    -0.372692614941E+02   -0.68943E-01   -0.72141E-01   360   0.857E+00    0.894E+00
DAV:  14    -0.373250517373E+02   -0.55790E-01   -0.10679E+00   336   0.965E+00    0.715E+00
DAV:  15    -0.375727706398E+02   -0.24772E+00   -0.59189E-01   336   0.751E+00    0.787E+00
DAV:  16    -0.375608062944E+02    0.11964E-01   -0.19337E-01   304   0.664E+00    0.719E+00
DAV:  17    -0.377315449446E+02   -0.17074E+00   -0.20566E-01   384   0.433E+00    0.579E+00
DAV:  18    -0.379099436802E+02   -0.17840E+00   -0.28974E-01   360   0.751E+00    0.574E+00
DAV:  19    -0.380103338175E+02   -0.10039E+00   -0.54498E-01   320   0.872E+00    0.766E+00
DAV:  20    -0.380309966984E+02   -0.20663E-01   -0.26331E-01   352   0.494E+00    0.588E+00
DAV:  21    -0.380633177132E+02   -0.32321E-01   -0.83934E-02   312   0.202E+00    0.568E+00
DAV:  22    -0.381072937721E+02   -0.43976E-01   -0.18704E-02   336   0.157E+00    0.519E+00
DAV:  23    -0.381532406925E+02   -0.45947E-01   -0.37039E-02   392   0.179E+00    0.413E+00
DAV:  24    -0.382151982018E+02   -0.61958E-01   -0.58176E-02   344   0.182E+00    0.353E+00
DAV:  25    -0.382184215746E+02   -0.32234E-02   -0.10426E-01   376   0.291E+00    0.260E+00
DAV:  26    -0.381741218124E+02    0.44300E-01   -0.75070E-02   400   0.213E+00    0.236E+00
DAV:  27    -0.381375187977E+02    0.36603E-01   -0.39301E-02   312   0.136E+00    0.292E+00
DAV:  28    -0.380599278746E+02    0.77591E-01   -0.18158E-02   312   0.919E-01    0.341E+00
DAV:  29    -0.379850124918E+02    0.74915E-01   -0.57940E-03   368   0.102E+00    0.332E+00
DAV:  30    -0.379629818658E+02    0.22031E-01   -0.20549E-03   336   0.273E-01    0.338E+00
DAV:  31    -0.379520766874E+02    0.10905E-01   -0.25237E-04   208   0.129E-01    0.339E+00
DAV:  32    -0.379538034391E+02   -0.17268E-02   -0.14913E-02   384   0.145E+00    0.395E+00
DAV:  33    -0.378434880898E+02    0.11032E+00   -0.55052E-02   400   0.203E+00    0.562E+00
DAV:  34    -0.377609622387E+02    0.82526E-01   -0.12547E-02   328   0.124E+00    0.568E+00
DAV:  35    -0.376893141049E+02    0.71648E-01   -0.73054E-03   384   0.102E+00    0.588E+00
DAV:  36    -0.376398589753E+02    0.49455E-01   -0.62568E-03   368   0.851E-01    0.628E+00
DAV:  37    -0.376435089703E+02   -0.36500E-02   -0.19613E-03   320   0.259E-01    0.635E+00
DAV:  38    -0.376753793108E+02   -0.31870E-01   -0.64613E-04   304   0.298E-01    0.621E+00
DAV:  39    -0.377965676756E+02   -0.12119E+00   -0.12432E-02   368   0.138E+00    0.530E+00
DAV:  40    -0.378953439706E+02   -0.98776E-01   -0.18961E-02   368   0.168E+00    0.414E+00
DAV:  41    -0.380056623371E+02   -0.11032E+00   -0.17759E-02   392   0.152E+00    0.323E+00
DAV:  42    -0.380614464718E+02   -0.55784E-01   -0.11045E-02   392   0.890E-01    0.237E+00
DAV:  43    -0.381195978743E+02   -0.58151E-01   -0.37018E-03   304   0.634E-01    0.208E+00
DAV:  44    -0.382159025144E+02   -0.96305E-01   -0.10307E-02   432   0.136E+00    0.116E+00
DAV:  45    -0.382732702699E+02   -0.57368E-01   -0.97464E-03   392   0.918E-01    0.422E-01
DAV:  46    -0.382943928843E+02   -0.21123E-01   -0.31003E-03   304   0.397E-01    0.307E-01
DAV:  47    -0.383040333830E+02   -0.96405E-02   -0.51934E-04   288   0.250E-01    0.285E-01
DAV:  48    -0.383567988065E+02   -0.52765E-01   -0.46441E-03   360   0.459E-01    0.527E-01
DAV:  49    -0.383769689093E+02   -0.20170E-01   -0.20161E-03   296   0.387E-01    0.383E-01
DAV:  50    -0.383889474026E+02   -0.11978E-01   -0.12476E-03   248   0.259E-01    0.119E-01
DAV:  51    -0.384054102896E+02   -0.16463E-01   -0.12917E-03   280   0.295E-01    0.154E-01
DAV:  52    -0.384103312994E+02   -0.49210E-02   -0.55162E-04   216   0.230E-01    0.319E-01
DAV:  53    -0.384165287738E+02   -0.61975E-02   -0.38215E-04   216   0.246E-01    0.243E-01
DAV:  54    -0.384222884944E+02   -0.57597E-02   -0.38338E-04   232   0.168E-01    0.165E-01
DAV:  55    -0.384262936773E+02   -0.40052E-02   -0.26170E-04   208   0.114E-01    0.124E-01
DAV:  56    -0.384300769318E+02   -0.37833E-02   -0.28976E-04   224   0.865E-02    0.104E-01
DAV:  57    -0.384327244410E+02   -0.26475E-02   -0.17092E-04   200   0.112E-01    0.573E-02
DAV:  58    -0.384336807132E+02   -0.95627E-03   -0.12724E-04   192   0.119E-01    0.808E-02
DAV:  59    -0.384348715487E+02   -0.11908E-02   -0.69185E-05   192   0.716E-02    0.370E-02
DAV:  60    -0.384360588240E+02   -0.11873E-02   -0.93238E-05   200   0.496E-02
   5 F= -.38436059E+02 E0= -.38436059E+02  d E =-.863528E+01  mag=    11.9993
       N       E                     dE             d eps       ncg     rms          rms(c)
DAV:   1    -0.377147648865E+02    0.72011E+00   -0.63931E+02   288   0.104E+02    0.950E+00
DAV:   2    -0.405428979816E+02   -0.28281E+01   -0.17626E+01   440   0.528E+01    0.317E+01
DAV:   3    -0.393558913851E+02    0.11870E+01   -0.84824E+00   304   0.442E+01    0.284E+01
DAV:   4    -0.382338369778E+02    0.11221E+01   -0.49064E+00   320   0.328E+01    0.180E+01
DAV:   5    -0.383151040598E+02   -0.81267E-01   -0.43116E+00   384   0.264E+01    0.122E+01
DAV:   6    -0.381948445100E+02    0.12026E+00   -0.14225E+00   312   0.203E+01    0.106E+01
DAV:   7    -0.381121131065E+02    0.82731E-01   -0.12299E+00   328   0.128E+01    0.937E+00
DAV:   8    -0.382428090773E+02   -0.13070E+00   -0.70450E-01   304   0.104E+01    0.831E+00
DAV:   9    -0.382315653237E+02    0.11244E-01   -0.58470E-01   304   0.873E+00    0.562E+00
DAV:  10    -0.384886579449E+02   -0.25709E+00   -0.40896E-01   344   0.877E+00    0.826E+00
DAV:  11    -0.383450459603E+02    0.14361E+00   -0.80677E-01   320   0.971E+00    0.327E+00
DAV:  12    -0.386503340822E+02   -0.30529E+00   -0.29034E-01   376   0.806E+00    0.546E+00
DAV:  13    -0.385641940743E+02    0.86140E-01   -0.13526E-01   328   0.717E+00    0.314E+00
DAV:  14    -0.385911272223E+02   -0.26933E-01   -0.11598E-01   384   0.453E+00    0.284E+00
DAV:  15    -0.386003931363E+02   -0.92659E-02   -0.93308E-02   312   0.383E+00    0.235E+00
DAV:  16    -0.386083265057E+02   -0.79334E-02   -0.47549E-02   368   0.340E+00    0.301E+00
DAV:  17    -0.385943324162E+02    0.13994E-01   -0.38461E-02   328   0.325E+00    0.194E+00
DAV:  18    -0.386074639830E+02   -0.13132E-01   -0.43643E-02   400   0.218E+00    0.300E+00
DAV:  19    -0.385595343072E+02    0.47930E-01   -0.15388E-02   344   0.187E+00    0.280E+00
DAV:  20    -0.385193661795E+02    0.40168E-01   -0.62903E-03   336   0.537E-01    0.289E+00
DAV:  21    -0.384900961380E+02    0.29270E-01   -0.53913E-03   352   0.461E-01    0.310E+00
DAV:  22    -0.384707111578E+02    0.19385E-01   -0.16518E-03   288   0.315E-01    0.314E+00
DAV:  23    -0.384169754002E+02    0.53736E-01   -0.13135E-02   376   0.118E+00    0.301E+00
DAV:  24    -0.383172973559E+02    0.99678E-01   -0.22769E-02   392   0.113E+00    0.366E+00
DAV:  25    -0.382831790474E+02    0.34118E-01   -0.13322E-02   304   0.109E+00    0.350E+00
DAV:  26    -0.383044160778E+02   -0.21237E-01   -0.38570E-03   392   0.685E-01    0.338E+00
DAV:  27    -0.383161204432E+02   -0.11704E-01   -0.82757E-03   416   0.825E-01    0.303E+00
DAV:  28    -0.383148681706E+02    0.12523E-02   -0.95137E-03   400   0.896E-01    0.259E+00
DAV:  29    -0.383603601308E+02   -0.45492E-01   -0.65280E-03   376   0.758E-01    0.246E+00
DAV:  30    -0.384095710962E+02   -0.49211E-01   -0.30800E-03   360   0.528E-01    0.233E+00
DAV:  31    -0.384486533280E+02   -0.39082E-01   -0.20450E-03   392   0.580E-01    0.216E+00
DAV:  32    -0.384871494322E+02   -0.38496E-01   -0.28895E-03   392   0.747E-01    0.213E+00
DAV:  33    -0.384836151768E+02    0.35343E-02   -0.36786E-03   408   0.793E-01    0.210E+00
DAV:  34    -0.384813170871E+02    0.22981E-02   -0.16811E-03   368   0.324E-01    0.213E+00
DAV:  35    -0.385082729610E+02   -0.26956E-01   -0.75522E-04   304   0.291E-01    0.195E+00
DAV:  36    -0.385209571509E+02   -0.12684E-01   -0.18919E-04   208   0.153E-01    0.188E+00
DAV:  37    -0.385394647688E+02   -0.18508E-01   -0.48608E-04   256   0.305E-01    0.173E+00
DAV:  38    -0.385718404476E+02   -0.32376E-01   -0.28898E-03   400   0.731E-01    0.131E+00
DAV:  39    -0.386068316637E+02   -0.34991E-01   -0.29934E-03   376   0.682E-01    0.110E+00
DAV:  40    -0.386330878537E+02   -0.26256E-01   -0.19287E-03   368   0.452E-01    0.935E-01
DAV:  41    -0.386484442629E+02   -0.15356E-01   -0.14145E-03   320   0.362E-01    0.823E-01
DAV:  42    -0.386545729243E+02   -0.61287E-02   -0.60191E-04   264   0.226E-01    0.717E-01
DAV:  43    -0.386614555586E+02   -0.68826E-02   -0.38179E-04   200   0.193E-01    0.640E-01
DAV:  44    -0.386666889558E+02   -0.52334E-02   -0.36816E-04   200   0.173E-01    0.554E-01
DAV:  45    -0.386745275665E+02   -0.78386E-02   -0.50885E-04   232   0.231E-01    0.460E-01
DAV:  46    -0.386826562259E+02   -0.81287E-02   -0.14697E-03   384   0.398E-01    0.255E-01
DAV:  47    -0.386856005807E+02   -0.29444E-02   -0.77146E-04   336   0.199E-01    0.213E-01
DAV:  48    -0.386863165796E+02   -0.71600E-03   -0.41013E-04   200   0.193E-01    0.208E-01
DAV:  49    -0.386861883262E+02    0.12825E-03   -0.24181E-04   200   0.125E-01    0.205E-01
DAV:  50    -0.386805317020E+02    0.56566E-02   -0.24668E-04   224   0.150E-01    0.282E-01
DAV:  51    -0.386848618862E+02   -0.43302E-02   -0.17584E-04   208   0.207E-01    0.201E-01
DAV:  52    -0.386869401091E+02   -0.20782E-02   -0.37427E-04   248   0.260E-01    0.107E-01
DAV:  53    -0.386877938624E+02   -0.85375E-03   -0.35756E-04   256   0.135E-01    0.793E-02
DAV:  54    -0.386882300615E+02   -0.43620E-03   -0.20376E-04   192   0.835E-02    0.105E-01
DAV:  55    -0.386882184748E+02    0.11587E-04   -0.88527E-05   160   0.744E-02
   6 F= -.38688218E+02 E0= -.38688218E+02  d E =-.888744E+01  mag=    12.0015
       N       E                     dE             d eps       ncg     rms          rms(c)
DAV:   1    -0.387721308923E+02   -0.83901E-01   -0.70598E+01   288   0.305E+01    0.285E+00
DAV:   2    -0.389514692769E+02   -0.17934E+00   -0.98654E-01   392   0.143E+01    0.102E+01
DAV:   3    -0.386206179113E+02    0.33085E+00   -0.62255E-01   304   0.143E+01    0.411E+00
DAV:   4    -0.389094645997E+02   -0.28885E+00   -0.95611E-01   360   0.104E+01    0.878E+00
DAV:   5    -0.386296472829E+02    0.27982E+00   -0.42715E-01   312   0.755E+00    0.395E+00
DAV:   6    -0.387362055403E+02   -0.10656E+00   -0.15502E-01   328   0.490E+00    0.353E+00
DAV:   7    -0.386399783811E+02    0.96227E-01   -0.24362E-02   320   0.173E+00    0.349E+00
DAV:   8    -0.385885935151E+02    0.51385E-01   -0.49795E-03   312   0.414E-01    0.362E+00
DAV:   9    -0.385718733448E+02    0.16720E-01   -0.28219E-03   320   0.629E-01    0.380E+00
DAV:  10    -0.385628020778E+02    0.90713E-02   -0.70680E-04   304   0.177E-01    0.384E+00
DAV:  11    -0.385384513034E+02    0.24351E-01   -0.66247E-02   368   0.174E+00    0.411E+00
DAV:  12    -0.385753727405E+02   -0.36921E-01   -0.63916E-02   352   0.379E+00    0.441E+00
DAV:  13    -0.385297342850E+02    0.45638E-01   -0.12890E-01   336   0.302E+00    0.308E+00
DAV:  14    -0.386888522558E+02   -0.15912E+00   -0.36160E-02   344   0.301E+00    0.235E+00
DAV:  15    -0.387520597336E+02   -0.63207E-01   -0.17392E-02   344   0.196E+00    0.193E+00
DAV:  16    -0.387951540005E+02   -0.43094E-01   -0.18994E-02   336   0.238E+00    0.191E+00
DAV:  17    -0.388104397552E+02   -0.15286E-01   -0.20842E-02   344   0.200E+00    0.138E+00
DAV:  18    -0.388186281028E+02   -0.81883E-02   -0.52869E-03   360   0.140E+00    0.155E+00
DAV:  19    -0.388137992160E+02    0.48289E-02   -0.34314E-03   320   0.136E+00    0.143E+00
DAV:  20    -0.388146496879E+02   -0.85047E-03   -0.21199E-03   392   0.709E-01    0.128E+00
DAV:  21    -0.388151529002E+02   -0.50321E-03   -0.22310E-03   320   0.882E-01    0.121E+00
DAV:  22    -0.388179876367E+02   -0.28347E-02   -0.22136E-03   328   0.679E-01    0.131E+00
DAV:  23    -0.388095418857E+02    0.84458E-02   -0.79871E-04   328   0.320E-01    0.134E+00
DAV:  24    -0.388020560743E+02    0.74858E-02   -0.30150E-04   240   0.216E-01    0.134E+00
DAV:  25    -0.388057794822E+02   -0.37234E-02   -0.24500E-04   208   0.249E-01    0.133E+00
DAV:  26    -0.388106454546E+02   -0.48660E-02   -0.37394E-04   264   0.288E-01    0.134E+00
DAV:  27    -0.388105711071E+02    0.74348E-04   -0.14442E-03   392   0.482E-01    0.130E+00
DAV:  28    -0.388026626948E+02    0.79084E-02   -0.34398E-03   400   0.648E-01    0.108E+00
DAV:  29    -0.388233887354E+02   -0.20726E-01   -0.15845E-03   320   0.290E-01    0.889E-01
DAV:  30    -0.388377010441E+02   -0.14312E-01   -0.29080E-04   232   0.185E-01    0.860E-01
DAV:  31    -0.388422096950E+02   -0.45087E-02   -0.40498E-04   192   0.161E-01    0.716E-01
DAV:  32    -0.388499179991E+02   -0.77083E-02   -0.22891E-04   200   0.144E-01    0.709E-01
DAV:  33    -0.388523068165E+02   -0.23888E-02   -0.25839E-04   192   0.103E-01    0.614E-01
DAV:  34    -0.388568102328E+02   -0.45034E-02   -0.16977E-04   200   0.838E-02    0.569E-01
DAV:  35    -0.388582840273E+02   -0.14738E-02   -0.10774E-04   192   0.759E-02    0.523E-01
DAV:  36    -0.388601153388E+02   -0.18313E-02   -0.10745E-04   192   0.705E-02    0.481E-01
DAV:  37    -0.388592195964E+02    0.89574E-03   -0.19669E-04   192   0.155E-01    0.461E-01
DAV:  38    -0.388598966861E+02   -0.67709E-03   -0.20443E-04   200   0.123E-01    0.464E-01
DAV:  39    -0.388613415143E+02   -0.14448E-02   -0.21440E-04   208   0.771E-02    0.417E-01
DAV:  40    -0.388641050158E+02   -0.27635E-02   -0.56076E-05   176   0.502E-02    0.395E-01
DAV:  41    -0.388663631442E+02   -0.22581E-02   -0.31381E-05   192   0.294E-02    0.376E-01
DAV:  42    -0.388673028607E+02   -0.93972E-03   -0.14473E-05   168   0.297E-02    0.367E-01
DAV:  43    -0.388682286576E+02   -0.92580E-03   -0.10152E-05   176   0.237E-02    0.365E-01
DAV:  44    -0.388690710536E+02   -0.84240E-03   -0.57389E-06   176   0.234E-02    0.354E-01
DAV:  45    -0.388691201541E+02   -0.49101E-04   -0.57436E-06   168   0.330E-02
   7 F= -.38869120E+02 E0= -.38869120E+02  d E =-.906834E+01  mag=    11.9990
       N       E                     dE             d eps       ncg     rms          rms(c)
DAV:   1    -0.388721032554E+02   -0.30322E-02   -0.42701E+00   288   0.743E+00    0.773E-01
DAV:   2    -0.388881134703E+02   -0.16010E-01   -0.75784E-02   408   0.432E+00    0.265E+00
DAV:   3    -0.388653443897E+02    0.22769E-01   -0.10545E-01   320   0.481E+00    0.250E+00
DAV:   4    -0.388195319320E+02    0.45812E-01   -0.17604E-02   400   0.186E+00    0.164E+00
DAV:   5    -0.388212871928E+02   -0.17553E-02   -0.15355E-02   312   0.104E+00    0.245E+00
DAV:   6    -0.387539602913E+02    0.67327E-01   -0.66518E-03   384   0.960E-01    0.300E+00
DAV:   7    -0.386702485507E+02    0.83712E-01   -0.10902E-02   328   0.131E+00    0.269E+00
DAV:   8    -0.387061678077E+02   -0.35919E-01   -0.18526E-03   360   0.362E-01    0.258E+00
DAV:   9    -0.387413497792E+02   -0.35182E-01   -0.73611E-03   344   0.104E+00    0.211E+00
DAV:  10    -0.387712914908E+02   -0.29942E-01   -0.81022E-03   368   0.888E-01    0.146E+00
DAV:  11    -0.388268016755E+02   -0.55510E-01   -0.75285E-03   352   0.106E+00    0.991E-01
DAV:  12    -0.388591264245E+02   -0.32325E-01   -0.55463E-03   344   0.120E+00    0.588E-01
DAV:  13    -0.388742800805E+02   -0.15154E-01   -0.26576E-03   312   0.835E-01    0.681E-01
DAV:  14    -0.388774239115E+02   -0.31438E-02   -0.25306E-03   320   0.937E-01    0.432E-01
DAV:  15    -0.388869407045E+02   -0.95168E-02   -0.16003E-03   344   0.576E-01    0.191E-01
DAV:  16    -0.388872543072E+02   -0.31360E-03   -0.10280E-03   328   0.501E-01    0.362E-01
DAV:  17    -0.388862451155E+02    0.10092E-02   -0.95098E-04   280   0.427E-01    0.138E-01
DAV:  18    -0.388883849896E+02   -0.21399E-02   -0.36268E-04   192   0.271E-01    0.173E-01
DAV:  19    -0.388886409967E+02   -0.25601E-03   -0.42296E-04   200   0.240E-01    0.266E-01
DAV:  20    -0.388874361106E+02    0.12049E-02   -0.18864E-04   200   0.177E-01    0.283E-01
DAV:  21    -0.388853010735E+02    0.21350E-02   -0.14651E-04   192   0.140E-01    0.324E-01
DAV:  22    -0.388843725976E+02    0.92848E-03   -0.10194E-04   192   0.105E-01    0.348E-01
DAV:  23    -0.388828382787E+02    0.15343E-02   -0.82998E-05   176   0.561E-02    0.369E-01
DAV:  24    -0.388789413434E+02    0.38969E-02   -0.63010E-05   184   0.744E-02    0.417E-01
DAV:  25    -0.388821800778E+02   -0.32387E-02   -0.89495E-05   192   0.160E-01    0.285E-01
DAV:  26    -0.388865576427E+02   -0.43776E-02   -0.20668E-04   208   0.174E-01    0.132E-01
DAV:  27    -0.388875853487E+02   -0.10277E-02   -0.14257E-04   192   0.789E-02    0.172E-01
DAV:  28    -0.388882572574E+02   -0.67191E-03   -0.51341E-05   184   0.904E-02    0.151E-01
DAV:  29    -0.388894532736E+02   -0.11960E-02   -0.11054E-04   184   0.133E-01    0.126E-01
DAV:  30    -0.388896076832E+02   -0.15441E-03   -0.96941E-05   192   0.134E-01    0.685E-02
DAV:  31    -0.388893557237E+02    0.25196E-03   -0.20454E-04   200   0.105E-01    0.730E-02
DAV:  32    -0.388899445933E+02   -0.58887E-03   -0.15157E-04   200   0.677E-02    0.950E-02
DAV:  33    -0.388895501726E+02    0.39442E-03   -0.71871E-05   176   0.406E-02    0.129E-01
DAV:  34    -0.388881013108E+02    0.14489E-02   -0.40898E-05   184   0.426E-02    0.165E-01
DAV:  35    -0.388871526605E+02    0.94865E-03   -0.16470E-05   192   0.230E-02    0.181E-01
DAV:  36    -0.388864169319E+02    0.73573E-03   -0.71832E-06   160   0.138E-02    0.192E-01
DAV:  37    -0.388861794324E+02    0.23750E-03   -0.17143E-06   168   0.106E-02    0.194E-01
DAV:  38    -0.388857508764E+02    0.42856E-03   -0.17724E-06   160   0.976E-03    0.202E-01
DAV:  39    -0.388862853763E+02   -0.53450E-03   -0.25683E-06   160   0.267E-02    0.192E-01
DAV:  40    -0.388867534062E+02   -0.46803E-03   -0.42260E-06   168   0.294E-02    0.175E-01
DAV:  41    -0.388827743782E+02    0.39790E-02   -0.60155E-05   184   0.123E-01    0.233E-01
DAV:  42    -0.388801648892E+02    0.26095E-02   -0.70327E-05   200   0.102E-01    0.285E-01
DAV:  43    -0.388797386377E+02    0.42625E-03   -0.54147E-05   176   0.468E-02    0.290E-01
DAV:  44    -0.388800082036E+02   -0.26957E-03   -0.20639E-05   160   0.301E-02    0.288E-01
DAV:  45    -0.388807045085E+02   -0.69630E-03   -0.17380E-05   184   0.200E-02    0.271E-01
DAV:  46    -0.388813421747E+02   -0.63767E-03   -0.62019E-06   152   0.221E-02    0.266E-01
DAV:  47    -0.388800645151E+02    0.12777E-02   -0.93507E-06   160   0.580E-02    0.295E-01
DAV:  48    -0.388808372085E+02   -0.77269E-03   -0.13598E-05   184   0.208E-02    0.288E-01
DAV:  49    -0.388802755264E+02    0.56168E-03   -0.68580E-06   176   0.330E-02    0.294E-01
DAV:  50    -0.388806023611E+02   -0.32683E-03   -0.62632E-06   144   0.170E-02    0.292E-01
DAV:  51    -0.388811864036E+02   -0.58404E-03   -0.59621E-06   152   0.106E-02    0.282E-01
DAV:  52    -0.388804522764E+02    0.73413E-03   -0.45278E-06   152   0.372E-02    0.294E-01
DAV:  53    -0.388808502389E+02   -0.39796E-03   -0.45030E-06   184   0.154E-02    0.289E-01
DAV:  54    -0.388806899728E+02    0.16027E-03   -0.91299E-06   192   0.220E-02    0.279E-01
DAV:  55    -0.388810905796E+02   -0.40061E-03   -0.63920E-06   176   0.213E-02    0.274E-01
DAV:  56    -0.388815036449E+02   -0.41307E-03   -0.68822E-06   152   0.153E-02    0.266E-01
DAV:  57    -0.388807114531E+02    0.79219E-03   -0.88895E-06   192   0.409E-02    0.273E-01
DAV:  58    -0.388794383666E+02    0.12731E-02   -0.23887E-05   192   0.645E-02    0.289E-01
DAV:  59    -0.388817425551E+02   -0.23042E-02   -0.27299E-05   176   0.425E-02    0.260E-01
DAV:  60    -0.388825847240E+02   -0.84217E-03   -0.98929E-06   176   0.167E-02
   8 F= -.38882585E+02 E0= -.38882585E+02  d E =-.908180E+01  mag=    12.0000
       N       E                     dE             d eps       ncg     rms          rms(c)
DAV:   1    -0.390289675321E+02   -0.14722E+00   -0.94152E+01   288   0.355E+01    0.367E+00
DAV:   2    -0.398800042704E+02   -0.85104E+00   -0.33488E+00   400   0.240E+01    0.205E+01
DAV:   3    -0.386355730515E+02    0.12444E+01   -0.35416E+00   320   0.235E+01    0.893E+00
DAV:   4    -0.388916024201E+02   -0.25603E+00   -0.81687E-01   384   0.108E+01    0.502E+00
DAV:   5    -0.391128881450E+02   -0.22129E+00   -0.94779E-01   328   0.101E+01    0.809E+00
DAV:   6    -0.389387468368E+02    0.17414E+00   -0.46110E-01   328   0.845E+00    0.384E+00
DAV:   7    -0.389720457103E+02   -0.33299E-01   -0.79330E-02   344   0.364E+00    0.233E+00
DAV:   8    -0.389761752479E+02   -0.41295E-02   -0.31219E-02   312   0.194E+00    0.233E+00
DAV:   9    -0.389744774219E+02    0.16978E-02   -0.83688E-03   328   0.120E+00    0.213E+00
DAV:  10    -0.390352877658E+02   -0.60810E-01   -0.17567E-02   328   0.213E+00    0.215E+00
DAV:  11    -0.390941225185E+02   -0.58835E-01   -0.75924E-02   368   0.453E+00    0.398E+00
DAV:  12    -0.390827751518E+02    0.11347E-01   -0.97190E-02   360   0.473E+00    0.200E+00
DAV:  13    -0.391344309993E+02   -0.51656E-01   -0.14277E-01   360   0.365E+00    0.304E+00
DAV:  14    -0.390553562189E+02    0.79075E-01   -0.26352E-02   336   0.262E+00    0.240E+00
DAV:  15    -0.390410031564E+02    0.14353E-01   -0.20485E-02   312   0.192E+00    0.249E+00
DAV:  16    -0.390464523494E+02   -0.54492E-02   -0.68815E-03   376   0.146E+00    0.207E+00
DAV:  17    -0.390622072408E+02   -0.15755E-01   -0.12131E-02   328   0.161E+00    0.205E+00
DAV:  18    -0.390874814706E+02   -0.25274E-01   -0.84831E-03   408   0.116E+00    0.151E+00
DAV:  19    -0.391039588415E+02   -0.16477E-01   -0.46717E-03   384   0.125E+00    0.136E+00
DAV:  20    -0.391278360241E+02   -0.23877E-01   -0.49995E-03   344   0.115E+00    0.118E+00
DAV:  21    -0.391513012344E+02   -0.23465E-01   -0.44072E-03   384   0.976E-01    0.847E-01
DAV:  22    -0.391693350667E+02   -0.18034E-01   -0.42470E-03   384   0.798E-01    0.632E-01
DAV:  23    -0.391743195108E+02   -0.49844E-02   -0.17841E-03   336   0.478E-01    0.530E-01
DAV:  24    -0.391769659524E+02   -0.26464E-02   -0.10575E-03   320   0.318E-01    0.495E-01
DAV:  25    -0.391770531310E+02   -0.87179E-04   -0.36850E-04   224   0.273E-01
   9 F= -.39177053E+02 E0= -.39177053E+02  d E =-.294468E+00  mag=    11.9380
       N       E                     dE             d eps       ncg     rms          rms(c)
DAV:   1    -0.391355526995E+02    0.41413E-01   -0.76625E+01   288   0.320E+01    0.390E+00
DAV:   2    -0.408141854913E+02   -0.16786E+01   -0.50244E+00   376   0.305E+01    0.305E+01
DAV:   3    -0.385458768361E+02    0.22683E+01   -0.70409E+00   320   0.261E+01    0.934E+00
DAV:   4    -0.389670350590E+02   -0.42116E+00   -0.98064E-01   392   0.126E+01    0.554E+00
DAV:   5    -0.391771599112E+02   -0.21012E+00   -0.71147E-01   328   0.946E+00    0.714E+00
DAV:   6    -0.390461137697E+02    0.13105E+00   -0.37866E-01   320   0.837E+00    0.429E+00
DAV:   7    -0.391698293684E+02   -0.12372E+00   -0.38330E-01   336   0.670E+00    0.412E+00
DAV:   8    -0.391127680192E+02    0.57061E-01   -0.63304E-02   336   0.368E+00    0.317E+00
DAV:   9    -0.390824600779E+02    0.30308E-01   -0.43709E-02   336   0.232E+00    0.341E+00
DAV:  10    -0.390937398865E+02   -0.11280E-01   -0.42865E-02   344   0.204E+00    0.313E+00
DAV:  11    -0.391299368840E+02   -0.36197E-01   -0.48847E-02   352   0.237E+00    0.298E+00
DAV:  12    -0.391703110925E+02   -0.40374E-01   -0.12381E-01   376   0.393E+00    0.567E+00
DAV:  13    -0.391169476926E+02    0.53363E-01   -0.10778E-01   344   0.422E+00    0.283E+00
DAV:  14    -0.391598185201E+02   -0.42871E-01   -0.33850E-02   336   0.326E+00    0.205E+00
DAV:  15    -0.391645580420E+02   -0.47395E-02   -0.21301E-02   384   0.175E+00    0.188E+00
DAV:  16    -0.391562190914E+02    0.83390E-02   -0.99840E-03   360   0.144E+00    0.173E+00
DAV:  17    -0.391755879809E+02   -0.19369E-01   -0.12756E-02   360   0.148E+00    0.161E+00
DAV:  18    -0.391835374118E+02   -0.79494E-02   -0.45290E-03   392   0.912E-01    0.156E+00
DAV:  19    -0.391891574348E+02   -0.56200E-02   -0.47432E-03   328   0.122E+00    0.148E+00
DAV:  20    -0.391990670170E+02   -0.99096E-02   -0.38857E-03   384   0.864E-01    0.139E+00
DAV:  21    -0.392020754634E+02   -0.30084E-02   -0.14638E-03   352   0.334E-01    0.130E+00
DAV:  22    -0.392079605041E+02   -0.58850E-02   -0.24150E-03   328   0.521E-01    0.112E+00
DAV:  23    -0.392258916445E+02   -0.17931E-01   -0.12984E-02   384   0.941E-01    0.107E+00
DAV:  24    -0.392212180901E+02    0.46736E-02   -0.67469E-03   328   0.648E-01    0.138E+00
DAV:  25    -0.391927894585E+02    0.28429E-01   -0.26307E-03   336   0.419E-01    0.152E+00
DAV:  26    -0.391499368450E+02    0.42853E-01   -0.19522E-03   304   0.330E-01    0.176E+00
DAV:  27    -0.391334598809E+02    0.16477E-01   -0.43747E-04   296   0.178E-01    0.178E+00
DAV:  28    -0.391320733596E+02    0.13865E-02   -0.62110E-05   168   0.140E-01    0.173E+00
DAV:  29    -0.391721498487E+02   -0.40076E-01   -0.32778E-03   424   0.757E-01    0.127E+00
DAV:  30    -0.391934553152E+02   -0.21305E-01   -0.17180E-02   416   0.167E+00    0.126E+00
DAV:  31    -0.391973191712E+02   -0.38639E-02   -0.45857E-03   296   0.630E-01    0.111E+00
DAV:  32    -0.392082159264E+02   -0.10897E-01   -0.12197E-03   352   0.399E-01    0.836E-01
DAV:  33    -0.392211651689E+02   -0.12949E-01   -0.13555E-03   336   0.381E-01    0.766E-01
DAV:  34    -0.392384466620E+02   -0.17281E-01   -0.22828E-03   376   0.564E-01    0.302E-01
DAV:  35    -0.392362982769E+02    0.21484E-02   -0.11843E-03   320   0.478E-01    0.376E-01
DAV:  36    -0.392301730873E+02    0.61252E-02   -0.16807E-03   328   0.289E-01    0.838E-01
DAV:  37    -0.392368249706E+02   -0.66519E-02   -0.10379E-03   304   0.535E-01    0.446E-01
DAV:  38    -0.392472949997E+02   -0.10470E-01   -0.77978E-04   312   0.242E-01    0.232E-01
DAV:  39    -0.392529043720E+02   -0.56094E-02   -0.27465E-04   224   0.109E-01    0.202E-01
DAV:  40    -0.392550520585E+02   -0.21477E-02   -0.97084E-05   192   0.685E-02    0.162E-01
DAV:  41    -0.392558629618E+02   -0.81090E-03   -0.72498E-05   192   0.455E-02    0.167E-01
DAV:  42    -0.392568027988E+02   -0.93984E-03   -0.38849E-05   200   0.758E-02    0.104E-01
DAV:  43    -0.392577345434E+02   -0.93174E-03   -0.59140E-05   192   0.557E-02    0.542E-02
DAV:  44    -0.392581327510E+02   -0.39821E-03   -0.35714E-05   192   0.325E-02    0.551E-02
DAV:  45    -0.392582758723E+02   -0.14312E-03   -0.69038E-06   192   0.234E-02    0.434E-02
DAV:  46    -0.392584198323E+02   -0.14396E-03   -0.52237E-06   184   0.147E-02    0.403E-02
DAV:  47    -0.392585868891E+02   -0.16706E-03   -0.46463E-06   184   0.253E-02    0.243E-02
DAV:  48    -0.392587449117E+02   -0.15802E-03   -0.62897E-06   184   0.155E-02    0.790E-03
DAV:  49    -0.392588801739E+02   -0.13526E-03   -0.42024E-06   184   0.993E-03    0.541E-03
DAV:  50    -0.392589297028E+02   -0.49529E-04   -0.10751E-06   160   0.522E-03
  10 F= -.39258930E+02 E0= -.39258930E+02  d E =-.376345E+00  mag=    12.0012
       N       E                     dE             d eps       ncg     rms          rms(c)
DAV:   1    -0.393023806259E+02   -0.43500E-01   -0.10649E+02   288   0.378E+01    0.541E+00
DAV:   2    -0.398411667815E+02   -0.53879E+00   -0.63377E+00   384   0.246E+01    0.264E+01
DAV:   3    -0.386281492551E+02    0.12130E+01   -0.34669E+00   312   0.284E+01    0.126E+01
DAV:   4    -0.394297155810E+02   -0.80157E+00   -0.30831E+00   392   0.214E+01    0.193E+01
DAV:   5    -0.386370727501E+02    0.79264E+00   -0.29636E+00   304   0.168E+01    0.884E+00
DAV:   6    -0.386350137484E+02    0.20590E-02   -0.87585E-01   360   0.108E+01    0.651E+00
DAV:   7    -0.386648233802E+02   -0.29810E-01   -0.73567E-01   352   0.720E+00    0.818E+00
DAV:   8    -0.385644316812E+02    0.10039E+00   -0.51065E-01   304   0.719E+00    0.476E+00
DAV:   9    -0.385734259576E+02   -0.89943E-02   -0.13555E-01   328   0.539E+00    0.329E+00
DAV:  10    -0.385818842367E+02   -0.84583E-02   -0.99364E-02   352   0.318E+00    0.301E+00
DAV:  11    -0.385826433233E+02   -0.75909E-03   -0.26138E-02   288   0.184E+00    0.240E+00
DAV:  12    -0.385811886919E+02    0.14546E-02   -0.96601E-03   304   0.111E+00    0.236E+00
DAV:  13    -0.386136979713E+02   -0.32509E-01   -0.24557E-02   320   0.189E+00    0.249E+00
DAV:  14    -0.386276095088E+02   -0.13912E-01   -0.21506E-02   328   0.235E+00    0.225E+00
DAV:  15    -0.386876059763E+02   -0.59996E-01   -0.76687E-02   384   0.320E+00    0.362E+00
DAV:  16    -0.386943154925E+02   -0.67095E-02   -0.81485E-02   336   0.354E+00    0.260E+00
DAV:  17    -0.387938585436E+02   -0.99543E-01   -0.46083E-02   352   0.197E+00    0.263E+00
DAV:  18    -0.388233622758E+02   -0.29504E-01   -0.40630E-02   288   0.247E+00    0.296E+00
DAV:  19    -0.388523850629E+02   -0.29023E-01   -0.17355E-02   288   0.168E+00    0.212E+00
DAV:  20    -0.388808273940E+02   -0.28442E-01   -0.55699E-03   360   0.717E-01    0.180E+00
DAV:  21    -0.389483813604E+02   -0.67554E-01   -0.94783E-03   360   0.968E-01    0.162E+00
DAV:  22    -0.390924598890E+02   -0.14408E+00   -0.51410E-02   352   0.152E+00    0.179E+00
DAV:  23    -0.391109897736E+02   -0.18530E-01   -0.12798E-02   296   0.110E+00    0.184E+00
DAV:  24    -0.390929176872E+02    0.18072E-01   -0.36165E-03   352   0.505E-01    0.177E+00
DAV:  25    -0.390772728487E+02    0.15645E-01   -0.13466E-03   312   0.227E-01    0.191E+00
DAV:  26    -0.391279937767E+02   -0.50721E-01   -0.89175E-03   328   0.652E-01    0.115E+00
DAV:  27    -0.392161871395E+02   -0.88193E-01   -0.97115E-03   336   0.589E-01    0.737E-01
DAV:  28    -0.392713283550E+02   -0.55141E-01   -0.61015E-03   320   0.606E-01    0.488E-01
DAV:  29    -0.393079695934E+02   -0.36641E-01   -0.45981E-03   328   0.416E-01    0.520E-01
DAV:  30    -0.393437533853E+02   -0.35784E-01   -0.20403E-03   296   0.358E-01    0.475E-01
DAV:  31    -0.393792858617E+02   -0.35532E-01   -0.17369E-03   296   0.266E-01    0.504E-01
DAV:  32    -0.394137247356E+02   -0.34439E-01   -0.18297E-03   312   0.266E-01    0.430E-01
DAV:  33    -0.394423456200E+02   -0.28621E-01   -0.14830E-03   304   0.244E-01    0.366E-01
DAV:  34    -0.394609478042E+02   -0.18602E-01   -0.87962E-04   256   0.220E-01    0.270E-01
DAV:  35    -0.394821136194E+02   -0.21166E-01   -0.12095E-03   280   0.152E-01    0.278E-01
DAV:  36    -0.395026127290E+02   -0.20499E-01   -0.14897E-03   248   0.210E-01    0.205E-01
DAV:  37    -0.395131865479E+02   -0.10574E-01   -0.98052E-04   304   0.172E-01    0.147E-01
DAV:  38    -0.395199441289E+02   -0.67576E-02   -0.63639E-04   248   0.131E-01    0.126E-01
DAV:  39    -0.395245247670E+02   -0.45806E-02   -0.55036E-04   264   0.117E-01    0.930E-02
DAV:  40    -0.395269769386E+02   -0.24522E-02   -0.41727E-04   208   0.106E-01    0.887E-02
DAV:  41    -0.395273209164E+02   -0.34398E-03   -0.32079E-04   224   0.794E-02    0.814E-02
DAV:  42    -0.395273454694E+02   -0.24553E-04   -0.10649E-04   192   0.508E-02
  11 F= -.39527345E+02 E0= -.39527345E+02  d E =-.268416E+00  mag=    10.0044
       N       E                     dE             d eps       ncg     rms          rms(c)
DAV:   1    -0.383148213720E+02    0.12125E+01   -0.10697E+03   288   0.142E+02    0.992E+00
DAV:   2    -0.404984686771E+02   -0.21836E+01   -0.18098E+01   360   0.423E+01    0.320E+01
DAV:   3    -0.394302888804E+02    0.10682E+01   -0.20120E+01   312   0.430E+01    0.179E+01
DAV:   4    -0.413287347620E+02   -0.18984E+01   -0.10408E+01   328   0.400E+01    0.333E+01
DAV:   5    -0.401305726226E+02    0.11982E+01   -0.13521E+01   320   0.279E+01    0.278E+01
DAV:   6    -0.389499151267E+02    0.11807E+01   -0.36724E+00   360   0.185E+01    0.991E+00
DAV:   7    -0.391229714310E+02   -0.17306E+00   -0.13372E+00   376   0.110E+01    0.936E+00
DAV:   8    -0.391741903918E+02   -0.51219E-01   -0.78408E-01   320   0.115E+01    0.106E+01
DAV:   9    -0.389789854184E+02    0.19520E+00   -0.69612E-01   312   0.108E+01    0.453E+00
DAV:  10    -0.391775611911E+02   -0.19858E+00   -0.33101E-01   360   0.762E+00    0.527E+00
DAV:  11    -0.391931516706E+02   -0.15590E-01   -0.16295E-01   312   0.621E+00    0.274E+00
DAV:  12    -0.392889870722E+02   -0.95835E-01   -0.14813E-01   344   0.571E+00    0.358E+00
DAV:  13    -0.393785658671E+02   -0.89579E-01   -0.20713E-01   328   0.687E+00    0.541E+00
DAV:  14    -0.393841962540E+02   -0.56304E-02   -0.10423E-01   304   0.607E+00    0.272E+00
DAV:  15    -0.394733955535E+02   -0.89199E-01   -0.11486E-01   336   0.495E+00    0.361E+00
DAV:  16    -0.395064590966E+02   -0.33064E-01   -0.70034E-02   320   0.415E+00    0.172E+00
DAV:  17    -0.396071695146E+02   -0.10071E+00   -0.34913E-02   376   0.173E+00    0.132E+00
DAV:  18    -0.396716279800E+02   -0.64458E-01   -0.34937E-02   336   0.273E+00    0.180E+00
DAV:  19    -0.397867598015E+02   -0.11513E+00   -0.36009E-02   312   0.201E+00    0.105E+00
DAV:  20    -0.398436195862E+02   -0.56860E-01   -0.12129E-02   328   0.107E+00    0.947E-01
DAV:  21    -0.398916962730E+02   -0.48077E-01   -0.57428E-03   352   0.851E-01    0.610E-01
DAV:  22    -0.399848361316E+02   -0.93140E-01   -0.10608E-02   336   0.658E-01    0.502E-01
DAV:  23    -0.400407362201E+02   -0.55900E-01   -0.44735E-03   312   0.479E-01    0.296E-01
DAV:  24    -0.400873186879E+02   -0.46582E-01   -0.31244E-03   352   0.329E-01    0.225E-01
DAV:  25    -0.401366140379E+02   -0.49295E-01   -0.35308E-03   312   0.260E-01    0.197E-01
DAV:  26    -0.401591990625E+02   -0.22585E-01   -0.12912E-03   280   0.179E-01    0.102E-01
DAV:  27    -0.401726065933E+02   -0.13408E-01   -0.88501E-04   264   0.105E-01    0.556E-02
DAV:  28    -0.401793655745E+02   -0.67590E-02   -0.35161E-04   224   0.824E-02    0.600E-02
DAV:  29    -0.401829268976E+02   -0.35613E-02   -0.14680E-04   208   0.593E-02    0.622E-02
DAV:  30    -0.401849115079E+02   -0.19846E-02   -0.72659E-05   200   0.503E-02    0.371E-02
DAV:  31    -0.401865103925E+02   -0.15989E-02   -0.85866E-05   208   0.356E-02    0.181E-02
DAV:  32    -0.401874338550E+02   -0.92346E-03   -0.68560E-05   208   0.285E-02    0.162E-02
DAV:  33    -0.401875824352E+02   -0.14858E-03   -0.19576E-05   200   0.249E-02    0.103E-02
DAV:  34    -0.401876362727E+02   -0.53837E-04   -0.20099E-05   200   0.201E-02
  12 F= -.40187636E+02 E0= -.40187636E+02  d E =-.928707E+00  mag=     7.9994
       N       E                     dE             d eps       ncg     rms          rms(c)
DAV:   1    -0.399618457196E+02    0.22574E+00   -0.16295E+02   288   0.473E+01    0.361E+00
DAV:   2    -0.403948980379E+02   -0.43305E+00   -0.27433E+00   384   0.169E+01    0.159E+01
DAV:   3    -0.399343024132E+02    0.46060E+00   -0.44477E+00   312   0.186E+01    0.864E+00
DAV:   4    -0.403205432797E+02   -0.38624E+00   -0.11364E+00   384   0.163E+01    0.137E+01
DAV:   5    -0.400981532803E+02    0.22239E+00   -0.17576E+00   368   0.120E+01    0.113E+01
DAV:   6    -0.400054953284E+02    0.92658E-01   -0.76923E-01   360   0.879E+00    0.343E+00
DAV:   7    -0.401203807526E+02   -0.11489E+00   -0.15985E-01   360   0.690E+00    0.326E+00
DAV:   8    -0.401396374739E+02   -0.19257E-01   -0.12768E-01   336   0.449E+00    0.264E+00
DAV:   9    -0.401413658056E+02   -0.17283E-02   -0.55769E-02   320   0.380E+00    0.184E+00
DAV:  10    -0.401388472775E+02    0.25185E-02   -0.25845E-02   384   0.264E+00    0.131E+00
DAV:  11    -0.401505438676E+02   -0.11697E-01   -0.22861E-02   320   0.230E+00    0.153E+00
DAV:  12    -0.401486205770E+02    0.19233E-02   -0.20516E-02   320   0.219E+00    0.931E-01
DAV:  13    -0.401592907364E+02   -0.10670E-01   -0.19476E-02   368   0.173E+00    0.123E+00
DAV:  14    -0.401561792454E+02    0.31115E-02   -0.12756E-02   328   0.178E+00    0.490E-01
DAV:  15    -0.401644992338E+02   -0.83200E-02   -0.63710E-03   392   0.876E-01    0.768E-01
DAV:  16    -0.401608400869E+02    0.36591E-02   -0.23030E-03   312   0.781E-01    0.391E-01
DAV:  17    -0.401635265313E+02   -0.26864E-02   -0.90259E-04   312   0.427E-01    0.296E-01
DAV:  18    -0.401643995929E+02   -0.87306E-03   -0.86028E-04   264   0.488E-01    0.232E-01
DAV:  19    -0.401663662181E+02   -0.19666E-02   -0.53339E-04   200   0.276E-01    0.143E-01
DAV:  20    -0.401673536247E+02   -0.98741E-03   -0.38722E-04   192   0.210E-01    0.122E-01
DAV:  21    -0.401675960141E+02   -0.24239E-03   -0.10103E-04   184   0.114E-01    0.826E-02
DAV:  22    -0.401678432225E+02   -0.24721E-03   -0.49602E-05   176   0.614E-02    0.457E-02
DAV:  23    -0.401683280350E+02   -0.48481E-03   -0.40864E-05   192   0.440E-02    0.278E-02
DAV:  24    -0.401685418300E+02   -0.21379E-03   -0.23385E-05   176   0.367E-02    0.253E-02
DAV:  25    -0.401686334786E+02   -0.91649E-04   -0.77524E-06   176   0.263E-02
  13 F= -.40168633E+02 E0= -.40168633E+02  d E =-.909704E+00  mag=     8.0000
       N       E                     dE             d eps       ncg     rms          rms(c)
DAV:   1    -0.401309831212E+02    0.37559E-01   -0.57668E+01   288   0.275E+01    0.211E+00
DAV:   2    -0.402145455238E+02   -0.83562E-01   -0.59636E-01   400   0.908E+00    0.563E+00
DAV:   3    -0.401921033230E+02    0.22442E-01   -0.47186E-01   312   0.124E+01    0.631E+00
DAV:   4    -0.402080401527E+02   -0.15937E-01   -0.44275E-01   392   0.816E+00    0.712E+00
DAV:   5    -0.401182259667E+02    0.89814E-01   -0.31504E-01   352   0.632E+00    0.206E+00
DAV:   6    -0.401820443571E+02   -0.63818E-01   -0.63879E-02   360   0.393E+00    0.198E+00
DAV:   7    -0.401850274930E+02   -0.29831E-02   -0.63378E-02   360   0.289E+00    0.220E+00
DAV:   8    -0.401874382538E+02   -0.24108E-02   -0.46240E-02   336   0.264E+00    0.127E+00
DAV:   9    -0.401915964475E+02   -0.41582E-02   -0.13147E-02   360   0.214E+00    0.880E-01
DAV:  10    -0.401979139169E+02   -0.63175E-02   -0.86024E-03   392   0.174E+00    0.148E+00
DAV:  11    -0.401910878990E+02    0.68260E-02   -0.68132E-03   360   0.162E+00    0.361E-01
DAV:  12    -0.401995286228E+02   -0.84407E-02   -0.77594E-03   392   0.121E+00    0.901E-01
DAV:  13    -0.401971184820E+02    0.24101E-02   -0.57857E-03   360   0.118E+00    0.310E-01
DAV:  14    -0.402015162341E+02   -0.43978E-02   -0.19551E-03   368   0.563E-01    0.378E-01
DAV:  15    -0.402013186099E+02    0.19762E-03   -0.29550E-03   296   0.635E-01    0.371E-01
DAV:  16    -0.402009364695E+02    0.38214E-03   -0.52440E-04   240   0.379E-01    0.291E-01
DAV:  17    -0.402004332843E+02    0.50319E-03   -0.32864E-04   192   0.296E-01    0.281E-01
DAV:  18    -0.402009443404E+02   -0.51106E-03   -0.37106E-04   192   0.238E-01    0.799E-02
DAV:  19    -0.402023050515E+02   -0.13607E-02   -0.17127E-04   200   0.141E-01    0.849E-02
DAV:  20    -0.402027058442E+02   -0.40079E-03   -0.15213E-04   176   0.168E-01    0.931E-02
DAV:  21    -0.402027549534E+02   -0.49109E-04   -0.77424E-05   192   0.115E-01
  14 F= -.40202755E+02 E0= -.40202755E+02  d E =-.943825E+00  mag=     8.0000
       N       E                     dE             d eps       ncg     rms          rms(c)
DAV:   1    -0.401023072513E+02    0.10040E+00   -0.19140E+02   288   0.515E+01    0.466E+00
DAV:   2    -0.420154711631E+02   -0.19132E+01   -0.60099E+00   376   0.349E+01    0.260E+01
DAV:   3    -0.400546107581E+02    0.19609E+01   -0.59130E+00   328   0.304E+01    0.132E+01
DAV:   4    -0.402717804906E+02   -0.21717E+00   -0.31533E+00   408   0.166E+01    0.121E+01
DAV:   5    -0.403421787627E+02   -0.70398E-01   -0.18404E+00   376   0.141E+01    0.104E+01
DAV:   6    -0.402127465098E+02    0.12943E+00   -0.94715E-01   328   0.105E+01    0.477E+00
DAV:   7    -0.402928658614E+02   -0.80119E-01   -0.44501E-01   360   0.791E+00    0.474E+00
DAV:   8    -0.402802006977E+02    0.12665E-01   -0.16462E-01   368   0.648E+00    0.445E+00
DAV:   9    -0.402904549641E+02   -0.10254E-01   -0.25066E-01   352   0.463E+00    0.288E+00
DAV:  10    -0.403007846316E+02   -0.10330E-01   -0.37548E-02   336   0.379E+00    0.128E+00
DAV:  11    -0.403289331463E+02   -0.28149E-01   -0.67251E-02   384   0.256E+00    0.251E+00
DAV:  12    -0.402965595540E+02    0.32374E-01   -0.36465E-02   328   0.266E+00    0.111E+00
DAV:  13    -0.403221689340E+02   -0.25609E-01   -0.28398E-02   392   0.197E+00    0.181E+00
DAV:  14    -0.403123143160E+02    0.98546E-02   -0.11089E-02   352   0.191E+00    0.834E-01
DAV:  15    -0.403264025773E+02   -0.14088E-01   -0.61939E-03   384   0.792E-01    0.857E-01
DAV:  16    -0.403305587099E+02   -0.41561E-02   -0.12176E-02   384   0.167E+00    0.114E+00
DAV:  17    -0.403311657359E+02   -0.60703E-03   -0.10546E-02   328   0.142E+00    0.542E-01
DAV:  18    -0.403358033551E+02   -0.46376E-02   -0.45938E-03   384   0.658E-01    0.516E-01
DAV:  19    -0.403337485927E+02    0.20548E-02   -0.12995E-03   320   0.575E-01    0.453E-01
DAV:  20    -0.403351659708E+02   -0.14174E-02   -0.10350E-03   304   0.471E-01    0.288E-01
DAV:  21    -0.403376445574E+02   -0.24786E-02   -0.64165E-04   280   0.315E-01    0.196E-01
DAV:  22    -0.403395308965E+02   -0.18863E-02   -0.93121E-04   224   0.275E-01    0.190E-01
DAV:  23    -0.403403004840E+02   -0.76959E-03   -0.27579E-04   232   0.195E-01    0.177E-01
DAV:  24    -0.403405515438E+02   -0.25106E-03   -0.14939E-04   192   0.145E-01    0.808E-02
DAV:  25    -0.403412194426E+02   -0.66790E-03   -0.93267E-05   192   0.756E-02    0.508E-02
DAV:  26    -0.403415131552E+02   -0.29371E-03   -0.42037E-05   192   0.580E-02    0.450E-02
DAV:  27    -0.403416142483E+02   -0.10109E-03   -0.13716E-05   176   0.384E-02    0.276E-02
DAV:  28    -0.403417483539E+02   -0.13411E-03   -0.89187E-06   176   0.196E-02    0.225E-02
DAV:  29    -0.403418983992E+02   -0.15005E-03   -0.78569E-06   192   0.200E-02    0.148E-02
DAV:  30    -0.403419770165E+02   -0.78617E-04   -0.48026E-06   176   0.147E-02
  15 F= -.40341977E+02 E0= -.40341977E+02  d E =-.139222E+00  mag=     8.0000
       N       E                     dE             d eps       ncg     rms          rms(c)
DAV:   1    -0.403420247242E+02   -0.12633E-03   -0.27724E-03   304   0.188E-01    0.159E-02
DAV:   2    -0.403420807322E+02   -0.56008E-04   -0.29557E-05   176   0.897E-02
  16 F= -.40342081E+02 E0= -.40342081E+02  d E =-.139326E+00  mag=     8.0000
       N       E                     dE             d eps       ncg     rms          rms(c)
DAV:   1    -0.403702811518E+02   -0.28256E-01   -0.18580E+01   288   0.156E+01    0.186E+00
DAV:   2    -0.408043738708E+02   -0.43409E+00   -0.10238E+00   408   0.157E+01    0.143E+01
DAV:   3    -0.401956616202E+02    0.60871E+00   -0.13079E+00   320   0.147E+01    0.654E+00
DAV:   4    -0.403016857498E+02   -0.10602E+00   -0.45290E-01   392   0.651E+00    0.339E+00
DAV:   5    -0.403833191465E+02   -0.81633E-01   -0.24228E-01   360   0.530E+00    0.472E+00
DAV:   6    -0.403185514166E+02    0.64768E-01   -0.16149E-01   328   0.389E+00    0.229E+00
DAV:   7    -0.403487889410E+02   -0.30238E-01   -0.54596E-02   336   0.242E+00    0.128E+00
DAV:   8    -0.403768690725E+02   -0.28080E-01   -0.28264E-02   376   0.230E+00    0.154E+00
DAV:   9    -0.403799041358E+02   -0.30351E-02   -0.22563E-02   312   0.201E+00    0.804E-01
DAV:  10    -0.403861693406E+02   -0.62652E-02   -0.94682E-03   344   0.159E+00    0.965E-01
DAV:  11    -0.403835096239E+02    0.26597E-02   -0.83252E-03   344   0.143E+00    0.824E-01
DAV:  12    -0.403840359759E+02   -0.52635E-03   -0.37769E-03   320   0.112E+00    0.681E-01
DAV:  13    -0.403861652871E+02   -0.21293E-02   -0.75955E-03   376   0.991E-01    0.959E-01
DAV:  14    -0.403817695997E+02    0.43957E-02   -0.27330E-03   320   0.755E-01    0.415E-01
DAV:  15    -0.403870498556E+02   -0.52803E-02   -0.19518E-03   344   0.604E-01    0.501E-01
DAV:  16    -0.403880656384E+02   -0.10158E-02   -0.15218E-03   288   0.557E-01    0.294E-01
DAV:  17    -0.403898231104E+02   -0.17575E-02   -0.62137E-04   200   0.300E-01    0.232E-01
DAV:  18    -0.403902546303E+02   -0.43152E-03   -0.41101E-04   192   0.296E-01    0.217E-01
DAV:  19    -0.403905638674E+02   -0.30924E-03   -0.27462E-04   184   0.204E-01    0.771E-02
DAV:  20    -0.403912462212E+02   -0.68235E-03   -0.14255E-04   192   0.930E-02    0.713E-02
DAV:  21    -0.403915326642E+02   -0.28644E-03   -0.41947E-05   192   0.697E-02    0.466E-02
DAV:  22    -0.403916944355E+02   -0.16177E-03   -0.25656E-05   176   0.369E-02    0.398E-02
DAV:  23    -0.403917802705E+02   -0.85835E-04   -0.36735E-05   184   0.445E-02
  17 F= -.40391780E+02 E0= -.40391780E+02  d E =-.496995E-01  mag=     8.0000
       N       E                     dE             d eps       ncg     rms          rms(c)
DAV:   1    -0.403916597613E+02    0.34674E-04   -0.84912E+00   288   0.105E+01    0.124E+00
DAV:   2    -0.406082857322E+02   -0.21663E+00   -0.50373E-01   408   0.107E+01    0.115E+01
DAV:   3    -0.402308872036E+02    0.37740E+00   -0.88459E-01   336   0.100E+01    0.482E+00
DAV:   4    -0.403430197725E+02   -0.11213E+00   -0.21853E-01   376   0.479E+00    0.233E+00
DAV:   5    -0.403929826532E+02   -0.49963E-01   -0.11086E-01   352   0.365E+00    0.265E+00
DAV:   6    -0.403791664679E+02    0.13816E-01   -0.64582E-02   320   0.284E+00    0.239E+00
DAV:   7    -0.403720128556E+02    0.71536E-02   -0.34641E-02   328   0.167E+00    0.852E-01
DAV:   8    -0.403893135605E+02   -0.17301E-01   -0.15513E-02   352   0.146E+00    0.102E+00
DAV:   9    -0.403921829426E+02   -0.28694E-02   -0.13716E-02   352   0.134E+00    0.852E-01
DAV:  10    -0.403964919452E+02   -0.43090E-02   -0.69574E-03   352   0.125E+00    0.722E-01
DAV:  11    -0.403952290244E+02    0.12629E-02   -0.38057E-03   384   0.100E+00    0.650E-01
DAV:  12    -0.403953168315E+02   -0.87807E-04   -0.23971E-03   320   0.767E-01    0.602E-01
DAV:  13    -0.403929132254E+02    0.24036E-02   -0.10074E-03   288   0.504E-01    0.632E-01
DAV:  14    -0.403934860961E+02   -0.57287E-03   -0.38293E-04   248   0.387E-01    0.568E-01
DAV:  15    -0.403951335434E+02   -0.16474E-02   -0.89433E-04   216   0.308E-01    0.339E-01
DAV:  16    -0.403981210984E+02   -0.29876E-02   -0.14024E-03   272   0.454E-01    0.369E-01
DAV:  17    -0.403997703495E+02   -0.16493E-02   -0.66862E-04   232   0.388E-01    0.210E-01
DAV:  18    -0.404000349186E+02   -0.26457E-03   -0.25201E-04   192   0.205E-01    0.142E-01
DAV:  19    -0.404003564250E+02   -0.32151E-03   -0.17498E-04   168   0.179E-01    0.118E-01
DAV:  20    -0.404008932694E+02   -0.53684E-03   -0.94117E-05   192   0.124E-01    0.101E-01
DAV:  21    -0.404011722057E+02   -0.27894E-03   -0.78962E-05   192   0.824E-02    0.605E-02
DAV:  22    -0.404013249937E+02   -0.15279E-03   -0.49478E-05   176   0.445E-02    0.779E-02
DAV:  23    -0.404012780301E+02    0.46964E-04   -0.10528E-05   184   0.334E-02
  18 F= -.40401278E+02 E0= -.40401278E+02  d E =-.591973E-01  mag=     8.0000
       N       E                     dE             d eps       ncg     rms          rms(c)
DAV:   1    -0.404039001763E+02   -0.25752E-02   -0.70829E+00   288   0.959E+00    0.108E+00
DAV:   2    -0.405372252977E+02   -0.13333E+00   -0.41512E-01   384   0.875E+00    0.879E+00
DAV:   3    -0.403217375291E+02    0.21549E+00   -0.62603E-01   336   0.869E+00    0.417E+00
DAV:   4    -0.403719128920E+02   -0.50175E-01   -0.15791E-01   376   0.411E+00    0.213E+00
DAV:   5    -0.404077723207E+02   -0.35859E-01   -0.10314E-01   368   0.301E+00    0.302E+00
DAV:   6    -0.403766696328E+02    0.31103E-01   -0.53218E-02   328   0.243E+00    0.183E+00
DAV:   7    -0.403772447009E+02   -0.57507E-03   -0.17921E-02   336   0.116E+00    0.766E-01
DAV:   8    -0.404014119832E+02   -0.24167E-01   -0.15893E-02   344   0.155E+00    0.132E+00
DAV:   9    -0.403936665473E+02    0.77454E-02   -0.12354E-02   344   0.110E+00    0.520E-01
DAV:  10    -0.404077069001E+02   -0.14040E-01   -0.77951E-03   344   0.115E+00    0.841E-01
DAV:  11    -0.404079023661E+02   -0.19547E-03   -0.41390E-03   344   0.939E-01    0.631E-01
DAV:  12    -0.404051001607E+02    0.28022E-02   -0.18645E-03   336   0.643E-01    0.686E-01
DAV:  13    -0.403999190929E+02    0.51811E-02   -0.61114E-04   280   0.372E-01    0.629E-01
DAV:  14    -0.403996075532E+02    0.31154E-03   -0.37880E-04   224   0.326E-01    0.635E-01
DAV:  15    -0.403991267518E+02    0.48080E-03   -0.20605E-04   176   0.255E-01    0.626E-01
DAV:  16    -0.404021277704E+02   -0.30010E-02   -0.55219E-04   208   0.362E-01    0.563E-01
DAV:  17    -0.404058500211E+02   -0.37223E-02   -0.15891E-03   328   0.368E-01    0.302E-01
DAV:  18    -0.404096519284E+02   -0.38019E-02   -0.84078E-04   232   0.248E-01    0.221E-01
DAV:  19    -0.404105158515E+02   -0.86392E-03   -0.53676E-04   200   0.301E-01    0.288E-01
DAV:  20    -0.404101974100E+02    0.31844E-03   -0.25928E-04   200   0.246E-01    0.147E-01
DAV:  21    -0.404113336607E+02   -0.11363E-02   -0.11392E-04   192   0.124E-01    0.740E-02
DAV:  22    -0.404119479076E+02   -0.61425E-03   -0.16351E-04   184   0.870E-02    0.104E-01
DAV:  23    -0.404118141426E+02    0.13377E-03   -0.56911E-05   184   0.755E-02    0.992E-02
DAV:  24    -0.404118031364E+02    0.11006E-04   -0.21633E-05   176   0.495E-02
  19 F= -.40411803E+02 E0= -.40411803E+02  d E =-.105251E-01  mag=     8.0000
       N       E                     dE             d eps       ncg     rms          rms(c)
DAV:   1    -0.404119276566E+02   -0.11351E-03   -0.56314E-02   288   0.854E-01    0.981E-02
DAV:   2    -0.404134963394E+02   -0.15687E-02   -0.52293E-03   352   0.789E-01    0.992E-01
DAV:   3    -0.404068406285E+02    0.66557E-02   -0.43938E-03   312   0.847E-01    0.237E-01
DAV:   4    -0.404115097934E+02   -0.46692E-02   -0.82799E-04   216   0.349E-01    0.188E-01
DAV:   5    -0.404121329203E+02   -0.62313E-03   -0.52062E-04   184   0.264E-01    0.210E-01
DAV:   6    -0.404118406812E+02    0.29224E-03   -0.31752E-04   176   0.230E-01    0.104E-01
DAV:   7    -0.404120627263E+02   -0.22205E-03   -0.76495E-05   168   0.902E-02    0.773E-02
DAV:   8    -0.404121775834E+02   -0.11486E-03   -0.74944E-05   160   0.960E-02    0.773E-02
DAV:   9    -0.404122385579E+02   -0.60975E-04   -0.28266E-05   160   0.891E-02
  20 F= -.40412239E+02 E0= -.40412239E+02  d E =-.109605E-01  mag=     8.0000
       N       E                     dE             d eps       ncg     rms          rms(c)
DAV:   1    -0.404142433230E+02   -0.20657E-02   -0.37032E+00   288   0.679E+00    0.749E-01
DAV:   2    -0.404685413038E+02   -0.54298E-01   -0.19015E-01   376   0.614E+00    0.538E+00
DAV:   3    -0.403603623630E+02    0.10818E+00   -0.16981E-01   328   0.602E+00    0.281E+00
DAV:   4    -0.403919220266E+02   -0.31560E-01   -0.57982E-02   384   0.268E+00    0.116E+00
DAV:   5    -0.404154556737E+02   -0.23534E-01   -0.41334E-02   368   0.208E+00    0.200E+00
DAV:   6    -0.404003915175E+02    0.15064E-01   -0.22953E-02   312   0.180E+00    0.811E-01
DAV:   7    -0.404106326657E+02   -0.10241E-01   -0.64823E-03   344   0.922E-01    0.632E-01
DAV:   8    -0.404127409602E+02   -0.21083E-02   -0.55348E-03   376   0.782E-01    0.669E-01
DAV:   9    -0.404140684209E+02   -0.13275E-02   -0.43370E-03   344   0.815E-01    0.367E-01
DAV:  10    -0.404163619017E+02   -0.22935E-02   -0.13651E-03   320   0.687E-01    0.333E-01
DAV:  11    -0.404162872810E+02    0.74621E-04   -0.10316E-03   304   0.557E-01    0.392E-01
DAV:  12    -0.404171870701E+02   -0.89979E-03   -0.73733E-04   296   0.542E-01    0.199E-01
DAV:  13    -0.404175758041E+02   -0.38873E-03   -0.51688E-04   200   0.362E-01    0.177E-01
DAV:  14    -0.404177767494E+02   -0.20095E-03   -0.32253E-04   192   0.283E-01    0.148E-01
DAV:  15    -0.404176921288E+02    0.84621E-04   -0.25048E-04   176   0.232E-01
  21 F= -.40417692E+02 E0= -.40417692E+02  d E =-.545357E-02  mag=     8.0000
       N       E                     dE             d eps       ncg     rms          rms(c)
DAV:   1    -0.404169684691E+02    0.80828E-03   -0.12370E+00   288   0.392E+00    0.469E-01
DAV:   2    -0.404424794266E+02   -0.25511E-01   -0.98447E-02   376   0.390E+00    0.406E+00
DAV:   3    -0.403720536756E+02    0.70426E-01   -0.91204E-02   320   0.391E+00    0.181E+00
DAV:   4    -0.404030926210E+02   -0.31039E-01   -0.23632E-02   360   0.176E+00    0.744E-01
DAV:   5    -0.404167444382E+02   -0.13652E-01   -0.14821E-02   368   0.130E+00    0.113E+00
DAV:   6    -0.404130644027E+02    0.36800E-02   -0.11329E-02   320   0.109E+00    0.949E-01
DAV:   7    -0.404124161356E+02    0.64827E-03   -0.44863E-03   312   0.744E-01    0.412E-01
DAV:   8    -0.404141976669E+02   -0.17815E-02   -0.60909E-04   248   0.372E-01    0.362E-01
DAV:   9    -0.404161628652E+02   -0.19652E-02   -0.65861E-04   208   0.387E-01    0.339E-01
DAV:  10    -0.404163750200E+02   -0.21215E-03   -0.74331E-04   248   0.459E-01    0.368E-01
DAV:  11    -0.404160777681E+02    0.29725E-03   -0.91922E-04   248   0.425E-01    0.254E-01
DAV:  12    -0.404179873173E+02   -0.19095E-02   -0.61882E-04   256   0.445E-01    0.174E-01
DAV:  13    -0.404183686781E+02   -0.38136E-03   -0.52348E-04   192   0.317E-01    0.240E-01
DAV:  14    -0.404171106903E+02    0.12580E-02   -0.21641E-04   184   0.199E-01    0.254E-01
DAV:  15    -0.404157848616E+02    0.13258E-02   -0.13640E-04   184   0.128E-01    0.289E-01
DAV:  16    -0.404140443523E+02    0.17405E-02   -0.74016E-05   184   0.534E-02    0.322E-01
DAV:  17    -0.404136647145E+02    0.37964E-03   -0.49688E-05   176   0.828E-02    0.274E-01
DAV:  18    -0.404147211138E+02   -0.10564E-02   -0.12077E-04   176   0.154E-01    0.214E-01
DAV:  19    -0.404173245861E+02   -0.26035E-02   -0.51572E-04   200   0.192E-01    0.876E-02
DAV:  20    -0.404188479314E+02   -0.15233E-02   -0.16342E-04   200   0.127E-01    0.811E-02
DAV:  21    -0.404187538042E+02    0.94127E-04   -0.46071E-05   176   0.761E-02
  22 F= -.40418754E+02 E0= -.40418754E+02  d E =-.651525E-02  mag=     8.0000
       N       E                     dE             d eps       ncg     rms          rms(c)
DAV:   1    -0.404200494549E+02   -0.12015E-02   -0.16794E+00   288   0.466E+00    0.683E-01
DAV:   2    -0.404935054965E+02   -0.73456E-01   -0.22061E-01   384   0.639E+00    0.648E+00
DAV:   3    -0.403417381686E+02    0.15177E+00   -0.23119E-01   336   0.615E+00    0.278E+00
DAV:   4    -0.403941857537E+02   -0.52448E-01   -0.46780E-02   368   0.244E+00    0.783E-01
DAV:   5    -0.404184531113E+02   -0.24267E-01   -0.17684E-02   376   0.151E+00    0.136E+00
DAV:   6    -0.404038423571E+02    0.14611E-01   -0.61386E-03   320   0.104E+00    0.939E-01
DAV:   7    -0.404009460763E+02    0.28963E-02   -0.77368E-04   296   0.273E-01    0.908E-01
DAV:   8    -0.403918130098E+02    0.91331E-02   -0.44980E-03   320   0.602E-01    0.106E+00
DAV:   9    -0.403986468514E+02   -0.68338E-02   -0.44909E-03   320   0.974E-01    0.723E-01
DAV:  10    -0.404021669942E+02   -0.35201E-02   -0.15482E-03   304   0.386E-01    0.569E-01
DAV:  11    -0.404084782296E+02   -0.63112E-02   -0.13790E-03   312   0.559E-01    0.616E-01
DAV:  12    -0.404047741978E+02    0.37040E-02   -0.46825E-04   240   0.304E-01    0.546E-01
DAV:  13    -0.404007096325E+02    0.40646E-02   -0.58450E-04   224   0.374E-01    0.612E-01
DAV:  14    -0.403986990785E+02    0.20106E-02   -0.26094E-04   192   0.235E-01    0.686E-01
DAV:  15    -0.403982609246E+02    0.43815E-03   -0.16049E-04   160   0.775E-02    0.707E-01
DAV:  16    -0.404000387310E+02   -0.17778E-02   -0.42945E-05   160   0.103E-01    0.658E-01
DAV:  17    -0.404030112489E+02   -0.29725E-02   -0.23661E-04   192   0.158E-01    0.741E-01
DAV:  18    -0.404017534769E+02    0.12578E-02   -0.15076E-04   168   0.219E-01    0.717E-01
DAV:  19    -0.404111529862E+02   -0.93995E-02   -0.17286E-03   368   0.520E-01    0.293E-01
DAV:  20    -0.404187123632E+02   -0.75594E-02   -0.14345E-03   368   0.343E-01    0.154E-01
DAV:  21    -0.404206349011E+02   -0.19225E-02   -0.37590E-04   248   0.182E-01    0.123E-01
DAV:  22    -0.404213088621E+02   -0.67396E-03   -0.14022E-04   192   0.140E-01    0.112E-01
DAV:  23    -0.404213015531E+02    0.73090E-05   -0.10233E-04   176   0.968E-02
  23 F= -.40421302E+02 E0= -.40421302E+02  d E =-.254775E-02  mag=     8.0000
       N       E                     dE             d eps       ncg     rms          rms(c)
DAV:   1    -0.404198815043E+02    0.14274E-02   -0.35918E+00   288   0.681E+00    0.130E+00
DAV:   2    -0.406779468401E+02   -0.25807E+00   -0.90864E-01   368   0.123E+01    0.116E+01
DAV:   3    -0.402500959109E+02    0.42785E+00   -0.78258E-01   336   0.114E+01    0.525E+00
DAV:   4    -0.403434357230E+02   -0.93340E-01   -0.16078E-01   384   0.447E+00    0.158E+00
DAV:   5    -0.404055350026E+02   -0.62099E-01   -0.70004E-02   368   0.238E+00    0.303E+00
DAV:   6    -0.403409694326E+02    0.64566E-01   -0.10637E-02   296   0.121E+00    0.290E+00
DAV:   7    -0.402970578997E+02    0.43912E-01   -0.10989E-02   376   0.782E-01    0.385E+00
DAV:   8    -0.402380643699E+02    0.58994E-01   -0.34417E-03   296   0.639E-01    0.362E+00
DAV:   9    -0.402146469949E+02    0.23417E-01   -0.10249E-02   352   0.127E+00    0.449E+00
DAV:  10    -0.401821037539E+02    0.32543E-01   -0.26101E-03   320   0.391E-01    0.466E+00
DAV:  11    -0.401691910337E+02    0.12913E-01   -0.22637E-02   392   0.108E+00    0.383E+00
DAV:  12    -0.402241185604E+02   -0.54928E-01   -0.36053E-02   368   0.169E+00    0.225E+00
DAV:  13    -0.403355694538E+02   -0.11145E+00   -0.31615E-02   312   0.165E+00    0.176E+00
DAV:  14    -0.403893946787E+02   -0.53825E-01   -0.19119E-02   312   0.172E+00    0.121E+00
DAV:  15    -0.404082579765E+02   -0.18863E-01   -0.84110E-03   360   0.139E+00    0.932E-01
DAV:  16    -0.404083468401E+02   -0.88864E-04   -0.49760E-03   328   0.970E-01    0.857E-01
DAV:  17    -0.404056123058E+02    0.27345E-02   -0.18344E-03   304   0.559E-01    0.884E-01
DAV:  18    -0.404015233743E+02    0.40889E-02   -0.60121E-04   272   0.396E-01    0.864E-01
DAV:  19    -0.404046540351E+02   -0.31307E-02   -0.58252E-04   256   0.368E-01    0.693E-01
DAV:  20    -0.404091463419E+02   -0.44923E-02   -0.11140E-03   360   0.329E-01    0.481E-01
DAV:  21    -0.404165670975E+02   -0.74208E-02   -0.12290E-03   280   0.316E-01    0.214E-01
DAV:  22    -0.404198372826E+02   -0.32702E-02   -0.41930E-04   272   0.188E-01    0.217E-01
DAV:  23    -0.404210443611E+02   -0.12071E-02   -0.15098E-04   200   0.125E-01    0.197E-01
DAV:  24    -0.404211928251E+02   -0.14846E-03   -0.13116E-04   192   0.130E-01    0.190E-01
DAV:  25    -0.404214956595E+02   -0.30283E-03   -0.19268E-04   200   0.141E-01    0.172E-01
DAV:  26    -0.404214127582E+02    0.82901E-04   -0.15860E-04   192   0.107E-01
  24 F= -.40421413E+02 E0= -.40421413E+02  d E =-.265895E-02  mag=     8.0000
       N       E                     dE             d eps       ncg     rms          rms(c)
DAV:   1    -0.404221287615E+02   -0.63310E-03   -0.23289E+00   288   0.539E+00    0.681E-01
DAV:   2    -0.404901367927E+02   -0.68008E-01   -0.17570E-01   392   0.601E+00    0.617E+00
DAV:   3    -0.403617134596E+02    0.12842E+00   -0.14209E-01   336   0.587E+00    0.179E+00
DAV:   4    -0.404120092378E+02   -0.50296E-01   -0.42417E-02   392   0.235E+00    0.147E+00
DAV:   5    -0.404227197765E+02   -0.10711E-01   -0.46183E-02   336   0.188E+00    0.260E+00
DAV:   6    -0.403751935316E+02    0.47526E-01   -0.15096E-02   304   0.148E+00    0.127E+00
DAV:   7    -0.403889383813E+02   -0.13745E-01   -0.32573E-03   328   0.718E-01    0.137E+00
DAV:   8    -0.403834882550E+02    0.54501E-02   -0.41168E-04   256   0.170E-01    0.142E+00
DAV:   9    -0.403757620000E+02    0.77263E-02   -0.28650E-03   264   0.521E-01    0.194E+00
DAV:  10    -0.403534713251E+02    0.22291E-01   -0.12744E-03   288   0.390E-01    0.177E+00
DAV:  11    -0.403529814685E+02    0.48986E-03   -0.15060E-04   192   0.111E-01    0.182E+00
DAV:  12    -0.403490542613E+02    0.39272E-02   -0.12835E-04   192   0.168E-01    0.181E+00
DAV:  13    -0.403507425683E+02   -0.16883E-02   -0.61909E-05   152   0.509E-02    0.181E+00
DAV:  14    -0.403508966762E+02   -0.15411E-03   -0.21411E-05   152   0.495E-02    0.182E+00
DAV:  15    -0.403502810705E+02    0.61561E-03   -0.86826E-06   144   0.318E-02    0.182E+00
DAV:  16    -0.403482555963E+02    0.20255E-02   -0.46105E-04   184   0.215E-01    0.165E+00
DAV:  17    -0.403511173293E+02   -0.28617E-02   -0.11672E-03   208   0.314E-01    0.132E+00
DAV:  18    -0.403615394927E+02   -0.10422E-01   -0.24575E-03   352   0.369E-01    0.114E+00
DAV:  19    -0.403740412177E+02   -0.12502E-01   -0.14414E-03   312   0.531E-01    0.102E+00
DAV:  20    -0.403781350732E+02   -0.40939E-02   -0.14087E-03   304   0.454E-01    0.866E-01
DAV:  21    -0.403884267182E+02   -0.10292E-01   -0.41521E-03   272   0.343E-01    0.391E-01
DAV:  22    -0.404089311826E+02   -0.20504E-01   -0.11915E-03   296   0.375E-01    0.415E-01
DAV:  23    -0.404148024955E+02   -0.58713E-02   -0.55895E-04   224   0.202E-01    0.317E-01
DAV:  24    -0.404189707619E+02   -0.41683E-02   -0.43626E-04   216   0.163E-01    0.324E-01
DAV:  25    -0.404211034110E+02   -0.21326E-02   -0.24633E-04   208   0.133E-01    0.280E-01
DAV:  26    -0.404217696861E+02   -0.66628E-03   -0.11424E-04   192   0.820E-02    0.268E-01
DAV:  27    -0.404223681086E+02   -0.59842E-03   -0.79374E-05   192   0.828E-02    0.233E-01
DAV:  28    -0.404230965167E+02   -0.72841E-03   -0.16073E-04   200   0.965E-02    0.175E-01
DAV:  29    -0.404239113733E+02   -0.81486E-03   -0.16218E-04   192   0.711E-02    0.107E-01
DAV:  30    -0.404247397162E+02   -0.82834E-03   -0.82987E-05   176   0.714E-02    0.660E-02
DAV:  31    -0.404247413658E+02   -0.16496E-05   -0.85125E-05   184   0.656E-02
  25 F= -.40424741E+02 E0= -.40424741E+02  d E =-.332861E-02  mag=     8.0000
       N       E                     dE             d eps       ncg     rms          rms(c)
DAV:   1    -0.404242554904E+02    0.48423E-03   -0.83576E-02   288   0.102E+00    0.205E-01
DAV:   2    -0.404307056910E+02   -0.64502E-02   -0.18038E-02   400   0.182E+00    0.190E+00
DAV:   3    -0.404116415737E+02    0.19064E-01   -0.15392E-02   320   0.182E+00    0.639E-01
DAV:   4    -0.404230744900E+02   -0.11433E-01   -0.29143E-03   352   0.668E-01    0.341E-01
DAV:   5    -0.404228056319E+02    0.26886E-03   -0.88453E-04   256   0.268E-01    0.420E-01
DAV:   6    -0.404185881498E+02    0.42175E-02   -0.34847E-04   200   0.138E-01    0.560E-01
DAV:   7    -0.404155981891E+02    0.29900E-02   -0.47593E-04   192   0.238E-01    0.733E-01
DAV:   8    -0.404117893074E+02    0.38089E-02   -0.56570E-04   200   0.301E-01    0.573E-01
DAV:   9    -0.404146278701E+02   -0.28386E-02   -0.73142E-04   184   0.249E-01    0.440E-01
DAV:  10    -0.404193601494E+02   -0.47323E-02   -0.10229E-03   240   0.405E-01    0.320E-01
DAV:  11    -0.404224329942E+02   -0.30728E-02   -0.82880E-04   208   0.324E-01    0.177E-01
DAV:  12    -0.404248250207E+02   -0.23920E-02   -0.33664E-04   200   0.269E-01    0.180E-01
DAV:  13    -0.404253452422E+02   -0.52022E-03   -0.25317E-04   176   0.198E-01    0.181E-01
DAV:  14    -0.404250085674E+02    0.33667E-03   -0.11444E-04   168   0.139E-01    0.157E-01
DAV:  15    -0.404245703016E+02    0.43827E-03   -0.46210E-05   168   0.693E-02    0.170E-01
DAV:  16    -0.404243344680E+02    0.23583E-03   -0.24322E-05   152   0.530E-02    0.178E-01
DAV:  17    -0.404242417011E+02    0.92767E-04   -0.86046E-06   144   0.354E-02
  26 F= -.40424242E+02 E0= -.40424242E+02  d E =-.282894E-02  mag=     8.0000
       N       E                     dE             d eps       ncg     rms          rms(c)
DAV:   1    -0.404249090683E+02   -0.57460E-03   -0.10024E+00   288   0.357E+00    0.535E-01
DAV:   2    -0.405077362527E+02   -0.82827E-01   -0.49619E-01   368   0.513E+00    0.898E+00
DAV:   3    -0.402123706116E+02    0.29537E+00   -0.26467E-01   320   0.497E+00    0.255E+00
DAV:   4    -0.403555470723E+02   -0.14318E+00   -0.35013E-02   336   0.259E+00    0.114E+00
DAV:   5    -0.403974959233E+02   -0.41949E-01   -0.15669E-02   352   0.118E+00    0.880E-01
DAV:   6    -0.404231651604E+02   -0.25669E-01   -0.15969E-02   320   0.124E+00    0.119E+00
DAV:   7    -0.404116007383E+02    0.11564E-01   -0.36041E-03   304   0.768E-01    0.806E-01
DAV:   8    -0.404118377258E+02   -0.23699E-03   -0.10219E-03   280   0.454E-01    0.809E-01
DAV:   9    -0.404128612833E+02   -0.10236E-02   -0.12050E-03   280   0.484E-01    0.691E-01
DAV:  10    -0.404142524440E+02   -0.13912E-02   -0.92667E-04   240   0.402E-01    0.626E-01
DAV:  11    -0.404173379594E+02   -0.30855E-02   -0.14885E-03   280   0.428E-01    0.377E-01
DAV:  12    -0.404233488096E+02   -0.60109E-02   -0.10826E-03   296   0.560E-01    0.388E-01
DAV:  13    -0.404253603663E+02   -0.20116E-02   -0.18025E-03   256   0.416E-01    0.429E-01
DAV:  14    -0.404222482922E+02    0.31121E-02   -0.44667E-04   240   0.266E-01    0.420E-01
DAV:  15    -0.404204885619E+02    0.17597E-02   -0.14738E-04   184   0.155E-01    0.407E-01
DAV:  16    -0.404188157400E+02    0.16728E-02   -0.84907E-05   176   0.557E-02    0.429E-01
DAV:  17    -0.404176214487E+02    0.11943E-02   -0.47375E-05   176   0.101E-01    0.448E-01
DAV:  18    -0.404165403936E+02    0.10811E-02   -0.59687E-05   160   0.100E-01    0.417E-01
DAV:  19    -0.404155611677E+02    0.97923E-03   -0.45295E-04   192   0.152E-01    0.261E-01
DAV:  20    -0.404198097372E+02   -0.42486E-02   -0.16965E-04   192   0.155E-01    0.267E-01
DAV:  21    -0.404210417323E+02   -0.12320E-02   -0.10437E-04   184   0.601E-02    0.231E-01
DAV:  22    -0.404230359925E+02   -0.19943E-02   -0.57423E-05   192   0.584E-02    0.183E-01
DAV:  23    -0.404243563436E+02   -0.13204E-02   -0.40674E-05   176   0.420E-02    0.142E-01
DAV:  24    -0.404253050008E+02   -0.94866E-03   -0.19881E-05   176   0.282E-02    0.124E-01
DAV:  25    -0.404257173363E+02   -0.41234E-03   -0.75303E-06   152   0.137E-02    0.114E-01
DAV:  26    -0.404258941299E+02   -0.17679E-03   -0.15188E-06   144   0.766E-03    0.112E-01
DAV:  27    -0.404260420647E+02   -0.14793E-03   -0.12916E-06   152   0.846E-03    0.111E-01
DAV:  28    -0.404260740044E+02   -0.31940E-04   -0.66764E-07   144   0.830E-03
  27 F= -.40426074E+02 E0= -.40426074E+02  d E =-.183230E-02  mag=     8.0000
       N       E                     dE             d eps       ncg     rms          rms(c)
DAV:   1    -0.404260577704E+02   -0.15706E-04   -0.60518E-03   288   0.278E-01    0.121E-01
DAV:   2    -0.404281987725E+02   -0.21410E-02   -0.66225E-03   360   0.846E-01    0.112E+00
DAV:   3    -0.404173863172E+02    0.10812E-01   -0.85998E-03   320   0.930E-01    0.422E-01
DAV:   4    -0.404262210959E+02   -0.88348E-02   -0.14080E-03   320   0.470E-01    0.286E-01
DAV:   5    -0.404253820323E+02    0.83906E-03   -0.36789E-04   200   0.201E-01    0.374E-01
DAV:   6    -0.404229832923E+02    0.23987E-02   -0.25494E-04   184   0.154E-01    0.419E-01
DAV:   7    -0.404204943137E+02    0.24890E-02   -0.11811E-04   184   0.753E-02    0.462E-01
DAV:   8    -0.404185137161E+02    0.19806E-02   -0.68517E-05   176   0.103E-01    0.474E-01
DAV:   9    -0.404178322424E+02    0.68147E-03   -0.28131E-05   152   0.435E-02    0.493E-01
DAV:  10    -0.404180886789E+02   -0.25644E-03   -0.19582E-04   176   0.199E-01    0.403E-01
DAV:  11    -0.404203210257E+02   -0.22323E-02   -0.36166E-04   192   0.289E-01    0.290E-01
DAV:  12    -0.404235426724E+02   -0.32216E-02   -0.51139E-04   200   0.245E-01    0.194E-01
DAV:  13    -0.404257211548E+02   -0.21785E-02   -0.24345E-04   192   0.178E-01    0.105E-01
DAV:  14    -0.404267250980E+02   -0.10039E-02   -0.18086E-04   184   0.160E-01    0.116E-01
DAV:  15    -0.404268803639E+02   -0.15527E-03   -0.10077E-04   184   0.115E-01    0.730E-02
DAV:  16    -0.404270417994E+02   -0.16144E-03   -0.60761E-05   168   0.103E-01    0.855E-02
DAV:  17    -0.404269927280E+02    0.49071E-04   -0.40690E-05   176   0.683E-02
  28 F= -.40426993E+02 E0= -.40426993E+02  d E =-.275103E-02  mag=     8.0000
       N       E                     dE             d eps       ncg     rms          rms(c)
DAV:   1    -0.404275464273E+02   -0.50463E-03   -0.83970E-01   288   0.326E+00    0.432E-01
DAV:   2    -0.404686400080E+02   -0.41094E-01   -0.24437E-01   368   0.402E+00    0.662E+00
DAV:   3    -0.402721541053E+02    0.19649E+00   -0.18541E-01   312   0.382E+00    0.196E+00
DAV:   4    -0.403837887091E+02   -0.11163E+00   -0.29721E-02   320   0.212E+00    0.774E-01
DAV:   5    -0.404187117156E+02   -0.34923E-01   -0.11721E-02   368   0.117E+00    0.962E-01
DAV:   6    -0.404232165212E+02   -0.45048E-02   -0.44733E-03   312   0.100E+00    0.541E-01
DAV:   7    -0.404243631223E+02   -0.11466E-02   -0.20859E-03   304   0.584E-01    0.299E-01
DAV:   8    -0.404263418905E+02   -0.19788E-02   -0.17207E-03   256   0.473E-01    0.452E-01
DAV:   9    -0.404262393790E+02    0.10251E-03   -0.10997E-03   240   0.402E-01    0.325E-01
DAV:  10    -0.404256993058E+02    0.54007E-03   -0.52101E-04   192   0.333E-01    0.193E-01
DAV:  11    -0.404273846326E+02   -0.16853E-02   -0.36780E-04   184   0.194E-01    0.247E-01
DAV:  12    -0.404269077600E+02    0.47687E-03   -0.24281E-04   176   0.261E-01    0.216E-01
DAV:  13    -0.404268181822E+02    0.89578E-04   -0.22502E-04   192   0.151E-01
  29 F= -.40426818E+02 E0= -.40426818E+02  d E =0.174546E-03  mag=     8.0000
       N       E                     dE             d eps       ncg     rms          rms(c)
DAV:   1    -0.404266967056E+02    0.21105E-03   -0.14995E+00   288   0.436E+00    0.633E-01
DAV:   2    -0.405158294209E+02   -0.89133E-01   -0.53632E-01   392   0.604E+00    0.859E+00
DAV:   3    -0.402219837477E+02    0.29385E+00   -0.33574E-01   312   0.551E+00    0.275E+00
DAV:   4    -0.403694398247E+02   -0.14746E+00   -0.56805E-02   352   0.299E+00    0.108E+00
DAV:   5    -0.404163840855E+02   -0.46944E-01   -0.16959E-02   360   0.158E+00    0.114E+00
DAV:   6    -0.404233160681E+02   -0.69320E-02   -0.87222E-03   312   0.131E+00    0.784E-01
DAV:   7    -0.404236493241E+02   -0.33326E-03   -0.45841E-03   304   0.825E-01    0.404E-01
DAV:   8    -0.404259927955E+02   -0.23435E-02   -0.26597E-03   296   0.618E-01    0.498E-01
DAV:   9    -0.404261276754E+02   -0.13488E-03   -0.13823E-03   280   0.493E-01    0.318E-01
DAV:  10    -0.404268448751E+02   -0.71720E-03   -0.13294E-03   256   0.496E-01    0.264E-01
DAV:  11    -0.404275161317E+02   -0.67126E-03   -0.69051E-04   232   0.440E-01    0.343E-01
DAV:  12    -0.404275959386E+02   -0.79807E-04   -0.92353E-04   224   0.422E-01
  30 F= -.40427596E+02 E0= -.40427596E+02  d E =-.603211E-03  mag=     8.0000
