   50   50 1000    2
  0.2654371E+03  0.2367612E-08  0.2367612E-08  0.2367612E-08  0.1000000E-15
  1.000000000000000E-004
  CAR 
 unknown system                          
    550      1    356
 
  0.0000000E+00  0.0000000E+00  0.0000000E+00  0.1000000E+01
    1       -9.756643     -9.756643
    2       -9.231622     -9.231622
    3       -9.144764     -9.144764
    4       -9.126827     -9.126827
    5       -9.086486     -9.086486
    6       -9.069307     -9.069307
    7       -9.019341     -9.019341
    8       -9.003083     -9.003083
    9       -8.980369     -8.980369
   10       -8.949145     -8.949145
   11       -8.926755     -8.926755
   12       -8.913339     -8.913339
   13       -8.878620     -8.878620
   14       -8.843152     -8.843152
   15       -8.806981     -8.806981
   16       -8.800362     -8.800362
   17       -8.779149     -8.779149
   18       -8.746742     -8.746742
   19       -8.725311     -8.725311
   20       -8.704635     -8.704635
   21       -8.680847     -8.680847
   22       -8.669519     -8.669519
   23       -8.641545     -8.641545
   24       -8.628754     -8.628754
   25       -8.609334     -8.609334
   26       -8.596633     -8.596633
   27       -8.574172     -8.574172
   28       -8.558294     -8.558294
   29       -8.546038     -8.546038
   30       -8.539693     -8.539693
   31       -8.521074     -8.521074
   32       -8.512397     -8.512397
   33       -8.504047     -8.504047
   34       -8.496664     -8.496664
   35       -8.472645     -8.472645
   36       -8.461990     -8.461990
   37       -8.450922     -8.450922
   38       -8.434111     -8.434111
   39       -8.420068     -8.420068
   40       -8.410347     -8.410347
   41       -8.399467     -8.399467
   42       -8.390324     -8.390324
   43       -8.378693     -8.378693
   44       -8.350229     -8.350229
   45       -8.339522     -8.339522
   46       -8.324569     -8.324569
   47       -8.312537     -8.312537
   48       -8.304498     -8.304498
   49       -8.289600     -8.289600
   50       -8.266838     -8.266838
   51       -8.254618     -8.254618
   52       -8.230718     -8.230718
   53       -8.221704     -8.221704
   54       -8.206120     -8.206120
   55       -8.202149     -8.202149
   56       -8.180939     -8.180939
   57       -8.169811     -8.169811
   58       -8.157606     -8.157606
   59       -8.154353     -8.154353
   60       -8.125491     -8.125491
   61       -8.116577     -8.116577
   62       -8.105681     -8.105681
   63       -8.097408     -8.097408
   64       -8.088019     -8.088019
   65       -8.076349     -8.076349
   66       -8.048637     -8.048637
   67       -8.038055     -8.038055
   68       -8.028895     -8.028895
   69       -8.018161     -8.018161
   70       -8.014799     -8.014799
   71       -8.000337     -8.000337
   72       -7.986037     -7.986037
   73       -7.975223     -7.975223
   74       -7.963548     -7.963548
   75       -7.952881     -7.952881
   76       -7.943391     -7.943391
   77       -7.930597     -7.930597
   78       -7.926999     -7.926999
   79       -7.908518     -7.908518
   80       -7.901431     -7.901431
   81       -7.882721     -7.882721
   82       -7.880290     -7.880290
   83       -7.863297     -7.863297
   84       -7.851676     -7.851676
   85       -7.834567     -7.834567
   86       -7.818948     -7.818948
   87       -7.806801     -7.806801
   88       -7.781446     -7.781446
   89       -7.770988     -7.770988
   90       -7.767300     -7.767300
   91       -7.760949     -7.760949
   92       -7.747562     -7.747562
   93       -7.733148     -7.733148
   94       -7.729098     -7.729098
   95       -7.715436     -7.715436
   96       -7.703435     -7.703435
   97       -7.683629     -7.683629
   98       -7.670195     -7.670195
   99       -7.660199     -7.660199
  100       -7.649254     -7.649254
  101       -7.644966     -7.644966
  102       -7.623028     -7.623028
  103       -7.612024     -7.612024
  104       -7.602204     -7.602204
  105       -7.592042     -7.592042
  106       -7.579666     -7.579666
  107       -7.574826     -7.574826
  108       -7.567384     -7.567384
  109       -7.540628     -7.540628
  110       -7.525824     -7.525824
  111       -7.515727     -7.515727
  112       -7.509042     -7.509042
  113       -7.496247     -7.496247
  114       -7.480992     -7.480992
  115       -7.463271     -7.463271
  116       -7.459511     -7.459511
  117       -7.451799     -7.451799
  118       -7.440816     -7.440816
  119       -7.435469     -7.435469
  120       -7.411354     -7.411354
  121       -7.394569     -7.394569
  122       -7.386395     -7.386395
  123       -7.373138     -7.373138
  124       -7.360198     -7.360198
  125       -7.341981     -7.341981
  126       -7.320569     -7.320569
  127       -7.310914     -7.310914
  128       -7.301555     -7.301555
  129       -7.295073     -7.295073
  130       -7.291440     -7.291440
  131       -7.277297     -7.277297
  132       -7.267134     -7.267134
  133       -7.257333     -7.257333
  134       -7.240106     -7.240106
  135       -7.223874     -7.223874
  136       -7.210021     -7.210021
  137       -7.193327     -7.193327
  138       -7.187271     -7.187271
  139       -7.172569     -7.172569
  140       -7.151771     -7.151771
  141       -7.145646     -7.145646
  142       -7.129210     -7.129210
  143       -7.118818     -7.118818
  144       -7.114181     -7.114181
  145       -7.109439     -7.109439
  146       -7.084579     -7.084579
  147       -7.075971     -7.075971
  148       -7.060565     -7.060565
  149       -7.053964     -7.053964
  150       -7.037306     -7.037306
  151       -7.017977     -7.017977
  152       -7.005270     -7.005270
  153       -6.999867     -6.999867
  154       -6.987729     -6.987729
  155       -6.978244     -6.978244
  156       -6.977308     -6.977308
  157       -6.957005     -6.957005
  158       -6.955067     -6.955067
  159       -6.930323     -6.930323
  160       -6.927948     -6.927948
  161       -6.911605     -6.911605
  162       -6.903867     -6.903867
  163       -6.881820     -6.881820
  164       -6.876180     -6.876180
  165       -6.872637     -6.872637
  166       -6.862271     -6.862271
  167       -6.849546     -6.849546
  168       -6.841172     -6.841172
  169       -6.829340     -6.829340
  170       -6.823264     -6.823264
  171       -6.813305     -6.813305
  172       -6.797599     -6.797599
  173       -6.796909     -6.796909
  174       -6.786939     -6.786939
  175       -6.765973     -6.765973
  176       -6.748990     -6.748990
  177       -6.742022     -6.742022
  178       -6.735708     -6.735708
  179       -6.727234     -6.727234
  180       -6.721904     -6.721904
  181       -6.713389     -6.713389
  182       -6.707229     -6.707229
  183       -6.699380     -6.699380
  184       -6.688658     -6.688658
  185       -6.682060     -6.682060
  186       -6.678585     -6.678585
  187       -6.667907     -6.667907
  188       -6.659970     -6.659970
  189       -6.651134     -6.651134
  190       -6.644884     -6.644884
  191       -6.630350     -6.630350
  192       -6.612019     -6.612019
  193       -6.610536     -6.610536
  194       -6.599864     -6.599864
  195       -6.599346     -6.599346
  196       -6.596276     -6.596276
  197       -6.589588     -6.589588
  198       -6.571769     -6.571769
  199       -6.569020     -6.569020
  200       -6.566265     -6.566265
  201       -6.562265     -6.562265
  202       -6.548980     -6.548980
  203       -6.548391     -6.548391
  204       -6.535014     -6.535014
  205       -6.530985     -6.530985
  206       -6.525840     -6.525840
  207       -6.517376     -6.517376
  208       -6.509181     -6.509181
  209       -6.501114     -6.501114
  210       -6.493070     -6.493070
  211       -6.483402     -6.483402
  212       -6.471923     -6.471923
  213       -6.468583     -6.468583
  214       -6.460027     -6.460027
  215       -6.454700     -6.454700
  216       -6.443283     -6.443283
  217       -6.437693     -6.437693
  218       -6.425113     -6.425113
  219       -6.424026     -6.424026
  220       -6.420285     -6.420285
  221       -6.411643     -6.411643
  222       -6.398686     -6.398686
  223       -6.389417     -6.389417
  224       -6.381419     -6.381419
  225       -6.370487     -6.370487
  226       -6.364806     -6.364806
  227       -6.361871     -6.361871
  228       -6.344543     -6.344543
  229       -6.341735     -6.341735
  230       -6.327400     -6.327400
  231       -6.320578     -6.320578
  232       -6.310635     -6.310635
  233       -6.306798     -6.306798
  234       -6.298052     -6.298052
  235       -6.294912     -6.294912
  236       -6.276051     -6.276051
  237       -6.263037     -6.263037
  238       -6.250198     -6.250198
  239       -6.236354     -6.236354
  240       -6.226839     -6.226839
  241       -6.218080     -6.218080
  242       -6.209524     -6.209524
  243       -6.205382     -6.205382
  244       -6.196579     -6.196579
  245       -6.185761     -6.185761
  246       -6.182405     -6.182405
  247       -6.163926     -6.163926
  248       -6.162768     -6.162768
  249       -6.149982     -6.149982
  250       -6.127922     -6.127922
  251       -6.115222     -6.115222
  252       -6.106082     -6.106082
  253       -6.090389     -6.090389
  254       -6.065194     -6.065194
  255       -6.031289     -6.031289
  256       -6.018540     -6.018540
  257       -5.992682     -5.992682
  258       -5.941569     -5.941569
  259       -5.808139     -5.808139
  260       -5.460734     -5.460734
  261       -5.311019     -5.311019
  262       -5.283020     -5.283020
  263       -5.083068     -5.083068
  264       -4.951790     -4.951790
  265       -4.866882     -4.866882
  266       -4.508022     -4.508022
  267       -4.352232     -4.352232
  268       -4.215283     -4.215283
  269       -4.074484     -4.074484
  270       -3.965161     -3.965161
  271       -3.869881     -3.869881
  272       -3.717792     -3.717792
  273       -3.634220     -3.634220
  274       -3.467216     -3.467216
  275       -3.402142     -3.402142
  276       -3.198818     -3.198818
  277       -3.005111     -3.005112
  278       -2.916146     -2.916146
  279       -2.769011     -2.769011
  280       -2.614914     -2.614914
  281       -2.557194     -2.557194
  282       -2.458911     -2.458911
  283       -2.363149     -2.363149
  284       -2.282984     -2.282984
  285       -2.224948     -2.224948
  286       -2.197316     -2.197316
  287       -2.011018     -2.011018
  288       -1.983286     -1.983286
  289       -1.853843     -1.853843
  290       -1.732588     -1.732589
  291       -1.668611     -1.668611
  292       -1.567181     -1.567181
  293       -1.554846     -1.554845
  294       -1.481563     -1.481563
  295       -1.304753     -1.304753
  296       -1.209555     -1.209555
  297       -1.132766     -1.132766
  298       -1.104864     -1.104864
  299       -1.015550     -1.015550
  300       -0.964278     -0.964278
  301       -0.855761     -0.855761
  302       -0.805669     -0.805668
  303       -0.789168     -0.789168
  304       -0.761432     -0.761432
  305       -0.708288     -0.708288
  306       -0.643095     -0.643094
  307       -0.496454     -0.496454
  308       -0.460794     -0.460794
  309       -0.272068     -0.272069
  310       -0.227873     -0.227874
  311       -0.180273     -0.180273
  312       -0.079516     -0.079515
  313       -0.019001     -0.019001
  314        0.123735      0.123735
  315        0.180049      0.180050
  316        0.240213      0.240208
  317        0.354226      0.354226
  318        0.381176      0.381176
  319        0.462020      0.462021
  320        0.547985      0.547985
  321        0.598729      0.598731
  322        0.620572      0.620571
  323        0.669199      0.669201
  324        0.723129      0.723128
  325        0.792370      0.792371
  326        0.835644      0.835643
  327        0.858998      0.858996
  328        0.886285      0.886287
  329        0.908247      0.908243
  330        0.916550      0.916551
  331        0.932727      0.932723
  332        0.957595      0.957591
  333        0.999882      0.999881
  334        1.036550      1.036550
  335        1.059603      1.059603
  336        1.087266      1.087267
  337        1.098684      1.098683
  338        1.112504      1.112503
  339        1.138718      1.138719
  340        1.148116      1.148121
  341        1.183372      1.183370
  342        1.234131      1.234129
  343        1.238227      1.238228
  344        1.260042      1.260041
  345        1.284788      1.284786
  346        1.299265      1.299265
  347        1.323149      1.323147
  348        1.342797      1.342797
  349        1.351584      1.351585
  350        1.370185      1.370185
  351        1.386295      1.386292
  352        1.421329      1.421325
  353        1.440930      1.440928
  354        1.461769      1.461767
  355        1.494818      1.494817
  356        1.512866      1.512865
