 running on   32 total cores
 distrk:  each k-point on   32 cores,    1 groups
 distr:  one band on    8 cores,    4 groups
 using from now: INCAR     
 vasp.5.3.5 31Mar14 (build Feb 01 2018 12:10:03) gamma-only                     
  
 POSCAR found type information on POSCAR  Ag
 POSCAR found :  1 types and      32 ions
 scaLAPACK will be used

 ----------------------------------------------------------------------------- 
|                                                                             |
|  ADVICE TO THIS USER RUNNING 'VASP/VAMP'   (HEAR YOUR MASTER'S VOICE ...):  |
|                                                                             |
|      You have a (more or less) 'large supercell' and for larger cells       |
|      it might be more efficient to use real space projection opertators     |
|      So try LREAL= Auto  in the INCAR   file.                               |
|      Mind: At the moment your POTCAR file does not contain real space       |
|       projectors, and has to be modified,  BUT if you                       |
|      want to do an extremely  accurate calculation you might also keep the  |
|      reciprocal projection scheme          (i.e. LREAL=.FALSE.)             |
|                                                                             |
 ----------------------------------------------------------------------------- 

 LDA part: xc-table for Pade appr. of Perdew
 POSCAR, INCAR and KPOINTS ok, starting setup
 WARNING: small aliasing (wrap around) errors must be expected
 FFT: planning ...
 WAVECAR not read
 entering main loop
       N       E                     dE             d eps       ncg     rms          rms(c)
DAV:   1     0.301420073167E+04    0.30142E+04   -0.67587E+04   928   0.603E+02
DAV:   2     0.612171612790E+03   -0.24020E+04   -0.21528E+04  1512   0.152E+02
DAV:   3    -0.306201937437E+02   -0.64279E+03   -0.58675E+03  1176   0.863E+01
DAV:   4    -0.622705596176E+02   -0.31650E+02   -0.31247E+02  1000   0.206E+01
DAV:   5    -0.627365040085E+02   -0.46594E+00   -0.46551E+00  1000   0.294E+00    0.330E+01
DAV:   6    -0.208673700880E+02    0.41869E+02   -0.13411E+02   932   0.173E+01    0.173E+01
DAV:   7    -0.150365110487E+02    0.58309E+01   -0.68779E+00   968   0.553E+00    0.102E+01
DAV:   8    -0.174760517841E+02   -0.24395E+01   -0.26713E+00   972   0.293E+00    0.542E+00
DAV:   9    -0.220541762782E+02   -0.45781E+01   -0.14681E+00   984   0.183E+00    0.326E+00
DAV:  10    -0.309541990628E+02   -0.89000E+01   -0.26968E+00   944   0.238E+00    0.239E+00
DAV:  11    -0.448051470776E+02   -0.13851E+02   -0.69070E+00   928   0.324E+00    0.216E+00
DAV:  12    -0.458332556925E+02   -0.10281E+01   -0.19758E-01  1096   0.722E-01    0.275E+00
DAV:  13    -0.456321106640E+02    0.20115E+00   -0.13483E-02   976   0.376E-01    0.293E+00
DAV:  14    -0.465682479102E+02   -0.93614E+00   -0.10490E-01   944   0.640E-01    0.262E+00
DAV:  15    -0.531029417033E+02   -0.65347E+01   -0.33594E+00   924   0.316E+00    0.196E+00
DAV:  16    -0.540239132784E+02   -0.92097E+00   -0.20571E-01  1024   0.104E+00    0.167E+00
DAV:  17    -0.557788045765E+02   -0.17549E+01   -0.37128E-01   944   0.109E+00    0.158E+00
DAV:  18    -0.580779539741E+02   -0.22991E+01   -0.47441E-01   932   0.113E+00    0.115E+00
DAV:  19    -0.595453508813E+02   -0.14674E+01   -0.20055E-01   932   0.942E-01    0.751E-01
DAV:  20    -0.603322350393E+02   -0.78688E+00   -0.65242E-02   968   0.685E-01    0.479E-01
DAV:  21    -0.610284472603E+02   -0.69621E+00   -0.48166E-02   936   0.555E-01    0.330E-01
DAV:  22    -0.613921088619E+02   -0.36366E+00   -0.17732E-02   968   0.220E-01    0.243E-01
DAV:  23    -0.615139246096E+02   -0.12182E+00   -0.46848E-03   972   0.180E-01    0.160E-01
DAV:  24    -0.615695036632E+02   -0.55579E-01   -0.26038E-03   972   0.121E-01    0.146E-01
DAV:  25    -0.615872149615E+02   -0.17711E-01   -0.10754E-03   968   0.114E-01    0.787E-02
DAV:  26    -0.615979228607E+02   -0.10708E-01   -0.10735E-03   968   0.106E-01    0.301E-02
DAV:  27    -0.616027433886E+02   -0.48205E-02   -0.36496E-04   656   0.327E-02    0.226E-02
DAV:  28    -0.616046605874E+02   -0.19172E-02   -0.13116E-04   664   0.191E-02    0.122E-02
DAV:  29    -0.616067702272E+02   -0.21096E-02   -0.79771E-05   636   0.169E-02    0.135E-02
DAV:  30    -0.616077894062E+02   -0.10192E-02   -0.26312E-05   656   0.128E-02    0.771E-03
DAV:  31    -0.616091582101E+02   -0.13688E-02   -0.39411E-05   628   0.126E-02    0.450E-03
DAV:  32    -0.616095135405E+02   -0.35533E-03   -0.71157E-06   640   0.415E-03    0.291E-03
DAV:  33    -0.616096537386E+02   -0.14020E-03   -0.33245E-06   624   0.231E-03    0.132E-03
DAV:  34    -0.616096813276E+02   -0.27589E-04   -0.16429E-06   608   0.218E-03
   1 F= -.61609681E+02 E0= -.61609681E+02  d E =-.616097E+02  mag=     1.9995
 curvature:   0.00 expect dE= 0.000E+00 dE for cont linesearch  0.000E+00
 trial: gam= 0.00000 g(F)=  0.813E-01 g(S)=  0.000E+00 ort = 0.000E+00 (trialstep = 0.100E+01)
 search vector abs. value=  0.813E-01
 bond charge predicted
       N       E                     dE             d eps       ncg     rms          rms(c)
DAV:   1    -0.616856132859E+02   -0.75960E-01   -0.54675E+00   976   0.420E+00    0.205E-01
DAV:   2    -0.616881004442E+02   -0.24872E-02   -0.26122E-02   968   0.408E-01    0.149E-01
DAV:   3    -0.616880192373E+02    0.81207E-04   -0.53361E-04   984   0.638E-02
   2 F= -.61688019E+02 E0= -.61688019E+02  d E =-.783379E-01  mag=     1.9997
 ZBRENT: can't locate minimum, use default step
 trial-energy change:   -0.078338  1 .order   -0.078168   -0.081305   -0.075030
 step:   4.0000(harm= 12.9565)  dis= 0.02842  next Energy=   -62.136395 (dE=-0.527E+00)
 bond charge predicted
       N       E                     dE             d eps       ncg     rms          rms(c)
DAV:   1    -0.618673845660E+02   -0.17928E+00   -0.49308E+01   928   0.126E+01    0.576E-01
DAV:   2    -0.618895645964E+02   -0.22180E-01   -0.23447E-01   968   0.122E+00    0.440E-01
DAV:   3    -0.618889405203E+02    0.62408E-03   -0.44885E-03   984   0.183E-01    0.267E-01
DAV:   4    -0.618885329510E+02    0.40757E-03   -0.20296E-03   968   0.994E-02    0.429E-02
DAV:   5    -0.618885242366E+02    0.87145E-05   -0.73589E-05   624   0.274E-02
   3 F= -.61888524E+02 E0= -.61888524E+02  d E =-.278843E+00  mag=     1.9999
 curvature:  -2.84 expect dE=-0.131E+00 dE for cont linesearch -0.122E+00
 ZBRENT: increasing intervall
 opt :  10.0000  next Energy=   -62.148151 (dE=-0.538E+00)
 bond charge predicted
       N       E                     dE             d eps       ncg     rms          rms(c)
DAV:   1    -0.620680948002E+02   -0.17956E+00   -0.19775E+02   912   0.254E+01    0.990E-01
DAV:   2    -0.621567985306E+02   -0.88704E-01   -0.93020E-01   948   0.246E+00    0.827E-01
DAV:   3    -0.621551485992E+02    0.16499E-02   -0.16266E-02   952   0.341E-01    0.559E-01
DAV:   4    -0.621532276255E+02    0.19210E-02   -0.89232E-03   968   0.195E-01    0.131E-01
DAV:   5    -0.621532648313E+02   -0.37206E-04   -0.30892E-04   696   0.588E-02
   4 F= -.62153265E+02 E0= -.62153265E+02  d E =-.543584E+00  mag=     2.0000
 curvature:  -6.03 expect dE=-0.159E+00 dE for cont linesearch -0.716E-01
 ZBRENT: increasing intervall
 opt :  22.0000  next Energy=   -62.188811 (dE=-0.579E+00)
 bond charge predicted
       N       E                     dE             d eps       ncg     rms          rms(c)
DAV:   1    -0.618906518493E+02    0.26258E+00   -0.80256E+02   912   0.516E+01    0.159E+00
DAV:   2    -0.622539595978E+02   -0.36331E+00   -0.37898E+00   932   0.505E+00    0.154E+00
DAV:   3    -0.622524218083E+02    0.15378E-02   -0.62164E-02   984   0.644E-01    0.115E+00
DAV:   4    -0.622433187370E+02    0.91031E-02   -0.23247E-02   956   0.318E-01    0.551E-01
DAV:   5    -0.622434427551E+02   -0.12402E-03   -0.64138E-03   984   0.172E-01    0.158E-01
DAV:   6    -0.622435613369E+02   -0.11858E-03   -0.61270E-04   976   0.463E-02    0.835E-02
DAV:   7    -0.622439877919E+02   -0.42645E-03   -0.18820E-04   648   0.293E-02    0.344E-02
DAV:   8    -0.622444606434E+02   -0.47285E-03   -0.57353E-05   624   0.167E-02    0.134E-02
DAV:   9    -0.622448497479E+02   -0.38910E-03   -0.12088E-05   640   0.646E-03    0.578E-03
DAV:  10    -0.622451698496E+02   -0.32010E-03   -0.43707E-06   624   0.312E-03    0.380E-03
DAV:  11    -0.622458110816E+02   -0.64123E-03   -0.16659E-05   648   0.380E-03    0.276E-03
DAV:  12    -0.622460910939E+02   -0.28001E-03   -0.43914E-06   648   0.242E-03    0.260E-03
DAV:  13    -0.622463181610E+02   -0.22707E-03   -0.38439E-06   640   0.185E-03    0.162E-03
DAV:  14    -0.622464579703E+02   -0.13981E-03   -0.19931E-06   648   0.134E-03    0.529E-04
DAV:  15    -0.622465084670E+02   -0.50497E-04   -0.43050E-07   616   0.721E-04
   5 F= -.62246508E+02 E0= -.62246508E+02  d E =-.636827E+00  mag=     2.0000
 curvature:  -3.00 expect dE=-0.148E+00 dE for cont linesearch -0.594E-02
 ZBRENT: bracketing found
 ZBRENT: interpolating
 opt :  18.5179  next Energy=   -62.268613 (dE=-0.659E+00)
 bond charge predicted
       N       E                     dE             d eps       ncg     rms          rms(c)
DAV:   1    -0.622418340624E+02    0.46239E-02   -0.66419E+01   920   0.146E+01    0.533E-01
DAV:   2    -0.622726596559E+02   -0.30826E-01   -0.32508E-01   948   0.143E+00    0.336E-01
DAV:   3    -0.622720664436E+02    0.59321E-03   -0.58524E-03  1000   0.201E-01    0.220E-01
DAV:   4    -0.622716049737E+02    0.46147E-03   -0.21876E-03   984   0.996E-02    0.526E-02
DAV:   5    -0.622716004293E+02    0.45444E-05   -0.78841E-05   656   0.284E-02
   6 F= -.62271600E+02 E0= -.62271600E+02  d E =-.661919E+00  mag=     2.0000
 curvature: -11.15 expect dE=-0.415E+00 dE for cont linesearch -0.497E-03
 trial: gam= 0.48157 g(F)=  0.373E-01 g(S)=  0.000E+00 ort =-0.190E-02 (trialstep = 0.450E+01)
 search vector abs. value=  0.543E-01
 bond charge predicted
       N       E                     dE             d eps       ncg     rms          rms(c)
DAV:   1    -0.623775390127E+02   -0.10593E+00   -0.73989E+01   924   0.155E+01    0.555E-01
DAV:   2    -0.624107068622E+02   -0.33168E-01   -0.33832E-01   956   0.146E+00    0.428E-01
DAV:   3    -0.624098151632E+02    0.89170E-03   -0.57028E-03   968   0.197E-01    0.289E-01
DAV:   4    -0.624091947311E+02    0.62043E-03   -0.38458E-03   984   0.129E-01    0.563E-02
DAV:   5    -0.624092044913E+02   -0.97602E-05   -0.93986E-05   632   0.450E-02
   7 F= -.62409204E+02 E0= -.62409204E+02  d E =-.137604E+00  mag=     2.0000
 trial-energy change:   -0.137604  1 .order   -0.138421   -0.163638   -0.113204
 step:  14.6124(harm= 14.6124)  dis= 0.09861  next Energy=   -62.537071 (dE=-0.265E+00)
 bond charge predicted
       N       E                     dE             d eps       ncg     rms          rms(c)
DAV:   1    -0.623805132605E+02    0.28681E-01   -0.37624E+02   912   0.351E+01    0.109E+00
DAV:   2    -0.625506371243E+02   -0.17012E+00   -0.17387E+00   936   0.335E+00    0.901E-01
DAV:   3    -0.625477991837E+02    0.28379E-02   -0.27370E-02   948   0.439E-01    0.656E-01
DAV:   4    -0.625435907642E+02    0.42084E-02   -0.14611E-02   984   0.246E-01    0.206E-01
DAV:   5    -0.625437488374E+02   -0.15807E-03   -0.12109E-03   976   0.106E-01    0.724E-02
DAV:   6    -0.625437416689E+02    0.71685E-05   -0.16468E-04   648   0.284E-02
   8 F= -.62543742E+02 E0= -.62543742E+02  d E =-.272141E+00  mag=     2.0000
 curvature: -10.91 expect dE=-0.125E+00 dE for cont linesearch -0.172E-02
 ZBRENT: extrapolating
 opt :  15.9440  next Energy=   -62.545690 (dE=-0.274E+00)
 bond charge predicted
       N       E                     dE             d eps       ncg     rms          rms(c)
DAV:   1    -0.625432145217E+02    0.53432E-03   -0.64428E+00   944   0.455E+00    0.138E-01
DAV:   2    -0.625462054764E+02   -0.29910E-02   -0.30065E-02   984   0.435E-01    0.103E-01
DAV:   3    -0.625461850432E+02    0.20433E-04   -0.48363E-04   968   0.578E-02
   9 F= -.62546185E+02 E0= -.62546185E+02  d E =-.274585E+00  mag=     2.0000
 curvature: -12.35 expect dE=-0.158E+00 dE for cont linesearch -0.154E-04
 trial: gam= 0.30253 g(F)=  0.128E-01 g(S)=  0.000E+00 ort = 0.260E-03 (trialstep = 0.679E+01)
 search vector abs. value=  0.179E-01
 bond charge predicted
       N       E                     dE             d eps       ncg     rms          rms(c)
DAV:   1    -0.626013623319E+02   -0.55157E-01   -0.55321E+01   912   0.134E+01    0.281E-01
DAV:   2    -0.626267890262E+02   -0.25427E-01   -0.25687E-01   984   0.127E+00    0.258E-01
DAV:   3    -0.626265083086E+02    0.28072E-03   -0.39136E-03  1008   0.154E-01    0.190E-01
DAV:   4    -0.626259093100E+02    0.59900E-03   -0.12988E-03   976   0.712E-02    0.972E-02
DAV:   5    -0.626259663307E+02   -0.57021E-04   -0.85571E-04   988   0.567E-02
  10 F= -.62625966E+02 E0= -.62625966E+02  d E =-.797813E-01  mag=     2.0000
 ZBRENT: can't locate minimum, use default step
 trial-energy change:   -0.079781  1 .order   -0.079943   -0.087273   -0.072613
 step:  27.1666(harm= 40.4315)  dis= 0.09644  next Energy=   -62.805957 (dE=-0.260E+00)
 bond charge predicted
       N       E                     dE             d eps       ncg     rms          rms(c)
DAV:   1    -0.625374645172E+02    0.88445E-01   -0.50378E+02   912   0.408E+01    0.102E+00
DAV:   2    -0.627747050892E+02   -0.23724E+00   -0.23982E+00   972   0.392E+00    0.775E-01
DAV:   3    -0.627711825014E+02    0.35226E-02   -0.37068E-02  1000   0.477E-01    0.536E-01
DAV:   4    -0.627656964429E+02    0.54861E-02   -0.11095E-02   964   0.209E-01    0.260E-01
DAV:   5    -0.627655594517E+02    0.13699E-03   -0.46068E-03   992   0.132E-01    0.808E-02
DAV:   6    -0.627656984020E+02   -0.13895E-03   -0.17606E-04   656   0.268E-02    0.503E-02
DAV:   7    -0.627659385190E+02   -0.24012E-03   -0.11180E-04   648   0.206E-02    0.158E-02
DAV:   8    -0.627661139437E+02   -0.17542E-03   -0.20520E-05   640   0.965E-03    0.498E-03
DAV:   9    -0.627662404130E+02   -0.12647E-03   -0.58538E-06   632   0.467E-03    0.290E-03
DAV:  10    -0.627663418624E+02   -0.10145E-03   -0.24050E-06   632   0.218E-03    0.167E-03
DAV:  11    -0.627664845580E+02   -0.14270E-03   -0.43521E-06   632   0.200E-03    0.125E-03
DAV:  12    -0.627665615554E+02   -0.76997E-04   -0.17764E-06   640   0.125E-03
  11 F= -.62766562E+02 E0= -.62766562E+02  d E =-.220377E+00  mag=     2.0000
 curvature: -23.78 expect dE=-0.264E+00 dE for cont linesearch -0.140E-01
 ZBRENT: extrapolating
 opt :  36.0470  next Energy=   -62.780971 (dE=-0.235E+00)
 bond charge predicted
       N       E                     dE             d eps       ncg     rms          rms(c)
DAV:   1    -0.627393079753E+02    0.27177E-01   -0.94663E+01   912   0.175E+01    0.392E-01
DAV:   2    -0.627830794532E+02   -0.43771E-01   -0.44082E-01   948   0.167E+00    0.335E-01
DAV:   3    -0.627824262611E+02    0.65319E-03   -0.67101E-03   992   0.201E-01    0.241E-01
DAV:   4    -0.627812490244E+02    0.11772E-02   -0.24634E-03   972   0.973E-02    0.112E-01
DAV:   5    -0.627812329237E+02    0.16101E-04   -0.10337E-03   992   0.632E-02    0.402E-02
DAV:   6    -0.627812592056E+02   -0.26282E-04   -0.39696E-05   588   0.126E-02
  12 F= -.62781259E+02 E0= -.62781259E+02  d E =-.235074E+00  mag=     2.0000
 curvature: -24.48 expect dE=-0.434E+00 dE for cont linesearch -0.155E-04
 trial: gam= 1.38773 g(F)=  0.177E-01 g(S)=  0.000E+00 ort = 0.106E-03 (trialstep = 0.431E+01)
 search vector abs. value=  0.525E-01
 bond charge predicted
       N       E                     dE             d eps       ncg     rms          rms(c)
DAV:   1    -0.628243244039E+02   -0.43091E-01   -0.65188E+01   912   0.145E+01    0.277E-01
DAV:   2    -0.628543647240E+02   -0.30040E-01   -0.30111E-01   944   0.139E+00    0.254E-01
DAV:   3    -0.628539581173E+02    0.40661E-03   -0.45550E-03   980   0.169E-01    0.191E-01
DAV:   4    -0.628531475893E+02    0.81053E-03   -0.11298E-03   976   0.655E-02    0.106E-01
DAV:   5    -0.628530298699E+02    0.11772E-03   -0.13287E-03   952   0.683E-02    0.340E-02
DAV:   6    -0.628530773019E+02   -0.47432E-04   -0.20609E-05   604   0.979E-03
  13 F= -.62853077E+02 E0= -.62853077E+02  d E =-.718181E-01  mag=     2.0000
 ZBRENT: can't locate minimum, use default step
 trial-energy change:   -0.071818  1 .order   -0.072200   -0.077103   -0.067297
 step:  17.2371(harm= 33.8820)  dis= 0.10347  next Energy=   -63.084375 (dE=-0.303E+00)
 bond charge predicted
       N       E                     dE             d eps       ncg     rms          rms(c)
DAV:   1    -0.627288779831E+02    0.12415E+00   -0.59390E+02   912   0.443E+01    0.109E+00
DAV:   2    -0.630079043032E+02   -0.27903E+00   -0.28032E+00   944   0.426E+00    0.782E-01
DAV:   3    -0.630034388304E+02    0.44655E-02   -0.43686E-02  1000   0.532E-01    0.539E-01
DAV:   4    -0.629968798335E+02    0.65590E-02   -0.11131E-02   960   0.207E-01    0.272E-01
DAV:   5    -0.629962042213E+02    0.67561E-03   -0.62950E-03   964   0.151E-01    0.765E-02
DAV:   6    -0.629964365061E+02   -0.23228E-03   -0.14864E-04   656   0.258E-02    0.479E-02
DAV:   7    -0.629967348171E+02   -0.29831E-03   -0.75792E-05   624   0.165E-02    0.169E-02
DAV:   8    -0.629969571065E+02   -0.22229E-03   -0.18032E-05   640   0.847E-03    0.548E-03
DAV:   9    -0.629971419955E+02   -0.18489E-03   -0.60946E-06   632   0.416E-03    0.284E-03
DAV:  10    -0.629972781460E+02   -0.13615E-03   -0.29939E-06   632   0.211E-03    0.178E-03
DAV:  11    -0.629974210342E+02   -0.14289E-03   -0.34464E-06   632   0.173E-03    0.126E-03
DAV:  12    -0.629975736005E+02   -0.15257E-03   -0.50471E-06   636   0.179E-03    0.792E-04
DAV:  13    -0.629976288829E+02   -0.55282E-04   -0.14463E-06   640   0.101E-03
  14 F= -.62997629E+02 E0= -.62997629E+02  d E =-.216370E+00  mag=     2.0000
 curvature: -33.96 expect dE=-0.405E+00 dE for cont linesearch -0.265E-01
 ZBRENT: increasing intervall
 opt :  43.0927  next Energy=   -62.924607 (dE=-0.143E+00)
 bond charge predicted
       N       E                     dE             d eps       ncg     rms          rms(c)
DAV:   1    -0.616289331435E+02    0.13686E+01   -0.24718E+03   912   0.931E+01    0.381E+00
DAV:   2    -0.626954074482E+02   -0.10665E+01   -0.12755E+01   940   0.940E+00    0.225E+00
DAV:   3    -0.627701479358E+02   -0.74740E-01   -0.27777E-01   964   0.175E+00    0.157E+00
DAV:   4    -0.627004496806E+02    0.69698E-01   -0.28204E-02   968   0.666E-01    0.114E+00
DAV:   5    -0.624617716960E+02    0.23868E+00   -0.69930E-02   940   0.740E-01    0.114E+00
DAV:   6    -0.625941819117E+02   -0.13241E+00   -0.46353E-02   932   0.721E-01    0.563E-01
DAV:   7    -0.626050054744E+02   -0.10824E-01   -0.37662E-03  1008   0.199E-01    0.429E-01
DAV:   8    -0.626335330627E+02   -0.28528E-01   -0.12608E-03   944   0.120E-01    0.357E-01
DAV:   9    -0.626760998544E+02   -0.42567E-01   -0.20934E-03   968   0.108E-01    0.285E-01
DAV:  10    -0.627173299617E+02   -0.41230E-01   -0.16771E-03   968   0.854E-02    0.220E-01
DAV:  11    -0.627749682477E+02   -0.57638E-01   -0.32812E-03   984   0.144E-01    0.117E-01
DAV:  12    -0.628168189053E+02   -0.41851E-01   -0.31466E-03   984   0.115E-01    0.353E-02
DAV:  13    -0.628321642429E+02   -0.15345E-01   -0.69381E-04   712   0.383E-02    0.199E-02
DAV:  14    -0.628397877991E+02   -0.76236E-02   -0.21011E-04   664   0.177E-02    0.176E-02
DAV:  15    -0.628446719517E+02   -0.48842E-02   -0.10633E-04   648   0.112E-02    0.178E-02
DAV:  16    -0.628456282171E+02   -0.95627E-03   -0.13426E-05   656   0.532E-03    0.184E-02
DAV:  17    -0.628460667050E+02   -0.43849E-03   -0.17336E-05   592   0.683E-03    0.162E-02
DAV:  18    -0.628476554735E+02   -0.15888E-02   -0.32179E-05   616   0.765E-03    0.111E-02
DAV:  19    -0.628488674099E+02   -0.12119E-02   -0.23114E-05   644   0.778E-03    0.670E-03
DAV:  20    -0.628491765600E+02   -0.30915E-03   -0.11493E-05   656   0.661E-03    0.274E-03
DAV:  21    -0.628492791312E+02   -0.10257E-03   -0.40649E-06   616   0.403E-03    0.130E-03
DAV:  22    -0.628494368493E+02   -0.15772E-03   -0.34779E-06   608   0.281E-03    0.226E-03
DAV:  23    -0.628495240357E+02   -0.87186E-04   -0.12777E-06   616   0.154E-03
  15 F= -.62849524E+02 E0= -.62849524E+02  d E =-.682648E-01  mag=     0.0022
 curvature:  93.71 expect dE= 0.587E+01 dE for cont linesearch  0.822E+00
 ZBRENT: bracketing found
 ZBRENT: interpolating
 opt :  23.1732  next Energy=   -63.016614 (dE=-0.235E+00)
 bond charge predicted
       N       E                     dE             d eps       ncg     rms          rms(c)
DAV:   1    -0.623653724585E+02    0.48406E+00   -0.14373E+03   912   0.700E+01    0.193E+00
DAV:   2    -0.630779417620E+02   -0.71257E+00   -0.70330E+00   956   0.711E+00    0.182E+00
DAV:   3    -0.630385015172E+02    0.39440E-01   -0.14929E-01   956   0.181E+00    0.116E+00
DAV:   4    -0.630273755779E+02    0.11126E-01   -0.18913E-02   940   0.588E-01    0.957E-01
DAV:   5    -0.630207198648E+02    0.66557E-02   -0.37323E-02   972   0.587E-01    0.828E-01
DAV:   6    -0.630134466977E+02    0.72732E-02   -0.39328E-03   944   0.338E-01    0.346E-01
DAV:   7    -0.630155611256E+02   -0.21144E-02   -0.32995E-03   960   0.336E-01    0.908E-01
DAV:   8    -0.630130825701E+02    0.24786E-02   -0.19227E-03   936   0.276E-01    0.237E-01
DAV:   9    -0.630146104654E+02   -0.15279E-02   -0.42192E-04   792   0.105E-01    0.929E-02
DAV:  10    -0.630152192164E+02   -0.60875E-03   -0.30856E-04   704   0.926E-02    0.216E-01
DAV:  11    -0.630149809535E+02    0.23826E-03   -0.80398E-05   664   0.271E-02    0.190E-01
DAV:  12    -0.630146415586E+02    0.33939E-03   -0.95435E-05   616   0.216E-02    0.132E-01
DAV:  13    -0.630145684912E+02    0.73067E-04   -0.67509E-05   656   0.399E-02
  16 F= -.63014568E+02 E0= -.63014568E+02  d E =-.233309E+00  mag=     0.0005
 curvature:  -2.16 expect dE=-0.355E-01 dE for cont linesearch -0.282E-03
 trial: gam= 0.56581 g(F)=  0.164E-01 g(S)=  0.000E+00 ort = 0.262E-02 (trialstep = 0.808E+01)
 search vector abs. value=  0.362E-01
 bond charge predicted
       N       E                     dE             d eps       ncg     rms          rms(c)
DAV:   1    -0.630700811823E+02   -0.55440E-01   -0.15886E+02   912   0.227E+01    0.564E-01
DAV:   2    -0.631445191672E+02   -0.74438E-01   -0.75625E-01   960   0.223E+00    0.498E-01
DAV:   3    -0.631421022307E+02    0.24169E-02   -0.14481E-02   936   0.506E-01    0.353E-01
DAV:   4    -0.631410311070E+02    0.10711E-02   -0.13989E-03   940   0.184E-01    0.259E-01
DAV:   5    -0.631398375896E+02    0.11935E-02   -0.59516E-03   976   0.166E-01    0.720E-02
DAV:   6    -0.631398926399E+02   -0.55050E-04   -0.22060E-04   640   0.609E-02
  17 F= -.63139893E+02 E0= -.63139893E+02  d E =-.125324E+00  mag=     0.0002
 trial-energy change:   -0.125324  1 .order   -0.126183   -0.144423   -0.107943
 step:  31.9970(harm= 31.9970)  dis= 0.15559  next Energy=   -63.300454 (dE=-0.286E+00)
 bond charge predicted
       N       E                     dE             d eps       ncg     rms          rms(c)
DAV:   1    -0.625504606537E+02    0.58938E+00   -0.14327E+03   912   0.697E+01    0.237E+00
DAV:   2    -0.632549359937E+02   -0.70448E+00   -0.71715E+00   976   0.692E+00    0.145E+00
DAV:   3    -0.632455539612E+02    0.93820E-02   -0.11808E-01   992   0.934E-01    0.909E-01
DAV:   4    -0.632329145281E+02    0.12639E-01   -0.26275E-02   960   0.335E-01    0.465E-01
DAV:   5    -0.632321589844E+02    0.75554E-03   -0.10270E-02   984   0.209E-01    0.121E-01
DAV:   6    -0.632321289332E+02    0.30051E-04   -0.65154E-04   968   0.540E-02
  18 F= -.63232129E+02 E0= -.63232129E+02  d E =-.217560E+00  mag=     0.0001
 curvature: -32.37 expect dE=-0.916E+00 dE for cont linesearch -0.446E-01
 ZBRENT: interpolating
 opt :  23.7255  next Energy=   -63.261335 (dE=-0.247E+00)
 bond charge predicted
       N       E                     dE             d eps       ncg     rms          rms(c)
DAV:   1    -0.631817316500E+02    0.50427E-01   -0.16654E+02   912   0.233E+01    0.562E-01
DAV:   2    -0.632585757767E+02   -0.76844E-01   -0.77624E-01   976   0.223E+00    0.509E-01
DAV:   3    -0.632575956102E+02    0.98017E-03   -0.12103E-02   976   0.281E-01    0.370E-01
DAV:   4    -0.632555410752E+02    0.20545E-02   -0.45594E-03   936   0.135E-01    0.172E-01
DAV:   5    -0.632556004239E+02   -0.59349E-04   -0.18558E-03   984   0.909E-02    0.597E-02
DAV:   6    -0.632555513642E+02    0.49060E-04   -0.11981E-04   596   0.248E-02
  19 F= -.63255551E+02 E0= -.63255551E+02  d E =-.240983E+00  mag=     0.0000
 curvature: -21.18 expect dE=-0.304E+00 dE for cont linesearch -0.659E-03
 trial: gam= 0.65616 g(F)=  0.144E-01 g(S)=  0.000E+00 ort = 0.106E-02 (trialstep = 0.112E+02)
 search vector abs. value=  0.313E-01
 bond charge predicted
       N       E                     dE             d eps       ncg     rms          rms(c)
DAV:   1    -0.632621844425E+02   -0.65840E-02   -0.26582E+02   912   0.294E+01    0.680E-01
DAV:   2    -0.633873370322E+02   -0.12515E+00   -0.12583E+00   960   0.284E+00    0.578E-01
DAV:   3    -0.633856055338E+02    0.17315E-02   -0.19403E-02   984   0.355E-01    0.417E-01
DAV:   4    -0.633824131191E+02    0.31924E-02   -0.59536E-03   944   0.151E-01    0.208E-01
DAV:   5    -0.633822496711E+02    0.16345E-03   -0.31749E-03   960   0.114E-01    0.663E-02
DAV:   6    -0.633822158033E+02    0.33868E-04   -0.13912E-04   584   0.257E-02
  20 F= -.63382216E+02 E0= -.63382216E+02  d E =-.126664E+00  mag=     0.0000
 trial-energy change:   -0.126664  1 .order   -0.127877   -0.168853   -0.086901
 step:  26.2126(harm= 23.0987)  dis= 0.15586  next Energy=   -63.437455 (dE=-0.182E+00)
 bond charge predicted
       N       E                     dE             d eps       ncg     rms          rms(c)
DAV:   1    -0.632034925239E+02    0.17876E+00   -0.47859E+02   912   0.397E+01    0.101E+00
DAV:   2    -0.634317143484E+02   -0.22822E+00   -0.22932E+00   952   0.385E+00    0.781E-01
DAV:   3    -0.634285084795E+02    0.32059E-02   -0.35906E-02   936   0.491E-01    0.542E-01
DAV:   4    -0.634233016840E+02    0.52068E-02   -0.10345E-02   944   0.202E-01    0.269E-01
DAV:   5    -0.634230744359E+02    0.22725E-03   -0.46755E-03   968   0.140E-01    0.803E-02
DAV:   6    -0.634230580003E+02    0.16436E-04   -0.24216E-04   624   0.344E-02
  21 F= -.63423058E+02 E0= -.63423058E+02  d E =-.167507E+00  mag=     0.0000
 curvature: -22.37 expect dE=-0.475E+00 dE for cont linesearch -0.257E-02
 trial: gam= 1.52443 g(F)=  0.213E-01 g(S)=  0.000E+00 ort =-0.190E-02 (trialstep = 0.504E+01)
 search vector abs. value=  0.883E-01
 bond charge predicted
       N       E                     dE             d eps       ncg     rms          rms(c)
DAV:   1    -0.634343877668E+02   -0.11313E-01   -0.15086E+02   912   0.221E+01    0.435E-01
DAV:   2    -0.635052325246E+02   -0.70845E-01   -0.71361E-01   960   0.214E+00    0.388E-01
DAV:   3    -0.635044194213E+02    0.81310E-03   -0.11061E-02   960   0.272E-01    0.284E-01
DAV:   4    -0.635028074401E+02    0.16120E-02   -0.20796E-03   960   0.918E-02    0.171E-01
DAV:   5    -0.635024749199E+02    0.33252E-03   -0.31638E-03   928   0.107E-01    0.505E-02
DAV:   6    -0.635024996390E+02   -0.24719E-04   -0.60406E-05   608   0.168E-02
  22 F= -.63502500E+02 E0= -.63502500E+02  d E =-.794416E-01  mag=     0.0000
 trial-energy change:   -0.079442  1 .order   -0.080829   -0.092605   -0.069054
 step:  19.8312(harm= 19.8312)  dis= 0.15813  next Energy=   -63.605120 (dE=-0.182E+00)
 bond charge predicted
       N       E                     dE             d eps       ncg     rms          rms(c)
DAV:   1    -0.629311493773E+02    0.57133E+00   -0.13372E+03   912   0.671E+01    0.202E+00
DAV:   2    -0.635921119031E+02   -0.66096E+00   -0.66919E+00   960   0.669E+00    0.129E+00
DAV:   3    -0.635840454355E+02    0.80665E-02   -0.10885E-01   960   0.885E-01    0.828E-01
DAV:   4    -0.635724640413E+02    0.11581E-01   -0.17895E-02   976   0.278E-01    0.497E-01
DAV:   5    -0.635703539885E+02    0.21101E-02   -0.14813E-02   936   0.236E-01    0.125E-01
DAV:   6    -0.635705162993E+02   -0.16231E-03   -0.32342E-04   704   0.428E-02    0.711E-02
DAV:   7    -0.635707064346E+02   -0.19014E-03   -0.10325E-04   608   0.263E-02    0.187E-02
DAV:   8    -0.635708084750E+02   -0.10204E-03   -0.22330E-05   608   0.108E-02    0.686E-03
DAV:   9    -0.635708873973E+02   -0.78922E-04   -0.73798E-06   624   0.441E-03
  23 F= -.63570887E+02 E0= -.63570887E+02  d E =-.147829E+00  mag=     0.0000
 curvature: -47.67 expect dE=-0.853E+00 dE for cont linesearch -0.167E-01
 ZBRENT: interpolating
 opt :  15.5638  next Energy=   -63.582737 (dE=-0.160E+00)
 bond charge predicted
       N       E                     dE             d eps       ncg     rms          rms(c)
DAV:   1    -0.635321575796E+02    0.38651E-01   -0.10796E+02   912   0.187E+01    0.382E-01
DAV:   2    -0.635827839435E+02   -0.50626E-01   -0.50626E-01   960   0.180E+00    0.352E-01
DAV:   3    -0.635822806571E+02    0.50329E-03   -0.78529E-03  1008   0.228E-01    0.260E-01
DAV:   4    -0.635810719579E+02    0.12087E-02   -0.19126E-03   944   0.878E-02    0.147E-01
DAV:   5    -0.635809667237E+02    0.10523E-03   -0.21164E-03   952   0.888E-02    0.484E-02
DAV:   6    -0.635809468693E+02    0.19854E-04   -0.68141E-05   608   0.167E-02
  24 F= -.63580947E+02 E0= -.63580947E+02  d E =-.157889E+00  mag=     0.0000
 curvature: -33.91 expect dE=-0.470E+00 dE for cont linesearch -0.196E-03
 trial: gam= 0.17194 g(F)=  0.138E-01 g(S)=  0.000E+00 ort = 0.715E-03 (trialstep = 0.715E+01)
 search vector abs. value=  0.167E-01
 bond charge predicted
       N       E                     dE             d eps       ncg     rms          rms(c)
DAV:   1    -0.636385268732E+02   -0.57560E-01   -0.57356E+01   912   0.136E+01    0.360E-01
DAV:   2    -0.636648003410E+02   -0.26273E-01   -0.27156E-01   960   0.131E+00    0.296E-01
DAV:   3    -0.636644770516E+02    0.32329E-03   -0.44478E-03   952   0.168E-01    0.202E-01
DAV:   4    -0.636639496445E+02    0.52741E-03   -0.15690E-03   960   0.800E-02    0.823E-02
DAV:   5    -0.636639878066E+02   -0.38162E-04   -0.34877E-04   792   0.417E-02
  25 F= -.63663988E+02 E0= -.63663988E+02  d E =-.830409E-01  mag=     0.0000
 trial-energy change:   -0.083041  1 .order   -0.083425   -0.099854   -0.066996
 step:  21.7213(harm= 21.7213)  dis= 0.06654  next Energy=   -63.732673 (dE=-0.152E+00)
 bond charge predicted
       N       E                     dE             d eps       ncg     rms          rms(c)
DAV:   1    -0.636190698849E+02    0.44880E-01   -0.23928E+02   912   0.280E+01    0.795E-01
DAV:   2    -0.637304413030E+02   -0.11137E+00   -0.11471E+00   960   0.270E+00    0.605E-01
DAV:   3    -0.637290884567E+02    0.13528E-02   -0.18782E-02   992   0.343E-01    0.402E-01
DAV:   4    -0.637270788431E+02    0.20096E-02   -0.64317E-03   944   0.162E-01    0.154E-01
DAV:   5    -0.637272185994E+02   -0.13976E-03   -0.10891E-03   992   0.739E-02    0.515E-02
DAV:   6    -0.637271531692E+02    0.65430E-04   -0.17987E-04   592   0.263E-02
  26 F= -.63727153E+02 E0= -.63727153E+02  d E =-.146206E+00  mag=     0.0000
 curvature: -12.98 expect dE=-0.178E+00 dE for cont linesearch -0.305E-03
 trial: gam= 1.04440 g(F)=  0.137E-01 g(S)=  0.000E+00 ort =-0.627E-03 (trialstep = 0.549E+01)
 search vector abs. value=  0.306E-01
 bond charge predicted
       N       E                     dE             d eps       ncg     rms          rms(c)
DAV:   1    -0.637618646666E+02   -0.34646E-01   -0.61841E+01   912   0.142E+01    0.297E-01
DAV:   2    -0.637904977782E+02   -0.28633E-01   -0.29105E-01   952   0.137E+00    0.269E-01
DAV:   3    -0.637902119372E+02    0.28584E-03   -0.46033E-03   992   0.175E-01    0.194E-01
DAV:   4    -0.637895513662E+02    0.66057E-03   -0.11431E-03   936   0.691E-02    0.107E-01
DAV:   5    -0.637895221937E+02    0.29173E-04   -0.10893E-03   968   0.646E-02    0.357E-02
DAV:   6    -0.637895139756E+02    0.82181E-05   -0.43618E-05   608   0.133E-02
  27 F= -.63789514E+02 E0= -.63789514E+02  d E =-.623608E-01  mag=     0.0000
 trial-energy change:   -0.062361  1 .order   -0.062466   -0.071595   -0.053337
 step:  21.5380(harm= 21.5380)  dis= 0.09125  next Energy=   -63.867524 (dE=-0.140E+00)
 bond charge predicted
       N       E                     dE             d eps       ncg     rms          rms(c)
DAV:   1    -0.636203967681E+02    0.16913E+00   -0.53342E+02   912   0.419E+01    0.103E+00
DAV:   2    -0.638719378011E+02   -0.25154E+00   -0.25588E+00   976   0.407E+00    0.783E-01
DAV:   3    -0.638687585861E+02    0.31792E-02   -0.40746E-02   976   0.516E-01    0.541E-01
DAV:   4    -0.638633923936E+02    0.53662E-02   -0.10015E-02   960   0.204E-01    0.276E-01
DAV:   5    -0.638630899916E+02    0.30240E-03   -0.57955E-03   968   0.149E-01    0.820E-02
DAV:   6    -0.638630484783E+02    0.41513E-04   -0.29746E-04   688   0.341E-02
  28 F= -.63863048E+02 E0= -.63863048E+02  d E =-.135895E+00  mag=     0.0000
 curvature: -25.28 expect dE=-0.251E+00 dE for cont linesearch -0.664E-04
 trial: gam= 0.63904 g(F)=  0.993E-02 g(S)=  0.000E+00 ort =-0.283E-03 (trialstep = 0.870E+01)
 search vector abs. value=  0.221E-01
 bond charge predicted
       N       E                     dE             d eps       ncg     rms          rms(c)
DAV:   1    -0.638804110457E+02   -0.17321E-01   -0.11209E+02   912   0.190E+01    0.450E-01
DAV:   2    -0.639325282180E+02   -0.52117E-01   -0.52892E-01   960   0.183E+00    0.377E-01
DAV:   3    -0.639318058521E+02    0.72237E-03   -0.81788E-03   992   0.230E-01    0.270E-01
DAV:   4    -0.639305951965E+02    0.12107E-02   -0.27922E-03   952   0.107E-01    0.123E-01
DAV:   5    -0.639306360782E+02   -0.40882E-04   -0.11708E-03   992   0.752E-02    0.417E-02
DAV:   6    -0.639306299476E+02    0.61306E-05   -0.53720E-05   592   0.218E-02
  29 F= -.63930630E+02 E0= -.63930630E+02  d E =-.675815E-01  mag=     0.0000
 trial-energy change:   -0.067581  1 .order   -0.068447   -0.084857   -0.052036
 step:  22.4975(harm= 22.4975)  dis= 0.07577  next Energy=   -63.972744 (dE=-0.110E+00)
 bond charge predicted
       N       E                     dE             d eps       ncg     rms          rms(c)
DAV:   1    -0.638438024365E+02    0.86834E-01   -0.28308E+02   912   0.303E+01    0.760E-01
DAV:   2    -0.639767830113E+02   -0.13298E+00   -0.13463E+00   960   0.293E+00    0.589E-01
DAV:   3    -0.639749138555E+02    0.18692E-02   -0.20911E-02   984   0.366E-01    0.416E-01
DAV:   4    -0.639719888286E+02    0.29250E-02   -0.68685E-03   952   0.167E-01    0.182E-01
DAV:   5    -0.639720224593E+02   -0.33631E-04   -0.23428E-03   976   0.106E-01    0.592E-02
DAV:   6    -0.639719929905E+02    0.29469E-04   -0.12689E-04   608   0.331E-02
  30 F= -.63971993E+02 E0= -.63971993E+02  d E =-.108945E+00  mag=     0.0000
 curvature: -25.45 expect dE=-0.259E+00 dE for cont linesearch -0.943E-04
 trial: gam= 0.92185 g(F)=  0.102E-01 g(S)=  0.000E+00 ort = 0.286E-03 (trialstep = 0.859E+01)
 search vector abs. value=  0.294E-01
 bond charge predicted
       N       E                     dE             d eps       ncg     rms          rms(c)
DAV:   1    -0.639828008158E+02   -0.10778E-01   -0.14591E+02   912   0.217E+01    0.452E-01
DAV:   2    -0.640515618319E+02   -0.68761E-01   -0.69386E-01   920   0.211E+00    0.392E-01
DAV:   3    -0.640507964393E+02    0.76539E-03   -0.10961E-02   960   0.280E-01    0.286E-01
DAV:   4    -0.640493942830E+02    0.14022E-02   -0.19118E-03   984   0.102E-01    0.173E-01
DAV:   5    -0.640491110567E+02    0.28323E-03   -0.33019E-03   960   0.116E-01    0.472E-02
DAV:   6    -0.640491082207E+02    0.28360E-05   -0.62487E-05   592   0.250E-02
  31 F= -.64049108E+02 E0= -.64049108E+02  d E =-.771152E-01  mag=     0.0000
 ZBRENT: can't locate minimum, use default step
 trial-energy change:   -0.077115  1 .order   -0.078781   -0.089527   -0.068036
 step:  34.3656(harm= 35.7894)  dis= 0.17856  next Energy=   -64.158465 (dE=-0.186E+00)
 bond charge predicted
       N       E                     dE             d eps       ncg     rms          rms(c)
DAV:   1    -0.635058063161E+02    0.54330E+00   -0.13566E+03   912   0.674E+01    0.194E+00
DAV:   2    -0.641710022148E+02   -0.66520E+00   -0.67212E+00   976   0.668E+00    0.133E+00
DAV:   3    -0.641644723837E+02    0.65298E-02   -0.10909E-01   968   0.883E-01    0.881E-01
DAV:   4    -0.641534786960E+02    0.10994E-01   -0.14867E-02   992   0.303E-01    0.575E-01
DAV:   5    -0.641502541160E+02    0.32246E-02   -0.20342E-02   968   0.298E-01    0.143E-01
DAV:   6    -0.641503608955E+02   -0.10678E-03   -0.44096E-04   992   0.907E-02    0.938E-02
DAV:   7    -0.641505627525E+02   -0.20186E-03   -0.13454E-04   608   0.512E-02    0.301E-02
DAV:   8    -0.641506789596E+02   -0.11621E-03   -0.48707E-05   624   0.173E-02    0.103E-02
DAV:   9    -0.641507650176E+02   -0.86058E-04   -0.84955E-06   624   0.639E-03
  32 F= -.64150765E+02 E0= -.64150765E+02  d E =-.178772E+00  mag=     0.0000
 curvature: -50.41 expect dE=-0.790E+00 dE for cont linesearch -0.413E-04
 trial: gam= 1.62449 g(F)=  0.157E-01 g(S)=  0.000E+00 ort = 0.155E-03 (trialstep = 0.431E+01)
 search vector abs. value=  0.938E-01
 bond charge predicted
       N       E                     dE             d eps       ncg     rms          rms(c)
DAV:   1    -0.641619574961E+02   -0.11279E-01   -0.11726E+02   912   0.193E+01    0.385E-01
DAV:   2    -0.642174657212E+02   -0.55508E-01   -0.56189E-01   952   0.189E+00    0.347E-01
DAV:   3    -0.642168938359E+02    0.57189E-03   -0.89849E-03   992   0.255E-01    0.250E-01
DAV:   4    -0.642158408368E+02    0.10530E-02   -0.12333E-03   968   0.856E-02    0.164E-01
DAV:   5    -0.642155028947E+02    0.33794E-03   -0.31253E-03   944   0.113E-01    0.425E-02
DAV:   6    -0.642155228534E+02   -0.19959E-04   -0.46295E-05   608   0.248E-02
  33 F= -.64215523E+02 E0= -.64215523E+02  d E =-.647578E-01  mag=     0.0000
 ZBRENT: can't locate minimum, use default step
 trial-energy change:   -0.064758  1 .order   -0.065658   -0.068616   -0.062700
 step:  17.2465(harm= 50.0095)  dis= 0.16564  next Energy=   -64.548696 (dE=-0.398E+00)
 bond charge predicted
       N       E                     dE             d eps       ncg     rms          rms(c)
DAV:   1    -0.638395594804E+02    0.37594E+00   -0.10882E+03   912   0.598E+01    0.166E+00
DAV:   2    -0.643764971234E+02   -0.53694E+00   -0.54600E+00   936   0.599E+00    0.117E+00
DAV:   3    -0.643705751986E+02    0.59219E-02   -0.91750E-02   992   0.846E-01    0.761E-01
DAV:   4    -0.643622234674E+02    0.83517E-02   -0.10342E-02   976   0.270E-01    0.519E-01
DAV:   5    -0.643587884064E+02    0.34351E-02   -0.18867E-02   944   0.284E-01    0.128E-01
DAV:   6    -0.643589482137E+02   -0.15981E-03   -0.36413E-04   816   0.742E-02    0.804E-02
DAV:   7    -0.643591726633E+02   -0.22445E-03   -0.11499E-04   576   0.384E-02    0.272E-02
DAV:   8    -0.643593133197E+02   -0.14066E-03   -0.41514E-05   624   0.147E-02    0.913E-03
DAV:   9    -0.643594204216E+02   -0.10710E-03   -0.98175E-06   624   0.590E-03    0.428E-03
DAV:  10    -0.643595134559E+02   -0.93034E-04   -0.57881E-06   592   0.316E-03
  34 F= -.64359513E+02 E0= -.64359513E+02  d E =-.208748E+00  mag=     0.0000
 curvature: -71.66 expect dE=-0.884E+00 dE for cont linesearch -0.495E-01
 ZBRENT: increasing intervall
 opt :  43.1162  next Energy=   -64.399816 (dE=-0.249E+00)
 bond charge predicted
       N       E                     dE             d eps       ncg     rms          rms(c)
DAV:   1    -0.616318181466E+02    0.27276E+01   -0.47722E+03   912   0.132E+02    0.678E+00
DAV:   2    -0.644419566183E+02   -0.28101E+01   -0.28710E+01   944   0.143E+01    0.362E+00
DAV:   3    -0.644232740779E+02    0.18683E-01   -0.53169E-01   992   0.202E+00    0.207E+00
DAV:   4    -0.643995714911E+02    0.23703E-01   -0.35531E-02   976   0.456E-01    0.157E+00
DAV:   5    -0.643859022038E+02    0.13669E-01   -0.57020E-02   960   0.482E-01    0.399E-01
DAV:   6    -0.643866335738E+02   -0.73137E-03   -0.18266E-03  1024   0.133E-01    0.181E-01
DAV:   7    -0.643872225760E+02   -0.58900E-03   -0.27288E-04   624   0.732E-02    0.638E-02
DAV:   8    -0.643875136374E+02   -0.29106E-03   -0.94876E-05   640   0.326E-02    0.182E-02
DAV:   9    -0.643876963274E+02   -0.18269E-03   -0.20655E-05   624   0.102E-02    0.964E-03
DAV:  10    -0.643879488677E+02   -0.25254E-03   -0.23092E-05   608   0.528E-03    0.430E-03
DAV:  11    -0.643881386789E+02   -0.18981E-03   -0.15089E-05   640   0.381E-03    0.367E-03
DAV:  12    -0.643883284764E+02   -0.18980E-03   -0.18555E-05   624   0.347E-03    0.204E-03
DAV:  13    -0.643883990816E+02   -0.70605E-04   -0.55328E-06   640   0.210E-03
  35 F= -.64388399E+02 E0= -.64388399E+02  d E =-.237634E+00  mag=    -0.0000
 curvature: -58.37 expect dE=-0.298E+01 dE for cont linesearch -0.247E-01
 ZBRENT: bracketing found
 ZBRENT: interpolating
 opt :  31.7550  next Energy=   -64.424209 (dE=-0.273E+00)
 bond charge predicted
       N       E                     dE             d eps       ncg     rms          rms(c)
DAV:   1    -0.640262557966E+02    0.36207E+00   -0.83347E+02   912   0.522E+01    0.133E+00
DAV:   2    -0.644323549574E+02   -0.40610E+00   -0.41312E+00   968   0.518E+00    0.100E+00
DAV:   3    -0.644282230194E+02    0.41319E-02   -0.67057E-02   976   0.705E-01    0.691E-01
DAV:   4    -0.644218000064E+02    0.64230E-02   -0.77947E-03   976   0.216E-01    0.461E-01
DAV:   5    -0.644193159727E+02    0.24840E-02   -0.15211E-02   944   0.253E-01    0.107E-01
DAV:   6    -0.644194226844E+02   -0.10671E-03   -0.26171E-04   688   0.638E-02    0.677E-02
DAV:   7    -0.644195168714E+02   -0.94187E-04   -0.10898E-04   568   0.304E-02
  36 F= -.64419517E+02 E0= -.64419517E+02  d E =-.268752E+00  mag=     0.0000
 curvature: -84.57 expect dE=-0.230E+01 dE for cont linesearch -0.987E-04
 trial: gam= 1.59848 g(F)=  0.272E-01 g(S)=  0.000E+00 ort =-0.331E-03 (trialstep = 0.346E+01)
 search vector abs. value=  0.266E+00
 bond charge predicted
       N       E                     dE             d eps       ncg     rms          rms(c)
DAV:   1    -0.644127397408E+02    0.66829E-02   -0.21487E+02   912   0.261E+01    0.559E-01
DAV:   2    -0.645155166247E+02   -0.10278E+00   -0.10326E+00   968   0.255E+00    0.436E-01
DAV:   3    -0.645144014117E+02    0.11152E-02   -0.16312E-02   968   0.341E-01    0.319E-01
DAV:   4    -0.645127703872E+02    0.16310E-02   -0.19581E-03   976   0.102E-01    0.203E-01
DAV:   5    -0.645121570959E+02    0.61329E-03   -0.44352E-03   936   0.131E-01    0.439E-02
DAV:   6    -0.645121818704E+02   -0.24775E-04   -0.57758E-05   640   0.271E-02
  37 F= -.64512182E+02 E0= -.64512182E+02  d E =-.926650E-01  mag=    -0.0000
 ZBRENT: can't locate minimum, use default step
 trial-energy change:   -0.092665  1 .order   -0.092222   -0.092093   -0.092351
 step:  13.8364(harm= 13.8364)  dis= 0.22577  next Energy=   -64.836464 (dE=-0.417E+00)
 bond charge predicted
       N       E                     dE             d eps       ncg     rms          rms(c)
DAV:   1    -0.636496902972E+02    0.86247E+00   -0.20635E+03   912   0.836E+01    0.304E+00
DAV:   2    -0.647410725704E+02   -0.10914E+01   -0.11048E+01   952   0.858E+00    0.168E+00
DAV:   3    -0.647335289359E+02    0.75436E-02   -0.18435E-01   992   0.114E+00    0.106E+00
DAV:   4    -0.647215298346E+02    0.11999E-01   -0.15732E-02   968   0.288E-01    0.748E-01
DAV:   5    -0.647161975178E+02    0.53323E-02   -0.24726E-02   952   0.305E-01    0.185E-01
DAV:   6    -0.647165654697E+02   -0.36795E-03   -0.61651E-04  1008   0.730E-02    0.928E-02
DAV:   7    -0.647168094678E+02   -0.24400E-03   -0.95516E-05   584   0.404E-02    0.316E-02
DAV:   8    -0.647169156797E+02   -0.10621E-03   -0.39631E-05   624   0.176E-02    0.950E-03
DAV:   9    -0.647169803419E+02   -0.64662E-04   -0.79457E-06   576   0.639E-03
  38 F= -.64716980E+02 E0= -.64716980E+02  d E =-.297463E+00  mag=    -0.0000
 curvature: ****** expect dE=-0.233E+01 dE for cont linesearch -0.670E-01
 ZBRENT: increasing intervall
 opt :  34.5910  next Energy=   -64.706883 (dE=-0.287E+00)
 bond charge predicted
       N       E                     dE             d eps       ncg     rms          rms(c)
DAV:   1    -0.523377927626E+02    0.12379E+02   -0.93440E+03   912   0.193E+02    0.273E+01
DAV:   2    -0.644591563566E+02   -0.12121E+02   -0.12444E+02   976   0.266E+01    0.116E+01
DAV:   3    -0.643558864734E+02    0.10327E+00   -0.22317E+00   960   0.505E+00    0.764E+00
DAV:   4    -0.643307036449E+02    0.25183E-01   -0.13074E-01  1024   0.796E-01    0.592E+00
DAV:   5    -0.643053590673E+02    0.25345E-01   -0.74087E-02   944   0.722E-01    0.222E+00
DAV:   6    -0.643053670833E+02   -0.80160E-05   -0.19762E-02   976   0.406E-01    0.339E-01
DAV:   7    -0.643059413903E+02   -0.57431E-03   -0.10694E-03   976   0.867E-02    0.141E-01
DAV:   8    -0.643062899571E+02   -0.34857E-03   -0.19128E-04   608   0.472E-02    0.305E-02
DAV:   9    -0.643064780504E+02   -0.18809E-03   -0.33654E-05   624   0.171E-02    0.192E-02
DAV:  10    -0.643066458720E+02   -0.16782E-03   -0.15298E-05   592   0.654E-03    0.780E-03
DAV:  11    -0.643068159214E+02   -0.17005E-03   -0.15159E-05   624   0.377E-03    0.328E-03
DAV:  12    -0.643069481497E+02   -0.13223E-03   -0.11613E-05   576   0.281E-03    0.283E-03
DAV:  13    -0.643070435081E+02   -0.95358E-04   -0.10202E-05   624   0.243E-03
  39 F= -.64307044E+02 E0= -.64307044E+02  d E =0.112473E+00  mag=     0.0000
 curvature:  15.63 expect dE= 0.180E+01 dE for cont linesearch  0.326E+00
 ZBRENT: bracketing found
 ZBRENT: interpolating
 opt :  16.9423  next Energy=   -64.737333 (dE=-0.318E+00)
 bond charge predicted
       N       E                     dE             d eps       ncg     rms          rms(c)
DAV:   1    -0.591896140687E+02    0.51173E+01   -0.65950E+03   912   0.159E+02    0.124E+01
DAV:   2    -0.648208730658E+02   -0.56313E+01   -0.57035E+01   992   0.190E+01    0.628E+00
DAV:   3    -0.647905167502E+02    0.30356E-01   -0.97586E-01  1008   0.308E+00    0.406E+00
DAV:   4    -0.647673551485E+02    0.23162E-01   -0.56362E-02   976   0.537E-01    0.314E+00
DAV:   5    -0.647469637311E+02    0.20391E-01   -0.74740E-02   936   0.629E-01    0.942E-01
DAV:   6    -0.647480161841E+02   -0.10525E-02   -0.75929E-03   992   0.186E-01    0.205E-01
DAV:   7    -0.647482297465E+02   -0.21356E-03   -0.71303E-04   952   0.728E-02    0.957E-02
DAV:   8    -0.647483917074E+02   -0.16196E-03   -0.10591E-04   640   0.412E-02    0.218E-02
DAV:   9    -0.647484872074E+02   -0.95500E-04   -0.17216E-05   608   0.106E-02
  40 F= -.64748487E+02 E0= -.64748487E+02  d E =-.328970E+00  mag=    -0.0000
 curvature:  -0.98 expect dE=-0.238E-01 dE for cont linesearch -0.177E-03
 trial: gam= 0.29517 g(F)=  0.244E-01 g(S)=  0.000E+00 ort = 0.694E-02 (trialstep = 0.616E+01)
 search vector abs. value=  0.517E-01
 bond charge predicted
       N       E                     dE             d eps       ncg     rms          rms(c)
DAV:   1    -0.648307306735E+02   -0.82339E-01   -0.13224E+02   912   0.205E+01    0.509E-01
DAV:   2    -0.648923991152E+02   -0.61668E-01   -0.62719E-01   952   0.196E+00    0.362E-01
DAV:   3    -0.648917784474E+02    0.62067E-03   -0.95706E-03  1008   0.233E-01    0.257E-01
DAV:   4    -0.648908294365E+02    0.94901E-03   -0.31698E-03   944   0.114E-01    0.963E-02
DAV:   5    -0.648909532204E+02   -0.12378E-03   -0.68632E-04   992   0.552E-02    0.345E-02
DAV:   6    -0.648909485060E+02    0.47144E-05   -0.70289E-05   608   0.182E-02
  41 F= -.64890949E+02 E0= -.64890949E+02  d E =-.142461E+00  mag=     0.0000
 trial-energy change:   -0.142461  1 .order   -0.141830   -0.163070   -0.120590
 step:  19.7450(harm= 23.6301)  dis= 0.19357  next Energy=   -65.030843 (dE=-0.282E+00)
 bond charge predicted
       N       E                     dE             d eps       ncg     rms          rms(c)
DAV:   1    -0.647117506029E+02    0.17920E+00   -0.66009E+02   912   0.463E+01    0.151E+00
DAV:   2    -0.650360008056E+02   -0.32425E+00   -0.33079E+00   936   0.455E+00    0.879E-01
DAV:   3    -0.650323920117E+02    0.36088E-02   -0.52570E-02  1008   0.554E-01    0.589E-01
DAV:   4    -0.650278607395E+02    0.45313E-02   -0.13809E-02   936   0.241E-01    0.231E-01
DAV:   5    -0.650280836634E+02   -0.22292E-03   -0.24157E-03   976   0.116E-01    0.662E-02
DAV:   6    -0.650280690222E+02    0.14641E-04   -0.24523E-04   688   0.498E-02
  42 F= -.65028069E+02 E0= -.65028069E+02  d E =-.279582E+00  mag=     0.0000
 curvature: -21.92 expect dE=-0.342E+00 dE for cont linesearch -0.342E-03
 trial: gam= 0.58943 g(F)=  0.156E-01 g(S)=  0.000E+00 ort =-0.899E-03 (trialstep = 0.887E+01)
 search vector abs. value=  0.325E-01
 bond charge predicted
       N       E                     dE             d eps       ncg     rms          rms(c)
DAV:   1    -0.650560101775E+02   -0.27927E-01   -0.17235E+02   912   0.236E+01    0.561E-01
DAV:   2    -0.651369155006E+02   -0.80905E-01   -0.81613E-01   952   0.227E+00    0.467E-01
DAV:   3    -0.651358949544E+02    0.10205E-02   -0.12516E-02  1008   0.278E-01    0.330E-01
DAV:   4    -0.651340974107E+02    0.17975E-02   -0.43001E-03   968   0.138E-01    0.159E-01
DAV:   5    -0.651341531563E+02   -0.55746E-04   -0.18040E-03   960   0.101E-01    0.526E-02
DAV:   6    -0.651341618810E+02   -0.87247E-05   -0.61014E-05   608   0.299E-02
  43 F= -.65134162E+02 E0= -.65134162E+02  d E =-.106093E+00  mag=     0.0000
 trial-energy change:   -0.106093  1 .order   -0.106702   -0.133684   -0.079720
 step:  25.0867(harm= 21.9822)  dis= 0.17146  next Energy=   -65.203275 (dE=-0.175E+00)
 bond charge predicted
       N       E                     dE             d eps       ncg     rms          rms(c)
DAV:   1    -0.649077354366E+02    0.22642E+00   -0.58358E+02   912   0.438E+01    0.126E+00
DAV:   2    -0.651912810460E+02   -0.28355E+00   -0.28615E+00   960   0.428E+00    0.888E-01
DAV:   3    -0.651872576453E+02    0.40234E-02   -0.45328E-02   984   0.545E-01    0.592E-01
DAV:   4    -0.651817412012E+02    0.55164E-02   -0.13603E-02   936   0.262E-01    0.280E-01
DAV:   5    -0.651817576712E+02   -0.16470E-04   -0.45880E-03   936   0.185E-01    0.834E-02
DAV:   6    -0.651817523156E+02    0.53556E-05   -0.21544E-04   656   0.680E-02
  44 F= -.65181752E+02 E0= -.65181752E+02  d E =-.153683E+00  mag=     0.0000
 curvature: -22.38 expect dE=-0.391E+00 dE for cont linesearch -0.548E-02
 trial: gam= 0.84393 g(F)=  0.175E-01 g(S)=  0.000E+00 ort =-0.282E-02 (trialstep = 0.110E+02)
 search vector abs. value=  0.359E-01
 bond charge predicted
       N       E                     dE             d eps       ncg     rms          rms(c)
DAV:   1    -0.651579050635E+02    0.23853E-01   -0.29306E+02   912   0.308E+01    0.771E-01
DAV:   2    -0.652969499979E+02   -0.13904E+00   -0.14153E+00   944   0.300E+00    0.614E-01
DAV:   3    -0.652945547024E+02    0.23953E-02   -0.23801E-02   952   0.485E-01    0.418E-01
DAV:   4    -0.652920578793E+02    0.24968E-02   -0.42858E-03   992   0.188E-01    0.259E-01
DAV:   5    -0.652915536413E+02    0.50424E-03   -0.60914E-03   936   0.175E-01    0.609E-02
DAV:   6    -0.652915582920E+02   -0.46506E-05   -0.14843E-04   656   0.340E-02
  45 F= -.65291558E+02 E0= -.65291558E+02  d E =-.109806E+00  mag=    -0.0000
 trial-energy change:   -0.109806  1 .order   -0.113524   -0.165856   -0.061193
 step:  22.2924(harm= 17.3926)  dis= 0.16911  next Energy=   -65.319030 (dE=-0.137E+00)
 bond charge predicted
       N       E                     dE             d eps       ncg     rms          rms(c)
DAV:   1    -0.651507594065E+02    0.14079E+00   -0.31177E+02   912   0.318E+01    0.819E-01
DAV:   2    -0.652987650885E+02   -0.14801E+00   -0.15091E+00   944   0.311E+00    0.641E-01
DAV:   3    -0.652963087975E+02    0.24563E-02   -0.25306E-02   952   0.500E-01    0.429E-01
DAV:   4    -0.652936504367E+02    0.26584E-02   -0.48128E-03   976   0.207E-01    0.263E-01
DAV:   5    -0.652931931673E+02    0.45727E-03   -0.59534E-03   936   0.184E-01    0.625E-02
DAV:   6    -0.652932026629E+02   -0.94956E-05   -0.15949E-04   672   0.393E-02
  46 F= -.65293203E+02 E0= -.65293203E+02  d E =-.111450E+00  mag=    -0.0000
 curvature:  -8.61 expect dE=-0.242E+00 dE for cont linesearch -0.559E-02
 ZBRENT: interpolating
 opt :  17.0422  next Energy=   -65.305869 (dE=-0.124E+00)
 bond charge predicted
       N       E                     dE             d eps       ncg     rms          rms(c)
DAV:   1    -0.652776625884E+02    0.15531E-01   -0.66536E+01   912   0.146E+01    0.337E-01
DAV:   2    -0.653085062007E+02   -0.30844E-01   -0.31298E-01   944   0.141E+00    0.298E-01
DAV:   3    -0.653080137042E+02    0.49250E-03   -0.51823E-03   952   0.222E-01    0.209E-01
DAV:   4    -0.653074443049E+02    0.56940E-03   -0.10407E-03  1008   0.921E-02    0.130E-01
DAV:   5    -0.653073551165E+02    0.89188E-04   -0.15647E-03   944   0.932E-02    0.323E-02
DAV:   6    -0.653073550300E+02    0.86540E-07   -0.38403E-05   624   0.178E-02
  47 F= -.65307355E+02 E0= -.65307355E+02  d E =-.125603E+00  mag=    -0.0000
 curvature: -19.52 expect dE=-0.345E+00 dE for cont linesearch -0.533E-04
 trial: gam= 0.71258 g(F)=  0.177E-01 g(S)=  0.000E+00 ort =-0.313E-03 (trialstep = 0.122E+02)
 search vector abs. value=  0.355E-01
 bond charge predicted
       N       E                     dE             d eps       ncg     rms          rms(c)
DAV:   1    -0.652921956384E+02    0.15159E-01   -0.35777E+02   912   0.341E+01    0.103E+00
DAV:   2    -0.654597114517E+02   -0.16752E+00   -0.17310E+00   944   0.335E+00    0.782E-01
DAV:   3    -0.654560675027E+02    0.36439E-02   -0.31883E-02   936   0.626E-01    0.542E-01
DAV:   4    -0.654529674420E+02    0.31001E-02   -0.69905E-03  1008   0.261E-01    0.286E-01
DAV:   5    -0.654526478341E+02    0.31961E-03   -0.55582E-03   952   0.190E-01    0.651E-02
DAV:   6    -0.654526073145E+02    0.40520E-04   -0.20508E-04   656   0.404E-02
  48 F= -.65452607E+02 E0= -.65452607E+02  d E =-.145252E+00  mag=    -0.0000
 trial-energy change:   -0.145252  1 .order   -0.147576   -0.212790   -0.082361
 step:  21.6941(harm= 19.8858)  dis= 0.16824  next Energy=   -65.483619 (dE=-0.176E+00)
 bond charge predicted
       N       E                     dE             d eps       ncg     rms          rms(c)
DAV:   1    -0.653766401500E+02    0.76008E-01   -0.21636E+02   912   0.265E+01    0.745E-01
DAV:   2    -0.654770763695E+02   -0.10044E+00   -0.10368E+00   944   0.258E+00    0.566E-01
DAV:   3    -0.654752364246E+02    0.18399E-02   -0.18180E-02   952   0.440E-01    0.394E-01
DAV:   4    -0.654734117851E+02    0.18246E-02   -0.42259E-03  1008   0.195E-01    0.203E-01
DAV:   5    -0.654733384712E+02    0.73314E-04   -0.31716E-03   936   0.148E-01    0.512E-02
DAV:   6    -0.654733407717E+02   -0.23005E-05   -0.11645E-04   656   0.324E-02
  49 F= -.65473341E+02 E0= -.65473341E+02  d E =-.165986E+00  mag=    -0.0000
 curvature: -19.08 expect dE=-0.198E+00 dE for cont linesearch -0.195E-02
 trial: gam= 0.62971 g(F)=  0.104E-01 g(S)=  0.000E+00 ort =-0.190E-02 (trialstep = 0.141E+02)
 search vector abs. value=  0.220E-01
 bond charge predicted
       N       E                     dE             d eps       ncg     rms          rms(c)
DAV:   1    -0.654385232289E+02    0.34815E-01   -0.29499E+02   912   0.310E+01    0.691E-01
DAV:   2    -0.655748950816E+02   -0.13637E+00   -0.14038E+00   936   0.305E+00    0.618E-01
DAV:   3    -0.655722570336E+02    0.26380E-02   -0.25759E-02   952   0.556E-01    0.415E-01
DAV:   4    -0.655698681947E+02    0.23888E-02   -0.29642E-03  1008   0.145E-01    0.294E-01
DAV:   5    -0.655686321987E+02    0.12360E-02   -0.92922E-03   928   0.184E-01    0.655E-02
DAV:   6    -0.655686749552E+02   -0.42757E-04   -0.13402E-04   656   0.369E-02
  50 F= -.65568675E+02 E0= -.65568675E+02  d E =-.953342E-01  mag=    -0.0000
 trial-energy change:   -0.095334  1 .order   -0.098669   -0.129114   -0.068225
 step:  29.8776(harm= 29.8776)  dis= 0.11684  next Energy=   -65.610233 (dE=-0.137E+00)
 bond charge predicted
       N       E                     dE             d eps       ncg     rms          rms(c)
DAV:   1    -0.654349068739E+02    0.13373E+00   -0.37120E+02   912   0.348E+01    0.790E-01
DAV:   2    -0.656076416460E+02   -0.17273E+00   -0.17719E+00   952   0.342E+00    0.669E-01
DAV:   3    -0.656049551028E+02    0.26865E-02   -0.31344E-02   968   0.579E-01    0.453E-01
DAV:   4    -0.656019021955E+02    0.30529E-02   -0.38619E-03   992   0.164E-01    0.312E-01
DAV:   5    -0.656005880528E+02    0.13141E-02   -0.10173E-02   912   0.198E-01    0.700E-02
DAV:   6    -0.656006572368E+02   -0.69184E-04   -0.14548E-04   656   0.319E-02
  51 F= -.65600657E+02 E0= -.65600657E+02  d E =-.127316E+00  mag=    -0.0000
 curvature: -35.90 expect dE=-0.360E+00 dE for cont linesearch -0.743E-04
 trial: gam= 0.68630 g(F)=  0.100E-01 g(S)=  0.000E+00 ort =-0.214E-03 (trialstep = 0.172E+02)
 search vector abs. value=  0.201E-01
 bond charge predicted
       N       E                     dE             d eps       ncg     rms          rms(c)
DAV:   1    -0.655359648128E+02    0.64623E-01   -0.40697E+02   912   0.363E+01    0.979E-01
DAV:   2    -0.657255184311E+02   -0.18955E+00   -0.20227E+00   952   0.370E+00    0.771E-01
DAV:   3    -0.657227570606E+02    0.27614E-02   -0.40473E-02   976   0.693E-01    0.468E-01
DAV:   4    -0.657193438306E+02    0.34132E-02   -0.56377E-03   992   0.183E-01    0.298E-01
DAV:   5    -0.657186768650E+02    0.66697E-03   -0.82704E-03   936   0.178E-01    0.709E-02
DAV:   6    -0.657186823194E+02   -0.54544E-05   -0.29600E-04   688   0.416E-02
  52 F= -.65718682E+02 E0= -.65718682E+02  d E =-.118025E+00  mag=    -0.0000
 trial-energy change:   -0.118025  1 .order   -0.121138   -0.170582   -0.071694
 step:  39.1277(harm= 29.7518)  dis= 0.21021  next Energy=   -65.757802 (dE=-0.157E+00)
 bond charge predicted
       N       E                     dE             d eps       ncg     rms          rms(c)
DAV:   1    -0.654131757003E+02    0.30550E+00   -0.66065E+02   912   0.465E+01    0.138E+00
DAV:   2    -0.657309746950E+02   -0.31780E+00   -0.33218E+00   952   0.469E+00    0.935E-01
DAV:   3    -0.657268819913E+02    0.40927E-02   -0.60070E-02   992   0.729E-01    0.588E-01
DAV:   4    -0.657213171126E+02    0.55649E-02   -0.10407E-02   944   0.228E-01    0.330E-01
DAV:   5    -0.657208267753E+02    0.49034E-03   -0.82388E-03   976   0.181E-01    0.786E-02
DAV:   6    -0.657208636442E+02   -0.36869E-04   -0.37807E-04   832   0.373E-02
  53 F= -.65720864E+02 E0= -.65720864E+02  d E =-.120206E+00  mag=     0.0000
 curvature: -13.25 expect dE=-0.276E+00 dE for cont linesearch -0.111E-01
 ZBRENT: interpolating
 opt :  28.2488  next Energy=   -65.743222 (dE=-0.143E+00)
 bond charge predicted
       N       E                     dE             d eps       ncg     rms          rms(c)
DAV:   1    -0.656715204675E+02    0.49306E-01   -0.16055E+02   912   0.228E+01    0.519E-01
DAV:   2    -0.657453393809E+02   -0.73819E-01   -0.76408E-01   960   0.225E+00    0.494E-01
DAV:   3    -0.657444380184E+02    0.90136E-03   -0.13834E-02   992   0.358E-01    0.338E-01
DAV:   4    -0.657428700463E+02    0.15680E-02   -0.24389E-03   992   0.104E-01    0.214E-01
DAV:   5    -0.657426683898E+02    0.20166E-03   -0.39309E-03   960   0.122E-01    0.613E-02
DAV:   6    -0.657426308894E+02    0.37500E-04   -0.13913E-04   656   0.268E-02
  54 F= -.65742631E+02 E0= -.65742631E+02  d E =-.141974E+00  mag=    -0.0000
 curvature: -26.62 expect dE=-0.273E+00 dE for cont linesearch -0.586E-05
 trial: gam= 0.93348 g(F)=  0.102E-01 g(S)=  0.000E+00 ort = 0.665E-04 (trialstep = 0.140E+02)
 search vector abs. value=  0.279E-01
 bond charge predicted
       N       E                     dE             d eps       ncg     rms          rms(c)
DAV:   1    -0.656815196251E+02    0.61149E-01   -0.37177E+02   912   0.348E+01    0.812E-01
DAV:   2    -0.658554630454E+02   -0.17394E+00   -0.18064E+00   952   0.344E+00    0.669E-01
DAV:   3    -0.658534458497E+02    0.20172E-02   -0.31526E-02  1008   0.503E-01    0.455E-01
DAV:   4    -0.658498852585E+02    0.35606E-02   -0.48063E-03   960   0.141E-01    0.279E-01
DAV:   5    -0.658490373133E+02    0.84795E-03   -0.71920E-03   936   0.161E-01    0.703E-02
DAV:   6    -0.658490134579E+02    0.23855E-04   -0.18489E-04   672   0.276E-02
  55 F= -.65849013E+02 E0= -.65849013E+02  d E =-.106383E+00  mag=     0.0000
 trial-energy change:   -0.106383  1 .order   -0.106570   -0.144505   -0.068636
 step:  26.7126(harm= 26.7126)  dis= 0.15977  next Energy=   -65.880247 (dE=-0.138E+00)
 bond charge predicted
       N       E                     dE             d eps       ncg     rms          rms(c)
DAV:   1    -0.657339624629E+02    0.11507E+00   -0.30342E+02   912   0.314E+01    0.705E-01
DAV:   2    -0.658771514197E+02   -0.14319E+00   -0.14587E+00   968   0.307E+00    0.577E-01
DAV:   3    -0.658754670288E+02    0.16844E-02   -0.23825E-02   984   0.408E-01    0.405E-01
DAV:   4    -0.658724244193E+02    0.30426E-02   -0.45328E-03   960   0.136E-01    0.234E-01
DAV:   5    -0.658719585055E+02    0.46591E-03   -0.52036E-03   976   0.137E-01    0.652E-02
DAV:   6    -0.658719578152E+02    0.69030E-06   -0.14957E-04   624   0.239E-02
  56 F= -.65871958E+02 E0= -.65871958E+02  d E =-.129327E+00  mag=     0.0000
 curvature: -36.16 expect dE=-0.359E+00 dE for cont linesearch -0.906E-03
 trial: gam= 0.91473 g(F)=  0.993E-02 g(S)=  0.000E+00 ort =-0.836E-03 (trialstep = 0.146E+02)
 search vector abs. value=  0.317E-01
 bond charge predicted
       N       E                     dE             d eps       ncg     rms          rms(c)
DAV:   1    -0.657553230297E+02    0.11664E+00   -0.45562E+02   912   0.386E+01    0.862E-01
DAV:   2    -0.659705738232E+02   -0.21525E+00   -0.21674E+00   968   0.374E+00    0.703E-01
DAV:   3    -0.659677711247E+02    0.28027E-02   -0.34364E-02   992   0.476E-01    0.504E-01
DAV:   4    -0.659629115476E+02    0.48596E-02   -0.68001E-03   944   0.164E-01    0.290E-01
DAV:   5    -0.659619908171E+02    0.92073E-03   -0.73798E-03   976   0.162E-01    0.787E-02
DAV:   6    -0.659620434372E+02   -0.52620E-04   -0.13195E-04   656   0.250E-02
  57 F= -.65962043E+02 E0= -.65962043E+02  d E =-.900856E-01  mag=     0.0000
 trial-energy change:   -0.090086  1 .order   -0.092921   -0.133365   -0.052478
 step:  32.2395(harm= 24.0016)  dis= 0.17480  next Energy=   -65.988833 (dE=-0.117E+00)
 bond charge predicted
       N       E                     dE             d eps       ncg     rms          rms(c)
DAV:   1    -0.656314096082E+02    0.33058E+00   -0.67658E+02   912   0.473E+01    0.117E+00
DAV:   2    -0.659556165110E+02   -0.32421E+00   -0.32531E+00   968   0.460E+00    0.853E-01
DAV:   3    -0.659514312729E+02    0.41852E-02   -0.51625E-02   976   0.582E-01    0.594E-01
DAV:   4    -0.659446141001E+02    0.68172E-02   -0.10370E-02   952   0.202E-01    0.333E-01
DAV:   5    -0.659434816126E+02    0.11325E-02   -0.85793E-03   976   0.176E-01    0.883E-02
DAV:   6    -0.659435660854E+02   -0.84473E-04   -0.17339E-04   656   0.289E-02
  58 F= -.65943566E+02 E0= -.65943566E+02  d E =-.716083E-01  mag=    -0.0000
 curvature:  -9.94 expect dE=-0.129E+00 dE for cont linesearch -0.839E-02
 ZBRENT: interpolating
 opt :  21.8184  next Energy=   -65.975132 (dE=-0.103E+00)
 bond charge predicted
       N       E                     dE             d eps       ncg     rms          rms(c)
DAV:   1    -0.658698118075E+02    0.73670E-01   -0.23217E+02   912   0.275E+01    0.544E-01
DAV:   2    -0.659775709224E+02   -0.10776E+00   -0.10805E+00   952   0.262E+00    0.488E-01
DAV:   3    -0.659762678036E+02    0.13031E-02   -0.16760E-02  1024   0.323E-01    0.369E-01
DAV:   4    -0.659736927902E+02    0.25750E-02   -0.35251E-03   928   0.118E-01    0.213E-01
DAV:   5    -0.659732568873E+02    0.43590E-03   -0.46230E-03   952   0.128E-01    0.623E-02
DAV:   6    -0.659732612893E+02   -0.44021E-05   -0.88212E-05   624   0.201E-02
  59 F= -.65973261E+02 E0= -.65973261E+02  d E =-.101303E+00  mag=    -0.0000
 curvature: -15.52 expect dE=-0.111E+00 dE for cont linesearch -0.108E-03
 trial: gam= 0.38983 g(F)=  0.715E-02 g(S)=  0.000E+00 ort =-0.469E-03 (trialstep = 0.160E+02)
 search vector abs. value=  0.116E-01
 bond charge predicted
       N       E                     dE             d eps       ncg     rms          rms(c)
DAV:   1    -0.659643197573E+02    0.89371E-02   -0.20013E+02   912   0.255E+01    0.551E-01
DAV:   2    -0.660566537130E+02   -0.92334E-01   -0.92805E-01   968   0.242E+00    0.485E-01
DAV:   3    -0.660554664200E+02    0.11873E-02   -0.13914E-02  1024   0.281E-01    0.363E-01
DAV:   4    -0.660529387355E+02    0.25277E-02   -0.52213E-03   944   0.139E-01    0.164E-01
DAV:   5    -0.660529248136E+02    0.13922E-04   -0.21422E-03   976   0.912E-02    0.604E-02
DAV:   6    -0.660528831682E+02    0.41645E-04   -0.10899E-04   576   0.210E-02
  60 F= -.66052883E+02 E0= -.66052883E+02  d E =-.796219E-01  mag=    -0.0000
 trial-energy change:   -0.079622  1 .order   -0.079093   -0.111541   -0.046646
 step:  26.6510(harm= 27.5167)  dis= 0.08717  next Energy=   -66.068541 (dE=-0.953E-01)
 bond charge predicted
       N       E                     dE             d eps       ncg     rms          rms(c)
DAV:   1    -0.660297157410E+02    0.23209E-01   -0.88110E+01   912   0.169E+01    0.355E-01
DAV:   2    -0.660700067460E+02   -0.40291E-01   -0.40658E-01   952   0.160E+00    0.314E-01
DAV:   3    -0.660694633793E+02    0.54337E-03   -0.60656E-03  1008   0.186E-01    0.235E-01
DAV:   4    -0.660683599357E+02    0.11034E-02   -0.23536E-03   928   0.935E-02    0.104E-01
DAV:   5    -0.660683718701E+02   -0.11934E-04   -0.96719E-04   960   0.616E-02
  61 F= -.66068372E+02 E0= -.66068372E+02  d E =-.951106E-01  mag=    -0.0000
 curvature: -22.79 expect dE=-0.115E+00 dE for cont linesearch -0.732E-04
 trial: gam= 0.62219 g(F)=  0.504E-02 g(S)=  0.000E+00 ort = 0.193E-03 (trialstep = 0.181E+02)
 search vector abs. value=  0.978E-02
 bond charge predicted
       N       E                     dE             d eps       ncg     rms          rms(c)
DAV:   1    -0.660376813223E+02    0.30679E-01   -0.21623E+02   912   0.265E+01    0.598E-01
DAV:   2    -0.661386990680E+02   -0.10102E+00   -0.10124E+00   968   0.251E+00    0.480E-01
DAV:   3    -0.661371309374E+02    0.15681E-02   -0.14937E-02  1008   0.289E-01    0.352E-01
DAV:   4    -0.661344946611E+02    0.26363E-02   -0.65344E-03   928   0.154E-01    0.139E-01
DAV:   5    -0.661345675857E+02   -0.72925E-04   -0.15434E-03   992   0.801E-02    0.556E-02
DAV:   6    -0.661345366563E+02    0.30929E-04   -0.12412E-04   608   0.226E-02
  62 F= -.66134537E+02 E0= -.66134537E+02  d E =-.661648E-01  mag=     0.0000
 trial-energy change:   -0.066165  1 .order   -0.066886   -0.093677   -0.040095
 step:  34.1431(harm= 31.7097)  dis= 0.08142  next Energy=   -66.151732 (dE=-0.834E-01)
 bond charge predicted
       N       E                     dE             d eps       ncg     rms          rms(c)
DAV:   1    -0.660726196276E+02    0.61948E-01   -0.16820E+02   912   0.233E+01    0.530E-01
DAV:   2    -0.661511261725E+02   -0.78507E-01   -0.78467E-01   968   0.221E+00    0.426E-01
DAV:   3    -0.661498635431E+02    0.12626E-02   -0.11592E-02  1008   0.255E-01    0.313E-01
DAV:   4    -0.661477775015E+02    0.20860E-02   -0.55016E-03   928   0.141E-01    0.118E-01
DAV:   5    -0.661478610713E+02   -0.83570E-04   -0.10932E-03   992   0.690E-02    0.490E-02
DAV:   6    -0.661478379702E+02    0.23101E-04   -0.10331E-04   592   0.204E-02
  63 F= -.66147838E+02 E0= -.66147838E+02  d E =-.794661E-01  mag=     0.0000
 curvature: -29.05 expect dE=-0.175E+00 dE for cont linesearch -0.802E-03
 trial: gam= 1.27366 g(F)=  0.603E-02 g(S)=  0.000E+00 ort =-0.520E-03 (trialstep = 0.101E+02)
 search vector abs. value=  0.206E-01
 bond charge predicted
       N       E                     dE             d eps       ncg     rms          rms(c)
DAV:   1    -0.661296939535E+02    0.18167E-01   -0.14187E+02   912   0.214E+01    0.413E-01
DAV:   2    -0.661960859609E+02   -0.66392E-01   -0.65935E-01   968   0.203E+00    0.365E-01
DAV:   3    -0.661951717260E+02    0.91423E-03   -0.96194E-03  1008   0.233E-01    0.279E-01
DAV:   4    -0.661932783403E+02    0.18934E-02   -0.32358E-03   944   0.110E-01    0.137E-01
DAV:   5    -0.661931437166E+02    0.13462E-03   -0.21461E-03   944   0.879E-02    0.487E-02
DAV:   6    -0.661931480336E+02   -0.43170E-05   -0.55516E-05   624   0.157E-02
  64 F= -.66193148E+02 E0= -.66193148E+02  d E =-.453101E-01  mag=     0.0000
 trial-energy change:   -0.045310  1 .order   -0.046089   -0.054438   -0.037740
 step:  33.0760(harm= 33.0760)  dis= 0.11356  next Energy=   -66.236575 (dE=-0.887E-01)
 bond charge predicted
       N       E                     dE             d eps       ncg     rms          rms(c)
DAV:   1    -0.658921664767E+02    0.30098E+00   -0.73544E+02   912   0.492E+01    0.124E+00
DAV:   2    -0.662450106789E+02   -0.35284E+00   -0.35136E+00   992   0.474E+00    0.870E-01
DAV:   3    -0.662392973906E+02    0.57133E-02   -0.53069E-02  1008   0.556E-01    0.609E-01
DAV:   4    -0.662309239294E+02    0.83735E-02   -0.15250E-02   960   0.238E-01    0.299E-01
DAV:   5    -0.662302297406E+02    0.69419E-03   -0.69610E-03   944   0.159E-01    0.893E-02
DAV:   6    -0.662302936371E+02   -0.63896E-04   -0.20727E-04   656   0.320E-02
  65 F= -.66230294E+02 E0= -.66230294E+02  d E =-.824557E-01  mag=     0.0000
 curvature: -63.39 expect dE=-0.409E+00 dE for cont linesearch -0.133E-04
 trial: gam= 0.86206 g(F)=  0.644E-02 g(S)=  0.000E+00 ort =-0.657E-04 (trialstep = 0.140E+02)
 search vector abs. value=  0.216E-01
 bond charge predicted
       N       E                     dE             d eps       ncg     rms          rms(c)
DAV:   1    -0.661639858141E+02    0.66244E-01   -0.28567E+02   912   0.304E+01    0.631E-01
DAV:   2    -0.662964021681E+02   -0.13242E+00   -0.13200E+00   976   0.288E+00    0.552E-01
DAV:   3    -0.662944716484E+02    0.19305E-02   -0.19453E-02  1008   0.331E-01    0.412E-01
DAV:   4    -0.662906960905E+02    0.37756E-02   -0.67248E-03   936   0.158E-01    0.204E-01
DAV:   5    -0.662904603438E+02    0.23575E-03   -0.36729E-03   976   0.115E-01    0.706E-02
DAV:   6    -0.662904829902E+02   -0.22646E-04   -0.10105E-04   584   0.212E-02
  66 F= -.66290483E+02 E0= -.66290483E+02  d E =-.601894E-01  mag=    -0.0000
 trial-energy change:   -0.060189  1 .order   -0.063260   -0.089543   -0.036977
 step:  23.8766(harm= 23.8766)  dis= 0.09178  next Energy=   -66.306559 (dE=-0.763E-01)
 bond charge predicted
       N       E                     dE             d eps       ncg     rms          rms(c)
DAV:   1    -0.662398237467E+02    0.50637E-01   -0.14081E+02   912   0.213E+01    0.425E-01
DAV:   2    -0.663046473988E+02   -0.64824E-01   -0.64650E-01   952   0.201E+00    0.379E-01
DAV:   3    -0.663037025310E+02    0.94487E-03   -0.94643E-03  1008   0.231E-01    0.287E-01
DAV:   4    -0.663018312231E+02    0.18713E-02   -0.35033E-03   928   0.114E-01    0.137E-01
DAV:   5    -0.663017624077E+02    0.68815E-04   -0.18738E-03   960   0.828E-02    0.504E-02
DAV:   6    -0.663017722648E+02   -0.98571E-05   -0.57315E-05   568   0.156E-02
  67 F= -.66301772E+02 E0= -.66301772E+02  d E =-.714786E-01  mag=    -0.0000
 curvature: -40.39 expect dE=-0.172E+00 dE for cont linesearch -0.412E-05
 trial: gam= 0.53636 g(F)=  0.426E-02 g(S)=  0.000E+00 ort =-0.470E-04 (trialstep = 0.160E+02)
 search vector abs. value=  0.104E-01
 bond charge predicted
       N       E                     dE             d eps       ncg     rms          rms(c)
DAV:   1    -0.662721380043E+02    0.29624E-01   -0.17886E+02   912   0.240E+01    0.470E-01
DAV:   2    -0.663546387009E+02   -0.82501E-01   -0.82597E-01   952   0.227E+00    0.407E-01
DAV:   3    -0.663535241333E+02    0.11146E-02   -0.12177E-02   984   0.264E-01    0.311E-01
DAV:   4    -0.663513627031E+02    0.21614E-02   -0.35726E-03   952   0.114E-01    0.153E-01
DAV:   5    -0.663511766104E+02    0.18609E-03   -0.25805E-03   976   0.964E-02    0.502E-02
DAV:   6    -0.663511942615E+02   -0.17651E-04   -0.55731E-05   568   0.166E-02
  68 F= -.66351194E+02 E0= -.66351194E+02  d E =-.494220E-01  mag=    -0.0000
 trial-energy change:   -0.049422  1 .order   -0.050712   -0.067703   -0.033721
 step:  31.8547(harm= 31.8547)  dis= 0.07865  next Energy=   -66.369215 (dE=-0.674E-01)
 bond charge predicted
       N       E                     dE             d eps       ncg     rms          rms(c)
DAV:   1    -0.662865568521E+02    0.64620E-01   -0.17611E+02   912   0.239E+01    0.472E-01
DAV:   2    -0.663681043215E+02   -0.81547E-01   -0.81412E-01   960   0.226E+00    0.402E-01
DAV:   3    -0.663670658793E+02    0.10384E-02   -0.12019E-02   992   0.262E-01    0.305E-01
DAV:   4    -0.663649805158E+02    0.20854E-02   -0.36441E-03   944   0.115E-01    0.147E-01
DAV:   5    -0.663648368942E+02    0.14362E-03   -0.23632E-03   928   0.927E-02    0.487E-02
DAV:   6    -0.663648554749E+02   -0.18581E-04   -0.57669E-05   560   0.167E-02
  69 F= -.66364855E+02 E0= -.66364855E+02  d E =-.630832E-01  mag=     0.0000
 curvature: -39.22 expect dE=-0.175E+00 dE for cont linesearch -0.103E-03
 trial: gam= 1.04509 g(F)=  0.447E-02 g(S)=  0.000E+00 ort =-0.166E-03 (trialstep = 0.129E+02)
 search vector abs. value=  0.155E-01
 bond charge predicted
       N       E                     dE             d eps       ncg     rms          rms(c)
DAV:   1    -0.663261570489E+02    0.38680E-01   -0.17284E+02   912   0.236E+01    0.458E-01
DAV:   2    -0.664076065672E+02   -0.81450E-01   -0.81180E-01   976   0.225E+00    0.420E-01
DAV:   3    -0.664067141235E+02    0.89244E-03   -0.11581E-02  1008   0.258E-01    0.316E-01
DAV:   4    -0.664046274711E+02    0.20867E-02   -0.33474E-03   944   0.112E-01    0.170E-01
DAV:   5    -0.664044403692E+02    0.18710E-03   -0.29329E-03   960   0.102E-01    0.577E-02
DAV:   6    -0.664044501014E+02   -0.97322E-05   -0.71142E-05   584   0.178E-02
  70 F= -.66404450E+02 E0= -.66404450E+02  d E =-.395946E-01  mag=     0.0000
 trial-energy change:   -0.039595  1 .order   -0.041130   -0.055300   -0.026961
 step:  25.1424(harm= 25.1424)  dis= 0.06493  next Energy=   -66.418810 (dE=-0.540E-01)
 bond charge predicted
       N       E                     dE             d eps       ncg     rms          rms(c)
DAV:   1    -0.663446764961E+02    0.59764E-01   -0.15635E+02   912   0.224E+01    0.440E-01
DAV:   2    -0.664182557788E+02   -0.73579E-01   -0.73382E-01   976   0.214E+00    0.398E-01
DAV:   3    -0.664174158129E+02    0.83997E-03   -0.10458E-02   992   0.245E-01    0.299E-01
DAV:   4    -0.664155363292E+02    0.18795E-02   -0.31498E-03   944   0.108E-01    0.157E-01
DAV:   5    -0.664153967880E+02    0.13954E-03   -0.25115E-03   936   0.944E-02    0.539E-02
DAV:   6    -0.664154030236E+02   -0.62356E-05   -0.67547E-05   608   0.172E-02
  71 F= -.66415403E+02 E0= -.66415403E+02  d E =-.505475E-01  mag=    -0.0000
 curvature: -45.42 expect dE=-0.135E+00 dE for cont linesearch -0.727E-05
 trial: gam= 0.57619 g(F)=  0.297E-02 g(S)=  0.000E+00 ort =-0.498E-04 (trialstep = 0.153E+02)
 search vector abs. value=  0.806E-02
 bond charge predicted
       N       E                     dE             d eps       ncg     rms          rms(c)
DAV:   1    -0.663883157918E+02    0.27081E-01   -0.12722E+02   912   0.202E+01    0.414E-01
DAV:   2    -0.664480235325E+02   -0.59708E-01   -0.59496E-01   976   0.192E+00    0.346E-01
DAV:   3    -0.664471620060E+02    0.86153E-03   -0.83453E-03  1008   0.214E-01    0.262E-01
DAV:   4    -0.664456217729E+02    0.15402E-02   -0.34372E-03   944   0.112E-01    0.109E-01
DAV:   5    -0.664456504014E+02   -0.28628E-04   -0.12700E-03   976   0.689E-02    0.424E-02
DAV:   6    -0.664456443448E+02    0.60566E-05   -0.66344E-05   576   0.167E-02
  72 F= -.66445644E+02 E0= -.66445644E+02  d E =-.302413E-01  mag=    -0.0000
 trial-energy change:   -0.030241  1 .order   -0.030961   -0.045093   -0.016829
 step:  28.0009(harm= 24.4678)  dis= 0.06385  next Energy=   -66.452188 (dE=-0.368E-01)
 bond charge predicted
       N       E                     dE             d eps       ncg     rms          rms(c)
DAV:   1    -0.664104619476E+02    0.35188E-01   -0.86661E+01   912   0.167E+01    0.339E-01
DAV:   2    -0.664510815720E+02   -0.40620E-01   -0.40442E-01   976   0.158E+00    0.284E-01
DAV:   3    -0.664504877266E+02    0.59385E-03   -0.56604E-03  1024   0.176E-01    0.216E-01
DAV:   4    -0.664494335607E+02    0.10542E-02   -0.24356E-03   944   0.945E-02    0.876E-02
DAV:   5    -0.664494641380E+02   -0.30577E-04   -0.84204E-04   960   0.566E-02
  73 F= -.66449464E+02 E0= -.66449464E+02  d E =-.340611E-01  mag=    -0.0000
 curvature: -28.52 expect dE=-0.966E-01 dE for cont linesearch -0.473E-03
 trial: gam= 1.26690 g(F)=  0.339E-02 g(S)=  0.000E+00 ort =-0.366E-03 (trialstep = 0.935E+01)
 search vector abs. value=  0.154E-01
 bond charge predicted
       N       E                     dE             d eps       ncg     rms          rms(c)
DAV:   1    -0.664311996290E+02    0.18234E-01   -0.90150E+01   912   0.170E+01    0.292E-01
DAV:   2    -0.664734640985E+02   -0.42264E-01   -0.41764E-01   968   0.160E+00    0.265E-01
DAV:   3    -0.664729547041E+02    0.50939E-03   -0.56955E-03  1024   0.176E-01    0.210E-01
DAV:   4    -0.664718622741E+02    0.10924E-02   -0.17101E-03   936   0.785E-02    0.105E-01
DAV:   5    -0.664717482798E+02    0.11399E-03   -0.15206E-03   952   0.732E-02    0.348E-02
DAV:   6    -0.664717705041E+02   -0.22224E-04   -0.20498E-05   576   0.110E-02
  74 F= -.66471771E+02 E0= -.66471771E+02  d E =-.223064E-01  mag=    -0.0000
 trial-energy change:   -0.022306  1 .order   -0.023540   -0.027366   -0.019713
 step:  33.4466(harm= 33.4466)  dis= 0.11439  next Energy=   -66.498395 (dE=-0.489E-01)
 bond charge predicted
       N       E                     dE             d eps       ncg     rms          rms(c)
DAV:   1    -0.662127243400E+02    0.25902E+00   -0.60874E+02   912   0.446E+01    0.101E+00
DAV:   2    -0.665062206741E+02   -0.29350E+00   -0.29006E+00   976   0.427E+00    0.723E-01
DAV:   3    -0.665017835632E+02    0.44371E-02   -0.42491E-02  1008   0.487E-01    0.527E-01
DAV:   4    -0.664952087654E+02    0.65748E-02   -0.99751E-03   944   0.191E-01    0.275E-01
DAV:   5    -0.664942156283E+02    0.99314E-03   -0.67225E-03   960   0.153E-01    0.738E-02
DAV:   6    -0.664943505262E+02   -0.13490E-03   -0.93533E-05   624   0.262E-02    0.398E-02
DAV:   7    -0.664944200982E+02   -0.69572E-04   -0.38389E-05   560   0.141E-02
  75 F= -.66494420E+02 E0= -.66494420E+02  d E =-.449560E-01  mag=     0.0000
 curvature: -88.01 expect dE=-0.346E+00 dE for cont linesearch -0.199E-04
 trial: gam= 0.77900 g(F)=  0.394E-02 g(S)=  0.000E+00 ort = 0.590E-04 (trialstep = 0.142E+02)
 search vector abs. value=  0.134E-01
 bond charge predicted
       N       E                     dE             d eps       ncg     rms          rms(c)
DAV:   1    -0.664530740443E+02    0.41276E-01   -0.18097E+02   912   0.241E+01    0.476E-01
DAV:   2    -0.665377655256E+02   -0.84691E-01   -0.84230E-01   992   0.228E+00    0.417E-01
DAV:   3    -0.665366469105E+02    0.11186E-02   -0.11775E-02  1024   0.252E-01    0.319E-01
DAV:   4    -0.665344164447E+02    0.22305E-02   -0.40493E-03   944   0.121E-01    0.151E-01
[...]
DAV:   2    -0.665938767831E+02   -0.18041E+00   -0.17987E+00   952   0.335E+00    0.613E-01
DAV:   3    -0.665919619312E+02    0.19149E-02   -0.26296E-02   968   0.383E-01    0.454E-01
DAV:   4    -0.665879603553E+02    0.40016E-02   -0.57700E-03   960   0.147E-01    0.259E-01
DAV:   5    -0.665873523013E+02    0.60805E-03   -0.53198E-03   968   0.137E-01    0.781E-02
DAV:   6    -0.665874301467E+02   -0.77845E-04   -0.73701E-05   592   0.214E-02
  79 F= -.66587430E+02 E0= -.66587430E+02  d E =-.433161E-01  mag=    -0.0000
 curvature: -75.80 expect dE=-0.277E+00 dE for cont linesearch -0.456E-02
 ZBRENT: interpolating
 opt :  26.7326  next Energy=   -66.590474 (dE=-0.464E-01)
 bond charge predicted
       N       E                     dE             d eps       ncg     rms          rms(c)
DAV:   1    -0.665727607829E+02    0.14592E-01   -0.41350E+01   912   0.114E+01    0.204E-01
DAV:   2    -0.665921455441E+02   -0.19385E-01   -0.19170E-01   952   0.109E+00    0.187E-01
DAV:   3    -0.665919639958E+02    0.18155E-03   -0.27663E-03  1024   0.124E-01    0.150E-01
DAV:   4    -0.665915113360E+02    0.45266E-03   -0.72667E-04   912   0.522E-02    0.775E-02
DAV:   5    -0.665914881263E+02    0.23210E-04   -0.78027E-04   992   0.526E-02
  80 F= -.66591488E+02 E0= -.66591488E+02  d E =-.473741E-01  mag=    -0.0000
 curvature: -50.58 expect dE=-0.146E+00 dE for cont linesearch -0.130E-03
 trial: gam= 0.30784 g(F)=  0.288E-02 g(S)=  0.000E+00 ort =-0.201E-03 (trialstep = 0.167E+02)
 search vector abs. value=  0.425E-02
 bond charge predicted
       N       E                     dE             d eps       ncg     rms          rms(c)
DAV:   1    -0.665866039604E+02    0.49074E-02   -0.79751E+01   912   0.161E+01    0.378E-01
DAV:   2    -0.666227151303E+02   -0.36111E-01   -0.36558E-01   952   0.152E+00    0.313E-01
DAV:   3    -0.666221826042E+02    0.53253E-03   -0.56532E-03   992   0.183E-01    0.226E-01
DAV:   4    -0.666212917912E+02    0.89081E-03   -0.24367E-03   960   0.974E-02    0.889E-02
DAV:   5    -0.666213462993E+02   -0.54508E-04   -0.57497E-04   976   0.500E-02
  81 F= -.66621346E+02 E0= -.66621346E+02  d E =-.298582E-01  mag=    -0.0000
 trial-energy change:   -0.029858  1 .order   -0.029872   -0.047091   -0.012654
 step:  22.8588(harm= 22.8588)  dis= 0.04676  next Energy=   -66.623685 (dE=-0.322E-01)
 bond charge predicted
       N       E                     dE             d eps       ncg     rms          rms(c)
DAV:   1    -0.666184923003E+02    0.27995E-02   -0.10728E+01   912   0.589E+00    0.142E-01
DAV:   2    -0.666233652642E+02   -0.48730E-02   -0.49646E-02   968   0.558E-01    0.114E-01
DAV:   3    -0.666233206553E+02    0.44609E-04   -0.76755E-04   976   0.675E-02
  82 F= -.66623321E+02 E0= -.66623321E+02  d E =-.318325E-01  mag=    -0.0000
 curvature: -17.25 expect dE=-0.256E-01 dE for cont linesearch -0.294E-04
 trial: gam= 0.52266 g(F)=  0.148E-02 g(S)=  0.000E+00 ort =-0.851E-04 (trialstep = 0.179E+02)
 search vector abs. value=  0.256E-02
 bond charge predicted
       N       E                     dE             d eps       ncg     rms          rms(c)
DAV:   1    -0.666151047869E+02    0.82605E-02   -0.55207E+01   912   0.134E+01    0.297E-01
DAV:   2    -0.666400855212E+02   -0.24981E-01   -0.25334E-01   936   0.126E+00    0.262E-01
DAV:   3    -0.666396743302E+02    0.41119E-03   -0.38666E-03  1008   0.150E-01    0.193E-01
DAV:   4    -0.666389547688E+02    0.71956E-03   -0.18064E-03   944   0.810E-02    0.799E-02
DAV:   5    -0.666389941961E+02   -0.39427E-04   -0.54450E-04   944   0.472E-02
  83 F= -.66638994E+02 E0= -.66638994E+02  d E =-.156735E-01  mag=    -0.0000
 trial-energy change:   -0.015674  1 .order   -0.016057   -0.025848   -0.006267
 step:  23.6878(harm= 23.6878)  dis= 0.02941  next Energy=   -66.640381 (dE=-0.171E-01)
 bond charge predicted
       N       E                     dE             d eps       ncg     rms          rms(c)
DAV:   1    -0.666371664238E+02    0.17883E-02   -0.56339E+00   912   0.428E+00    0.993E-02
DAV:   2    -0.666397457374E+02   -0.25793E-02   -0.26234E-02   960   0.405E-01    0.827E-02
DAV:   3    -0.666397195884E+02    0.26149E-04   -0.39080E-04   816   0.489E-02
  84 F= -.66639720E+02 E0= -.66639720E+02  d E =-.163989E-01  mag=    -0.0000
 curvature: -21.03 expect dE=-0.255E-01 dE for cont linesearch -0.195E-03
 trial: gam= 0.84265 g(F)=  0.121E-02 g(S)=  0.000E+00 ort =-0.154E-03 (trialstep = 0.176E+02)
 search vector abs. value=  0.277E-02
 bond charge predicted
       N       E                     dE             d eps       ncg     rms          rms(c)
DAV:   1    -0.666276665471E+02    0.12079E-01   -0.57624E+01   912   0.137E+01    0.265E-01
DAV:   2    -0.666534655775E+02   -0.25799E-01   -0.25840E-01   952   0.128E+00    0.260E-01
DAV:   3    -0.666530505833E+02    0.41499E-03   -0.38055E-03  1008   0.149E-01    0.203E-01
DAV:   4    -0.666521153179E+02    0.93527E-03   -0.16026E-03   936   0.764E-02    0.101E-01
DAV:   5    -0.666520691299E+02    0.46188E-04   -0.10939E-03   944   0.643E-02    0.405E-02
DAV:   6    -0.666520617453E+02    0.73847E-05   -0.35742E-05   568   0.125E-02
  85 F= -.66652062E+02 E0= -.66652062E+02  d E =-.123422E-01  mag=    -0.0000
 trial-energy change:   -0.012342  1 .order   -0.012031   -0.019088   -0.004973
 step:  23.8497(harm= 23.8497)  dis= 0.03932  next Energy=   -66.652626 (dE=-0.129E-01)
 bond charge predicted
       N       E                     dE             d eps       ncg     rms          rms(c)
DAV:   1    -0.666496602688E+02    0.24089E-02   -0.71294E+00   912   0.481E+00    0.920E-02
DAV:   2    -0.666528573237E+02   -0.31971E-02   -0.32010E-02   992   0.450E-01    0.902E-02
DAV:   3    -0.666528098115E+02    0.47512E-04   -0.46900E-04   936   0.524E-02
  86 F= -.66652810E+02 E0= -.66652810E+02  d E =-.130902E-01  mag=    -0.0000
 curvature: -30.50 expect dE=-0.286E-01 dE for cont linesearch -0.464E-05
 trial: gam= 0.72111 g(F)=  0.939E-03 g(S)=  0.000E+00 ort =-0.205E-04 (trialstep = 0.189E+02)
 search vector abs. value=  0.235E-02
 bond charge predicted
       N       E                     dE             d eps       ncg     rms          rms(c)
DAV:   1    -0.666394688452E+02    0.13388E-01   -0.56096E+01   912   0.135E+01    0.263E-01
DAV:   2    -0.666644998618E+02   -0.25031E-01   -0.25168E-01   952   0.127E+00    0.269E-01
DAV:   3    -0.666641081423E+02    0.39172E-03   -0.37074E-03  1000   0.147E-01    0.211E-01
DAV:   4    -0.666631183141E+02    0.98983E-03   -0.16453E-03   936   0.770E-02    0.110E-01
DAV:   5    -0.666630579826E+02    0.60331E-04   -0.12264E-03   944   0.672E-02    0.440E-02
DAV:   6    -0.666630513299E+02    0.66528E-05   -0.36787E-05   560   0.124E-02
  87 F= -.66663051E+02 E0= -.66663051E+02  d E =-.102415E-01  mag=    -0.0000
 trial-energy change:   -0.010242  1 .order   -0.010947   -0.017442   -0.004451
 step:  35.8106(harm= 25.3480)  dis= 0.05120  next Energy=   -66.664539 (dE=-0.117E-01)
 bond charge predicted
       N       E                     dE             d eps       ncg     rms          rms(c)
DAV:   1    -0.666423627418E+02    0.20695E-01   -0.45053E+01   912   0.121E+01    0.230E-01
DAV:   2    -0.666627272290E+02   -0.20364E-01   -0.20366E-01   952   0.114E+00    0.231E-01
DAV:   3    -0.666624390695E+02    0.28816E-03   -0.30032E-03   984   0.133E-01    0.180E-01
DAV:   4    -0.666617118056E+02    0.72726E-03   -0.11105E-03   952   0.635E-02    0.965E-02
DAV:   5    -0.666616440205E+02    0.67785E-04   -0.98141E-04   944   0.598E-02
  88 F= -.66661644E+02 E0= -.66661644E+02  d E =-.883421E-02  mag=    -0.0000
 curvature:  52.07 expect dE= 0.696E-01 dE for cont linesearch  0.215E-02
 ZBRENT: interpolating
 opt :  26.1728  next Energy=   -66.663911 (dE=-0.111E-01)
 bond charge predicted
       N       E                     dE             d eps       ncg     rms          rms(c)
DAV:   1    -0.666576001396E+02    0.41117E-02   -0.14604E+01   912   0.687E+00    0.128E-01
DAV:   2    -0.666641102165E+02   -0.65101E-02   -0.65100E-02   952   0.643E-01    0.131E-01
DAV:   3    -0.666639957244E+02    0.11449E-03   -0.95522E-04  1024   0.742E-02    0.105E-01
DAV:   4    -0.666637274678E+02    0.26826E-03   -0.42744E-04   936   0.391E-02    0.529E-02
DAV:   5    -0.666637110406E+02    0.16427E-04   -0.31558E-04   800   0.345E-02
  89 F= -.66663711E+02 E0= -.66663711E+02  d E =-.109012E-01  mag=    -0.0000
 curvature: -20.81 expect dE=-0.139E-01 dE for cont linesearch -0.909E-04
 trial: gam= 0.72151 g(F)=  0.669E-03 g(S)=  0.000E+00 ort =-0.101E-03 (trialstep = 0.203E+02)
 search vector abs. value=  0.175E-02
 bond charge predicted
       N       E                     dE             d eps       ncg     rms          rms(c)
DAV:   1    -0.666517969117E+02    0.11931E-01   -0.48253E+01   912   0.125E+01    0.236E-01
DAV:   2    -0.666733238745E+02   -0.21527E-01   -0.21448E-01   968   0.117E+00    0.232E-01
DAV:   3    -0.666729505863E+02    0.37329E-03   -0.31573E-03   992   0.137E-01    0.184E-01
DAV:   4    -0.666721329828E+02    0.81760E-03   -0.12363E-03   944   0.658E-02    0.930E-02
DAV:   5    -0.666720445736E+02    0.88409E-04   -0.10405E-03   960   0.617E-02    0.345E-02
DAV:   6    -0.666720398928E+02    0.46808E-05   -0.24476E-05   568   0.106E-02
  90 F= -.66672040E+02 E0= -.66672040E+02  d E =-.832885E-02  mag=    -0.0000
 trial-energy change:   -0.008329  1 .order   -0.008188   -0.012121   -0.004256
 step:  31.3415(harm= 31.3415)  dis= 0.03768  next Energy=   -66.673051 (dE=-0.934E-02)
 bond charge predicted
       N       E                     dE             d eps       ncg     rms          rms(c)
DAV:   1    -0.666668125881E+02    0.52320E-02   -0.14093E+01   912   0.676E+00    0.126E-01
DAV:   2    -0.666730854856E+02   -0.62729E-02   -0.62695E-02   960   0.631E-01    0.123E-01
DAV:   3    -0.666729822286E+02    0.10326E-03   -0.91563E-04   984   0.736E-02    0.972E-02
DAV:   4    -0.666727555658E+02    0.22666E-03   -0.34957E-04   808   0.355E-02    0.496E-02
DAV:   5    -0.666727365475E+02    0.19018E-04   -0.32146E-04   768   0.360E-02
  91 F= -.66672737E+02 E0= -.66672737E+02  d E =-.902551E-02  mag=    -0.0000
 curvature: -45.90 expect dE=-0.249E-01 dE for cont linesearch -0.252E-05
 trial: gam= 0.84546 g(F)=  0.542E-03 g(S)=  0.000E+00 ort =-0.978E-05 (trialstep = 0.222E+02)
 search vector abs. value=  0.177E-02
 bond charge predicted
       N       E                     dE             d eps       ncg     rms          rms(c)
DAV:   1    -0.666536007091E+02    0.19155E-01   -0.58358E+01   912   0.138E+01    0.258E-01
DAV:   2    -0.666799559523E+02   -0.26355E-01   -0.26356E-01   952   0.130E+00    0.249E-01
DAV:   3    -0.666795716157E+02    0.38434E-03   -0.39299E-03   992   0.153E-01    0.191E-01
DAV:   4    -0.666787052505E+02    0.86637E-03   -0.12631E-03   960   0.672E-02    0.102E-01
DAV:   5    -0.666785956293E+02    0.10962E-03   -0.12155E-03   968   0.664E-02    0.363E-02
DAV:   6    -0.666785969757E+02   -0.13464E-05   -0.25066E-05   576   0.108E-02
  92 F= -.66678597E+02 E0= -.66678597E+02  d E =-.586043E-02  mag=    -0.0000
 trial-energy change:   -0.005860  1 .order   -0.006614   -0.011840   -0.001389
 step:  28.9724(harm= 25.1386)  dis= 0.03535  next Energy=   -66.678788 (dE=-0.605E-02)
 bond charge predicted
       N       E                     dE             d eps       ncg     rms          rms(c)
DAV:   1    -0.666760446613E+02    0.25510E-02   -0.54371E+00   912   0.419E+00    0.757E-02
DAV:   2    -0.666784738260E+02   -0.24292E-02   -0.24367E-02   960   0.394E-01    0.769E-02
DAV:   3    -0.666784364935E+02    0.37332E-04   -0.34200E-04   752   0.462E-02
  93 F= -.66678436E+02 E0= -.66678436E+02  d E =-.569995E-02  mag=    -0.0000
 curvature:  28.81 expect dE= 0.163E-01 dE for cont linesearch  0.559E-03
 trial: gam= 0.00000 g(F)=  0.565E-03 g(S)=  0.000E+00 ort =-0.186E-03 (trialstep = 0.235E+02)
 search vector abs. value=  0.565E-03
 bond charge predicted
       N       E                     dE             d eps       ncg     rms          rms(c)
DAV:   1    -0.666729576428E+02    0.55162E-02   -0.21063E+01   912   0.827E+00    0.234E-01
DAV:   2    -0.666822051929E+02   -0.92476E-02   -0.95778E-02   976   0.776E-01    0.189E-01
DAV:   3    -0.666820486836E+02    0.15651E-03   -0.16250E-03   992   0.976E-02    0.128E-01
DAV:   4    -0.666818587553E+02    0.18993E-03   -0.72348E-04   960   0.539E-02    0.436E-02
DAV:   5    -0.666818765372E+02   -0.17782E-04   -0.64395E-05   592   0.208E-02
  94 F= -.66681877E+02 E0= -.66681877E+02  d E =-.344004E-02  mag=    -0.0000
 trial-energy change:   -0.003440  1 .order   -0.003834   -0.013314    0.005646
 step:  16.5344(harm= 16.5344)  dis= 0.00834  next Energy=   -66.683111 (dE=-0.467E-02)
 bond charge predicted
       N       E                     dE             d eps       ncg     rms          rms(c)
DAV:   1    -0.666820418002E+02   -0.18304E-03   -0.18717E+00   912   0.247E+00    0.705E-02
DAV:   2    -0.666828605801E+02   -0.81878E-03   -0.84029E-03   952   0.231E-01    0.586E-02
DAV:   3    -0.666828421493E+02    0.18431E-04   -0.13165E-04   592   0.294E-02
  95 F= -.66682842E+02 E0= -.66682842E+02  d E =-.440566E-02  mag=    -0.0000
 curvature:  -8.27 expect dE=-0.241E-02 dE for cont linesearch -0.501E-04
 trial: gam= 0.41269 g(F)=  0.292E-03 g(S)=  0.000E+00 ort = 0.586E-04 (trialstep = 0.221E+02)
 search vector abs. value=  0.437E-03
 bond charge predicted
       N       E                     dE             d eps       ncg     rms          rms(c)
DAV:   1    -0.666804842839E+02    0.23763E-02   -0.14299E+01   912   0.682E+00    0.160E-01
DAV:   2    -0.666869953249E+02   -0.65110E-02   -0.65581E-02   944   0.646E-01    0.137E-01
DAV:   3    -0.666868890228E+02    0.10630E-03   -0.10240E-03   960   0.788E-02    0.998E-02
DAV:   4    -0.666867102937E+02    0.17873E-03   -0.49529E-04   976   0.429E-02    0.400E-02
DAV:   5    -0.666867230582E+02   -0.12764E-04   -0.10743E-04   576   0.228E-02
  96 F= -.66686723E+02 E0= -.66686723E+02  d E =-.388091E-02  mag=    -0.0000
 trial-energy change:   -0.003881  1 .order   -0.004454   -0.006999   -0.001908
 step:  30.4430(harm= 30.4430)  dis= 0.01394  next Energy=   -66.687653 (dE=-0.481E-02)
 bond charge predicted
       N       E                     dE             d eps       ncg     rms          rms(c)
DAV:   1    -0.666860478310E+02    0.66246E-03   -0.20061E+00   912   0.255E+00    0.621E-02
DAV:   2    -0.666869607741E+02   -0.91294E-03   -0.92241E-03   976   0.241E-01    0.515E-02
DAV:   3    -0.666869497191E+02    0.11055E-04   -0.12626E-04   544   0.293E-02
  97 F= -.66686950E+02 E0= -.66686950E+02  d E =-.410757E-02  mag=    -0.0000
 curvature: -21.02 expect dE=-0.618E-02 dE for cont linesearch -0.340E-03
 trial: gam= 0.00000 g(F)=  0.294E-03 g(S)=  0.000E+00 ort =-0.840E-04 (trialstep = 0.238E+02)
 search vector abs. value=  0.294E-03
 bond charge predicted
       N       E                     dE             d eps       ncg     rms          rms(c)
DAV:   1    -0.666829753743E+02    0.39854E-02   -0.11229E+01   912   0.604E+00    0.192E-01
DAV:   2    -0.666880077856E+02   -0.50324E-02   -0.52369E-02   936   0.571E-01    0.147E-01
DAV:   3    -0.666879381781E+02    0.69608E-04   -0.90597E-04  1008   0.713E-02
  98 F= -.66687938E+02 E0= -.66687938E+02  d E =-.988459E-03  mag=    -0.0000
 trial-energy change:   -0.000988  1 .order   -0.001037   -0.006997    0.004924
 step:  13.9717(harm= 13.9717)  dis= 0.00538  next Energy=   -66.689003 (dE=-0.205E-02)
 bond charge predicted
       N       E                     dE             d eps       ncg     rms          rms(c)
DAV:   1    -0.666879991554E+02    0.86302E-05   -0.19060E+00   912   0.248E+00    0.644E-02
DAV:   2    -0.666888728280E+02   -0.87367E-03   -0.88765E-03   928   0.238E-01    0.525E-02
DAV:   3    -0.666888618904E+02    0.10938E-04   -0.13895E-04   576   0.304E-02
  99 F= -.66688862E+02 E0= -.66688862E+02  d E =-.191217E-02  mag=    -0.0000
 curvature:  -6.99 expect dE=-0.900E-03 dE for cont linesearch -0.728E-04
 trial: gam= 0.25000 g(F)=  0.129E-03 g(S)=  0.000E+00 ort = 0.554E-04 (trialstep = 0.218E+02)
 search vector abs. value=  0.175E-03
 bond charge predicted
       N       E                     dE             d eps       ncg     rms          rms(c)
DAV:   1    -0.666879063770E+02    0.96645E-03   -0.55838E+00   912   0.425E+00    0.923E-02
DAV:   2    -0.666904765987E+02   -0.25702E-02   -0.25998E-02   936   0.404E-01    0.795E-02
DAV:   3    -0.666904402476E+02    0.36351E-04   -0.39587E-04   944   0.483E-02
 100 F= -.66690440E+02 E0= -.66690440E+02  d E =-.157836E-02  mag=    -0.0000
 trial-energy change:   -0.001578  1 .order   -0.001725   -0.003116   -0.000333
 step:  24.4497(harm= 24.4497)  dis= 0.00830  next Energy=   -66.690606 (dE=-0.174E-02)
 bond charge predicted
       N       E                     dE             d eps       ncg     rms          rms(c)
DAV:   1    -0.666903827936E+02    0.93805E-04   -0.81772E-02   944   0.517E-01    0.313E-02
DAV:   2    -0.666904087003E+02   -0.25907E-04   -0.30540E-04   672   0.464E-02
 101 F= -.66690409E+02 E0= -.66690409E+02  d E =-.154681E-02  mag=    -0.0000
 curvature: -14.98 expect dE=-0.209E-02 dE for cont linesearch -0.206E-04
 trial: gam= 1.10295 g(F)=  0.139E-03 g(S)=  0.000E+00 ort =-0.155E-04 (trialstep = 0.123E+02)
 search vector abs. value=  0.318E-03
 bond charge predicted
       N       E                     dE             d eps       ncg     rms          rms(c)
DAV:   1    -0.666906271542E+02   -0.24436E-03   -0.32165E+00   912   0.323E+00    0.548E-02
DAV:   2    -0.666920719410E+02   -0.14448E-02   -0.14471E-02   960   0.302E-01    0.569E-02
DAV:   3    -0.666920506543E+02    0.21287E-04   -0.18870E-04   552   0.347E-02
 102 F= -.66692051E+02 E0= -.66692051E+02  d E =-.164195E-02  mag=    -0.0000
 trial-energy change:   -0.001642  1 .order   -0.001075   -0.001504   -0.000646
 step:  13.9796(harm= 21.5453)  dis= 0.00699  next Energy=   -66.692096 (dE=-0.169E-02)
 bond charge predicted
       N       E                     dE             d eps       ncg     rms          rms(c)
DAV:   1    -0.666921726223E+02   -0.10068E-03   -0.62170E-02   944   0.451E-01    0.223E-02
DAV:   2    -0.666921876953E+02   -0.15073E-04   -0.20541E-04   560   0.394E-02
 103 F= -.66692188E+02 E0= -.66692188E+02  d E =-.177900E-02  mag=    -0.0000
 curvature:  -9.25 expect dE=-0.702E-03 dE for cont linesearch -0.217E-03
 trial: gam=-0.10538 g(F)=  0.759E-04 g(S)=  0.000E+00 ort = 0.863E-04 (trialstep = 0.126E+02)
 search vector abs. value=  0.612E-04
 bond charge predicted
       N       E                     dE             d eps       ncg     rms          rms(c)
DAV:   1    -0.666925772916E+02   -0.40467E-03   -0.65557E-01   920   0.146E+00    0.364E-02
DAV:   2    -0.666928657531E+02   -0.28846E-03   -0.29235E-03   960   0.135E-01    0.290E-02
DAV:   3    -0.666928615025E+02    0.42507E-05   -0.40957E-05   560   0.163E-02
 104 F= -.66692862E+02 E0= -.66692862E+02  d E =-.673807E-03  mag=    -0.0000
 trial-energy change:   -0.000674  1 .order   -0.000542   -0.000844   -0.000240
 step:  17.6652(harm= 17.6652)  dis= 0.00306  next Energy=   -66.692777 (dE=-0.590E-03)
 bond charge predicted
       N       E                     dE             d eps       ncg     rms          rms(c)
DAV:   1    -0.666929502451E+02   -0.84492E-04   -0.10516E-01   928   0.586E-01    0.182E-02
DAV:   2    -0.666929951829E+02   -0.44938E-04   -0.46488E-04   912   0.535E-02
 105 F= -.66692995E+02 E0= -.66692995E+02  d E =-.807488E-03  mag=    -0.0000
 curvature:  -8.10 expect dE=-0.395E-03 dE for cont linesearch -0.102E-05
 trial: gam= 0.47411 g(F)=  0.487E-04 g(S)=  0.000E+00 ort = 0.278E-05 (trialstep = 0.128E+02)
 search vector abs. value=  0.651E-04
 reached required accuracy - stopping structural energy minimisation
Application 90991149 resources: utime ~151213s, stime ~845s, Rss ~95952, inblocks ~83975, outblocks ~161970
