unknown system                          
           1
    21.999186    0.000000    0.000000
     0.000000   21.999186    0.000000
     0.000000    0.000000   21.999186
   Ag
  30
Direct configuration=     1
   0.66921726  0.54612307  0.55299190
   0.56455284  0.58469246  0.60785864
   0.45093755  0.61753883  0.64445460
   0.59225511  0.46232128  0.60432952
   0.49504771  0.50342788  0.67268978
   0.60566269  0.63952896  0.50384787
   0.64302757  0.43965523  0.49021387
   0.66329672  0.54635288  0.42956784
   0.48447513  0.65548196  0.53162687
   0.37710535  0.53769646  0.70151391
   0.56243367  0.35913545  0.54390230
   0.51135218  0.38086308  0.65441349
   0.64407680  0.66370161  0.38864349
   0.59801847  0.34253214  0.42541896
   0.39687794  0.42569167  0.64843872
   0.52233232  0.65274706  0.41271068
   0.61020472  0.45148511  0.36808842
   0.58719388  0.57013218  0.33147299
   0.43597646  0.34171222  0.56254353
   0.48865154  0.29633326  0.46045704
   0.31299159  0.50879209  0.59998685
   0.37193619  0.60346489  0.55056855
   0.49640296  0.38751791  0.37124857
   0.41121620  0.60182028  0.43497203
   0.46304927  0.59100439  0.32343125
   0.32547695  0.39831835  0.54759514
   0.51198372  0.48024664  0.29354220
   0.40047574  0.38874284  0.45076202
   0.35057823  0.50211629  0.48065126
   0.41881554  0.48640281  0.37772497
Direct configuration=     2
   0.66936339  0.54610738  0.55306488
   0.56456954  0.58473634  0.60792025
   0.45090968  0.61762161  0.64456424
   0.59228414  0.46232092  0.60437294
   0.49504396  0.50343150  0.67278182
   0.60573336  0.63957294  0.50383096
   0.64308942  0.43961869  0.49022435
   0.66335646  0.54641198  0.42954034
   0.48446665  0.65554410  0.53161718
   0.37706657  0.53772742  0.70157663
   0.56243107  0.35905498  0.54387995
   0.51140532  0.38079917  0.65451356
   0.64414181  0.66379154  0.38859616
   0.59811389  0.34244227  0.42536390
   0.39680819  0.42569895  0.64849110
   0.52238398  0.65280149  0.41261593
   0.61022626  0.45145622  0.36802593
   0.58720604  0.57019596  0.33143884
   0.43596825  0.34165250  0.56259250
   0.48863704  0.29621336  0.46039914
   0.31287088  0.50881001  0.60003681
   0.37183764  0.60352479  0.55064741
   0.49643597  0.38744870  0.37122918
   0.41115226  0.60185957  0.43496728
   0.46303021  0.59106375  0.32330299
   0.32536073  0.39824819  0.54760619
   0.51197294  0.48020571  0.29340148
   0.40043408  0.38869057  0.45075324
   0.35050864  0.50208819  0.48066192
   0.41881390  0.48644050  0.37765018
Direct configuration=     3
   0.66980178  0.54606029  0.55328381
   0.56461961  0.58486801  0.60810507
   0.45082609  0.61786995  0.64489317
   0.59237120  0.46231982  0.60450322
   0.49503269  0.50344237  0.67305794
   0.60594537  0.63970487  0.50378023
   0.64327497  0.43950905  0.49025578
   0.66353569  0.54658928  0.42945785
   0.48444122  0.65573054  0.53158810
   0.37695022  0.53782028  0.70176480
   0.56242330  0.35881357  0.54381291
   0.51156477  0.38060745  0.65481374
   0.64433685  0.66406133  0.38845418
   0.59840017  0.34217265  0.42519874
   0.39659891  0.42572080  0.64864822
   0.52253897  0.65296478  0.41233166
   0.61029086  0.45136953  0.36783845
   0.58724255  0.57038728  0.33133637
   0.43594365  0.34147334  0.56273942
   0.48859352  0.29585365  0.46022545
   0.31250876  0.50886377  0.60018669
   0.37154200  0.60370447  0.55088397
   0.49653499  0.38724106  0.37117103
   0.41096044  0.60197743  0.43495301
   0.46297305  0.59124185  0.32291821
   0.32501206  0.39803772  0.54763933
   0.51194060  0.48008295  0.29297931
   0.40030911  0.38853375  0.45072690
   0.35029989  0.50200389  0.48069390
   0.41880899  0.48655359  0.37742581
Direct configuration=     4
   0.67067857  0.54596610  0.55372167
   0.56471976  0.58513133  0.60847472
   0.45065890  0.61836662  0.64555103
   0.59254533  0.46231762  0.60476377
   0.49501017  0.50346410  0.67361017
   0.60636938  0.63996874  0.50367876
   0.64364607  0.43928977  0.49031864
   0.66389414  0.54694388  0.42929286
   0.48439037  0.65610341  0.53152995
   0.37671751  0.53800601  0.70214114
   0.56240774  0.35833075  0.54367884
   0.51188365  0.38022402  0.65541412
   0.64472692  0.66460090  0.38817022
   0.59897273  0.34163341  0.42486841
   0.39618037  0.42576450  0.64896245
   0.52284896  0.65329135  0.41176312
   0.61042008  0.45119614  0.36746349
   0.58731555  0.57076993  0.33113143
   0.43589444  0.34111502  0.56303326
   0.48850648  0.29513424  0.45987807
   0.31178452  0.50897129  0.60048644
   0.37095073  0.60406383  0.55135709
   0.49673302  0.38682578  0.37105473
   0.41057679  0.60221316  0.43492449
   0.46285874  0.59159805  0.32214866
   0.32431472  0.39761677  0.54770560
   0.51187592  0.47983742  0.29213496
   0.40005915  0.38822012  0.45067422
   0.34988239  0.50183529  0.48075787
   0.41879916  0.48677976  0.37697707
Direct configuration=     5
   0.67243214  0.54577774  0.55459740
   0.56492006  0.58565799  0.60921400
   0.45032452  0.61935997  0.64686675
   0.59289359  0.46231324  0.60528487
   0.49496511  0.50350756  0.67471464
   0.60721741  0.64049647  0.50347583
   0.64438828  0.43885121  0.49044437
   0.66461105  0.54765307  0.42896287
   0.48428867  0.65684915  0.53141364
   0.37625210  0.53837746  0.70289382
   0.56237663  0.35736510  0.54341070
   0.51252143  0.37945715  0.65661487
   0.64550706  0.66568005  0.38760229
   0.60011785  0.34055493  0.42420776
   0.39534328  0.42585189  0.64959093
   0.52346893  0.65394450  0.41062604
   0.61067851  0.45084938  0.36671356
   0.58746157  0.57153522  0.33072155
   0.43579602  0.34039838  0.56362094
   0.48833240  0.29369541  0.45918331
   0.31033603  0.50918633  0.60108595
   0.36976817  0.60478256  0.55230334
   0.49712910  0.38599523  0.37082214
   0.40980951  0.60268461  0.43486745
   0.46263011  0.59231045  0.32060955
   0.32292004  0.39677487  0.54783815
   0.51174657  0.47934636  0.29044628
   0.39955925  0.38759287  0.45056887
   0.34904739  0.50149808  0.48088580
   0.41877952  0.48723209  0.37607959
Direct configuration=     6
   0.67305705  0.54571061  0.55490947
   0.56499144  0.58584567  0.60947746
   0.45020536  0.61971396  0.64733562
   0.59301769  0.46231167  0.60547057
   0.49494906  0.50352305  0.67510822
   0.60751962  0.64068453  0.50340352
   0.64465278  0.43869493  0.49048918
   0.66486653  0.54790580  0.42884528
   0.48425242  0.65711490  0.53137219
   0.37608625  0.53850983  0.70316205
   0.56236554  0.35702098  0.54331515
   0.51274870  0.37918386  0.65704277
   0.64578508  0.66606462  0.38739991
   0.60052592  0.34017060  0.42397233
   0.39504497  0.42588303  0.64981490
   0.52368987  0.65417725  0.41022082
   0.61077060  0.45072580  0.36644632
   0.58751360  0.57180794  0.33057549
   0.43576095  0.34014300  0.56383036
   0.48827037  0.29318266  0.45893572
   0.30981984  0.50926297  0.60129960
   0.36934676  0.60503869  0.55264055
   0.49727024  0.38569925  0.37073925
   0.40953608  0.60285262  0.43484712
   0.46254863  0.59256432  0.32006107
   0.32242303  0.39647485  0.54788539
   0.51170048  0.47917136  0.28984449
   0.39938110  0.38736934  0.45053132
   0.34874982  0.50137791  0.48093139
   0.41877251  0.48739329  0.37575976
Direct configuration=     7
   0.67306249  0.54580879  0.55486197
   0.56514500  0.58590761  0.60947984
   0.45026509  0.61995002  0.64739327
   0.59294143  0.46215146  0.60547741
   0.49489702  0.50351854  0.67533647
   0.60764609  0.64050419  0.50346342
   0.64471802  0.43871509  0.49034669
   0.66491969  0.54781189  0.42896150
   0.48423320  0.65697433  0.53137611
   0.37594897  0.53859223  0.70318703
   0.56234522  0.35701145  0.54333151
   0.51256801  0.37930301  0.65692758
   0.64598435  0.66632591  0.38724871
   0.60056434  0.33997911  0.42391942
   0.39509767  0.42580704  0.64982294
   0.52354840  0.65419634  0.41019219
   0.61079164  0.45090029  0.36640894
   0.58737010  0.57165556  0.33040328
   0.43571600  0.34010504  0.56389105
   0.48833159  0.29306850  0.45884564
   0.30953972  0.50907230  0.60134944
   0.36925134  0.60511430  0.55277472
   0.49735549  0.38578739  0.37065207
   0.40962218  0.60296919  0.43479677
   0.46257908  0.59265713  0.31996319
   0.32236513  0.39644877  0.54806362
   0.51180522  0.47921666  0.28979357
   0.39940076  0.38741589  0.45050788
   0.34872102  0.50140129  0.48107065
   0.41888804  0.48720997  0.37582035
Direct configuration=     8
   0.67306524  0.54585833  0.55483800
   0.56522248  0.58593886  0.60948104
   0.45029524  0.62006913  0.64742236
   0.59290295  0.46207062  0.60548086
   0.49487076  0.50351627  0.67545163
   0.60770990  0.64041320  0.50349365
   0.64475094  0.43872526  0.49027480
   0.66494651  0.54776451  0.42902015
   0.48422350  0.65690341  0.53137809
   0.37587970  0.53863380  0.70319963
   0.56233496  0.35700664  0.54333977
   0.51247684  0.37936313  0.65686946
   0.64608490  0.66645775  0.38717242
   0.60058372  0.33988250  0.42389272
   0.39512426  0.42576869  0.64982700
   0.52347702  0.65420598  0.41017774
   0.61080226  0.45098832  0.36639007
   0.58729770  0.57157868  0.33031639
   0.43569332  0.34008589  0.56392167
   0.48836248  0.29301091  0.45880019
   0.30939838  0.50897610  0.60137459
   0.36920320  0.60515245  0.55284242
   0.49739850  0.38583186  0.37060809
   0.40966563  0.60302801  0.43477137
   0.46259444  0.59270395  0.31991381
   0.32233591  0.39643561  0.54815355
   0.51185807  0.47923952  0.28976787
   0.39941068  0.38743938  0.45049605
   0.34870649  0.50141309  0.48114091
   0.41894632  0.48711748  0.37585093
Direct configuration=     9
   0.67300840  0.54584945  0.55482315
   0.56526302  0.58590429  0.60952781
   0.45036720  0.62014781  0.64744559
   0.59285307  0.46203604  0.60542916
   0.49484643  0.50360553  0.67556221
   0.60772202  0.64031453  0.50338639
   0.64472676  0.43870617  0.49020122
   0.66492628  0.54778746  0.42900788
   0.48424153  0.65673837  0.53137167
   0.37581541  0.53869146  0.70309788
   0.56232260  0.35702441  0.54329258
   0.51233600  0.37946308  0.65675694
   0.64605234  0.66643405  0.38712729
   0.60055781  0.33984900  0.42386331
   0.39513622  0.42578718  0.64983283
   0.52352568  0.65420424  0.41021928
   0.61081398  0.45104340  0.36642792
   0.58731072  0.57159580  0.33031347
   0.43565737  0.34005092  0.56385673
   0.48840126  0.29302902  0.45877831
   0.30927056  0.50887877  0.60141242
   0.36916187  0.60510880  0.55291267
   0.49748145  0.38588866  0.37059163
   0.40970322  0.60303195  0.43479048
   0.46258457  0.59270718  0.31990394
   0.32238605  0.39641605  0.54824051
   0.51189201  0.47927949  0.28976920
   0.39944715  0.38746527  0.45055428
   0.34876052  0.50147607  0.48123621
   0.41905079  0.48706485  0.37593432
Direct configuration=    10
   0.67283790  0.54582282  0.55477858
   0.56538464  0.58580058  0.60966812
   0.45058311  0.62038388  0.64751528
   0.59270346  0.46193230  0.60527404
   0.49477346  0.50387330  0.67589394
   0.60775838  0.64001853  0.50306461
   0.64465424  0.43864888  0.48998047
   0.66486560  0.54785630  0.42897108
   0.48429564  0.65624327  0.53135241
   0.37562252  0.53886446  0.70279262
   0.56228551  0.35707772  0.54315103
   0.51191346  0.37976294  0.65641936
   0.64595463  0.66636296  0.38699189
   0.60048008  0.33974850  0.42377508
   0.39517209  0.42584263  0.64985030
   0.52367169  0.65419904  0.41034390
   0.61084912  0.45120864  0.36654146
   0.58734977  0.57164715  0.33030469
   0.43554949  0.33994602  0.56366190
   0.48851761  0.29308338  0.45871266
   0.30888709  0.50858679  0.60152588
   0.36903788  0.60497785  0.55312345
   0.49773028  0.38605906  0.37054224
   0.40981601  0.60304380  0.43484779
   0.46255498  0.59271684  0.31987432
   0.32253647  0.39635739  0.54850138
   0.51199384  0.47939939  0.28977321
   0.39955656  0.38754293  0.45072897
   0.34892261  0.50166501  0.48152210
   0.41936420  0.48690695  0.37618449
Direct configuration=    11
   0.67249689  0.54576956  0.55468945
   0.56562789  0.58559317  0.60994872
   0.45101491  0.62085601  0.64765466
   0.59240422  0.46172482  0.60496379
   0.49462750  0.50440885  0.67655739
   0.60783111  0.63942652  0.50242106
   0.64450920  0.43853430  0.48953897
   0.66474423  0.54799398  0.42889748
   0.48440384  0.65525306  0.53131388
   0.37523676  0.53921047  0.70218210
   0.56221133  0.35718433  0.54286792
   0.51106839  0.38036266  0.65574420
   0.64575923  0.66622077  0.38672110
   0.60032462  0.33954751  0.42359861
   0.39524384  0.42595354  0.64988526
   0.52396369  0.65418864  0.41059313
   0.61091940  0.45153911  0.36676854
   0.58742786  0.57174985  0.33028714
   0.43533373  0.33973623  0.56327226
   0.48875031  0.29319209  0.45858137
   0.30812014  0.50800282  0.60175282
   0.36878989  0.60471595  0.55354501
   0.49822794  0.38639988  0.37044347
   0.41004158  0.60306748  0.43496243
   0.46249578  0.59273617  0.31981509
   0.32283731  0.39624006  0.54902311
   0.51219749  0.47963919  0.28978122
   0.39977538  0.38769827  0.45107834
   0.34924679  0.50204288  0.48209390
   0.41999101  0.48659115  0.37668482
Direct configuration=    12
   0.67247591  0.54571785  0.55467505
   0.56568116  0.58558859  0.60998393
   0.45106040  0.62094599  0.64770981
   0.59233671  0.46171435  0.60492407
   0.49462592  0.50447735  0.67666929
   0.60783576  0.63932342  0.50242564
   0.64450158  0.43853655  0.48950490
   0.66477127  0.54798717  0.42889496
   0.48442316  0.65508453  0.53130778
   0.37517230  0.53932132  0.70205612
   0.56217609  0.35718494  0.54282348
   0.51099852  0.38044706  0.65565650
   0.64580257  0.66627421  0.38662394
   0.60036690  0.33949805  0.42354063
   0.39520747  0.42600962  0.64990484
   0.52391160  0.65417789  0.41055555
   0.61093026  0.45156834  0.36676451
   0.58740373  0.57175370  0.33023591
   0.43531570  0.33966686  0.56324418
   0.48876356  0.29317753  0.45853220
   0.30794607  0.50793632  0.60178628
   0.36876093  0.60467352  0.55367876
   0.49827448  0.38642575  0.37044482
   0.41007525  0.60306711  0.43499463
   0.46249535  0.59275539  0.31983797
   0.32284651  0.39620477  0.54907131
   0.51223874  0.47968344  0.28975933
   0.39982026  0.38773475  0.45110553
   0.34930458  0.50203380  0.48217563
   0.42009955  0.48660912  0.37677969
Direct configuration=    13
   0.67242193  0.54558483  0.55463802
   0.56581823  0.58557681  0.61007452
   0.45117742  0.62117747  0.64785171
   0.59216302  0.46168742  0.60482187
   0.49462186  0.50465359  0.67695718
   0.60784771  0.63905818  0.50243741
   0.64448198  0.43854235  0.48941723
   0.66484083  0.54796965  0.42888847
   0.48447287  0.65465092  0.53129209
   0.37500645  0.53960654  0.70173200
   0.56208542  0.35718651  0.54270913
   0.51081873  0.38066422  0.65543086
   0.64591408  0.66641171  0.38637398
   0.60047568  0.33937080  0.42339147
   0.39511391  0.42615392  0.64995524
   0.52377758  0.65415023  0.41045886
   0.61095821  0.45164353  0.36675414
   0.58734163  0.57176359  0.33010412
   0.43526930  0.33948837  0.56317194
   0.48879765  0.29314007  0.45840569
   0.30749821  0.50776522  0.60187236
   0.36868641  0.60456438  0.55402288
   0.49839421  0.38649234  0.37044828
   0.41016188  0.60306615  0.43507747
   0.46249425  0.59280483  0.31989684
   0.32287017  0.39611397  0.54919533
   0.51234487  0.47979729  0.28970301
   0.39993571  0.38782862  0.45117546
   0.34945327  0.50201044  0.48238593
   0.42037881  0.48665533  0.37702374
Direct configuration=    14
   0.67231397  0.54531878  0.55456396
   0.56609237  0.58555325  0.61025570
   0.45141146  0.62164045  0.64813552
   0.59181563  0.46163356  0.60461748
   0.49461373  0.50500607  0.67753296
   0.60787162  0.63852770  0.50246096
   0.64444277  0.43855396  0.48924189
   0.66497995  0.54793460  0.42887549
   0.48457230  0.65378372  0.53126070
   0.37467475  0.54017697  0.70108376
   0.56190409  0.35718966  0.54248044
   0.51045917  0.38109854  0.65497959
   0.64613709  0.66668671  0.38587405
   0.60069324  0.33911630  0.42309315
   0.39492678  0.42644252  0.65005602
   0.52350955  0.65409491  0.41026547
   0.61101411  0.45179393  0.36673341
   0.58721745  0.57178338  0.32984054
   0.43517650  0.33913141  0.56302745
   0.48886582  0.29306514  0.45815267
   0.30660249  0.50742303  0.60204453
   0.36853738  0.60434609  0.55471111
   0.49863368  0.38662550  0.37045520
   0.41033513  0.60306425  0.43524315
   0.46249203  0.59290371  0.32001458
   0.32291750  0.39593239  0.54944336
   0.51255714  0.48002498  0.28959038
   0.40016663  0.38801635  0.45131534
   0.34975063  0.50196371  0.48280653
   0.42093733  0.48674775  0.37751186
Direct configuration=    15
   0.67244543  0.54511044  0.55459294
   0.56610625  0.58561073  0.61036468
   0.45150465  0.62179034  0.64830503
   0.59170900  0.46172250  0.60458115
   0.49464701  0.50505075  0.67762442
   0.60782825  0.63850211  0.50241822
   0.64442541  0.43851639  0.48929950
   0.66510119  0.54797770  0.42876838
   0.48459254  0.65357878  0.53126045
   0.37458661  0.54046921  0.70082992
   0.56182871  0.35715074  0.54234244
   0.51053092  0.38114343  0.65500061
   0.64613570  0.66672181  0.38579407
   0.60089089  0.33906497  0.42298999
   0.39478561  0.42660664  0.65008087
   0.52355359  0.65413515  0.41014921
   0.61103774  0.45173112  0.36662456
   0.58726606  0.57188938  0.32977608
   0.43516675  0.33898439  0.56311622
   0.48883680  0.29297072  0.45801440
   0.30622776  0.50741810  0.60201270
   0.36855680  0.60421768  0.55500148
   0.49861953  0.38659294  0.37049200
   0.41021803  0.60301209  0.43546399
   0.46243619  0.59293849  0.32002749
   0.32284862  0.39583001  0.54936564
   0.51255530  0.48001023  0.28952313
   0.40023757  0.38803223  0.45131800
   0.34982517  0.50182117  0.48291451
   0.42111820  0.48697905  0.37761519
Direct configuration=    16
   0.67269891  0.54470871  0.55464882
   0.56613300  0.58572157  0.61057481
   0.45168434  0.62207937  0.64863188
   0.59150339  0.46189401  0.60451111
   0.49471118  0.50513692  0.67780078
   0.60774463  0.63845277  0.50233582
   0.64439193  0.43844396  0.48941058
   0.66533496  0.54806079  0.42856183
   0.48463158  0.65318362  0.53125996
   0.37441667  0.54103271  0.70034044
   0.56168335  0.35707569  0.54207633
   0.51066929  0.38123000  0.65504115
   0.64613303  0.66678948  0.38563983
   0.60127203  0.33896600  0.42279107
   0.39451341  0.42692312  0.65012879
   0.52363852  0.65421275  0.40992502
   0.61108330  0.45161001  0.36641469
   0.58735980  0.57209377  0.32965178
   0.43514794  0.33870090  0.56328739
   0.48878084  0.29278865  0.45774778
   0.30550520  0.50740861  0.60195132
   0.36859424  0.60397007  0.55556137
   0.49859225  0.38653015  0.37056296
   0.40999222  0.60291151  0.43588982
   0.46232851  0.59300556  0.32005237
   0.32271580  0.39563261  0.54921577
   0.51255177  0.47998179  0.28939346
   0.40037437  0.38806284  0.45132313
   0.34996889  0.50154631  0.48312273
   0.42146695  0.48742507  0.37781442
Direct configuration=    17
   0.67320587  0.54390524  0.55476059
   0.56618650  0.58594324  0.61099508
   0.45204373  0.62265742  0.64928559
   0.59109218  0.46223702  0.60437104
   0.49483953  0.50530926  0.67815349
   0.60757739  0.63835409  0.50217101
   0.64432497  0.43829909  0.48963276
   0.66580252  0.54822698  0.42814873
   0.48470966  0.65239328  0.53125899
   0.37407677  0.54215971  0.69936150
   0.56139263  0.35692558  0.54154413
   0.51094603  0.38140314  0.65512221
   0.64612769  0.66692484  0.38533136
   0.60203429  0.33876806  0.42239323
   0.39396900  0.42755607  0.65022464
   0.52380836  0.65436794  0.40947664
   0.61117442  0.45136780  0.36599495
   0.58754728  0.57250255  0.32940319
   0.43511032  0.33813392  0.56362973
   0.48866893  0.29242450  0.45721454
   0.30406009  0.50738961  0.60182856
   0.36866911  0.60347485  0.55668116
   0.49853768  0.38640456  0.37070490
   0.40954060  0.60271036  0.43674148
   0.46211314  0.59313970  0.32010214
   0.32245016  0.39523780  0.54891604
   0.51254470  0.47992490  0.28913411
   0.40064797  0.38812407  0.45133339
   0.35025633  0.50099661  0.48353917
   0.42216445  0.48831711  0.37821290
Direct configuration=    18
   0.67328582  0.54384393  0.55469445
   0.56634638  0.58605272  0.61105510
   0.45235487  0.62299260  0.64955192
   0.59092560  0.46230106  0.60428030
   0.49475619  0.50534237  0.67822838
   0.60763261  0.63819589  0.50213285
   0.64428513  0.43825956  0.48955314
   0.66594884  0.54817416  0.42805451
   0.48471011  0.65213117  0.53127227
   0.37388367  0.54258301  0.69889699
   0.56124401  0.35694233  0.54136979
   0.51090357  0.38146350  0.65513925
   0.64613949  0.66698651  0.38532488
   0.60218142  0.33872821  0.42230141
   0.39390747  0.42774102  0.65011930
   0.52374991  0.65441027  0.40943722
   0.61123359  0.45136004  0.36587297
   0.58756061  0.57248611  0.32925633
   0.43508323  0.33802086  0.56379524
   0.48868009  0.29230966  0.45703780
   0.30348261  0.50727779  0.60169579
   0.36877219  0.60315533  0.55715503
   0.49857777  0.38640736  0.37073830
   0.40943948  0.60273484  0.43704302
   0.46203807  0.59326158  0.32014363
   0.32239573  0.39509503  0.54884057
   0.51255494  0.47991631  0.28914947
   0.40078597  0.38810841  0.45135637
   0.35034049  0.50083202  0.48374208
   0.42242242  0.48846566  0.37842889
Direct configuration=    19
   0.67352568  0.54366000  0.55449600
   0.56682603  0.58638117  0.61123518
   0.45328829  0.62399811  0.65035092
   0.59042587  0.46249319  0.60400808
   0.49450620  0.50544171  0.67845306
   0.60779825  0.63772130  0.50201837
   0.64416562  0.43814096  0.48931429
   0.66638781  0.54801569  0.42777184
   0.48471146  0.65134483  0.53131210
   0.37330437  0.54385291  0.69750345
   0.56079816  0.35699258  0.54084678
   0.51077621  0.38164456  0.65519038
   0.64617489  0.66717154  0.38530543
   0.60262280  0.33860868  0.42202594
   0.39372290  0.42829589  0.64980330
   0.52357455  0.65453729  0.40931896
   0.61141111  0.45133675  0.36550702
   0.58760060  0.57243679  0.32881573
   0.43500197  0.33768165  0.56429177
   0.48871359  0.29196514  0.45650760
   0.30175018  0.50694233  0.60129748
   0.36908143  0.60219676  0.55857662
   0.49869802  0.38641574  0.37083852
   0.40913610  0.60280828  0.43794765
   0.46181286  0.59362723  0.32026809
   0.32223244  0.39466671  0.54861417
   0.51258565  0.47989053  0.28919555
   0.40119996  0.38806143  0.45142530
   0.35059296  0.50033823  0.48435083
   0.42319632  0.48891132  0.37907685
Direct configuration=    20
   0.67400540  0.54329214  0.55409912
   0.56778532  0.58703806  0.61159533
   0.45515512  0.62600915  0.65194892
   0.58942640  0.46287744  0.60346365
   0.49400620  0.50564038  0.67890240
   0.60812955  0.63677213  0.50178940
   0.64392659  0.43790377  0.48883657
   0.66726575  0.54769875  0.42720649
   0.48471415  0.64977216  0.53139176
   0.37214577  0.54639272  0.69471637
   0.55990645  0.35709308  0.53980074
   0.51052148  0.38200669  0.65529264
   0.64624570  0.66754159  0.38526653
   0.60350555  0.33836963  0.42147501
   0.39335376  0.42940561  0.64917131
   0.52322384  0.65479132  0.40908245
   0.61176614  0.45129017  0.36477513
   0.58768057  0.57233814  0.32793452
   0.43483945  0.33700325  0.56528483
   0.48878058  0.29127610  0.45544719
   0.29828533  0.50627142  0.60050087
   0.36969991  0.60027962  0.56141980
   0.49893853  0.38643250  0.37103897
   0.40852936  0.60295517  0.43975691
   0.46136245  0.59435852  0.32051702
   0.32190587  0.39381007  0.54816136
   0.51264708  0.47983896  0.28928771
   0.40202794  0.38796746  0.45156316
   0.35109790  0.49935066  0.48556832
   0.42474413  0.48980265  0.38037279
Direct configuration=    21
   0.67402222  0.54326388  0.55401115
   0.56795460  0.58708511  0.61167198
   0.45555219  0.62636901  0.65220612
   0.58928468  0.46291206  0.60329893
   0.49386625  0.50577853  0.67890474
   0.60816409  0.63660321  0.50167818
   0.64387837  0.43790553  0.48872741
   0.66734792  0.54763537  0.42708870
   0.48475462  0.64953014  0.53146069
   0.37193625  0.54675039  0.69406824
   0.55972644  0.35717943  0.53967760
   0.51041539  0.38208770  0.65525893
   0.64618279  0.66750219  0.38528999
   0.60353839  0.33833961  0.42141285
   0.39330455  0.42962239  0.64898153
   0.52319439  0.65479825  0.40915622
   0.61183990  0.45131160  0.36468029
   0.58770157  0.57234701  0.32785934
   0.43480295  0.33691777  0.56532985
   0.48881191  0.29119527  0.45537152
   0.29774438  0.50605515  0.60039900
   0.36989944  0.59989772  0.56196930
   0.49905415  0.38645929  0.37105381
   0.40845335  0.60298320  0.43997253
   0.46129406  0.59446404  0.32058979
   0.32189635  0.39364192  0.54815198
   0.51262848  0.47987801  0.28934572
   0.40217846  0.38791515  0.45165670
   0.35121238  0.49930202  0.48574021
   0.42498177  0.48984836  0.38065400
Direct configuration=    22
   0.67407267  0.54317911  0.55374726
   0.56846244  0.58722624  0.61190193
   0.45674339  0.62744858  0.65297772
   0.58885950  0.46301591  0.60280477
   0.49344641  0.50619299  0.67891175
   0.60826773  0.63609644  0.50134452
   0.64373373  0.43791081  0.48839993
   0.66759443  0.54744526  0.42673532
   0.48487604  0.64880411  0.53166748
   0.37130766  0.54782342  0.69212385
   0.55918642  0.35743847  0.53930819
   0.51009712  0.38233073  0.65515779
   0.64599407  0.66738399  0.38536036
   0.60363691  0.33824956  0.42122635
   0.39315691  0.43027273  0.64841220
   0.52310605  0.65481904  0.40937751
   0.61206116  0.45137589  0.36439577
   0.58776457  0.57237362  0.32763379
   0.43469346  0.33666132  0.56546489
   0.48890591  0.29095277  0.45514451
   0.29612154  0.50540634  0.60009337
   0.37049802  0.59875204  0.56361780
   0.49940100  0.38653966  0.37109832
   0.40822530  0.60306732  0.44061938
   0.46108888  0.59478057  0.32080809
   0.32186780  0.39313746  0.54812383
   0.51257269  0.47999516  0.28951973
   0.40263000  0.38775819  0.45193733
   0.35155581  0.49915609  0.48625588
   0.42569467  0.48998549  0.38149763
Direct configuration=    23
   0.67417356  0.54300957  0.55321948
   0.56947810  0.58750851  0.61236183
   0.45912578  0.62960773  0.65452092
   0.58800916  0.46322362  0.60181645
   0.49260672  0.50702189  0.67892579
   0.60847501  0.63508289  0.50067721
   0.64344443  0.43792137  0.48774497
   0.66808745  0.54706502  0.42602858
   0.48511887  0.64735203  0.53208106
   0.37005050  0.54996948  0.68823508
   0.55810637  0.35795656  0.53856936
   0.50946057  0.38281678  0.65495551
   0.64561663  0.66714759  0.38550109
   0.60383395  0.33806947  0.42085337
   0.39286163  0.43157339  0.64727355
   0.52292936  0.65486064  0.40982010
   0.61250368  0.45150449  0.36382672
   0.58789057  0.57242683  0.32718268
   0.43447448  0.33614841  0.56573497
   0.48909392  0.29046778  0.45469048
   0.29287585  0.50410872  0.59948213
   0.37169517  0.59646067  0.56691480
   0.50009471  0.38670040  0.37118735
   0.40776921  0.60323556  0.44191309
   0.46067854  0.59541363  0.32124468
   0.32181070  0.39212856  0.54806754
   0.51246111  0.48022945  0.28986776
   0.40353309  0.38744429  0.45249859
   0.35224267  0.49886423  0.48728722
   0.42712049  0.49025975  0.38318490
Direct configuration=    24
   0.67414070  0.54306478  0.55339136
   0.56914733  0.58741658  0.61221205
   0.45834991  0.62890456  0.65401834
   0.58828609  0.46315598  0.60213832
   0.49288018  0.50675194  0.67892122
   0.60840750  0.63541297  0.50089453
   0.64353865  0.43791793  0.48795827
   0.66792689  0.54718885  0.42625874
   0.48503978  0.64782493  0.53194637
   0.37045992  0.54927057  0.68950153
   0.55845811  0.35778783  0.53880998
   0.50966787  0.38265849  0.65502138
   0.64573955  0.66722458  0.38545526
   0.60376978  0.33812812  0.42097484
   0.39295780  0.43114981  0.64764437
   0.52298690  0.65484709  0.40967596
   0.61235956  0.45146261  0.36401204
   0.58784954  0.57240950  0.32732959
   0.43454580  0.33631545  0.56564702
   0.48903269  0.29062572  0.45483834
   0.29393287  0.50453131  0.59968119
   0.37130529  0.59720690  0.56584107
   0.49986879  0.38664805  0.37115835
   0.40791775  0.60318077  0.44149177
   0.46081218  0.59520746  0.32110250
   0.32182929  0.39245713  0.54808587
   0.51249745  0.48015315  0.28975442
   0.40323898  0.38754652  0.45231580
   0.35201898  0.49895928  0.48695134
   0.42665615  0.49017043  0.38263540
Direct configuration=    25
   0.67403829  0.54301695  0.55337449
   0.56918848  0.58723278  0.61225248
   0.45835005  0.62885649  0.65406026
   0.58836051  0.46312335  0.60199688
   0.49283115  0.50698067  0.67865176
   0.60826336  0.63543236  0.50087409
   0.64351486  0.43799838  0.48797399
   0.66780288  0.54720383  0.42620395
   0.48517028  0.64788833  0.53213865
   0.37058149  0.54916612  0.68920560
   0.55840835  0.35794757  0.53891116
   0.50952811  0.38282139  0.65489203
   0.64562303  0.66704323  0.38539750
   0.60356265  0.33813767  0.42108518
   0.39296016  0.43120797  0.64741285
   0.52298911  0.65473078  0.40990622
   0.61236686  0.45146342  0.36401365
   0.58780088  0.57251204  0.32753424
   0.43453522  0.33631069  0.56535851
   0.48907300  0.29067685  0.45511677
   0.29408485  0.50430252  0.59967869
   0.37158853  0.59716251  0.56575363
   0.49993936  0.38667477  0.37115012
   0.40795895  0.60314426  0.44131952
   0.46084819  0.59507534  0.32123705
   0.32188567  0.39243244  0.54819208
   0.51240812  0.48032952  0.28982732
   0.40325977  0.38752547  0.45245629
   0.35208370  0.49916843  0.48693387
   0.42661641  0.49001317  0.38275842
Direct configuration=    26
   0.67394567  0.54297369  0.55335924
   0.56922569  0.58706656  0.61228903
   0.45835019  0.62881302  0.65409817
   0.58842781  0.46309385  0.60186897
   0.49278681  0.50718753  0.67840807
   0.60813300  0.63544989  0.50085560
   0.64349335  0.43807114  0.48798819
   0.66769073  0.54721737  0.42615439
   0.48528829  0.64794568  0.53231255
   0.37069144  0.54907165  0.68893797
   0.55836336  0.35809203  0.53900267
   0.50940172  0.38296872  0.65477505
   0.64551764  0.66687922  0.38534526
   0.60337534  0.33814631  0.42118497
   0.39296230  0.43126058  0.64720347