unknown system                          
           1
    22.591684    0.000000    0.000000
     0.000000   22.591684    0.000000
     0.000000    0.000000   22.591684
   Ag
  47
Direct configuration=     1
   0.31541416  0.58909926  0.48519995
   0.50784215  0.72693335  0.55078867
   0.35285330  0.60332880  0.60910973
   0.55804150  0.61764195  0.68256951
   0.38034972  0.64307957  0.38813381
   0.40994303  0.66054635  0.51660097
   0.45276167  0.66552000  0.64067729
   0.47018379  0.72784783  0.43094979
   0.42663416  0.72990491  0.31816899
   0.61314050  0.68527918  0.59228334
   0.31404093  0.46893404  0.48216241
   0.57030055  0.50616633  0.72638845
   0.58011756  0.67927251  0.46403889
   0.32692200  0.48394891  0.60075287
   0.47586295  0.43225280  0.71057772
   0.52704656  0.60001675  0.55146122
   0.38227347  0.52133782  0.39363674
   0.66798791  0.57774971  0.63935993
   0.45782021  0.54142154  0.65313385
   0.37513817  0.38930730  0.66046883
   0.41923512  0.53424535  0.52440916
   0.48566978  0.59018404  0.43552326
   0.52204507  0.65698038  0.33992460
   0.37617571  0.39091752  0.41502235
   0.46262073  0.43689777  0.57842370
   0.57060869  0.50224378  0.60330357
   0.45410220  0.44792288  0.32776625
   0.35757655  0.36629650  0.54061050
   0.53920742  0.53500155  0.33623920
   0.67353891  0.61479202  0.51592140
   0.63248709  0.60809486  0.38203770
   0.59022518  0.52076724  0.46690613
   0.47908558  0.45669569  0.45068709
   0.56768417  0.41260443  0.52065070
   0.46231277  0.31893052  0.61690867
   0.69150061  0.49140181  0.55343833
   0.66481366  0.45371386  0.66837964
   0.56602958  0.38250406  0.64858226
   0.46177706  0.32553005  0.49235196
   0.48138238  0.34130081  0.37591440
   0.67081292  0.36815201  0.57556365
   0.57260066  0.41798681  0.36658067
   0.65777014  0.49463376  0.34611501
   0.71781773  0.53154032  0.44355693
   0.67469996  0.41308711  0.45233977
   0.58782667  0.31949683  0.44022784
   0.56979748  0.29412355  0.55811080
Direct configuration=     2
   0.31536913  0.58920205  0.48511334
   0.50776399  0.72711706  0.55071513
   0.35280228  0.60330507  0.60909186
   0.55801140  0.61761594  0.68241387
   0.38032810  0.64315858  0.38822480
   0.41001986  0.66059718  0.51657750
   0.45277315  0.66560321  0.64066475
   0.47018884  0.72782264  0.43098145
   0.42660187  0.72993269  0.31813618
   0.61317986  0.68531556  0.59239042
   0.31391408  0.46881197  0.48214850
   0.57032176  0.50615387  0.72646414
   0.58000781  0.67923468  0.46405138
   0.32705367  0.48385805  0.60074589
   0.47585082  0.43216413  0.71053714
   0.52699927  0.60014274  0.55151282
   0.38227161  0.52135305  0.39377882
   0.66794072  0.57776063  0.63934499
   0.45785055  0.54139655  0.65298375
   0.37500973  0.38935863  0.66043628
   0.41917078  0.53437480  0.52449538
   0.48569134  0.59013250  0.43551065
   0.52214104  0.65708818  0.33993425
   0.37623636  0.39088962  0.41503634
   0.46252089  0.43680362  0.57854231
   0.57063139  0.50227008  0.60331113
   0.45409302  0.44793378  0.32767024
   0.35752547  0.36645702  0.54065126
   0.53923693  0.53499770  0.33630770
   0.67343025  0.61465872  0.51592412
   0.63243690  0.60806922  0.38206667
   0.59029010  0.52084839  0.46693462
   0.47909624  0.45670563  0.45057237
   0.56780393  0.41244675  0.52057772
   0.46241547  0.31890557  0.61698559
   0.69137668  0.49132464  0.55344215
   0.66491918  0.45363833  0.66841073
   0.56612643  0.38238750  0.64856979
   0.46198146  0.32564156  0.49240749
   0.48137838  0.34109918  0.37585924
   0.67075586  0.36819744  0.57556253
   0.57259004  0.41796458  0.36674085
   0.65794806  0.49461891  0.34601569
   0.71788339  0.53159335  0.44341688
   0.67460565  0.41313436  0.45228410
   0.58778536  0.31950695  0.44021131
   0.56974896  0.29404178  0.55820439
Direct configuration=     3
   0.31523402  0.58951041  0.48485352
   0.50752953  0.72766818  0.55049454
   0.35264924  0.60323390  0.60903824
   0.55792109  0.61753791  0.68194697
   0.38026326  0.64339561  0.38849775
   0.41025038  0.66074965  0.51650707
   0.45280760  0.66585281  0.64062716
   0.47020397  0.72774706  0.43107642
   0.42650500  0.73001605  0.31803774
   0.61329795  0.68542471  0.59271165
   0.31353354  0.46844578  0.48210674
   0.57038542  0.50611650  0.72669120
   0.57967858  0.67912121  0.46408885
   0.32744870  0.48358547  0.60072497
   0.47581444  0.43189810  0.71041540
   0.52685741  0.60052072  0.55166764
   0.38226601  0.52139874  0.39420505
   0.66779914  0.57779339  0.63930015
   0.45794156  0.54132155  0.65253346
   0.37462440  0.38951262  0.66033865
   0.41897778  0.53476315  0.52475403
   0.48575603  0.58997787  0.43547283
   0.52242896  0.65741158  0.33996322
   0.37641830  0.39080593  0.41507831
   0.46222138  0.43652114  0.57889813
   0.57069949  0.50234899  0.60333382
   0.45406548  0.44796646  0.32738218
   0.35737224  0.36693857  0.54077354
   0.53932546  0.53498615  0.33651320
   0.67310425  0.61425883  0.51593228
   0.63228632  0.60799231  0.38215359
   0.59048483  0.52109183  0.46702010
   0.47912820  0.45673545  0.45022822
   0.56816321  0.41197372  0.52035876
   0.46272358  0.31883073  0.61721633
   0.69100490  0.49109313  0.55345359
   0.66523577  0.45341173  0.66850400
   0.56641698  0.38203780  0.64853240
   0.46259463  0.32597611  0.49257407
   0.48136641  0.34049427  0.37569375
   0.67058468  0.36833374  0.57555918
   0.57255819  0.41789788  0.36722139
   0.65848183  0.49457435  0.34571772
   0.71808039  0.53175245  0.44299672
   0.67432274  0.41327611  0.45211709
   0.58766141  0.31953732  0.44016172
   0.56960340  0.29379648  0.55848519
Direct configuration=     4
   0.31496379  0.59012715  0.48433387
   0.50706061  0.72877041  0.55005334
   0.35234316  0.60309154  0.60893100
   0.55774049  0.61738185  0.68101316
   0.38013359  0.64386968  0.38904366
   0.41071141  0.66105460  0.51636623
   0.45287651  0.66635201  0.64055197
   0.47023424  0.72759592  0.43126636
   0.42631124  0.73018275  0.31784087
   0.61353412  0.68564301  0.59335412
   0.31277245  0.46771339  0.48202323
   0.57051274  0.50604176  0.72714531
   0.57902012  0.67889425  0.46416379
   0.32823875  0.48304031  0.60068313
   0.47574166  0.43136606  0.71017191
   0.52657367  0.60127666  0.55197728
   0.38225482  0.52149011  0.39505750
   0.66751597  0.57785891  0.63921047
   0.45812358  0.54117155  0.65163287
   0.37385374  0.38982061  0.66014339
   0.41859176  0.53553984  0.52527134
   0.48588540  0.58966862  0.43539718
   0.52300478  0.65805837  0.34002116
   0.37678219  0.39063855  0.41516224
   0.46162236  0.43595618  0.57960978
   0.57083568  0.50250682  0.60337920
   0.45401040  0.44803184  0.32680608
   0.35706578  0.36790167  0.54101811
   0.53950251  0.53496305  0.33692421
   0.67245226  0.61345904  0.51594859
   0.63198517  0.60783848  0.38232742
   0.59087431  0.52157872  0.46719105
   0.47919214  0.45679509  0.44953993
   0.56888178  0.41102766  0.51992086
   0.46333979  0.31868104  0.61767781
   0.69026135  0.49063012  0.55347647
   0.66586894  0.45295852  0.66869053
   0.56699808  0.38133841  0.64845760
   0.46382098  0.32664521  0.49290722
   0.48134245  0.33928444  0.37536278
   0.67024233  0.36860634  0.57555246
   0.57249448  0.41776448  0.36818245
   0.65954938  0.49448522  0.34512177
   0.71847437  0.53207063  0.44215640
   0.67375691  0.41355962  0.45178308
   0.58741353  0.31959806  0.44006253
   0.56931227  0.29330588  0.55904678
Direct configuration=     5
   0.31442335  0.59136062  0.48329458
   0.50612276  0.73097489  0.54917095
   0.35173100  0.60280684  0.60871652
   0.55737929  0.61706973  0.67914554
   0.37987423  0.64481782  0.39013548
   0.41163347  0.66166449  0.51608455
   0.45301431  0.66735042  0.64040159
   0.47029477  0.72729363  0.43164625
   0.42592374  0.73051617  0.31744712
   0.61400646  0.68607961  0.59463905
   0.31125028  0.46624860  0.48185622
   0.57076737  0.50589229  0.72805355
   0.57770321  0.67844035  0.46431367
   0.32981886  0.48195000  0.60059945
   0.47559612  0.43030197  0.70968494
   0.52600620  0.60278854  0.55259655
   0.38223243  0.52167286  0.39676241
   0.66694964  0.57798995  0.63903111
   0.45848762  0.54087156  0.64983170
   0.37231242  0.39043658  0.65975286
   0.41781973  0.53709322  0.52630595
   0.48614416  0.58905010  0.43524590
   0.52415644  0.65935195  0.34013703
   0.37750996  0.39030379  0.41533011
   0.46042431  0.43482627  0.58103306
   0.57110808  0.50282247  0.60346997
   0.45390024  0.44816259  0.32565388
   0.35645286  0.36982788  0.54150724
   0.53985663  0.53491685  0.33774624
   0.67114829  0.61185947  0.51598122
   0.63138287  0.60753083  0.38267508
   0.59165327  0.52255249  0.46753296
   0.47932001  0.45691437  0.44816334
   0.57031892  0.40913555  0.51904504
   0.46457221  0.31838168  0.61860078
   0.68877424  0.48970409  0.55352224
   0.66713528  0.45205210  0.66906361
   0.56816028  0.37993962  0.64830800
   0.46627368  0.32798340  0.49357353
   0.48129455  0.33686479  0.37470084
   0.66955763  0.36915154  0.57553903
   0.57236707  0.41749767  0.37010459
   0.66168447  0.49430696  0.34392988
   0.71926235  0.53270701  0.44047576
   0.67262524  0.41412663  0.45111506
   0.58691776  0.31971954  0.43986415
   0.56873002  0.29232467  0.56016997
Direct configuration=     6
   0.31425950  0.59173457  0.48297950
   0.50583844  0.73164320  0.54890344
   0.35154541  0.60272053  0.60865150
   0.55726979  0.61697511  0.67857935
   0.37979561  0.64510526  0.39046648
   0.41191300  0.66184938  0.51599915
   0.45305609  0.66765310  0.64035600
   0.47031312  0.72720198  0.43176141
   0.42580626  0.73061725  0.31732775
   0.61414966  0.68621197  0.59502859
   0.31078882  0.46580453  0.48180559
   0.57084457  0.50584697  0.72832889
   0.57730397  0.67830274  0.46435911
   0.33029789  0.48161945  0.60057408
   0.47555200  0.42997937  0.70953730
   0.52583416  0.60324688  0.55278428
   0.38222564  0.52172827  0.39727927
   0.66677795  0.57802968  0.63897674
   0.45859799  0.54078062  0.64928565
   0.37184515  0.39062333  0.65963447
   0.41758568  0.53756415  0.52661961
   0.48622260  0.58886259  0.43520003
   0.52450558  0.65974411  0.34017215
   0.37773059  0.39020230  0.41538100
   0.46006111  0.43448373  0.58146455
   0.57119065  0.50291816  0.60349748
   0.45386684  0.44820222  0.32530457
   0.35626705  0.37041183  0.54165553
   0.53996399  0.53490285  0.33799544
   0.67075297  0.61137454  0.51599111
   0.63120028  0.60743756  0.38278048
   0.59188942  0.52284770  0.46763662
   0.47935878  0.45695054  0.44774601
   0.57075461  0.40856193  0.51877953
   0.46494584  0.31829092  0.61888059
   0.68832340  0.48942335  0.55353612
   0.66751919  0.45177731  0.66917671
   0.56851262  0.37951556  0.64826265
   0.46701725  0.32838909  0.49377553
   0.48128003  0.33613125  0.37450016
   0.66935005  0.36931682  0.57553495
   0.57232845  0.41741678  0.37068731
   0.66233174  0.49425292  0.34356855
   0.71950124  0.53289993  0.43996625
   0.67228216  0.41429853  0.45091254
   0.58676746  0.31975637  0.43980401
   0.56855350  0.29202720  0.56051047
Direct configuration=     7
   0.31409620  0.59208839  0.48245238
   0.50589189  0.73291304  0.54888825
   0.35127557  0.60287969  0.60854604
   0.55700677  0.61651092  0.67785588
   0.37972580  0.64577613  0.39098014
   0.41184540  0.66199245  0.51606344
   0.45291333  0.66818938  0.64014616
   0.47002972  0.72737775  0.43122453
   0.42573986  0.73060261  0.31735280
   0.61410593  0.68671919  0.59531269
   0.30974981  0.46580118  0.48153923
   0.57097886  0.50561485  0.72843389
   0.57688900  0.67795744  0.46458638
   0.33093889  0.48187434  0.60010477
   0.47582552  0.42940010  0.70908205
   0.52564198  0.60395024  0.55307941
   0.38228229  0.52175225  0.39828278
   0.66663749  0.57785651  0.63898630
   0.45869407  0.54067897  0.64845777
   0.37144213  0.38992874  0.66024071
   0.41759916  0.53752316  0.52670374
   0.48629025  0.58860377  0.43520767
   0.52498328  0.66045046  0.34034318
   0.37835080  0.39000732  0.41548034
   0.46008439  0.43440876  0.58127926
   0.57113781  0.50253292  0.60336506
   0.45386835  0.44795349  0.32508339
   0.35634526  0.37085350  0.54147613
   0.54031537  0.53463879  0.33840030
   0.66971314  0.61063328  0.51615870
   0.63113584  0.60725420  0.38286013
   0.59195511  0.52286169  0.46807738
   0.47959806  0.45721386  0.44784216
   0.57014120  0.40900619  0.51884281
   0.46501246  0.31819949  0.61986370
   0.68767131  0.48928962  0.55300041
   0.66782729  0.45150124  0.66955983
   0.56911398  0.37926242  0.64859225
   0.46792283  0.32955446  0.49419023
   0.48112730  0.33527823  0.37391781
   0.66944498  0.36906454  0.57560728
   0.57242902  0.41797694  0.37122194
   0.66280476  0.49374828  0.34278762
   0.71992386  0.53316126  0.43963958
   0.67217679  0.41476077  0.45021775
   0.58669072  0.31893328  0.43977719
   0.56870422  0.29109834  0.56084707
Direct configuration=     8
   0.31360627  0.59314988  0.48087100
   0.50605226  0.73672257  0.54884267
   0.35046606  0.60335717  0.60822966
   0.55621769  0.61511837  0.67568547
   0.37951640  0.64778877  0.39252114
   0.41164261  0.66242164  0.51625632
   0.45248508  0.66979821  0.63951665
   0.46917950  0.72790504  0.42961389
   0.42554065  0.73055872  0.31742796
   0.61397475  0.68824087  0.59616498
   0.30663279  0.46579111  0.48074014
   0.57138174  0.50491848  0.72874889
   0.57564410  0.67692153  0.46526818
   0.33286186  0.48263900  0.59869685
   0.47664610  0.42766228  0.70771630
   0.52506545  0.60606032  0.55396479
   0.38245226  0.52182421  0.40129329
   0.66621611  0.57733700  0.63901500
   0.45898233  0.54037404  0.64597413
   0.37023306  0.38784498  0.66205944
   0.41763958  0.53740018  0.52695612
   0.48649322  0.58782731  0.43523059
   0.52641640  0.66256951  0.34085627
   0.38021141  0.38942236  0.41577837
   0.46015421  0.43418387  0.58072337
   0.57097928  0.50137721  0.60296777
   0.45387290  0.44720731  0.32441985
   0.35657992  0.37217850  0.54093795
   0.54136954  0.53384663  0.33961488
   0.66659365  0.60840948  0.51666147
   0.63094254  0.60670412  0.38309909
   0.59215220  0.52290363  0.46939965
   0.48031593  0.45800383  0.44813062
   0.56830096  0.41033896  0.51903267
   0.46521230  0.31792518  0.62281303
   0.68571502  0.48888845  0.55139331
   0.66875158  0.45067301  0.67070920
   0.57091809  0.37850299  0.64958105
   0.47063956  0.33305056  0.49543433
   0.48066911  0.33271920  0.37217078
   0.66972975  0.36830771  0.57582424
   0.57273076  0.41965740  0.37282582
   0.66422382  0.49223436  0.34044482
   0.72119174  0.53394524  0.43865954
   0.67186066  0.41614747  0.44813338
   0.58646050  0.31646402  0.43969675
   0.56915637  0.28831174  0.56185686
Direct configuration=     9
   0.31364838  0.59302402  0.48088971
   0.50617701  0.73714570  0.54865194
   0.35040566  0.60389591  0.60808875
   0.55592980  0.61447166  0.67582354
   0.37936527  0.64818378  0.39267944
   0.41161626  0.66281131  0.51644373
   0.45224535  0.67018493  0.63909814
   0.46910754  0.72841022  0.42984639
   0.42548790  0.73050376  0.31708876
   0.61366270  0.68868713  0.59584184
   0.30573338  0.46614912  0.48017798
   0.57143653  0.50445448  0.72821989
   0.57538915  0.67702108  0.46534385
   0.33343635  0.48252621  0.59870814
   0.47696824  0.42725140  0.70713363
   0.52505970  0.60626037  0.55394427
   0.38266443  0.52174521  0.40158512
   0.66630019  0.57673955  0.63913456
   0.45865940  0.54046616  0.64591480
   0.37021822  0.38727039  0.66219285
   0.41785990  0.53720879  0.52616173
   0.48651647  0.58818195  0.43530075
   0.52685654  0.66265889  0.34119483
   0.38055315  0.38974300  0.41625163
   0.46023761  0.43397954  0.58034786
   0.57076744  0.50120382  0.60317027
   0.45404652  0.44686322  0.32514248
   0.35709816  0.37212745  0.54069594
   0.54155894  0.53380222  0.33968368
   0.66574661  0.60859766  0.51716315
   0.63127639  0.60642877  0.38309725
   0.59150373  0.52245191  0.46938906
   0.48021990  0.45853737  0.44842494
   0.56867918  0.40996611  0.51929620
   0.46531738  0.31824518  0.62361820
   0.68563510  0.48857791  0.55115082
   0.66867287  0.45081675  0.67059764
   0.57131413  0.37829446  0.64991314
   0.47062456  0.33392212  0.49558868
   0.48105220  0.33292012  0.37197098
   0.66963062  0.36795265  0.57546409
   0.57237969  0.41934942  0.37306389
   0.66420010  0.49192832  0.34013549
   0.72101433  0.53400180  0.43855641
   0.67190749  0.41626431  0.44772638
   0.58642929  0.31618459  0.44007833
   0.56946831  0.28822370  0.56196736
Direct configuration=    10
   0.31376812  0.59266611  0.48094293
   0.50653175  0.73834894  0.54810955
   0.35023389  0.60542792  0.60768804
   0.55511114  0.61263262  0.67621617
   0.37893550  0.64930706  0.39312958
   0.41154132  0.66391941  0.51697669
   0.45156364  0.67128464  0.63790802
   0.46890293  0.72984678  0.43050753
   0.42533789  0.73034748  0.31612417
   0.61277533  0.68995616  0.59492293
   0.30317574  0.46716720  0.47857937
   0.57159232  0.50313503  0.72671558
   0.57466416  0.67730415  0.46555906
   0.33507002  0.48220549  0.59874027
   0.47788430  0.42608299  0.70547669
   0.52504334  0.60682926  0.55388591
   0.38326777  0.52152056  0.40241498
   0.66653930  0.57504059  0.63947457
   0.45774108  0.54072813  0.64574609
   0.37017600  0.38563642  0.66257225
   0.41848641  0.53666454  0.52390273
   0.48658261  0.58919044  0.43550028
   0.52810817  0.66291306  0.34215761
   0.38152496  0.39065478  0.41759742
   0.46047477  0.43339849  0.57928002
   0.57016502  0.50071074  0.60374612
   0.45454023  0.44588473  0.32719742
   0.35857188  0.37198229  0.54000775
   0.54209755  0.53367593  0.33987931
   0.66333791  0.60913278  0.51858976
   0.63222575  0.60564575  0.38309202
   0.58965969  0.52116735  0.46935894
   0.47994682  0.46005458  0.44926190
   0.56975470  0.40890584  0.52004560
   0.46561619  0.31915515  0.62590784
   0.68540786  0.48769485  0.55046126
   0.66844904  0.45122548  0.67028040
   0.57244034  0.37770146  0.65085752
   0.47058191  0.33640056  0.49602758
   0.48214161  0.33349150  0.37140281
   0.66934871  0.36694298  0.57443993
   0.57138138  0.41847362  0.37374088
   0.66413264  0.49105806  0.33925587
   0.72050984  0.53416266  0.43826314
   0.67204065  0.41659657  0.44656901
   0.58634054  0.31538997  0.44116345
   0.57035537  0.28797332  0.56228157
Direct configuration=    11
   0.31399741  0.59254239  0.48115779
   0.50655793  0.73897380  0.54792248
   0.35024860  0.60572961  0.60721682
   0.55477992  0.61223601  0.67604643
   0.37878546  0.64986868  0.39340024
   0.41138473  0.66444009  0.51696712
   0.45166445  0.67177558  0.63735683
   0.46856878  0.73065741  0.43029931
   0.42561343  0.72999016  0.31594280
   0.61201316  0.69035215  0.59487461
   0.30203569  0.46725675  0.47834294
   0.57161824  0.50214319  0.72638135
   0.57475497  0.67762114  0.46509059
   0.33623438  0.48201650  0.59850615
   0.47791954  0.42563310  0.70470559
   0.52507536  0.60675254  0.55411112
   0.38326511  0.52180584  0.40211776
   0.66653746  0.57436180  0.63968735
   0.45676433  0.54074674  0.64536893
   0.36993361  0.38520367  0.66246212
   0.41824085  0.53704172  0.52389545
   0.48664326  0.59017148  0.43516095
   0.52861342  0.66317274  0.34272917
   0.38166342  0.39118697  0.41845349
   0.46057726  0.43366112  0.57907505
   0.56963703  0.50061134  0.60353867
   0.45471366  0.44574841  0.32806369
   0.35867516  0.37221069  0.53966557
   0.54229038  0.53364936  0.34007255
   0.66232408  0.60863683  0.51888172
   0.63254218  0.60534577  0.38347836
   0.58913711  0.52082372  0.46934154
   0.48067497  0.46032004  0.44984392
   0.57030952  0.40855549  0.52024509
   0.46644582  0.31934974  0.62677404
   0.68522248  0.48733369  0.55012514
   0.66869047  0.45120633  0.66970405
   0.57337344  0.37701688  0.65128578
   0.47065099  0.33690838  0.49605344
   0.48263031  0.33342395  0.37144972
   0.66971420  0.36638193  0.57403388
   0.57123715  0.41814702  0.37405291
   0.66375728  0.49052726  0.33906734
   0.71967797  0.53439987  0.43849636
   0.67212379  0.41656692  0.44608520
   0.58639283  0.31512525  0.44175631
   0.57036648  0.28800439  0.56267078
Direct configuration=    12
   0.31447245  0.59228605  0.48160296
   0.50661217  0.74026838  0.54753493
   0.35027908  0.60635465  0.60624053
   0.55409371  0.61141432  0.67569478
   0.37847461  0.65103224  0.39396099
   0.41106030  0.66551884  0.51694730
   0.45187331  0.67279271  0.63621490
   0.46787649  0.73233687  0.42986790
   0.42618431  0.72924985  0.31556705
   0.61043411  0.69117257  0.59477450
   0.29967375  0.46744229  0.47785310
   0.57167195  0.50008829  0.72568887
   0.57494311  0.67827789  0.46412000
   0.33864669  0.48162494  0.59802109
   0.47799255  0.42470101  0.70310800
   0.52514170  0.60659359  0.55457773
   0.38325958  0.52239687  0.40150200
   0.66653364  0.57295547  0.64012820
   0.45474070  0.54078529  0.64458753
   0.36943144  0.38430709  0.66223395
   0.41773210  0.53782316  0.52388036
   0.48676891  0.59220402  0.43445792
   0.52966022  0.66371074  0.34391333
   0.38195027  0.39228955  0.42022710
   0.46078961  0.43420522  0.57865041
   0.56854314  0.50040540  0.60310889
   0.45507297  0.44546599  0.32985844
   0.35888916  0.37268389  0.53895664
   0.54268988  0.53359430  0.34047290
   0.66022363  0.60760932  0.51948660
   0.63319776  0.60472426  0.38427876
   0.58805443  0.52011180  0.46930550
   0.48218353  0.46087002  0.45104974
   0.57145899  0.40782963  0.52065839
   0.46816464  0.31975290  0.62856864
   0.68483840  0.48658544  0.54942876
   0.66919068  0.45116666  0.66850995
   0.57530665  0.37559857  0.65217306
   0.47079410  0.33796048  0.49610701
   0.48364280  0.33328402  0.37154693
   0.67047141  0.36521956  0.57319265
   0.57093833  0.41747037  0.37469938
   0.66297960  0.48942755  0.33867674
   0.71795450  0.53489132  0.43897955
   0.67229604  0.41650549  0.44508284
   0.58650117  0.31457679  0.44298460
   0.57038948  0.28806876  0.56347713
Direct configuration=    13
   0.31449273  0.59228410  0.48161849
   0.50630307  0.74079225  0.54682330
   0.34998613  0.60625259  0.60594572
   0.55395739  0.61106576  0.67532329
   0.37814853  0.65140912  0.39438342
   0.41112173  0.66627032  0.51619122
   0.45255277  0.67309577  0.63597408
   0.46769216  0.73300387  0.42967540
   0.42677790  0.72871524  0.31539069
   0.60966433  0.69092718  0.59517876
   0.29935621  0.46730487  0.47822317
   0.57180752  0.49922358  0.72573428
   0.57508346  0.67907149  0.46395692
   0.33934787  0.48166997  0.59772740
   0.47774027  0.42460789  0.70245433
   0.52504140  0.60669834  0.55393741
   0.38322767  0.52279181  0.40139204
   0.66604632  0.57284106  0.64030769
   0.45385221  0.54088262  0.64439819
   0.36921060  0.38397290  0.66177651
   0.41799680  0.53903788  0.52352298
   0.48620204  0.59254497  0.43464254
   0.53021075  0.66441298  0.34381291
   0.38212270  0.39292307  0.42052477
   0.46084072  0.43440581  0.57863022
   0.56806783  0.50032950  0.60267855
   0.45495623  0.44588429  0.33030726
   0.35798165  0.37312182  0.53906595
   0.54270617  0.53357661  0.34090712
   0.65914799  0.60700404  0.51987493
   0.63288326  0.60476864  0.38473254
   0.58844903  0.52054524  0.46935005
   0.48208070  0.46118783  0.45157411
   0.57179705  0.40794277  0.52093588
   0.46907727  0.31966590  0.62890292
   0.68439969  0.48614026  0.54933015
   0.66991524  0.45061182  0.66760509
   0.57661024  0.37500949  0.65284270
   0.47112374  0.33727261  0.49624538
   0.48354994  0.33241915  0.37201975
   0.67168903  0.36458566  0.57299358
   0.57149960  0.41742447  0.37477185
   0.66257576  0.48916619  0.33879030
   0.71733507  0.53465986  0.43927104
   0.67267102  0.41604360  0.44494713
   0.58678034  0.31425158  0.44333547
   0.56999794  0.28781764  0.56393106
Direct configuration=    14
   0.31451787  0.59228167  0.48163776
   0.50591979  0.74144185  0.54594089
   0.34962287  0.60612603  0.60558016
   0.55378834  0.61063354  0.67486264
   0.37774419  0.65187645  0.39490724
   0.41119790  0.66720216  0.51525369
   0.45339531  0.67347157  0.63567547
   0.46746360  0.73383095  0.42943669
   0.42751396  0.72805231  0.31517200
   0.60870981  0.69062291  0.59568004
   0.29896246  0.46713447  0.47868205
   0.57197561  0.49815133  0.72579059
   0.57525750  0.68005557  0.46375470
   0.34021733  0.48172581  0.59736323
   0.47742745  0.42449242  0.70164377
   0.52491703  0.60682824  0.55314341
   0.38318809  0.52328153  0.40125568
   0.66544203  0.57269918  0.64053027
   0.45275047  0.54100331  0.64416342
   0.36893676  0.38355851  0.66120928
   0.41832502  0.54054415  0.52307983
   0.48549913  0.59296777  0.43487146
   0.53089340  0.66528376  0.34368838
   0.38233650  0.39370864  0.42089388
   0.46090411  0.43465454  0.57860518
   0.56747845  0.50023539  0.60214492
   0.45481148  0.44640298  0.33086380
   0.35685635  0.37366485  0.53920150
   0.54272638  0.53355467  0.34144556
   0.65781420  0.60625349  0.52035645
   0.63249329  0.60482368  0.38529522
   0.58893834  0.52108271  0.46940530
   0.48195318  0.46158193  0.45222433
   0.57221625  0.40808307  0.52127997
   0.47020892  0.31955801  0.62931742
   0.68385567  0.48558824  0.54920786
   0.67081370  0.44992380  0.66648306
   0.57822670  0.37427903  0.65367306
   0.47153249  0.33641966  0.49641696
   0.48343479  0.33134670  0.37260604
   0.67319888  0.36379963  0.57274673
   0.57219559  0.41736756  0.37486172
   0.66207499  0.48884210  0.33893111
   0.71656697  0.53437286  0.43963248
   0.67313599  0.41547086  0.44477884
   0.58712652  0.31384830  0.44377055
   0.56951241  0.28750626  0.56449393
Direct configuration=    15
   0.31392265  0.59237843  0.48156103
   0.50559308  0.74220933  0.54526604
   0.34934126  0.60651519  0.60515595
   0.55335936  0.60952006  0.67468017
   0.37706640  0.65246516  0.39499449
   0.41071755  0.66810727  0.51497438
   0.45426265  0.67346907  0.63515183
   0.46767677  0.73463270  0.42863596
   0.42827002  0.72724749  0.31471332
   0.60770282  0.69014894  0.59636217
   0.29927034  0.46726928  0.47922902
   0.57275668  0.49728610  0.72537317
   0.57528325  0.68128453  0.46376033
   0.34062728  0.48255999  0.59712814
   0.47759876  0.42463131  0.70085844
   0.52475239  0.60723420  0.55224165
   0.38280304  0.52356256  0.40139417
   0.66464096  0.57253403  0.64080892
   0.45235254  0.54129169  0.64420350
   0.36917279  0.38289352  0.66057037
   0.41875619  0.54166333  0.52324557
   0.48555375  0.59344271  0.43401626
   0.53161231  0.66592744  0.34356700
   0.38272773  0.39412531  0.42086443
   0.46043214  0.43432794  0.57789880
   0.56698292  0.50058085  0.60243738
   0.45492386  0.44649683  0.33137543
   0.35599569  0.37377692  0.53910129
   0.54236642  0.53373085  0.34222907
   0.65687731  0.60650298  0.52133276
   0.63180898  0.60546174  0.38558353
   0.58871583  0.52078297  0.46897127
   0.48200225  0.46176385  0.45262516
   0.57282115  0.40775699  0.52141893
   0.47061301  0.31966382  0.62950164
   0.68323470  0.48505718  0.54926631
   0.67186210  0.44937291  0.66584516
   0.57931204  0.37369968  0.65466544
   0.47158343  0.33556516  0.49712205
   0.48317155  0.33102890  0.37346379
   0.67439112  0.36279937  0.57227099
   0.57165138  0.41657434  0.37519408
   0.66213608  0.48934149  0.33911894
   0.71634831  0.53371597  0.43986233
   0.67389297  0.41426928  0.44512693
   0.58747710  0.31375565  0.44414491
   0.56965715  0.28720912  0.56464602
Direct configuration=    16
   0.31317674  0.59249969  0.48146488
   0.50518365  0.74317110  0.54442035
   0.34898837  0.60700286  0.60462434
   0.55282178  0.60812470  0.67445150
   0.37621703  0.65320292  0.39510383
   0.41011561  0.66924152  0.51462436
   0.45534956  0.67346594  0.63449564
   0.46794391  0.73563742  0.42763252
   0.42921748  0.72623892  0.31413852
   0.60644090  0.68955498  0.59721700
   0.29965616  0.46743821  0.47991446
   0.57373547  0.49620182  0.72485007
   0.57531552  0.68282460  0.46376738
   0.34114102  0.48360536  0.59683353
   0.47781344  0.42480536  0.69987431
   0.52454606  0.60774293  0.55111160
   0.38232051  0.52391473  0.40156772
   0.66363710  0.57232706  0.64115812
   0.45185386  0.54165308  0.64425372
   0.36946857  0.38206017  0.65976971
   0.41929652  0.54306585  0.52345326
   0.48562220  0.59403788  0.43294457
   0.53251320  0.66673407  0.34341488
   0.38321799  0.39464747  0.42082752
   0.45984070  0.43391866  0.57701360
   0.56636194  0.50101377  0.60280388
   0.45506469  0.44661444  0.33201659
   0.35491715  0.37391737  0.53897571
   0.54191534  0.53395164  0.34321093
   0.65570324  0.60681563  0.52255622
   0.63095144  0.60626132  0.38594484
   0.58843699  0.52040735  0.46842737
   0.48206374  0.46199182  0.45312746
   0.57357920  0.40734837  0.52159308
   0.47111940  0.31979643  0.62973250
   0.68245653  0.48439168  0.54933955
   0.67317591  0.44868254  0.66504577
   0.58067215  0.37297366  0.65590905
   0.47164727  0.33449435  0.49800564
   0.48284167  0.33063064  0.37453869
   0.67588519  0.36154589  0.57167481
   0.57096940  0.41558031  0.37561058
   0.66221262  0.48996730  0.33935431
   0.71607430  0.53289279  0.44015036
   0.67484159  0.41276351  0.44556315
   0.58791644  0.31363953  0.44461404
   0.56983852  0.28683676  0.56483661
Direct configuration=    17
   0.31344561  0.59245598  0.48149954
   0.50533124  0.74282442  0.54472519
   0.34911557  0.60682707  0.60481596
   0.55301556  0.60862768  0.67453393
   0.37652320  0.65293699  0.39506442
   0.41033259  0.66883267  0.51475053
   0.45495777  0.67346707  0.63473217
   0.46784762  0.73527526  0.42799422
   0.42887595  0.72660247  0.31434571
   0.60689577  0.68976908  0.59690886
   0.29951709  0.46737732  0.47966739
   0.57338266  0.49659266  0.72503862
   0.57530389  0.68226946  0.46376484
   0.34095583  0.48322854  0.59693972
   0.47773606  0.42474263  0.70022905
   0.52462043  0.60755955  0.55151894
   0.38249444  0.52378778  0.40150516
   0.66399895  0.57240166  0.64103225
   0.45203361  0.54152281  0.64423562
   0.36936195  0.38236056  0.66005832