19
Energy = -76.77528227 eV
Ni 6.88016375856291 8.590470703420957 7.221285438328168
Ni 8.347351946401563 6.796960789025823 7.68551880630564
Ni 10.926809969294426 8.354582637402627 11.35263737934758
Ni 11.830300837038552 7.971428392953336 9.34024879194592
Ni 5.930973608955617 9.880100705058764 9.084624934017313
Ni 9.82717399700486 10.342955187936507 11.633549603911295
Ni 10.661794180922193 7.0335194999088255 7.566345481439986
Ni 11.479619512396424 10.437434505322402 9.713665893214941
Ni 11.589617411300473 9.24906570310862 7.460939264731507
Ni 7.491897370074651 8.093596847608788 9.430353191673433
Ni 9.684608039707578 9.12779801005209 9.37645383395877
Ni 9.279150619587524 8.854574068317183 7.039397449977092
Ni 9.610483792223873 6.879491649865857 9.747851708451195
Ni 10.191984165167185 11.044202702483332 7.730484781158885
Ni 7.967523570395762 10.459014352200738 8.16041737517507
Ni 8.62153614158462 8.229836719803002 11.521783690983916
Ni 9.329770133846603 11.683446169757309 9.766240368819668
Ni 7.70482093347731 10.160514117346562 10.620951318946364
Ni 6.964334651992697 12.028858445334418 9.495190243327581
