16
Energy = -62.5907507 eV
Ni 9.955755522398599 8.700814420406504 11.269345833480719
Ni 7.671333378383147 7.857281235421547 10.655586312572462
Ni 7.849996086067841 10.019398558852926 11.423171038257971
Ni 9.74066140602065 11.153135169767916 10.771927118494682
Ni 9.450395348923902 6.772193359343571 9.74743729677139
Ni 6.548380127512401 9.49932427189648 9.499373330283966
Ni 7.813748390740537 11.520624425143092 9.572012671469313
Ni 11.518492591999312 10.063852076174573 9.861983272825997
Ni 11.505405973248351 7.786305103296652 9.553098799368966
Ni 9.213985712418046 9.243400039009414 9.23882680953264
Ni 9.391100339442128 9.220851828909268 6.720200471437838
Ni 7.846145389184256 7.859312655383073 8.151630987673833
Ni 10.196853494442534 7.270811491046869 7.630128170773956
Ni 7.6135416234245525 10.30959316658145 7.628828465394165
Ni 9.904305401365873 11.131013160736309 8.26593466051943
Ni 11.47005921442839 9.282249038030605 7.700674761142545
