12
Energy = -44.6593131 eV
Ni 10.361685 13.5454590774724 8.864627019964027
Ni 11.513271647474559 9.17450341195901 9.12854317405393
Ni 11.513271647474559 11.548866588040996 9.12854317405393
Ni 11.493020411229752 10.361685 11.199203564707558
Ni 10.361685 12.533563714919024 10.900487142020118
Ni 9.210098352525446 11.548866588040996 9.12854317405393
Ni 9.210098352525446 9.17450341195901 9.12854317405393
Ni 9.230349588770245 10.361685 11.199203564707558
Ni 10.361685 7.1779109225276025 8.864627019964027
Ni 10.361685 9.199691759712797 12.948705925200292
Ni 10.361685 8.189806285080973 10.900487142020118
Ni 10.361685 11.5236782402872 12.948705925200292
