17
Energy = -67.44247273 eV
Ni 9.288652496350588 6.635298968760535 7.720394614215722
Ni 8.529591118786218 10.1737882727797 11.390666540267748
Ni 9.011774327808762 8.996326141662639 8.998047405317505
Ni 10.605652395934944 7.51159710368134 9.608984475516525
Ni 8.375702314283652 6.498886998705519 9.83688841642955
Ni 10.922591500404748 8.196482800988035 7.267273746537616
Ni 9.089044156755909 7.933378850848439 11.49377843931642
Ni 11.636909514282992 9.641455741376518 8.922584751086655
Ni 7.108820482234921 7.2989491233462 8.069376321262121
Ni 10.373285332089008 10.438644959207943 7.162302669832553
Ni 8.58250808392574 8.795190230244181 6.789478802817965
Ni 10.716131402931254 9.505876176768995 11.033985026429265
Ni 7.125143862286017 8.584040588773567 10.16523394044235
Ni 9.722351491842238 11.091989495169537 9.443747710056837
Ni 7.272663650125867 10.982200449417011 9.634499388061103
Ni 6.561624731553818 9.538016149557697 7.975019596530979
Ni 8.194756744076683 11.112811081603729 7.518402111237724
