11
Energy = -40.94731345 eV
Ni 11.035921150107974 7.7458192462173425 10.779262773717694
Ni 8.132506438815334 10.19562023851683 9.755801046421144
Ni 12.108209606144229 9.771560754772832 11.435152739762016
Ni 9.308179604457226 12.242938407264207 9.8843982479654
Ni 12.330999488316369 8.895045985509116 9.244746639398198
Ni 9.468905996239224 10.93228966577029 7.969448622190548
Ni 8.346186172147378 11.310276319671667 11.795802089316496
Ni 11.106884310752756 10.7989420827707 9.628074875546224
Ni 9.972520887162677 8.8801683221676 9.042830715534379
Ni 10.688990433010527 11.703154570689753 11.735773157360558
Ni 9.772357995329587 9.587542727079786 11.30198356291183
