19
Energy = -76.6864877 eV
Ni 8.879516017417586 12.085999995679718 8.525263872974577
Ni 11.046301145429439 8.832925799588082 6.832026916610231
Ni 8.318833489012194 8.763370177773375 11.865665515069107
Ni 6.592371305112326 9.596970545638893 10.378892795756832
Ni 12.166611078798187 9.564518046069129 9.178117211294676
Ni 8.661107548119267 10.7501808420149 10.54038911972407
Ni 10.478617312671766 9.217461243313915 10.830263922458707
Ni 9.548922145622049 6.961727151251422 10.952300501376492
Ni 10.736261342172806 7.697208993332492 8.987225015207137
Ni 10.024802816236392 10.029314498213747 8.570418084203167
Ni 10.86602243074121 11.479156388067294 10.079525121019234
Ni 8.845611345738774 8.306754066389841 7.251108336957803
Ni 8.771485698070453 6.3294899398646765 8.76638653810273
Ni 9.27120786665454 10.560726760065911 6.5202043719661225
Ni 7.5925116252153 10.198535447688617 8.194138782711933
Ni 8.413652123212486 8.456438972106621 9.564277050636898
Ni 7.146320068728278 7.005978351454138 10.72741865541359
Ni 10.325352641086956 6.5295477190339515 7.006460378314046
Ni 6.785495162026422 11.835919162048102 9.636483453416126
