28
Energy = -118.00212999 eV
Ni 9.426982256589152 11.204357206714802 7.016399676806795
Ni 10.16706552137544 9.101439860927709 6.248950821005413
Ni 7.296383435891341 11.45865331866872 8.005482426337533
Ni 11.79240980971858 8.040767922355245 7.550661102436972
Ni 8.71204536924948 13.278429185118547 8.066590242299762
Ni 11.707264368681347 10.502052902838512 7.699222540165468
Ni 11.00650669286485 12.74114021132863 7.9666623255148545
Ni 9.489014946915129 11.315691103749401 9.365914103269553
Ni 8.044946690553825 9.21983940466016 7.376437736188331
Ni 10.021520345979937 9.2008888353701 8.608307271676228
Ni 7.744166959596966 12.31360545571674 10.309058435579217
Ni 10.539344493771834 9.90439216106153 11.323307496546152
Ni 10.056733335584553 13.578082349148419 9.920695923661155
Ni 9.837088660933928 12.102505890033235 11.649262434211193
Ni 12.091804224030914 9.123445943622393 9.676043371750696
Ni 11.670125794234805 11.513979275198071 9.9571361372346
Ni 11.43152068007364 7.842616236290963 11.635276401800777
Ni 8.316403415159408 10.34804619477743 11.712932131812316
Ni 11.021711911354817 6.943549161464343 9.486304148001887
Ni 7.501601468220742 9.874756100697553 9.611005063424376
Ni 9.172147939322398 8.051754265384155 10.420919564069589
Ni 9.14962483239863 8.211536909652402 12.637401131468993
Ni 9.403374521738247 7.201940931768427 7.629081798662679
Ni 10.045333024274422 5.999511397351031 11.496874807544849
Ni 6.976804381278299 8.47476868933778 11.402906835924119
Ni 8.964969394046811 5.727914054280878 9.421446507057961
Ni 7.420478824731291 7.549401633575324 9.061119560256477
Ni 7.7666953363454 6.334212434661097 11.320753004004834
