22
Energy = -90.31428888 eV
Ni 12.627731912205912 10.643836083786425 11.856458968056957
Ni 7.062706606646746 8.761468812954021 10.875847938252804
Ni 7.08568506054193 11.140453918192549 10.562102607075941
Ni 9.243343989207043 8.054857112364253 11.843225276064869
Ni 9.286860768017535 11.80292900131606 9.284200160566064
Ni 7.980483133936509 10.117782485148874 12.55581099866737
Ni 12.18010061489708 9.050674839558694 8.078594486142542
Ni 8.343852296431823 8.548692095181828 6.924017479648919
Ni 8.578634025384835 7.748488532880305 9.421072560020997
Ni 11.049346871581136 12.315461444602809 11.030496988071397
Ni 11.507672005410583 10.450636284380003 9.845709147482314
Ni 9.195594712759524 9.894149595502242 10.557879622638064
Ni 7.598143720786317 9.854064682931197 8.719937408704686
Ni 10.90878050268514 8.037246929950285 10.030372535218868
Ni 10.346818458160609 10.522409318818244 12.436937255499448
Ni 11.089559803931841 11.281240473889207 7.7083348714584305
Ni 8.83922037779003 12.171922008767224 11.629740244445385
Ni 11.601222112563919 8.564381689638676 12.150219683046002
Ni 8.833748392849616 10.965248474941424 7.033963645830099
Ni 9.912564114899467 9.328369564256972 8.346704776420724
Ni 10.566566193173703 9.553830909310607 6.197494306132159
Ni 13.102130883076804 8.828106018474703 10.289511431036775
