27
Energy = -113.13134126 eV
Ni 13.704955760989982 13.238484315256095 13.63869750156533
Ni 9.499775095908388 11.741576927155691 12.212612388319677
Ni 12.374560945669339 9.014094220308577 11.819377691619609
Ni 10.140333776438125 15.552417732174781 11.353852029392785
Ni 13.170870577348593 10.293710281976452 8.212212806066244
Ni 15.247121195813046 11.864761188951682 12.158516818395421
Ni 9.968996436946941 12.159838395455893 14.578104353897155
Ni 12.366173048087056 12.30635067795187 9.154136151130194
Ni 11.60036171716026 13.96211080675424 14.785307487998768
Ni 12.062770768276776 14.789521583190632 12.550232400727383
Ni 12.310473492274316 11.643355960066419 14.99884224165997
Ni 11.734510243411828 11.132139808890303 11.047044673028669
Ni 14.038845795735297 10.967199053265603 10.318763691166852
Ni 9.76380874843219 14.024618639318286 13.047341065256918
Ni 10.98937641609354 12.651714303792712 16.5823668009668
Ni 11.603703133802552 12.541495384530064 12.898558812085
Ni 11.458722661331157 9.445149878704955 9.545275612898726
Ni 11.04057735464826 10.28339276244529 13.379140153213049
Ni 13.3414597907479 10.908528997294571 12.979454820210712
Ni 9.837512531189263 11.629283557661665 9.796782180221918
Ni 10.949014655060523 10.960393412244114 7.853968071903574
Ni 13.349044267367828 13.011289944536314 11.294849711498198
Ni 13.699091836542195 8.689863387835988 9.876126678817311
Ni 11.085546081129493 13.52866236855569 10.709207971016873
Ni 8.8188808599167 13.568904359186874 10.886948227669526
Ni 9.986955708817023 9.574443974310006 11.35460057777643
Ni 14.772423077056146 9.432564054379773 11.883545057692507
