26
Energy = -108.89951526 eV
Ni 11.661354032989161 7.996799604453517 8.613715738368763
Ni 11.437355027492513 8.848886624336352 10.807393608984823
Ni 11.95735746904759 10.466325471212627 9.139598487158128
Ni 9.199477723604726 8.70933923327506 11.82439995725755
Ni 10.0015364691454 10.625797101392692 10.654524856176838
Ni 11.895263254927574 11.90360069831146 7.261890188189083
Ni 9.540532398484741 7.141617376412493 7.961756905520168
Ni 10.116626764737505 7.029340202557812 10.242477534594013
Ni 8.297717589434624 6.542387679951292 11.650862645255529
Ni 11.562558504130541 9.654242919315564 6.803436259961191
Ni 10.36388197077236 12.275577940883974 8.975225735641118
Ni 9.941143070743829 9.6043267404445 8.46518627369717
Ni 8.77346888185776 12.594278293642173 10.691745997547358
Ni 8.326050853762128 8.465724658423312 9.68847601491957
Ni 11.180670655249205 7.410061542932968 6.345585197971906
Ni 7.859023588956003 6.222970014383864 9.339250882280066
Ni 7.692760059290042 10.449672574645016 11.070493250849431
Ni 9.654131386669311 11.263845251753493 6.898941401457128
Ni 6.699057928076694 8.30503345355055 11.303649674764715
Ni 8.218398367033277 11.233980835912963 8.912832899182954
Ni 6.164767822063019 5.983602699647336 11.00343986665946
Ni 7.375628938208541 8.00552053722488 7.585248916239855
Ni 9.28028743412847 8.845962532593639 6.322548688957975
Ni 5.812377161117314 7.42326095381069 9.246372932228134
Ni 6.42725272628055 9.689022627575344 9.143220909289868
Ni 7.496705193316909 10.244207702876365 6.983110448367001
