21
Energy = -85.91483285 eV
Ni 10.467596545353686 8.646919254638565 12.927786296735823
Ni 11.51604675306897 9.910138798513547 11.238246554449015
Ni 10.702930595426988 7.689933963286038 10.83522753223887
Ni 12.257491544367166 10.808953880301061 9.223138811379249
Ni 10.763266221857036 7.2177273070054735 8.5031811537451
Ni 10.033466056185143 11.574614244263225 10.144688137748227
Ni 10.664352394846551 11.581906339249135 7.809436722414343
Ni 6.714651143962412 8.063844377507854 8.437544373255603
Ni 9.197209750315439 10.397153341052674 6.57964534716508
Ni 10.26864731455547 9.48875798202286 9.17134459134697
Ni 9.140106373500785 9.703650202909964 11.355209294028972
Ni 8.58179603987961 7.526711950155662 11.948002223845972
Ni 11.271877610117143 9.277671410389292 7.191475227450664
Ni 7.627200809012763 11.224804395511521 10.40847165060799
Ni 8.51316896170929 12.180537497624835 8.40608162487663
Ni 8.038521172448293 9.9501441205004 8.527126225306189
Ni 8.679698790690038 7.6655486900887135 9.599285121018033
Ni 12.455696090954264 8.502504584615659 9.398331811633248
Ni 5.830693567800489 10.146933927254238 9.163819260245468
Ni 7.0132221898540426 8.894768163271216 10.715211727632905
Ni 8.997604842307389 8.173166016108945 7.30075113672602
