22
Energy = -90.4464166 eV
Ni 8.199542447734357 8.992398443216736 11.831612962137442
Ni 11.564936393583642 10.490011891651019 10.343693544204118
Ni 8.38360760074487 9.148404454109876 7.9057658560773
Ni 9.725679454925352 7.253191287962559 8.63713479976585
Ni 9.204225123210898 10.4543896251481 13.36764406748787
Ni 9.599674683602986 7.166209986396449 11.065911139297052
Ni 9.47675750091492 11.285317720304159 11.220847779039227
Ni 11.621645042714547 8.008885876502266 9.973966132268147
Ni 11.857937746696992 7.464804420719234 7.607296020308487
Ni 10.668496833685902 9.044586249017241 12.0362413664889
Ni 7.454303928878726 10.19453350370636 9.845060245380772
Ni 9.93181822187378 8.162512615769902 6.447958196688427
Ni 7.858695525063321 12.4253349009931 9.92139433759403
Ni 9.605162470985666 9.207304770641885 9.91450798103612
Ni 7.671079733618705 7.802142182429925 9.78019341004944
Ni 7.327178800359276 11.20568999702032 12.018010396725916
Ni 11.183408732915433 9.590346243305268 8.166084703422321
Ni 11.832169444287292 9.329970601256012 5.98345042426026
Ni 7.768277632843371 11.411240801444228 7.7260062510749945
Ni 11.324529383489859 11.186270725905333 12.62240807303224
Ni 9.755714665143206 10.537107666259102 6.564092771942664
Ni 9.75091738104185 11.328286546516779 8.866094233877032
