26
Energy = -109.41213335 eV
Ni 11.656568318853402 11.344185098240704 9.361324440068211
Ni 11.934086215825083 9.50226823925073 7.68307160558985
Ni 11.652666310619946 8.915414160356805 9.960117948891673
Ni 10.712793517273255 11.44699204775205 7.040676270316698
Ni 11.760963087771403 10.55516908486712 11.610831810767674
Ni 9.47613767443474 12.388513513377053 8.863779138190331
Ni 9.909124613957324 10.066508052084208 8.709258162907656
Ni 10.158724910108468 8.841294228239212 11.877631034567989
Ni 9.811337741508193 9.059139608978795 6.640786349571206
Ni 10.823592617581415 7.4226372608642555 8.17568709060897
Ni 9.60289888801739 10.942740799819452 10.819689507968922
Ni 8.351051872407318 11.069847229827372 7.134120644254894
Ni 10.969448023275119 6.726186767638924 10.646995074260007
Ni 9.382073972018429 8.109367627863785 9.828756670676968
Ni 8.525527368237697 7.1694391478419 7.400922737289816
Ni 7.565071061505831 11.138551696002464 9.52904183502211
Ni 8.70839610910133 6.935387055701721 11.64491709772318
Ni 7.792695695025138 9.108230482952054 8.446742018659176
Ni 7.832583884184757 9.284115443531798 11.092939581510208
Ni 9.100666521090561 5.884870902097302 9.332356667563324
Ni 6.073651276419112 10.353477679623701 7.562532781677638
Ni 6.9993958722470975 5.6335780089476 8.256659339348627
Ni 7.4864680780738455 9.008687559599627 6.161090555899702
Ni 5.878948331034963 9.345087378510152 9.726938047972132
Ni 7.1128202947415975 7.267436524311762 9.901947740204943
Ni 6.069965330049278 7.798988153738255 7.763534942226672
