33
Energy = -141.90978104 eV
Ni 5.7386907951064785 11.161157942829895 11.04561212872212
Ni 6.571316186745917 8.925123027175133 10.83619006274483
Ni 6.35541172743359 7.9394781962118826 8.67011571098777
Ni 6.147062863674292 10.287001059304211 8.885436074754528
Ni 7.055631899144498 10.213128277748005 12.802306383356788
Ni 8.294206391366595 7.082753570432161 7.684616973094813
Ni 9.45067925275181 8.094038879388119 5.798425417214772
Ni 7.280919575388399 9.056315395501258 6.619982882393126
Ni 7.401528206862438 12.42913250296286 12.091239070807331
Ni 8.176509114506437 7.340181477539685 10.114505033839189
Ni 7.149887232977952 12.43007759044334 9.56599630425335
Ni 8.698204875196609 8.722661906565508 12.069150065358558
Ni 8.167142484064897 10.65361371198001 10.656754400222045
Ni 7.434876207518968 11.426078753752712 7.35633225350969
Ni 8.29195885650827 9.321223946523135 8.6352148473235
Ni 10.116118785590816 5.911428784929978 6.80864239612457
Ni 9.259950723475697 12.814852727295094 10.833061385804791
Ni 10.04023703286939 6.207728110831851 9.194872760443642
Ni 9.382252869821974 10.2921217793156 6.767414164597961
Ni 9.297799493742438 11.616851491497725 8.782738566059743
Ni 10.514841517888803 8.088850771105722 7.8597992982269345
Ni 9.428606131471993 10.989572469939024 12.56943751824866
Ni 10.120058893354887 6.9746672529981675 11.464287551634717
Ni 10.07867537103167 8.919242192199452 10.091264156709972
Ni 11.837090052547339 7.290318494438213 5.999018040043667
Ni 12.1466275030552 6.202019341936202 8.044078197794203
Ni 11.482219109083653 9.535106240471782 6.147081438323349
Ni 11.202828580222745 10.321606106239075 8.368889311976021
Ni 10.811523647868945 11.111986025438465 10.612957650816684
Ni 11.93895822125785 7.4535697962417045 10.043301967273887
Ni 11.116894840775522 9.192925835103011 12.09376357038813
Ni 12.79314874632183 8.519008051426269 8.004364953445249
Ni 12.580191811807135 9.662195602829604 10.158757809761205
