34
Energy = -146.22176835 eV
Ni 7.117257690119533 10.400251149888083 9.452606873119212
Ni 10.767791005070078 9.057579538405157 9.957911757546164
Ni 8.017319692001756 12.948238836476058 12.56235398779614
Ni 12.681444670777843 14.054305418974174 12.716276511953618
Ni 12.754532285772848 12.704868414122435 9.273038270914093
Ni 9.110646362243346 9.734790237044125 8.393433112145322
Ni 12.981298157213267 8.265597684053189 12.99768628401008
Ni 12.85163922912195 8.196098303857928 10.61421879923456
Ni 11.72814954962999 12.032187963981775 13.694250433999038
Ni 14.295623344090401 9.756369049421716 11.62663814533595
Ni 9.667533232796595 11.41233187287475 12.906384157966126
Ni 13.33804534249852 11.96117139819395 11.94452400191147
Ni 8.653873676100368 12.11961128025982 8.65314570617003
Ni 11.205771293848173 12.232816671633936 10.9887889654746
Ni 11.458106595546745 14.50162902115073 10.684912403631158
Ni 7.470112744704105 10.582292642178446 11.919421923719574
Ni 11.081973254866721 9.639655464296682 14.061672783882504
Ni 10.982219771389005 7.696881024728101 11.95911343891245
Ni 14.905393842631861 11.911379888810918 10.373150743699156
Ni 10.311882529908017 13.736004765722077 12.701252840380329
Ni 8.37837690227026 8.672533786078782 10.407729304856618
Ni 11.706534076619592 10.071866572766464 11.934940552633059
Ni 9.235795321060571 13.485485715725655 10.593424213819672
Ni 13.828842504365603 14.183209613853988 10.62088847839792
Ni 13.417900339764735 10.37146041861746 13.799721035354427
Ni 12.888894615009763 10.468955135548343 9.881873153906357
Ni 15.463216443127482 11.305854393779423 12.868102723063798
Ni 7.122755594592026 12.458536718336394 10.47847571565662
Ni 13.990157113854606 12.639102672376048 14.21959994194798
Ni 10.6008160737656 13.521670262087095 8.673734596368407
Ni 9.387722669549168 9.2046655533765 12.388012614933412
Ni 15.114309533265423 13.55640448855349 12.379149715242264
Ni 10.935388527723955 11.199159259239893 8.774615066060695
Ni 9.27043827748687 10.897271887272263 10.554784058826364
