33
Energy = -141.92224926 eV
Ni 6.139098583042401 8.857903241653478 8.980079534325741
Ni 6.841525349225137 6.773395123855488 8.101506075313505
Ni 6.575689742555488 8.59350833672957 6.572779021547497
Ni 6.699956106739769 7.044132291155613 10.390223919161677
Ni 5.625208146765724 10.645130113270406 7.575410871772293
Ni 6.93216289818801 9.312577222088121 11.229147286227027
Ni 7.175688656303388 10.928170287851595 5.9021933039166115
Ni 6.076524087933062 11.078096845118512 9.820828864475086
Ni 8.5387015359921 7.39551753070174 11.740479775898182
Ni 8.691721015717418 9.168735234456069 5.547367195977404
Ni 8.539589360116361 8.488044167102968 9.690286450399904
Ni 8.833296904985504 7.686466166527954 7.390834028527334
Ni 8.851879918925368 6.252906028581371 9.48919180160717
Ni 7.9890691662586555 9.880513085502091 7.869443938729684
Ni 9.040777927570588 9.784149144162448 12.165580851082808
Ni 7.566642911960481 12.091405913512363 8.116317055631182
Ni 10.720006164598761 6.55538369008029 11.035014150507841
Ni 10.30385517205236 7.908208154633056 13.125351494451948
Ni 8.361758575421005 10.942967720779844 10.131809568377093
Ni 10.750190575539406 7.60684576699544 8.741486149933985
Ni 9.406700581129623 11.216147666520637 6.6084898177734495
Ni 10.239771894195586 10.037657741272056 8.81962646012755
Ni 9.919092950469546 12.292478377127736 8.757655594285769
Ni 10.698363877815005 8.810119882988689 10.851009829668167
Ni 10.71359736098732 9.060460327194255 6.762151031393335
Ni 11.622595300396927 11.246588362960065 7.228214447337912
Ni 10.57386441776185 11.23241470928786 10.946260191519603
Ni 11.334081385927462 10.01990585964752 12.873081297237695
Ni 12.466062868405569 7.986640657484541 12.310586439874035
Ni 12.707169971589298 7.621998489170686 10.055389454293227
Ni 12.24497536398717 11.65505285350165 9.39010496194164
Ni 12.443199658803824 9.383878491746449 8.506554884519508
Ni 12.721337121309634 9.924831558505012 10.885671041443068
