37
Energy = -160.09044365 eV
Ni 9.499782617162179 12.198842205894017 12.939340870545339
Ni 8.734977820034697 11.127811940512684 8.459548755161679
Ni 8.327610440641783 13.302179755390124 9.119628932917985
Ni 10.113769786280496 11.2731585477122 10.464222225358604
Ni 9.141252523820604 12.838450949497446 6.790395912997091
Ni 6.912230268172504 12.348738028532226 7.263035971683031
Ni 7.372961103509828 7.8945297995764925 8.927784333767459
Ni 10.60709588949544 12.717611931620837 8.565345516804125
Ni 10.925612957913811 7.136982548855602 10.762157930212073
Ni 11.869181780031681 10.66653096057356 8.891037093078047
Ni 11.301876359804853 8.64503450478767 7.649139032584982
Ni 8.208212475667235 10.751610225618444 6.118941127731516
Ni 11.347784898344589 9.48180445321983 11.624904877649131
Ni 12.612968530849514 8.552206724708187 9.682886903077739
Ni 11.86331690604688 6.563849812353728 8.648582558733615
Ni 6.726285817272263 9.898624037556726 7.85228087920808
Ni 13.181592451312522 6.444497941350057 10.610032690005065
Ni 8.032817471774445 12.046718884982996 11.146995797121397
Ni 10.706260581607106 10.304769657033901 13.738974765769724
Ni 12.126271195669249 8.435163633658252 14.063991969380595
Ni 13.069659713005901 10.372637668947783 13.216626646163952
Ni 10.066765311783058 9.149047837993797 9.534704174672813
Ni 12.051612659422455 6.562573829293161 12.70715943153288
Ni 9.562504231953739 7.028824493710467 8.748962918263532
Ni 10.468072123604308 10.784144326690136 6.967582966848673
Ni 13.252581243292981 10.584158626025047 10.842575046163946
Ni 10.10997740683242 7.983471407994396 12.879164284487736
Ni 6.463708156198579 11.756729801865024 9.458672161001884
Ni 7.6914214609662395 9.855818599120942 10.15440776137029
Ni 11.644515508261149 11.93414059427035 12.161300535951938
Ni 8.672891141029435 7.866553223140319 10.951089089773461
Ni 8.909554881233843 8.912866436917408 7.4386759157676705
Ni 10.100752883497538 13.48698432282626 10.866922327997397
Ni 13.368439358032642 8.384225945103841 11.96692492028445
Ni 8.966135403497068 9.987981163875286 12.13672351545787
Ni 12.323170656959718 12.675614579738161 10.094351124198162
Ni 4.92629302622341 11.305027640258787 7.8148460774819215
