34
Energy = -144.08240022 eV
Ni 10.418712017862951 14.334605999304845 10.641254304769465
Ni 8.992899766836054 11.125707030400855 9.422920214315395
Ni 13.953710364993936 11.231370522264493 12.657687173425094
Ni 14.535944117059154 13.44899781795661 11.998728449334104
Ni 13.288407833201378 12.051540086253462 10.494111360332766
Ni 11.644111263943548 14.215789470088039 14.363725190307662
Ni 13.474510042058647 10.628722738949675 14.837847906610884
Ni 11.49420520738955 9.361857161547679 14.323342496756052
Ni 12.31719480101124 13.07901466923338 12.445154021473872
Ni 11.778503386869382 6.38089421180267 10.609842882411398
Ni 9.76499960334413 7.4933890933810305 10.508180022171116
Ni 11.592552231749284 8.130784820952108 12.14648299922631
Ni 11.526699377005812 10.72903089413898 12.524000818010574
Ni 13.521246590533924 8.938905165192661 13.196381336360407
Ni 11.573718394043604 16.25042129496379 10.226891082779034
Ni 10.558033014733445 6.8187318924199944 8.498716532037516
Ni 10.401277234411564 11.482618207990786 7.5802445310809325
Ni 9.46003400185555 13.304391117642282 8.751339005277217
Ni 10.852929552706643 12.05212470667902 10.6454799870588
Ni 9.019347152028445 10.929356687513453 11.894511222697039
Ni 12.885581568100099 14.402384233503778 10.524352144693985
Ni 11.543672877462273 11.90309991902531 14.549738378110584
Ni 11.796960018506304 13.094499546032402 8.807599810070684
Ni 10.048396027827435 9.185809334649937 8.40582333375326
Ni 10.535306892577342 9.637543174200554 10.649628640300092
Ni 8.23390057217807 9.201326808304835 10.430742101446121
Ni 9.589152969574453 10.781301945409844 14.088847185253748
Ni 12.029366895824861 10.675751762902166 9.039483744109143
Ni 10.020176004239216 12.960601458250071 12.837731461719944
Ni 13.710738632751534 12.949172028477578 14.319696817072163
Ni 12.044403395489114 8.310838060607914 9.405865512307889
Ni 13.027398883710395 9.70332051545278 11.00801157773941
Ni 11.586835625033036 15.329249124927456 12.353194285987541
Ni 8.531009059917919 12.983061037658766 10.908687609089155
