3
Energy = -7.60792744 eV
Ni 7.611856846373157 7.838924148373479 6.308499207225377
Ni 6.883067607524024 5.811232884528257 6.743219424512869
Ni 6.706752974476752 7.407775505269464 8.269220659860402
