33
Energy = -141.51914254 eV
Ni 10.535781039680458 10.140795927329867 6.978229819371075
Ni 10.192193903137133 9.256977268208045 13.552434390253504
Ni 8.256738863236599 9.715155009601053 12.318936882319116
Ni 9.182158734586897 7.451985250435561 12.447272390351927
Ni 14.227734715096531 10.282327733607707 11.226240328777843
Ni 14.27846070996221 11.766193540064343 9.305736584682862
Ni 8.12273010816613 10.431407698691071 10.093863032515968
Ni 9.32225410460446 8.846231764702416 8.643762480035633
Ni 13.427042783399793 12.679134160974657 11.293613912849663
Ni 12.717003859530065 8.414282196552541 10.694267109834064
Ni 12.268928904411958 11.377634842697502 8.064822484022374
Ni 9.956391752561304 11.304927854885719 11.48426788198291
Ni 7.732187298114425 12.023710430776093 11.961833791511358
Ni 11.623543892880896 9.079842343902396 8.770252695293435
Ni 8.735615407674867 12.725842134989682 9.892590685332353
Ni 12.8347280238284 13.5250180851908 8.981496751178907
Ni 12.205515371214496 9.813749239618629 12.555301072973881
Ni 10.146423544162836 11.035224027569466 9.068679556139525
Ni 7.64250264101457 14.305189556618746 11.161143435287217
Ni 9.710545527673936 14.805824942053883 10.035745821235967
Ni 9.564487607218153 13.564604016047312 12.200181708558864
Ni 10.58236217851646 7.153208884094378 10.040126019830074
Ni 12.163247034639223 10.8784911456966 10.418483600968441
Ni 9.41704312218566 11.55168441315303 13.711983593845167
Ni 10.549348392207266 13.218307435528148 8.31709826909308
Ni 13.894056426819064 9.535425102711043 8.967447485929032
Ni 11.574103297210351 12.335560282029002 12.7994860187293
Ni 10.291747991725916 9.108276517265056 10.994798774331832
Ni 13.66984018779779 11.417451694388049 13.286519264403564
Ni 11.226493285442292 13.128913149740464 10.546662593634348
Ni 11.57811525562599 10.83977347268695 14.569191308758398
Ni 8.182732686465194 8.061583700210988 10.483919636290047
Ni 11.474151668308844 7.511476497079029 12.419820938778463
