34
Energy = -145.36034168 eV
Ni 13.260065598506571 9.296974184380096 8.955393949981937
Ni 13.573078614172067 8.35364109699739 11.061387174626695
Ni 12.809573608022054 10.207890987062655 6.8286821396679604
Ni 12.049131398968047 11.38974266912635 8.720529791863445
Ni 12.452691558228 10.450597318858904 10.912581439790692
Ni 12.102475206716155 7.181220278204048 9.617944347885368
Ni 11.762187119484915 8.161796360267195 7.47681989384202
Ni 11.570951609606679 12.260526304115839 6.577808665087026
Ni 12.755602063438152 9.48512690190558 12.973296562675612
Ni 9.735613019132165 7.171285322752669 10.136803090442537
Ni 10.947248464129181 9.234679666135406 9.444029582966152
Ni 11.28659307761671 8.190864816261245 11.64143592557802
Ni 10.495713428223926 10.195996777805037 7.162290558238628
Ni 11.043979220489618 12.370534969290414 10.664843236841369
Ni 10.438086587394743 13.23529303595924 8.47070770235465
Ni 10.146219872741819 10.346481819928318 11.523256465990086
Ni 10.521125537446386 9.302600533631422 13.57952964544191
Ni 9.624128906298127 11.219925496787713 9.22345138843826
Ni 9.223188601268056 12.165140026294475 6.781384443211356
Ni 8.922639542497068 8.294381410516019 12.143795083479654
Ni 8.461453284754505 10.423937911455916 13.12616687425294
Ni 8.523726160566222 9.239974620212944 9.91979000241354
Ni 9.383556405428603 8.163613320485481 7.913803824247824
Ni 8.081794004513508 6.32031066212025 8.656389740236637
Ni 8.091424452256867 11.572169063097727 11.021342329281726
Ni 7.333821498571168 7.304294496413363 10.660906748298716
Ni 6.908405529043773 9.545132599674455 11.640727381261494
Ni 9.028424000049624 13.594767361237055 10.324891229696577
Ni 7.794520311639906 12.46335686081019 8.679740793412442
Ni 6.587734077374913 10.541984053286175 9.432965205833222
Ni 8.147989057140315 10.244757575243446 7.603396455613149
Ni 5.438595395111774 8.592981498529063 10.08614551730578
Ni 6.985489334886225 8.355626161924718 8.330244076363522
Ni 5.7818222078715555 6.485974594815416 9.094257789180253
