42
Energy = -183.98112774 eV
Ni 13.0571694352568 12.275178538311879 7.4796444852599375
Ni 14.2961086425761 10.879315321796849 8.909839313134002
Ni 11.87536908662605 13.728688202175354 8.895633228512734
Ni 11.248050824748145 11.383353374179544 8.687554606957875
Ni 12.762508515747298 11.997770840320172 10.283775784873756
Ni 10.155790989196168 12.916648372914983 10.257831544361117
Ni 14.360067094853006 13.290211213085257 9.167210789439803
Ni 11.022462022418614 15.35109834452938 10.558251933572867
Ni 14.70487214285284 9.467129494305672 10.8036178667686
Ni 12.441307109144839 9.711863973466217 9.93603966595637
Ni 10.247540350131663 10.458037277861004 10.678745307535843
Ni 8.821695542369516 11.944662346297994 12.016690557623617
Ni 13.362072673875335 15.322138830146576 9.642784798146225
Ni 15.07163883189914 11.878383879160985 10.961183071142875
Ni 14.848931170805331 14.307643811072763 11.34358583397288
Ni 13.13763179118897 16.376007319603406 11.618437116880212
Ni 12.517642170372115 13.997535590445535 11.53559473494533
Ni 13.7466374557422 15.046525580686763 13.392551623354718
Ni 13.866700007473192 8.507898921081424 12.954286731837623
Ni 15.507009087733396 10.518712399417078 12.834592926117752
Ni 16.179246771567122 12.958479730005736 12.832753248442167
Ni 9.944340292728004 14.106631910541168 12.3319082075844
Ni 11.460056237770837 15.783828278355546 13.118792765537702
Ni 11.257752023995087 11.977393772183593 12.10566724892845
Ni 11.82465400015501 8.951632858075211 14.331403664914822
Ni 9.980474985226051 10.109569799655988 13.101087165548373
Ni 13.966018419747027 10.20221815804053 14.596003403885911
Ni 13.17005073900458 10.534984482548095 12.201642277789313
Ni 8.040654310663193 13.584411481173468 13.614331143570507
Ni 15.188512783379887 14.096414900168497 14.833011853361224
Ni 11.615389420159309 8.889224374383744 11.974888035778113
Ni 13.936100131728416 12.572719659312188 13.086838065550447
Ni 8.019217801837016 11.068925374456494 14.081901324588863
Ni 9.843654777475022 12.375300853179416 14.216326827415074
Ni 11.876647902662459 13.551319656614005 13.8146673124546
Ni 15.666856038855846 11.797439143156465 14.815204619204184
Ni 10.07532716354851 14.704557344392029 14.759842698592895
Ni 13.541385691287129 12.576335979959387 15.478973333343744
Ni 10.072146457494705 10.39682467007199 15.44075120392912
Ni 11.950597707507109 11.219647052822518 14.298513696173801
Ni 11.242375341040672 12.835635790431946 16.005962278824
Ni 12.604705806689658 14.85507084914694 15.509047453721106
