40
Energy = -173.2142961 eV
Ni 13.854214027350054 8.021427331654348 9.107608166019126
Ni 13.262789300988095 8.310161567897492 11.351955825842138
Ni 12.178973033372518 8.60698808713101 13.448642313172558
Ni 12.094575979169239 6.771356956410804 9.94938735113
Ni 13.842149214940514 10.29430973019048 9.958974627535227
Ni 13.3401939762661 9.727349497236455 7.658451220294158
Ni 10.887497303161565 7.923153657505602 11.617902246045727
Ni 12.606660543001063 10.469894242004052 12.042111141635603
Ni 9.760513404595372 8.71460484437173 13.514164034790586
Ni 11.057016178106391 10.602659355323619 13.99588147066949
Ni 11.700802732783496 9.38524419975672 9.838234908092305
Ni 9.897897704100865 7.50226378055472 9.475077970034167
Ni 11.704173188781565 8.002001119648783 7.930248891624009
Ni 8.874497804183177 10.326794619788867 15.028546764327281
Ni 13.017909141440542 12.44138111240664 10.752529977341524
Ni 12.75658640236467 11.809235018316144 8.476179144509597
Ni 10.253353970391164 10.304744794808922 11.732406604673224
Ni 8.633651904160091 8.529039547775596 11.338517659783992
Ni 11.288164668198728 12.398076792220634 12.455656585507825
Ni 7.6851278816278175 9.818083043112939 13.054646175542652
Ni 7.099088459061701 11.635928548599786 14.314101565805833
Ni 11.076181799967236 10.346049752687165 7.708499436685889
Ni 9.336703261482 10.000584493711026 9.502358368038498
Ni 10.863382848891334 11.92655209480256 9.98979380968481
Ni 12.192330270399353 13.985017599301587 8.917215656159016
Ni 9.466039379837667 8.665877970566129 7.439083705708895
Ni 6.462381729462907 9.384269385358113 11.035940224851629
Ni 8.38675762427636 6.709855624288058 7.790853883314066
Ni 7.582766583223713 8.246387810293278 9.271673645350596
Ni 11.449481929160365 14.283972457751007 11.120135752454685
Ni 9.295313625885768 13.142678530857653 11.319867682855847
Ni 9.092930784569749 11.831031440975591 13.23152929548204
Ni 10.531888373101838 12.623006164331146 7.721308833149415
Ni 7.96632079792231 11.192640631468626 11.147135325144983
Ni 11.393098990771911 16.02780897268531 9.642717901959807
Ni 7.072402340832621 10.525350186100408 8.982445553702174
Ni 8.76208369291309 10.921910009361602 7.288165018344983
Ni 8.616777667297384 12.357641853534243 9.151399577336191
Ni 7.242302339259498 9.03347456824859 7.101249392203018
Ni 9.893915031995435 14.312059397496208 9.324991789241366
