42
Energy = -184.49341737 eV
Ni 9.705293859305469 8.20091998971768 5.4964176533819815
Ni 7.6836640114091175 6.880938302732049 4.646989404834924
Ni 7.591105723632441 9.216492569491837 4.6660431416154236
Ni 9.714268548807782 10.463893492042295 4.8986351289233285
Ni 9.995657621705238 5.945870772751461 4.767153625980091
Ni 5.471712268383262 7.848514937282271 5.2067998654709
Ni 6.042607741079495 10.208032490795336 6.19675974220608
Ni 6.9352841009219395 8.092031479848698 6.8610360137289135
Ni 11.096579925578618 6.702124656543592 6.9090561905028585
Ni 9.591923435686196 8.129136244925748 8.085650623169354
Ni 7.700607741973736 11.628094449634498 5.382294442629669
Ni 8.73972699786671 6.384635035882097 6.66571376954553
Ni 4.2927355033712 8.954959340058828 7.048431954371119
Ni 9.58303310290743 11.954786277605374 6.768236549356815
Ni 6.393927615368028 5.757017945600553 6.431532516320161
Ni 8.091612296242413 4.543772325973623 5.347202603648296
Ni 8.444515594726195 9.860168431940046 6.803508390336993
Ni 5.395445482526791 7.750529528973807 8.804029241883727
Ni 10.82546577306595 9.837463267696672 6.996022177531718
Ni 4.40184439621493 6.615298789073639 7.090057943666309
Ni 10.067070517475322 4.476989568381312 6.671675176751899
Ni 7.842725773364346 4.415886371152191 7.839985468355992
Ni 7.310730277461863 11.621468733910296 7.829952432299746
Ni 3.6360671642586024 9.16010946684934 9.314149671932945
Ni 7.571431246069809 6.687499118513154 8.619414895188227
Ni 7.561417503104224 9.062383094160582 9.08264883167294
Ni 9.77053186348936 5.576658600842738 8.73088273042886
Ni 9.365470218747545 10.818896644431796 8.787848080709411
Ni 5.776378635023937 5.328578008609705 8.833082781065501
Ni 11.420454698930902 7.073608493643229 9.325491876589448
Ni 10.25124222687521 5.739747630930509 11.021915162902378
Ni 8.991646160666106 7.549159427750294 10.35292807219956
Ni 5.551652886528959 10.295799476165415 8.56388876712924
Ni 7.951475760024984 5.090531208715755 10.269023396138277
Ni 6.532948785034809 6.976151981533402 10.728874325335108
Ni 7.330003767278889 10.966536887639412 10.262779848434011
Ni 8.324320390138757 6.505004336876934 12.271829322756773
Ni 11.19095986722785 9.381374446176995 9.353746758926246
Ni 10.940180538553538 8.087412590966125 11.422882613271556
Ni 7.571337295605226 8.809424871162822 11.8044064844032
Ni 5.596046649443901 9.243656728513779 10.665397528758222
Ni 9.411400529439138 9.820946480019417 10.83812929116176
