43
Energy = -189.56761529 eV
Ni 6.347655491092312 10.539208396992116 8.85478724869161
Ni 7.630336185563546 12.282011956543695 10.006673533413998
Ni 7.223461661966896 12.537210481861115 7.660946727527402
Ni 6.45558713826925 10.931256923264472 11.757349945837468
Ni 9.554204322998682 13.60350127238531 10.845280187358544
Ni 7.248081982216375 10.434947188163846 6.527874651042015
Ni 8.00660884871607 9.85996698133427 10.52005665824526
Ni 8.668670596478721 11.796098657005443 12.112408604231131
Ni 6.264625209268685 8.374024740036772 9.856475698801184
Ni 7.790896782934038 8.642985514978248 8.0344756562972
Ni 6.46275100367988 8.595954780468999 12.155134576352296
Ni 9.958658635518589 11.430404538365702 10.105418108565756
Ni 8.214786967617837 9.644150195698337 13.104032559769227
Ni 9.472947725075604 13.125050652372362 8.473571953055218
Ni 8.667776558074566 10.809679138088105 8.337940411474634
Ni 11.198362652060629 12.148531505065996 11.948220065981625
Ni 6.624508388926649 6.491878415310521 11.29633423966165
Ni 9.224676309578863 11.930946567777648 6.402581846287083
Ni 10.191076226019959 9.975366338764196 11.912430699986203
Ni 9.490897263337105 9.418639306988963 6.587088305482924
Ni 11.5972562871183 13.00219830424424 9.691090062841651
Ni 8.152530839882438 6.903304812174755 9.499571864532536
Ni 9.982352804860522 8.996237282440976 9.475910241050448
Ni 12.031339881849094 10.181932370817933 10.196440783149129
Ni 9.040608703319357 7.873439860814614 11.444849387478593
Ni 11.50564442394068 12.71729899122742 7.184312297027517
Ni 11.105703291814356 10.811459038925035 5.608671182041425
Ni 13.377080667310528 11.79814000141827 11.06626000320352
Ni 8.648965508761233 5.43765674116877 11.382021895264586
Ni 11.114508707737906 10.674169449537539 8.032754880490382
Ni 9.95829647167808 7.3917636543139595 7.859250664818206
Ni 12.458413593359843 10.050245013033358 12.512725388421725
Ni 10.40513277583203 6.456086568903754 10.099866814494025
Ni 8.03858143811522 7.071901324127407 13.270229165213516
Ni 11.584097161602747 8.025278560091115 11.538806150541996
Ni 10.205307386342929 8.354442126520498 13.55837299776508
Ni 13.260352041247293 11.790585699699319 8.695303445965738
Ni 13.160763753756855 10.811489101732722 6.613914584591749
Ni 10.401372908167303 6.250739704669846 12.586615508807647
Ni 13.698223833215234 8.759599194311154 10.7868549153638
Ni 12.048951509801157 7.8402486706277275 9.149602611794789
Ni 11.78602252928183 8.778455057767768 6.949258655955322
Ni 13.581945560719019 9.468182371401468 8.499022297082252
