41
Energy = -179.81219169 eV
Ni 13.12342596023893 9.189146274141482 9.700528717563136
Ni 11.03181744908065 12.80704364724583 8.636045513396107
Ni 7.123537037550249 12.039102591299791 9.95527131869412
Ni 13.145288645674032 11.311909937469864 13.488147731614955
Ni 9.109350101445935 9.13068389990407 9.785493113131794
Ni 7.174483193493889 9.854632251999643 11.066756510463987
Ni 9.152057723174812 15.411164504749761 11.231542016270215
Ni 11.100272383909019 8.589020678247074 8.53554227584296
Ni 11.018009946556303 14.790055309238198 9.95251464517592
Ni 9.102152503118171 13.345808478269594 12.367488638970636
Ni 12.99804794756272 9.430912841220211 7.3548151668631965
Ni 11.183539992910692 10.47520981877987 14.617359754591957
Ni 11.07894578934737 12.68772394854912 11.082721202636746
Ni 9.163412995284219 9.04274265728309 12.213276158140664
Ni 9.064513746004572 11.429019137933778 8.616468058718377
Ni 11.14006875051061 12.627360801788782 13.531375150225253
Ni 15.08425008290969 10.005633311060611 10.888001236927703
Ni 13.006130199710817 13.491712476688805 9.855536582156304
Ni 15.047968388790649 12.091867845723613 12.178131663675348
Ni 11.147017981807826 10.522937169718428 12.235394738455378
Ni 9.057364232934935 11.255953526907719 11.076410403268332
Ni 13.159357863831314 11.337287695308689 10.992553794703293
Ni 11.075186501978877 14.698408170660766 12.355422498996445
Ni 11.148838976553929 8.462182306617875 10.929165190364515
Ni 9.044940531877838 13.437424170212465 9.930670050097993
Ni 7.17683317447985 11.96315580544385 12.320461775006516
Ni 13.16088951940627 9.170420295455271 14.471203154668633
Ni 13.06386134277877 13.400058784530911 12.2847209762723
Ni 11.097882432502063 10.614858966106711 9.782288703163026
Ni 13.179851889750381 9.107819035854677 12.10808006125476
Ni 11.02608733903924 10.738579197313989 7.406014975369528
Ni 13.040352104756677 11.49496557924089 8.506762128785512
Ni 9.169868236882445 11.25565531237816 13.5414545399152
Ni 9.115851179655486 9.347640889436294 7.432715837477677
Ni 7.209357946896414 10.010786816872129 8.713081758319404
Ni 14.944424058808066 10.144171139739978 8.546081442062944
Ni 14.99785091326873 12.181612362289236 9.788870368034093
Ni 11.21535088050839 8.410338018156907 13.322338864417496
Ni 15.050185856166967 9.971548117731565 13.243103603227263
Ni 7.313541248662525 9.847708171166703 13.422965674359693
Ni 9.277181577614467 9.089376575199394 14.562892161520555
