49
Energy = -218.53224696 eV
Ni 9.848784818979356 9.061462341243324 4.68870378620462
Ni 7.383318888588502 9.349895796181523 5.010250217432038
Ni 8.192049239161936 11.590559313096746 5.161325373510193
Ni 11.383810816238567 10.085311893501292 6.235144566037901
Ni 10.336627045162043 12.202358540095316 6.0167467177277265
Ni 8.594940827520489 7.530346587073671 6.008242035116161
Ni 6.71599830460028 10.662724272053685 6.9506598987331545
Ni 10.979713654670931 7.697174894006345 6.379531671462951
Ni 6.124207019598514 8.263864460498427 6.722232322386778
Ni 10.372358548689734 11.15715728806059 8.09368410675571
Ni 8.384898452314177 12.338561971662967 7.43505031541165
Ni 8.956971146979717 9.96180820958968 6.579254583161446
Ni 12.544235691249568 11.667649598874231 8.15835365097404
Ni 12.489821652821036 9.240659467076517 8.08169505882327
Ni 7.2410914900077765 6.076829542626082 7.3577471030239945
Ni 9.577519177434604 6.447261588593951 7.995320096836822
Ni 10.62774261481711 13.394718058206395 8.144989554111215
Ni 7.845522855735704 8.146149266242285 8.14596126406157
Ni 11.887091271364403 6.86829639602697 8.505655029383213
Ni 5.954778062296477 9.553110527935152 8.938849049586262
Ni 6.6292302391809965 11.866193619501741 9.13363727438514
Ni 10.200227749191859 8.78020300635389 8.233321330037136
Ni 13.712154142512656 8.13781253204312 9.762664179672154
Ni 5.808067730942636 7.166095509514959 8.890723984981689
Ni 8.259141174499641 10.311151120534984 8.896949877575182
Ni 6.077227142249509 10.488084415080234 11.1857792689235
Ni 9.007625010054541 8.298526587936282 10.183932792936522
Ni 12.80402189588548 10.365570115122127 10.183277009263048
Ni 11.439385994055973 8.275193304330301 10.288030263931052
Ni 7.886396575110516 6.251341101461989 9.761115790789157
Ni 7.29654455715604 12.641236905742863 11.260927658635897
Ni 6.769636253577787 8.212020689122248 10.806153336725785
Ni 10.262226003040604 6.199420352214519 10.337833622058051
Ni 11.440105425126484 12.405355892922753 10.272430745081605
Ni 9.054014686424717 12.505002463682407 9.733325577149014
Ni 12.62093246517239 6.370205168550936 10.863938247361654
Ni 10.40895403788385 10.376169304349576 10.23021101132182
Ni 8.324226099149097 10.491339726927986 11.256295535228006
Ni 12.87554690817383 8.675417376151152 12.000355085451055
Ni 10.029235635026929 8.993806550362176 12.144224242508283
Ni 7.477377219940698 11.40049053535827 13.204509323959146
Ni 8.615745143519684 6.925994068380926 12.026918333010343
Ni 11.609445399287035 10.822476084781195 12.273277635608085
Ni 11.059722634620497 6.972412976722367 12.537613255661919
Ni 9.65469807245212 12.206415161338757 12.079971710505667
Ni 7.5996596244274395 9.00193982203645 12.900858051621723
Ni 11.525401042040189 9.015769459591862 13.915535909556636
Ni 9.575893414421051 10.467838519916882 13.79264798740174
Ni 9.394303267878508 7.9392447385545575 14.09277167915115
