5
Energy = -14.96995609 eV
Ni 7.969885609628127 9.01023294300049 7.048720486866189
Ni 7.0265273929614285 7.42839769914512 8.365375498375931
Ni 8.716095570045315 5.963645629219159 8.61415991513777
Ni 5.834392245690409 9.196589079512485 7.645271537119102
Ni 8.32190425240345 6.808361921310612 6.601351815236914
