53
Energy = -236.21352661 eV
Ni 12.159165875325844 8.78732230468713 6.494690676246173
Ni 10.903362612409524 12.385932019681517 6.277782512902814
Ni 13.116919085134432 11.073570483425586 6.578762745507633
Ni 10.532991378087292 10.22615988196056 5.579494422730334
Ni 9.835757774015272 8.655270098979926 7.246671028688077
Ni 9.026892004790291 11.278560003229334 7.373469877851771
Ni 13.611223358229445 9.453238589399664 8.286473272692735
Ni 11.721896886144116 7.85333614131169 8.620310787095237
Ni 14.322785507892284 11.639184219002864 8.758013081633178
Ni 11.272183463698346 10.515838485275827 7.787973987846953
Ni 12.277104138022978 12.672761053960262 8.13811883356938
Ni 9.96376138185024 13.443088388957557 8.164563369340948
Ni 7.744676607642378 8.207874784200134 8.259641693401685
Ni 7.17465163879145 10.424876885462302 8.733720199740507
Ni 11.468392025095563 6.960646807934855 10.829714254007397
Ni 9.370155771873897 9.852864697339085 9.237908682533858
Ni 13.598738791495618 7.9174329989915755 10.10659869723011
Ni 14.24966382176142 10.143689985918174 10.700271639993206
Ni 8.254843040425264 12.366826751625107 9.472522761858352
Ni 14.896426854613408 12.648655562965725 10.956023388773847
Ni 9.57607856597778 7.4225367107127616 9.443267380116337
Ni 11.603328171997685 14.080058600996178 9.879726227554643
Ni 11.956616571714656 9.774797109668455 9.912498065637184
Ni 10.56129222140923 11.816185719394449 9.76368590699091
Ni 12.773899635258088 12.076689053489655 10.411470882119474
Ni 9.250896433171015 14.414960416540257 10.251746080226901
Ni 9.210518555241379 6.830858113597838 11.744844795695606
Ni 12.531542149989466 8.670920945764195 12.02578521552061
Ni 7.441082304117286 6.680585865947256 10.101168500493072
Ni 15.911829642897084 10.95209834672461 12.142883159549328
Ni 7.636372679634727 8.917660081726323 10.641795192791268
Ni 10.205929420065827 8.900983088479398 11.25446046643666
Ni 13.68275977553064 11.517842258515268 12.706474977866712
Ni 10.415777501979179 13.108586988917011 11.811952184369787
Ni 11.388189672641923 10.880050070581802 11.96084544734608
Ni 14.485018958606199 9.312800729510286 12.973553363130769
Ni 7.908400899133714 13.056816577191517 11.765684430613348
Ni 6.7300421908934185 11.158921672355316 10.958199248633711
Ni 12.72420015799333 13.690762908221883 12.124020254788752
Ni 8.972203466923762 14.929129824786097 12.650942503230397
Ni 10.645994504091124 8.151541392634922 13.439022443425392
Ni 9.013444662496205 10.954926571889091 11.473767123736678
Ni 11.033987277983279 15.454114576693048 11.646043331178602
Ni 11.662529705924658 12.236979923583641 13.863681428646384
Ni 8.715883685584435 6.903992158234151 14.00749880734364
Ni 6.968965489197704 7.16402957402612 12.364667452502996
Ni 6.186140620221418 9.40255505467966 12.455684522304846
Ni 11.010024218977488 14.459647967306402 13.762936142949739
Ni 12.308717017794056 9.932806865644256 13.977304620292509
Ni 9.25587738860897 12.77132684125867 13.788273677533223
Ni 8.411620345826009 8.952951604037517 12.969562584736869
Ni 9.964492179121063 10.492616578179229 13.831457227354196
Ni 7.567017161195971 11.175863388371562 13.287581656925134
