5
Energy = -13.97209572 eV
Ni 10.030913758790966 7.432374290534396 8.52457844
Ni 10.030913758790966 9.616782589465606 8.52457844
Ni 7.949727247746021 10.29751322858657 8.52457844
Ni 6.661610187989776 8.52457844 8.52457844
Ni 7.949727247746021 6.7516436514134295 8.52457844
