7
Energy = -23.98293103 eV
Ni 10.840224185893309 10.601758642267376 10.834974099312515
Ni 11.396294778647254 9.806606317868754 8.628586083064135
Ni 9.963723213046705 8.60948595426172 10.02775845826749
Ni 9.248048918372346 10.517607925475145 9.134723769781528
Ni 9.467547651825909 8.6487543212261 7.758140250663286
Ni 8.567772577524204 9.97846132298948 11.293493550711865
Ni 7.719468193518061 8.78194516238809 9.403089683664692
