8
Energy = -28.35842136 eV
Ni 7.644904897158327 6.369277017185452 7.625066002711519
Ni 9.111238819424866 7.366797687446832 6.1408063295069395
Ni 7.485173248266536 7.202409976364441 9.834296682658119
Ni 7.755534289750688 9.454048687080673 9.454164947790545
Ni 9.238429203598097 7.841550445132155 8.455415985336638
Ni 7.987232758579301 9.182461594921397 7.132740559612559
Ni 6.234456778293954 8.16375559710347 8.131129938916136
Ni 6.746059148096128 7.611990759495006 5.8932656997349175
