8
Energy = -27.91344175 eV
Ni 9.054488032293214 9.054488032293214 9.054488032293214
Ni 7.230269967706787 7.230269967706787 9.054488032293214
Ni 9.054488032293214 7.230269967706787 7.230269967706787
Ni 7.230269967706787 9.054488032293214 7.230269967706787
Ni 9.433113557009433 6.851644442990565 9.433113557009433
Ni 9.433113557009433 9.433113557009433 6.851644442990565
Ni 6.851644442990565 9.433113557009433 9.433113557009433
Ni 6.851644442990565 6.851644442990565 6.851644442990565
