  41  41   0   0
  0.2878037E+03  0.2276635E-08  0.2276635E-08  0.2276635E-08  0.1000000E-15
  1.000000000000000E-004
  CAR 
 unknown system                          
      1.93577884    -10.10586963  301     -3.34247707      1.00000000
    -10.106  0.0000E+00  0.0000E+00  0.0000E+00  0.0000E+00
    -10.066  0.0000E+00  0.0000E+00  0.0000E+00  0.0000E+00
    -10.026  0.0000E+00  0.0000E+00  0.0000E+00  0.0000E+00
     -9.985  0.0000E+00  0.0000E+00  0.0000E+00  0.0000E+00
     -9.945  0.0000E+00  0.0000E+00  0.0000E+00  0.0000E+00
     -9.905  0.0000E+00  0.0000E+00  0.0000E+00  0.0000E+00
     -9.865  0.0000E+00  0.0000E+00  0.0000E+00  0.0000E+00
     -9.825  0.0000E+00  0.0000E+00  0.0000E+00  0.0000E+00
     -9.785  0.0000E+00  0.0000E+00  0.0000E+00  0.0000E+00
     -9.745  0.0000E+00  0.0000E+00  0.0000E+00  0.0000E+00
     -9.704  0.0000E+00  0.0000E+00  0.0000E+00  0.0000E+00
     -9.664  0.0000E+00  0.0000E+00  0.0000E+00  0.0000E+00
     -9.624  0.0000E+00  0.0000E+00  0.0000E+00  0.0000E+00
     -9.584  0.0000E+00  0.0000E+00  0.0000E+00  0.0000E+00
     -9.544  0.0000E+00  0.0000E+00  0.1000E-02  0.1000E-02
     -9.504  0.0000E+00  0.0000E+00  0.1000E-02  0.1000E-02
     -9.464  0.0000E+00  0.0000E+00  0.1000E-02  0.1000E-02
     -9.424  0.0000E+00  0.0000E+00  0.1000E-02  0.1000E-02
     -9.383  0.0000E+00  0.0000E+00  0.1000E-02  0.1000E-02
     -9.343  0.0000E+00  0.0000E+00  0.1000E-02  0.1000E-02
     -9.303  0.0000E+00  0.0000E+00  0.1000E-02  0.1000E-02
     -9.263  0.0000E+00  0.0000E+00  0.1000E-02  0.1000E-02
     -9.223  0.0000E+00  0.0000E+00  0.1000E-02  0.1000E-02
     -9.183  0.0000E+00  0.0000E+00  0.1000E-02  0.1000E-02
     -9.143  0.0000E+00  0.0000E+00  0.1000E-02  0.1000E-02
     -9.102  0.0000E+00  0.0000E+00  0.2000E-02  0.2000E-02
     -9.062  0.0000E+00  0.0000E+00  0.2000E-02  0.2000E-02
     -9.022  0.0000E+00  0.0000E+00  0.2000E-02  0.2000E-02
     -8.982  0.0000E+00  0.0000E+00  0.3000E-02  0.3000E-02
     -8.942  0.0000E+00  0.0000E+00  0.6000E-02  0.5000E-02
     -8.902  0.0000E+00  0.1031E-01  0.7000E-02  0.6414E-02
     -8.862  0.0000E+00  0.0000E+00  0.9000E-02  0.8000E-02
     -8.821  0.0000E+00  0.0000E+00  0.1100E-01  0.1000E-01
     -8.781  0.0000E+00  0.0000E+00  0.1200E-01  0.1200E-01
     -8.741  0.0000E+00  0.0000E+00  0.1500E-01  0.1400E-01
     -8.701  0.0000E+00  0.1469E-02  0.1800E-01  0.1606E-01
     -8.661  0.0000E+00  0.0000E+00  0.2100E-01  0.2000E-01
     -8.621  0.0000E+00  0.0000E+00  0.2300E-01  0.2300E-01
     -8.581  0.0000E+00  0.0000E+00  0.2600E-01  0.2600E-01
     -8.540  0.0000E+00  0.0000E+00  0.2800E-01  0.2700E-01
     -8.500  0.0000E+00  0.0000E+00  0.3000E-01  0.3000E-01
     -8.460  0.0000E+00  0.0000E+00  0.3200E-01  0.3100E-01
     -8.420  0.0000E+00  0.0000E+00  0.3500E-01  0.3500E-01
     -8.380  0.0000E+00  0.0000E+00  0.3800E-01  0.3700E-01
     -8.340  0.0000E+00  0.0000E+00  0.4000E-01  0.4000E-01
     -8.300  0.0000E+00  0.0000E+00  0.4200E-01  0.4200E-01
     -8.259  0.2491E-01  0.0000E+00  0.4500E-01  0.4400E-01
     -8.219  0.0000E+00  0.0000E+00  0.4700E-01  0.4700E-01
     -8.179  0.0000E+00  0.0000E+00  0.5100E-01  0.5000E-01
     -8.139  0.0000E+00  0.0000E+00  0.5200E-01  0.5200E-01
     -8.099  0.0000E+00  0.0000E+00  0.5500E-01  0.5500E-01
     -8.059  0.2491E-01  0.0000E+00  0.5800E-01  0.5700E-01
     -8.019  0.0000E+00  0.0000E+00  0.6100E-01  0.6100E-01
     -7.979  0.0000E+00  0.0000E+00  0.6300E-01  0.6300E-01
     -7.938  0.0000E+00  0.0000E+00  0.6500E-01  0.6500E-01
     -7.898  0.0000E+00  0.2491E-01  0.6800E-01  0.6800E-01
     -7.858  0.0000E+00  0.0000E+00  0.7000E-01  0.7000E-01
     -7.818  0.0000E+00  0.0000E+00  0.7200E-01  0.7200E-01
     -7.778  0.0000E+00  0.0000E+00  0.7500E-01  0.7400E-01
     -7.738  0.0000E+00  0.0000E+00  0.7600E-01  0.7600E-01
     -7.698  0.0000E+00  0.0000E+00  0.7900E-01  0.7800E-01
     -7.657  0.0000E+00  0.0000E+00  0.8200E-01  0.8200E-01
     -7.617  0.0000E+00  0.0000E+00  0.8400E-01  0.8400E-01
     -7.577  0.2489E-01  0.0000E+00  0.8800E-01  0.8700E-01
     -7.537  0.0000E+00  0.0000E+00  0.9000E-01  0.8900E-01
     -7.497  0.0000E+00  0.0000E+00  0.9200E-01  0.9100E-01
     -7.457  0.0000E+00  0.0000E+00  0.9500E-01  0.9500E-01
     -7.417  0.3823E-02  0.0000E+00  0.9715E-01  0.9700E-01
     -7.376  0.0000E+00  0.0000E+00  0.1000E+00  0.1000E+00
     -7.336  0.0000E+00  0.0000E+00  0.1030E+00  0.1020E+00
     -7.296  0.0000E+00  0.0000E+00  0.1050E+00  0.1050E+00
     -7.256  0.0000E+00  0.0000E+00  0.1080E+00  0.1070E+00
     -7.216  0.0000E+00  0.0000E+00  0.1120E+00  0.1110E+00
     -7.176  0.0000E+00  0.0000E+00  0.1130E+00  0.1130E+00
     -7.136  0.0000E+00  0.2491E-01  0.1180E+00  0.1170E+00
     -7.095  0.1883E-02  0.0000E+00  0.1201E+00  0.1200E+00
     -7.055  0.0000E+00  0.0000E+00  0.1230E+00  0.1210E+00
     -7.015  0.0000E+00  0.0000E+00  0.1260E+00  0.1250E+00
     -6.975  0.0000E+00  0.0000E+00  0.1300E+00  0.1280E+00
     -6.935  0.0000E+00  0.0000E+00  0.1330E+00  0.1320E+00
     -6.895  0.0000E+00  0.0000E+00  0.1360E+00  0.1360E+00
     -6.855  0.0000E+00  0.0000E+00  0.1410E+00  0.1400E+00
     -6.814  0.0000E+00  0.0000E+00  0.1440E+00  0.1440E+00
     -6.774  0.0000E+00  0.0000E+00  0.1490E+00  0.1480E+00
     -6.734  0.0000E+00  0.0000E+00  0.1530E+00  0.1520E+00
     -6.694  0.0000E+00  0.0000E+00  0.1580E+00  0.1580E+00
     -6.654  0.0000E+00  0.0000E+00  0.1610E+00  0.1600E+00
     -6.614  0.0000E+00  0.0000E+00  0.1660E+00  0.1660E+00
     -6.574  0.0000E+00  0.0000E+00  0.1700E+00  0.1700E+00
     -6.534  0.0000E+00  0.0000E+00  0.1750E+00  0.1740E+00
     -6.493  0.0000E+00  0.0000E+00  0.1790E+00  0.1790E+00
     -6.453  0.6911E-03  0.0000E+00  0.1820E+00  0.1820E+00
     -6.413  0.8840E-02  0.0000E+00  0.1864E+00  0.1850E+00
     -6.373  0.0000E+00  0.2491E-01  0.1890E+00  0.1890E+00
     -6.333  0.0000E+00  0.0000E+00  0.1930E+00  0.1920E+00
     -6.293  0.0000E+00  0.0000E+00  0.1960E+00  0.1960E+00
     -6.253  0.0000E+00  0.0000E+00  0.1990E+00  0.1980E+00
     -6.212  0.0000E+00  0.0000E+00  0.2020E+00  0.2010E+00
     -6.172  0.0000E+00  0.0000E+00  0.2040E+00  0.2040E+00
     -6.132  0.0000E+00  0.0000E+00  0.2050E+00  0.2050E+00
     -6.092  0.0000E+00  0.2489E-01  0.2090E+00  0.2080E+00
     -6.052  0.0000E+00  0.0000E+00  0.2090E+00  0.2090E+00
     -6.012  0.0000E+00  0.0000E+00  0.2100E+00  0.2100E+00
     -5.972  0.0000E+00  0.0000E+00  0.2110E+00  0.2110E+00
     -5.931  0.0000E+00  0.0000E+00  0.2120E+00  0.2120E+00
     -5.891  0.0000E+00  0.0000E+00  0.2120E+00  0.2120E+00
     -5.851  0.0000E+00  0.0000E+00  0.2120E+00  0.2120E+00
     -5.811  0.0000E+00  0.0000E+00  0.2120E+00  0.2120E+00
     -5.771  0.0000E+00  0.0000E+00  0.2120E+00  0.2120E+00
     -5.731  0.0000E+00  0.0000E+00  0.2120E+00  0.2120E+00
     -5.691  0.0000E+00  0.0000E+00  0.2120E+00  0.2120E+00
     -5.650  0.0000E+00  0.0000E+00  0.2120E+00  0.2120E+00
     -5.610  0.0000E+00  0.0000E+00  0.2130E+00  0.2130E+00
     -5.570  0.0000E+00  0.0000E+00  0.2130E+00  0.2130E+00
     -5.530  0.0000E+00  0.0000E+00  0.2130E+00  0.2130E+00
     -5.490  0.0000E+00  0.0000E+00  0.2130E+00  0.2130E+00
     -5.450  0.0000E+00  0.0000E+00  0.2140E+00  0.2140E+00
     -5.410  0.0000E+00  0.0000E+00  0.2140E+00  0.2140E+00
     -5.369  0.0000E+00  0.0000E+00  0.2140E+00  0.2140E+00
     -5.329  0.0000E+00  0.0000E+00  0.2140E+00  0.2140E+00
     -5.289  0.0000E+00  0.0000E+00  0.2140E+00  0.2140E+00
     -5.249  0.0000E+00  0.0000E+00  0.2140E+00  0.2140E+00
     -5.209  0.0000E+00  0.0000E+00  0.2150E+00  0.2150E+00
     -5.169  0.0000E+00  0.0000E+00  0.2150E+00  0.2150E+00
     -5.129  0.0000E+00  0.0000E+00  0.2150E+00  0.2150E+00
     -5.089  0.0000E+00  0.0000E+00  0.2150E+00  0.2150E+00
     -5.048  0.0000E+00  0.0000E+00  0.2150E+00  0.2150E+00
     -5.008  0.0000E+00  0.0000E+00  0.2150E+00  0.2150E+00
     -4.968  0.0000E+00  0.0000E+00  0.2160E+00  0.2150E+00
     -4.928  0.0000E+00  0.0000E+00  0.2160E+00  0.2160E+00
     -4.888  0.0000E+00  0.0000E+00  0.2160E+00  0.2160E+00
     -4.848  0.0000E+00  0.0000E+00  0.2170E+00  0.2160E+00
     -4.808  0.0000E+00  0.0000E+00  0.2180E+00  0.2170E+00
     -4.767  0.0000E+00  0.0000E+00  0.2180E+00  0.2180E+00
     -4.727  0.0000E+00  0.0000E+00  0.2180E+00  0.2180E+00
     -4.687  0.0000E+00  0.0000E+00  0.2180E+00  0.2180E+00
     -4.647  0.0000E+00  0.0000E+00  0.2180E+00  0.2180E+00
     -4.607  0.0000E+00  0.0000E+00  0.2180E+00  0.2180E+00
     -4.567  0.0000E+00  0.0000E+00  0.2180E+00  0.2180E+00
     -4.527  0.0000E+00  0.0000E+00  0.2180E+00  0.2180E+00
     -4.486  0.0000E+00  0.0000E+00  0.2190E+00  0.2190E+00
     -4.446  0.0000E+00  0.0000E+00  0.2190E+00  0.2190E+00
     -4.406  0.0000E+00  0.0000E+00  0.2190E+00  0.2190E+00
     -4.366  0.0000E+00  0.0000E+00  0.2190E+00  0.2190E+00
     -4.326  0.0000E+00  0.0000E+00  0.2190E+00  0.2190E+00
     -4.286  0.0000E+00  0.0000E+00  0.2190E+00  0.2190E+00
     -4.246  0.0000E+00  0.0000E+00  0.2200E+00  0.2190E+00
     -4.205  0.0000E+00  0.0000E+00  0.2200E+00  0.2200E+00
     -4.165  0.0000E+00  0.0000E+00  0.2210E+00  0.2200E+00
     -4.125  0.0000E+00  0.0000E+00  0.2220E+00  0.2210E+00
     -4.085  0.0000E+00  0.0000E+00  0.2220E+00  0.2220E+00
     -4.045  0.0000E+00  0.0000E+00  0.2220E+00  0.2220E+00
     -4.005  0.0000E+00  0.0000E+00  0.2220E+00  0.2220E+00
     -3.965  0.0000E+00  0.0000E+00  0.2220E+00  0.2220E+00
     -3.924  0.0000E+00  0.0000E+00  0.2220E+00  0.2220E+00
     -3.884  0.0000E+00  0.0000E+00  0.2220E+00  0.2220E+00
     -3.844  0.0000E+00  0.0000E+00  0.2220E+00  0.2220E+00
     -3.804  0.0000E+00  0.0000E+00  0.2220E+00  0.2220E+00
     -3.764  0.0000E+00  0.0000E+00  0.2220E+00  0.2220E+00
     -3.724  0.0000E+00  0.0000E+00  0.2220E+00  0.2220E+00
     -3.684  0.0000E+00  0.0000E+00  0.2230E+00  0.2220E+00
     -3.644  0.0000E+00  0.0000E+00  0.2240E+00  0.2230E+00
     -3.603  0.0000E+00  0.0000E+00  0.2240E+00  0.2240E+00
     -3.563  0.0000E+00  0.0000E+00  0.2250E+00  0.2240E+00
     -3.523  0.0000E+00  0.0000E+00  0.2250E+00  0.2250E+00
     -3.483  0.0000E+00  0.0000E+00  0.2250E+00  0.2250E+00
     -3.443  0.0000E+00  0.0000E+00  0.2250E+00  0.2250E+00
     -3.403  0.0000E+00  0.0000E+00  0.2250E+00  0.2250E+00
     -3.363  0.0000E+00  0.0000E+00  0.2250E+00  0.2250E+00
     -3.322  0.0000E+00  0.0000E+00  0.2260E+00  0.2250E+00
     -3.282  0.0000E+00  0.2491E-01  0.2260E+00  0.2260E+00
     -3.242  0.0000E+00  0.0000E+00  0.2260E+00  0.2260E+00
     -3.202  0.0000E+00  0.0000E+00  0.2260E+00  0.2260E+00
     -3.162  0.0000E+00  0.0000E+00  0.2260E+00  0.2260E+00
     -3.122  0.0000E+00  0.0000E+00  0.2260E+00  0.2260E+00
     -3.082  0.0000E+00  0.0000E+00  0.2260E+00  0.2260E+00
     -3.041  0.0000E+00  0.0000E+00  0.2260E+00  0.2260E+00
     -3.001  0.0000E+00  0.0000E+00  0.2280E+00  0.2270E+00
     -2.961  0.0000E+00  0.0000E+00  0.2290E+00  0.2280E+00
     -2.921  0.0000E+00  0.0000E+00  0.2290E+00  0.2290E+00
     -2.881  0.0000E+00  0.0000E+00  0.2290E+00  0.2290E+00
     -2.841  0.0000E+00  0.0000E+00  0.2290E+00  0.2290E+00
     -2.801  0.0000E+00  0.0000E+00  0.2290E+00  0.2290E+00
     -2.760  0.0000E+00  0.0000E+00  0.2290E+00  0.2290E+00
     -2.720  0.0000E+00  0.0000E+00  0.2300E+00  0.2300E+00
     -2.680  0.0000E+00  0.0000E+00  0.2300E+00  0.2300E+00
     -2.640  0.0000E+00  0.0000E+00  0.2300E+00  0.2300E+00
     -2.600  0.0000E+00  0.0000E+00  0.2310E+00  0.2310E+00
     -2.560  0.0000E+00  0.0000E+00  0.2310E+00  0.2310E+00
     -2.520  0.0000E+00  0.0000E+00  0.2320E+00  0.2310E+00
     -2.479  0.0000E+00  0.0000E+00  0.2320E+00  0.2320E+00
     -2.439  0.7107E-04  0.0000E+00  0.2320E+00  0.2320E+00
     -2.399  0.0000E+00  0.0000E+00  0.2330E+00  0.2330E+00
     -2.359  0.0000E+00  0.0000E+00  0.2340E+00  0.2330E+00
     -2.319  0.0000E+00  0.0000E+00  0.2340E+00  0.2340E+00
     -2.279  0.0000E+00  0.0000E+00  0.2350E+00  0.2340E+00
     -2.239  0.0000E+00  0.0000E+00  0.2350E+00  0.2350E+00
     -2.199  0.0000E+00  0.0000E+00  0.2350E+00  0.2350E+00
     -2.158  0.0000E+00  0.0000E+00  0.2350E+00  0.2350E+00
     -2.118  0.0000E+00  0.0000E+00  0.2350E+00  0.2350E+00
     -2.078  0.0000E+00  0.0000E+00  0.2350E+00  0.2350E+00
     -2.038  0.0000E+00  0.0000E+00  0.2350E+00  0.2350E+00
     -1.998  0.0000E+00  0.0000E+00  0.2350E+00  0.2350E+00
     -1.958  0.0000E+00  0.0000E+00  0.2370E+00  0.2360E+00
     -1.918  0.0000E+00  0.0000E+00  0.2370E+00  0.2370E+00
     -1.877  0.0000E+00  0.0000E+00  0.2370E+00  0.2370E+00
     -1.837  0.0000E+00  0.0000E+00  0.2380E+00  0.2370E+00
     -1.797  0.0000E+00  0.0000E+00  0.2380E+00  0.2380E+00
     -1.757  0.0000E+00  0.0000E+00  0.2380E+00  0.2380E+00
     -1.717  0.0000E+00  0.0000E+00  0.2390E+00  0.2380E+00
     -1.677  0.2303E-01  0.0000E+00  0.2399E+00  0.2390E+00
     -1.637  0.0000E+00  0.0000E+00  0.2400E+00  0.2400E+00
     -1.596  0.0000E+00  0.0000E+00  0.2400E+00  0.2400E+00
     -1.556  0.0000E+00  0.0000E+00  0.2400E+00  0.2400E+00
     -1.516  0.0000E+00  0.0000E+00  0.2400E+00  0.2400E+00
     -1.476  0.0000E+00  0.0000E+00  0.2410E+00  0.2400E+00
     -1.436  0.0000E+00  0.0000E+00  0.2410E+00  0.2410E+00
     -1.396  0.0000E+00  0.0000E+00  0.2420E+00  0.2410E+00
     -1.356  0.0000E+00  0.0000E+00  0.2420E+00  0.2420E+00
     -1.315  0.0000E+00  0.0000E+00  0.2430E+00  0.2430E+00
     -1.275  0.0000E+00  0.0000E+00  0.2430E+00  0.2430E+00
     -1.235  0.0000E+00  0.0000E+00  0.2440E+00  0.2430E+00
     -1.195  0.0000E+00  0.0000E+00  0.2440E+00  0.2440E+00
     -1.155  0.0000E+00  0.0000E+00  0.2440E+00  0.2440E+00
     -1.115  0.0000E+00  0.0000E+00  0.2450E+00  0.2440E+00
     -1.075  0.0000E+00  0.0000E+00  0.2450E+00  0.2450E+00
     -1.034  0.0000E+00  0.0000E+00  0.2460E+00  0.2450E+00
     -0.994  0.0000E+00  0.0000E+00  0.2470E+00  0.2460E+00
     -0.954  0.0000E+00  0.0000E+00  0.2470E+00  0.2470E+00
     -0.914  0.0000E+00  0.0000E+00  0.2470E+00  0.2470E+00
     -0.874  0.0000E+00  0.0000E+00  0.2480E+00  0.2480E+00
     -0.834  0.0000E+00  0.0000E+00  0.2480E+00  0.2480E+00
     -0.794  0.0000E+00  0.0000E+00  0.2480E+00  0.2480E+00
     -0.754  0.0000E+00  0.1287E-03  0.2500E+00  0.2480E+00
     -0.713  0.0000E+00  0.0000E+00  0.2500E+00  0.2500E+00
     -0.673  0.0000E+00  0.0000E+00  0.2500E+00  0.2500E+00
     -0.633  0.0000E+00  0.0000E+00  0.2500E+00  0.2500E+00
     -0.593  0.0000E+00  0.0000E+00  0.2520E+00  0.2500E+00
     -0.553  0.0000E+00  0.0000E+00  0.2520E+00  0.2520E+00
     -0.513  0.0000E+00  0.0000E+00  0.2530E+00  0.2520E+00
     -0.473  0.0000E+00  0.0000E+00  0.2530E+00  0.2530E+00
     -0.432  0.0000E+00  0.0000E+00  0.2540E+00  0.2530E+00
     -0.392  0.0000E+00  0.0000E+00  0.2540E+00  0.2540E+00
     -0.352  0.0000E+00  0.0000E+00  0.2540E+00  0.2540E+00
     -0.312  0.0000E+00  0.0000E+00  0.2550E+00  0.2540E+00
     -0.272  0.0000E+00  0.0000E+00  0.2550E+00  0.2550E+00
     -0.232  0.0000E+00  0.0000E+00  0.2560E+00  0.2550E+00
     -0.192  0.0000E+00  0.0000E+00  0.2560E+00  0.2560E+00
     -0.151  0.0000E+00  0.0000E+00  0.2560E+00  0.2560E+00
     -0.111  0.0000E+00  0.0000E+00  0.2570E+00  0.2560E+00
     -0.071  0.0000E+00  0.0000E+00  0.2590E+00  0.2570E+00
     -0.031  0.0000E+00  0.0000E+00  0.2590E+00  0.2590E+00
      0.009  0.0000E+00  0.0000E+00  0.2590E+00  0.2590E+00
      0.049  0.0000E+00  0.0000E+00  0.2600E+00  0.2590E+00
      0.089  0.0000E+00  0.0000E+00  0.2600E+00  0.2600E+00
      0.130  0.0000E+00  0.0000E+00  0.2600E+00  0.2600E+00
      0.170  0.0000E+00  0.0000E+00  0.2600E+00  0.2600E+00
      0.210  0.0000E+00  0.0000E+00  0.2610E+00  0.2610E+00
      0.250  0.0000E+00  0.0000E+00  0.2610E+00  0.2610E+00
      0.290  0.0000E+00  0.0000E+00  0.2620E+00  0.2620E+00
      0.330  0.0000E+00  0.0000E+00  0.2620E+00  0.2620E+00
      0.370  0.0000E+00  0.0000E+00  0.2620E+00  0.2620E+00
      0.411  0.2140E-01  0.0000E+00  0.2629E+00  0.2620E+00
      0.451  0.0000E+00  0.0000E+00  0.2630E+00  0.2630E+00
      0.491  0.0000E+00  0.0000E+00  0.2650E+00  0.2640E+00
      0.531  0.0000E+00  0.0000E+00  0.2650E+00  0.2650E+00
      0.571  0.0000E+00  0.0000E+00  0.2650E+00  0.2650E+00
      0.611  0.0000E+00  0.2491E-01  0.2660E+00  0.2660E+00
      0.651  0.0000E+00  0.0000E+00  0.2670E+00  0.2670E+00
      0.691  0.0000E+00  0.0000E+00  0.2680E+00  0.2670E+00
      0.732  0.0000E+00  0.0000E+00  0.2680E+00  0.2680E+00
      0.772  0.0000E+00  0.0000E+00  0.2690E+00  0.2690E+00
      0.812  0.0000E+00  0.0000E+00  0.2710E+00  0.2710E+00
      0.852  0.0000E+00  0.0000E+00  0.2720E+00  0.2710E+00
      0.892  0.0000E+00  0.0000E+00  0.2730E+00  0.2720E+00
      0.932  0.0000E+00  0.0000E+00  0.2730E+00  0.2730E+00
      0.972  0.0000E+00  0.0000E+00  0.2750E+00  0.2740E+00
      1.013  0.1382E-14  0.0000E+00  0.2750E+00  0.2750E+00
      1.053  0.0000E+00  0.0000E+00  0.2780E+00  0.2760E+00
      1.093  0.0000E+00  0.0000E+00  0.2810E+00  0.2790E+00
      1.133  0.0000E+00  0.0000E+00  0.2840E+00  0.2820E+00
      1.173  0.0000E+00  0.0000E+00  0.2850E+00  0.2840E+00
      1.213  0.0000E+00  0.0000E+00  0.2870E+00  0.2860E+00
      1.253  0.0000E+00  0.0000E+00  0.2870E+00  0.2870E+00
      1.294  0.0000E+00  0.0000E+00  0.2890E+00  0.2880E+00
      1.334  0.0000E+00  0.0000E+00  0.2900E+00  0.2890E+00
      1.374  0.0000E+00  0.0000E+00  0.2910E+00  0.2900E+00
      1.414  0.0000E+00  0.0000E+00  0.2920E+00  0.2920E+00
      1.454  0.0000E+00  0.0000E+00  0.2920E+00  0.2920E+00
      1.494  0.0000E+00  0.0000E+00  0.2920E+00  0.2920E+00
      1.534  0.0000E+00  0.0000E+00  0.2920E+00  0.2920E+00
      1.575  0.0000E+00  0.0000E+00  0.2920E+00  0.2920E+00
      1.615  0.0000E+00  0.0000E+00  0.2920E+00  0.2920E+00
      1.655  0.0000E+00  0.0000E+00  0.2920E+00  0.2920E+00
      1.695  0.0000E+00  0.0000E+00  0.2920E+00  0.2920E+00
      1.735  0.0000E+00  0.0000E+00  0.2920E+00  0.2920E+00
      1.775  0.0000E+00  0.0000E+00  0.2920E+00  0.2920E+00
      1.815  0.0000E+00  0.0000E+00  0.2920E+00  0.2920E+00
      1.856  0.0000E+00  0.0000E+00  0.2920E+00  0.2920E+00
      1.896  0.0000E+00  0.0000E+00  0.2920E+00  0.2920E+00
      1.936  0.0000E+00  0.0000E+00  0.2920E+00  0.2920E+00
