unknown system                          
           1
    20.725946    0.000000    0.000000
     0.000000   20.725946    0.000000
     0.000000    0.000000   20.725946
   Ag
  24
Direct configuration=     1
   0.65663077  0.43418087  0.66778704
   0.64258439  0.51727535  0.56179630
   0.64064658  0.54659633  0.43427831
   0.56112375  0.52154270  0.67465323
   0.65727055  0.36202616  0.55827075
   0.60080055  0.42558919  0.46215019
   0.62365617  0.63458032  0.64199014
   0.54149823  0.42020870  0.58925538
   0.51373864  0.52457965  0.50232309
   0.54218682  0.49233719  0.36352134
   0.58884454  0.64288824  0.51651121
   0.52981022  0.31327740  0.50851305
   0.54273341  0.62664272  0.39557377
   0.43786737  0.48746395  0.63740684
   0.48953323  0.61001512  0.60574495
   0.46933248  0.40646244  0.43244314
   0.42080787  0.37878771  0.55928371
   0.47491946  0.57803150  0.29204024
   0.45142744  0.65599498  0.48807337
   0.38006699  0.55870749  0.54129456
   0.41841626  0.53981488  0.40774156
   0.31576785  0.45574456  0.59967229
   0.41789295  0.67602117  0.35648505
   0.34859232  0.44942011  0.47346484
Direct configuration=     2
   0.65667690  0.43412555  0.66791993
   0.64254113  0.51724480  0.56196283
   0.64067709  0.54670894  0.43428960
   0.56120512  0.52160669  0.67477926
   0.65730539  0.36184569  0.55837948
   0.60073712  0.42539263  0.46202354
   0.62360805  0.63450301  0.64199616
   0.54173469  0.42014798  0.58936110
   0.51377725  0.52459748  0.50232424
   0.54220684  0.49225637  0.36335364
   0.58886616  0.64285820  0.51656094
   0.52996815  0.31338948  0.50853750
   0.54251469  0.62671241  0.39539886
   0.43787372  0.48751467  0.63743848
   0.48960524  0.61010042  0.60585477
   0.46933941  0.40648282  0.43248070
   0.42078699  0.37869575  0.55927416
   0.47484971  0.57795909  0.29183101
   0.45137379  0.65618276  0.48781356
   0.38005588  0.55873675  0.54131561
   0.41839997  0.54000452  0.40756928
   0.31562461  0.45572653  0.59977245
   0.41786183  0.67601244  0.35670721
   0.34855914  0.44938377  0.47333006
Direct configuration=     3
   0.65681527  0.43395961  0.66831858
   0.64241135  0.51715314  0.56246243
   0.64076864  0.54704679  0.43432346
   0.56144921  0.52179864  0.67515736
   0.65740990  0.36130429  0.55870566
   0.60054682  0.42480298  0.46164358
   0.62346371  0.63427107  0.64201420
   0.54244405  0.41996580  0.58967826
   0.51389306  0.52465096  0.50232770
   0.54226690  0.49201391  0.36285056
   0.58893100  0.64276809  0.51671012
   0.53044193  0.31372570  0.50861086
   0.54185853  0.62692151  0.39487413
   0.43789278  0.48766681  0.63753341
   0.48982129  0.61035629  0.60618425
   0.46936019  0.40654395  0.43259338
   0.42072434  0.37841986  0.55924549
   0.47464045  0.57774187  0.29120331
   0.45121281  0.65674607  0.48703412
   0.38002257  0.55882451  0.54137875
   0.41835108  0.54057343  0.40705241
   0.31519490  0.45567244  0.60007294
   0.41776846  0.67598626  0.35737367
   0.34845959  0.44927472  0.47292571
Direct configuration=     4
   0.65709203  0.43362773  0.66911589
   0.64215180  0.51696983  0.56346163
   0.64095172  0.54772249  0.43439118
   0.56193741  0.52218256  0.67591355
   0.65761892  0.36022149  0.55935803
   0.60016624  0.42362366  0.46088367
   0.62317502  0.63380720  0.64205029
   0.54386279  0.41960145  0.59031259
   0.51412469  0.52475792  0.50233460
   0.54238701  0.49152899  0.36184439
   0.58906068  0.64258787  0.51700849
   0.53138949  0.31439816  0.50875757
   0.54054620  0.62733970  0.39382467
   0.43793090  0.48797110  0.63772327
   0.49025338  0.61086805  0.60684321
   0.46940176  0.40666620  0.43281876
   0.42059905  0.37786808  0.55918817
   0.47422194  0.57730742  0.28994792
   0.45089086  0.65787271  0.48547524
   0.37995594  0.55900005  0.54150504
   0.41825330  0.54171125  0.40601869
   0.31433548  0.45556428  0.60067392
   0.41758173  0.67593390  0.35870658
   0.34826050  0.44905664  0.47211702
Direct configuration=     5
   0.65764554  0.43296396  0.67071051
   0.64163269  0.51660321  0.56546004
   0.64131789  0.54907390  0.43452664
   0.56291381  0.52295039  0.67742593
   0.65803697  0.35805589  0.56066276
   0.59940506  0.42126503  0.45936384
   0.62259765  0.63287945  0.64212248
   0.54670025  0.41887276  0.59158123
   0.51458794  0.52497184  0.50234842
   0.54262725  0.49055916  0.35983205
   0.58932004  0.64222743  0.51760524
   0.53328463  0.31574306  0.50905099
   0.53792155  0.62817608  0.39172575
   0.43800714  0.48857968  0.63810298
   0.49111755  0.61189157  0.60816112
   0.46948491  0.40691071  0.43326950
   0.42034846  0.37676452  0.55907351
   0.47338490  0.57643852  0.28743713
   0.45024696  0.66012599  0.48235747
   0.37982268  0.55935111  0.54175762
   0.41805774  0.54398689  0.40395124
   0.31261664  0.45534794  0.60187588
   0.41720827  0.67582918  0.36137241
   0.34786232  0.44862047  0.47049962
Direct configuration=     6
   0.65746748  0.43317748  0.67019754
   0.64179968  0.51672114  0.56481718
   0.64120010  0.54863917  0.43448306
   0.56259972  0.52270339  0.67693942
   0.65790249  0.35875253  0.56024305
   0.59964992  0.42202377  0.45985274
   0.62278338  0.63317789  0.64209926
   0.54578748  0.41910717  0.59117313
   0.51443892  0.52490302  0.50234398
   0.54254997  0.49087114  0.36047939
   0.58923661  0.64234338  0.51741328
   0.53267499  0.31531043  0.50895660
   0.53876586  0.62790703  0.39240094
   0.43798262  0.48838391  0.63798084
   0.49083956  0.61156232  0.60773717
   0.46945816  0.40683206  0.43312450
   0.42042907  0.37711952  0.55911039
   0.47365416  0.57671803  0.28824481
   0.45045409  0.65940114  0.48336041
   0.37986555  0.55923818  0.54167637
   0.41812065  0.54325485  0.40461631
   0.31316956  0.45541753  0.60148923
   0.41732841  0.67586287  0.36051486
   0.34799041  0.44876078  0.47101991
Direct configuration=     7
   0.65776215  0.43282489  0.67099512
   0.64154019  0.51654863  0.56500639
   0.64058493  0.54865485  0.43475762
   0.56265850  0.52256912  0.67762658
   0.65815325  0.35805920  0.56056248
   0.59989323  0.42184477  0.45949101
   0.62286441  0.63315660  0.64232379
   0.54609387  0.41915623  0.59178189
   0.51453484  0.52498029  0.50226305
   0.54268057  0.49074669  0.35998626
   0.58889304  0.64211636  0.51698274
   0.53343538  0.31553149  0.50912314
   0.53858836  0.62769866  0.39177453
   0.43818554  0.48830710  0.63774554
   0.49079722  0.61191119  0.60765618
   0.46932716  0.40715735  0.43327430
   0.42051626  0.37723603  0.55918349
   0.47324781  0.57651707  0.28729865
   0.45040668  0.65984034  0.48394315
   0.38008667  0.55926390  0.54152375
   0.41802181  0.54374233  0.40420739
   0.31313013  0.45541795  0.60141464
   0.41667533  0.67594558  0.36045785
   0.34807151  0.44896211  0.47089484
Direct configuration=     8
   0.65864617  0.43176711  0.67338784
   0.64076172  0.51603108  0.56557401
   0.63873941  0.54870187  0.43558127
   0.56283483  0.52216628  0.67968805
   0.65890553  0.35597924  0.56152077
   0.60062318  0.42130779  0.45840581
   0.62310750  0.63309271  0.64299739
   0.54701301  0.41930342  0.59360816
   0.51482259  0.52521211  0.50202026
   0.54307239  0.49037334  0.35850687
   0.58786234  0.64143531  0.51569112
   0.53571655  0.31619467  0.50962275
   0.53805588  0.62707355  0.38989531
   0.43879431  0.48807668  0.63703966
   0.49067019  0.61295781  0.60741323
   0.46893414  0.40813321  0.43372368
   0.42077783  0.37758558  0.55940279
   0.47202876  0.57591422  0.28446018
   0.45026446  0.66115792  0.48569138
   0.38075002  0.55934108  0.54106589
   0.41772531  0.54520475  0.40298063
   0.31301182  0.45541921  0.60119087
   0.41471608  0.67619370  0.36028682
   0.34831482  0.44956610  0.47051964
Direct configuration=     9
   0.66041421  0.42965155  0.67817329
   0.63920477  0.51499597  0.56670925
   0.63504836  0.54879591  0.43722857
   0.56318750  0.52136062  0.68381100
   0.66041008  0.35181930  0.56343736
   0.60208307  0.42023382  0.45623540
   0.62359368  0.63296493  0.64434459
   0.54885131  0.41959781  0.59726070
   0.51539811  0.52567573  0.50153468
   0.54385602  0.48962665  0.35554810
   0.58580093  0.64007320  0.51310788
   0.54027890  0.31752104  0.51062197
   0.53699090  0.62582333  0.38613686
   0.44001186  0.48761583  0.63562789
   0.49041614  0.61505106  0.60692733
   0.46814811  0.41008494  0.43462246
   0.42130097  0.37828467  0.55984138
   0.46959067  0.57470850  0.27878323
   0.44998000  0.66379307  0.48918785
   0.38207674  0.55949543  0.54015015
   0.41713230  0.54812959  0.40052711
   0.31277520  0.45542173  0.60074332
   0.41079758  0.67668994  0.35994476
   0.34880145  0.45077409  0.46976922
Direct configuration=    10
   0.65919305  0.43111274  0.67486805
   0.64028013  0.51571090  0.56592515
   0.63759772  0.54873096  0.43609080
   0.56294392  0.52191708  0.68096333
   0.65937091  0.35469251  0.56211360
   0.60107474  0.42097560  0.45773447
   0.62325788  0.63305318  0.64341410
   0.54758162  0.41939448  0.59473794
   0.51500061  0.52535551  0.50187006
   0.54331477  0.49014238  0.35759168
   0.58722472  0.64101399  0.51489209
   0.53712775  0.31660494  0.50993183
   0.53772647  0.62668684  0.38873277
   0.43917092  0.48793413  0.63660298
   0.49059161  0.61360528  0.60726294
   0.46869101  0.40873691  0.43400169
   0.42093964  0.37780182  0.55953845
   0.47127463  0.57554127  0.28270422
   0.45017647  0.66197301  0.48677289
   0.38116040  0.55938882  0.54078264
   0.41754188  0.54610944  0.40222172
   0.31293863  0.45541999  0.60105243
   0.41350403  0.67634719  0.36018101
   0.34846534  0.44993975  0.47028752
Direct configuration=    11
   0.65923845  0.43041393  0.67536861
   0.63988033  0.51541622  0.56640585
   0.63672219  0.54791819  0.43606885
   0.56299013  0.52186641  0.68192712
   0.65932281  0.35427592  0.56266255
   0.60179517  0.42117742  0.45785509
   0.62296533  0.63287589  0.64310853
   0.54797425  0.41916877  0.59564554
   0.51465398  0.52501685  0.50163829
   0.54308198  0.49033713  0.35685074
   0.58656526  0.64128900  0.51509792
   0.53768960  0.31702445  0.51023929
   0.53649056  0.62622117  0.38801789
   0.43959236  0.48807652  0.63606090
   0.49086385  0.61336762  0.60747311
   0.46911796  0.40952285  0.43429795
   0.42159945  0.37822736  0.55944551
   0.47069227  0.57544460  0.28216546
   0.45041388  0.66228621  0.48650201
   0.38170769  0.55930464  0.54032484
   0.41768275  0.54673075  0.40201089
   0.31358264  0.45563647  0.60040724
   0.41289625  0.67594556  0.36026282
   0.34862971  0.45064480  0.47043737
Direct configuration=    12
   0.65934380  0.42879217  0.67653029
   0.63895249  0.51473234  0.56752143
   0.63469032  0.54603198  0.43601791
   0.56309737  0.52174881  0.68416382
   0.65921120  0.35330911  0.56393651
   0.60346709  0.42164580  0.45813500
   0.62228638  0.63246445  0.64239938
   0.54888543  0.41864495  0.59775185
   0.51384955  0.52423091  0.50110041
   0.54254171  0.49078908  0.35513119
   0.58503483  0.64192722  0.51557561
   0.53899352  0.31799804  0.51095285
   0.53362234  0.62514047  0.38635883
   0.44057043  0.48840696  0.63480288
   0.49149565  0.61281607  0.60796088
   0.47010879  0.41134683  0.43498549
   0.42313071  0.37921495  0.55922982
   0.46934077  0.57522025  0.28091514
   0.45096483  0.66301309  0.48587337
   0.38297782  0.55910926  0.53926241
   0.41800968  0.54817264  0.40152160
   0.31507721  0.45613886  0.59890990
   0.41148575  0.67501346  0.36045269
   0.34901117  0.45228104  0.47078512
Direct configuration=    13
   0.65932344  0.42910560  0.67630578
   0.63913181  0.51486451  0.56730583
   0.63508300  0.54639651  0.43602775
   0.56307665  0.52177154  0.68373155
   0.65923277  0.35349596  0.56369030
   0.60314397  0.42155528  0.45808091
   0.62241759  0.63254397  0.64253643
   0.54870934  0.41874618  0.59734478
   0.51400502  0.52438280  0.50120436
   0.54264613  0.49070173  0.35546352
   0.58533061  0.64180387  0.51548330
   0.53874152  0.31780989  0.51081495
   0.53417666  0.62534933  0.38667946
   0.44038140  0.48834310  0.63504601
   0.49137355  0.61292266  0.60786661
   0.46991730  0.41099432  0.43485262
   0.42283478  0.37902409  0.55927150
   0.46960196  0.57526361  0.28115678
   0.45085835  0.66287261  0.48599486
   0.38273236  0.55914702  0.53946774
   0.41794650  0.54789397  0.40161616
   0.31478837  0.45604177  0.59919928
   0.41175834  0.67519360  0.36041599
   0.34893744  0.45196482  0.47071791
Direct configuration=    14
   0.65889220  0.42838673  0.67641490
   0.63867632  0.51489833  0.56763368
   0.63438760  0.54674033  0.43605448
   0.56328426  0.52167650  0.68489614
   0.65920432  0.35359933  0.56413062
   0.60359488  0.42133387  0.45877576
   0.62206343  0.63228714  0.64196281
   0.54878538  0.41819823  0.59825168
   0.51374376  0.52406123  0.50136861
   0.54213904  0.49064599  0.35456049
   0.58488483  0.64180650  0.51500639
   0.53845251  0.31828509  0.51080702
   0.53384923  0.62496147  0.38701786
   0.44104291  0.48888522  0.63501660
   0.49151912  0.61212697  0.60820873
   0.47093665  0.41155651  0.43497337
   0.42378863  0.37926775  0.55888856
   0.46861201  0.57522618  0.28045954
   0.45117675  0.66286376  0.48552663
   0.38370211  0.56000334  0.53909145
   0.41790372  0.54750786  0.40194577
   0.31540657  0.45640638  0.59886313
   0.41089661  0.67521317  0.36013192
   0.34920600  0.45225085  0.47028823
Direct configuration=    15
   0.65814607  0.42714293  0.67660371
   0.63788824  0.51495685  0.56820094
   0.63318439  0.54733521  0.43610071
   0.56364346  0.52151206  0.68691114
   0.65915510  0.35377818  0.56489246
   0.60437504  0.42095079  0.45997802
   0.62145065  0.63184277  0.64097032
   0.54891695  0.41725016  0.59982083
   0.51329172  0.52350483  0.50165279
   0.54126166  0.49054954  0.35299806
   0.58411353  0.64181105  0.51418125
   0.53795246  0.31910731  0.51079331
   0.53328270  0.62429039  0.38760336
   0.44218747  0.48982319  0.63496572
   0.49177099  0.61075025  0.60880068
   0.47270036  0.41252923  0.43518229
   0.42543902  0.37968935  0.55822597
   0.46689919  0.57516141  0.27925317
   0.45172765  0.66284846  0.48471649
   0.38538000  0.56148497  0.53844038
   0.41782970  0.54683981  0.40251606
   0.31647619  0.45703723  0.59828153
   0.40940563  0.67524702  0.35964040
   0.34967067  0.45274574  0.46954478
Direct configuration=    16
   0.65853896  0.42779787  0.67650429
   0.63830321  0.51492604  0.56790224
   0.63381795  0.54702197  0.43607637
   0.56345432  0.52159865  0.68585012
   0.65918102  0.35368400  0.56449130
   0.60396424  0.42115251  0.45934496
   0.62177332  0.63207676  0.64149293
   0.54884767  0.41774938  0.59899458
   0.51352975  0.52379781  0.50150315
   0.54172365  0.49060033  0.35382078
   0.58451966  0.64180866  0.51461574
   0.53821577  0.31867436  0.51080053
   0.53358102  0.62464375  0.38729506
   0.44158479  0.48932929  0.63499251
   0.49163836  0.61147518  0.60848899
   0.47177166  0.41201704  0.43507228
   0.42456999  0.37946735  0.55857486
   0.46780110  0.57519551  0.27988840
   0.45143757  0.66285652  0.48514308
   0.38449649  0.56070480  0.53878321
   0.41786867  0.54719158  0.40221576
   0.31591297  0.45670505  0.59858778
   0.41019072  0.67522919  0.35989921
   0.34942599  0.45248515  0.46993625
Direct configuration=    17
   0.65814796  0.42751657  0.67675599
   0.63782719  0.51501488  0.56793361
   0.63373574  0.54720246  0.43603115
   0.56389183  0.52137949  0.68675349
   0.65943684  0.35373823  0.56448137
   0.60427389  0.42165546  0.45975623
   0.62169777  0.63191052  0.64097003
   0.54861966  0.41739630  0.59973986
   0.51393362  0.52361279  0.50209586
   0.54147488  0.49053556  0.35327452
   0.58450399  0.64186833  0.51435891
   0.53766860  0.31850836  0.51057788
   0.53350067  0.62446645  0.38703986
   0.44164498  0.48932542  0.63531810
   0.49197711  0.61135462  0.60860949
   0.47227093  0.41186812  0.43470943
   0.42475444  0.37995793  0.55836354
   0.46635180  0.57534228  0.28000660
   0.45149278  0.66313493  0.48488991
   0.38460256  0.56098027  0.53894887
   0.41799951  0.54681044  0.40188864
   0.31662214  0.45749009  0.59846027
   0.40986460  0.67495338  0.35962825
   0.34985535  0.45216586  0.46968249
Direct configuration=    18
   0.65759426  0.42711822  0.67711244
   0.63715307  0.51514068  0.56797803
   0.63361931  0.54745806  0.43596712
   0.56451141  0.52106915  0.68803278
   0.65979912  0.35381502  0.56446730
   0.60471240  0.42236770  0.46033863
   0.62159077  0.63167510  0.64022955
   0.54829676  0.41689631  0.60079526
   0.51450555  0.52335077  0.50293521
   0.54112259  0.49044385  0.35250095
   0.58448179  0.64195284  0.51399521
   0.53689374  0.31827328  0.51026260
   0.53338690  0.62421536  0.38667846
   0.44173022  0.48931995  0.63577917
   0.49245682  0.61118389  0.60878014
   0.47297797  0.41165723  0.43419559
   0.42501565  0.38065264  0.55806429
   0.46429942  0.57555013  0.28017399
   0.45157095  0.66352918  0.48453141
   0.38475276  0.56137036  0.53918346
   0.41818480  0.54627070  0.40142539
   0.31762640  0.45860181  0.59827970
   0.40940278  0.67456279  0.35924453
   0.35046338  0.45171372  0.46932315
Direct configuration=    19
   0.65751123  0.42670789  0.67747244
   0.63670320  0.51476719  0.56830357
   0.63385891  0.54761816  0.43527840
   0.56469380  0.52114789  0.68889979
   0.65950465  0.35395077  0.56420493
   0.60465925  0.42253524  0.46100879
   0.62198658  0.63141027  0.64009032
   0.54838449  0.41602911  0.60124750
   0.51437634  0.52308542  0.50343639
   0.54114793  0.49079180  0.35212275
   0.58444091  0.64246487  0.51351611
   0.53703485  0.31850308  0.51007497
   0.53324885  0.62408854  0.38588462
   0.44223722  0.48951695  0.63675635
   0.49283405  0.61129881  0.60871298
   0.47321737  0.41120293  0.43349456
   0.42487087  0.38146222  0.55781571
   0.46228983  0.57549860  0.28021277
   0.45147950  0.66360022  0.48439204
   0.38496043  0.56133238  0.53910549
   0.41861022  0.54559630  0.40173935
   0.31784337  0.46002722  0.59828098
   0.40916278  0.67414785  0.35924207
   0.35109221  0.45140501  0.46898149
Direct configuration=    20
   0.65747928  0.42654996  0.67761100
   0.63653006  0.51462344  0.56842886
   0.63395113  0.54767979  0.43501332
   0.56476400  0.52117820  0.68923349
   0.65939132  0.35400302  0.56410394
   0.60463879  0.42259972  0.46126672
   0.62213891  0.63130834  0.64003672
   0.54841825  0.41569534  0.60142155
   0.51432661  0.52298329  0.50362929
   0.54115768  0.49092572  0.35197719
   0.58442517  0.64266194  0.51333171
   0.53708916  0.31859153  0.51000275
   0.53319571  0.62403973  0.38557909
   0.44243236  0.48959278  0.63713245
   0.49297923  0.61134303  0.60868713
   0.47330952  0.41102808  0.43322474
   0.42481515  0.38177382  0.55772004
   0.46151637  0.57547876  0.28022769
   0.45144430  0.66362756  0.48433840
   0.38504035  0.56131776  0.53907548
   0.41877396  0.54533673  0.40186018
   0.31792688  0.46057584  0.59828148
   0.40907041  0.67398814  0.35924113
   0.35133423  0.45128620  0.46884999
Direct configuration=    21
   0.65771488  0.42640617  0.67770878
   0.63641270  0.51414779  0.56854517
   0.63375342  0.54755310  0.43495948
   0.56467878  0.52136320  0.68909277
   0.65936106  0.35384765  0.56415598
   0.60420126  0.42298224  0.46112550
   0.62255459  0.63095165  0.64012025
   0.54816785  0.41573037  0.60177430
   0.51406925  0.52284547  0.50336412
   0.54132316  0.49128596  0.35210875
   0.58438144  0.64281233  0.51297962
   0.53740141  0.31872173  0.50991589
   0.53308241  0.62417678  0.38519685
   0.44292481  0.48973235  0.63755972
   0.49324714  0.61151902  0.60841538
   0.47326324  0.41073921  0.43267844
   0.42486048  0.38263502  0.55780996
   0.46117474  0.57487806  0.27995203
   0.45146996  0.66317067  0.48433607
   0.38549709  0.56102432  0.53901789
   0.41936961  0.54521064  0.40252367
   0.31743504  0.46126987  0.59837033
   0.40887215  0.67388370  0.35973020
   0.35093238  0.45130142  0.46883321
Direct configuration=    22
   0.65784515  0.42632666  0.67776284
   0.63634782  0.51388479  0.56860948
   0.63364410  0.54748305  0.43492971
   0.56463165  0.52146550  0.68901496
   0.65934432  0.35376174  0.56418475
   0.60395934  0.42319374  0.46104741
   0.62278442  0.63075443  0.64016644
   0.54802940  0.41574974  0.60196934
   0.51392696  0.52276926  0.50321751
   0.54141465  0.49148514  0.35218148
   0.58435726  0.64289548  0.51278494
   0.53757406  0.31879371  0.50986787
   0.53301976  0.62425256  0.38498551
   0.44319710  0.48980953  0.63779597
   0.49339527  0.61161633  0.60826512
   0.47323766  0.41057949  0.43237638
   0.42488555  0.38311119  0.55785967
   0.46098585  0.57454593  0.27979961
   0.45148414  0.66291805  0.48433478
   0.38574963  0.56086207  0.53898605
   0.41969895  0.54514093  0.40289052
   0.31716310  0.46165361  0.59841946
   0.40876253  0.67382595  0.36000062
   0.35071019  0.45130984  0.46882393
Direct configuration=    23
   0.65795326  0.42638594  0.67770339
   0.63634802  0.51344084  0.56845521
   0.63351373  0.54775596  0.43527233
   0.56479189  0.52151304  0.68880278
   0.65915705  0.35383381  0.56428696
   0.60358900  0.42308062  0.46094029
   0.62310309  0.63021748  0.63987171
   0.54823584  0.41565389  0.60224020
   0.51410319  0.52262111  0.50302968
   0.54147043  0.49161709  0.35216887
   0.58449153  0.64283601  0.51274748
   0.53762319  0.31906975  0.50988950
   0.53301357  0.62459705  0.38463200
   0.44282264  0.49011407  0.63803215
   0.49383438  0.61177020  0.60801712
   0.47266939  0.41032502  0.43194005
   0.42496948  0.38425873  0.55779784
   0.46107548  0.57394471  0.27984486
   0.45162385  0.66250004  0.48449765
   0.38598411  0.56032621  0.53933877
   0.42036427  0.54530069  0.40295439
   0.31679336  0.46212640  0.59858158
   0.40852009  0.67360489  0.36032424
   0.35009801  0.45129518  0.46890531
Direct configuration=    24
   0.65801956  0.42642230  0.67766693
   0.63634814  0.51316857  0.56836061
   0.63343378  0.54792333  0.43548244
   0.56489016  0.52154220  0.68867266
   0.65904220  0.35387800  0.56434964
   0.60336188  0.42301124  0.46087460
   0.62329852  0.62988819  0.63969097
   0.54836245  0.41559511  0.60240630
   0.51421127  0.52253025  0.50291448
   0.54150465  0.49169801  0.35216113
   0.58457387  0.64279954  0.51272451
   0.53765332  0.31923904  0.50990277
   0.53300977  0.62480832  0.38441520
   0.44259299  0.49030084  0.63817700
   0.49410368  0.61186456  0.60786503
   0.47232088  0.41016896  0.43167246
   0.42502095  0.38496247  0.55775992
   0.46113044  0.57357601  0.27987262
   0.45170953  0.66224369  0.48459754
   0.38612790  0.55999758  0.53955508
   0.42077228  0.54539867  0.40299356
   0.31656661  0.46241634  0.59868101
   0.40837141  0.67346933  0.36052271
   0.34972259  0.45128619  0.46895522
Direct configuration=    25
   0.65824849  0.42663712  0.67774149
   0.63671219  0.51272356  0.56793648
   0.63343647  0.54802077  0.43569718
   0.56489983  0.52130405  0.68860343
   0.65905155  0.35404551  0.56430502
   0.60316224  0.42285366  0.46052057
   0.62379807  0.62929079  0.63917416
   0.54802261  0.41562106  0.60281834
   0.51456111  0.52222290  0.50297566
   0.54164358  0.49136050  0.35228999
   0.58480870  0.64298684  0.51282569
   0.53699813  0.31952401  0.51000587
   0.53337300  0.62535263  0.38426283
   0.44225971  0.49064535  0.63886991
   0.49457329  0.61170763  0.60785374
   0.47155590  0.41023354  0.43120347
   0.42529928  0.38613646  0.55744559
   0.46137506  0.57335300  0.27988078
   0.45186070  0.66183726  0.48485165
   0.38622604  0.55984286  0.53966741
   0.42097636  0.54522456  0.40306561
   0.31602381  0.46245302  0.59902807
   0.40806767  0.67324401  0.36050580
   0.34921503  0.45156764  0.46874561
Direct configuration=    26
   0.65847455  0.42684924  0.67781511
   0.63707165  0.51228414  0.56751770
   0.63343912  0.54811699  0.43590922
   0.56490938  0.52106889  0.68853506
   0.65906078  0.35421092  0.56426097
   0.60296512  0.42269806  0.46017100
   0.62429135  0.62870091  0.63866386
   0.54768706  0.41564669  0.60322520
   0.51490654  0.52191942  0.50303606
   0.54178076  0.49102724  0.35241724
   0.58504058  0.64317179  0.51292560
   0.53635118  0.31980539  0.51010768
   0.53373165  0.62589009  0.38411239
   0.44193063  0.49098552  0.63955410
   0.49503700  0.61155268  0.60784259
   0.47080054  0.41029730  0.43074037
   0.42557411  0.38729567  0.55713521
   0.46161660  0.57313279  0.27988884
   0.45200996  0.66143596  0.48510257
   0.38632296  0.55969009  0.53977833
   0.42117787  0.54505265  0.40313674
   0.31548784  0.46248925  0.59937077
   0.40776776  0.67302153  0.36048910
   0.34871385  0.45184554  0.46853865
Direct configuration=    27
   0.65865088  0.42695542  0.67780530
   0.63747484  0.51169652  0.56729489
   0.63347527  0.54805306  0.43580621
   0.56492781  0.52091717  0.68864361
   0.65882691  0.35457671  0.56417659
   0.60280784  0.42242242  0.45985946
   0.62483272  0.62815716  0.63846252
   0.54770148  0.41568050  0.60364824
   0.51496453  0.52173243  0.50322329
   0.54188667  0.49089775  0.35252788
   0.58514131  0.64351446  0.51276811
   0.53575395  0.32020629  0.51017351
   0.53391148  0.62607197  0.38419910
   0.44155070  0.49118556  0.64029575
   0.49531535  0.61124309  0.60798831
   0.47049940  0.41046046  0.43018063
   0.42542048  0.38820518  0.55678605
   0.46188277  0.57319386  0.28007525
   0.45214610  0.66120525  0.48496198
   0.38635851  0.55954262  0.53986901
   0.42128198  0.54497021  0.40311452
   0.31536253  0.46241060  0.59942769
   0.40774799  0.67270795  0.36056932
   0.34822734  0.45218208  0.46841716
Direct configuration=    28
   0.65893045  0.42712375  0.67778974
   0.63811408  0.51076489  0.56694164
   0.63353258  0.54795171  0.43564289
   0.56495702  0.52067664  0.68881570
   0.65845613  0.35515667  0.56404280
   0.60255848  0.42198540  0.45936553
   0.62569105  0.62729508  0.63814329
   0.54772435  0.41573411  0.60431896
   0.51505647  0.52143595  0.50352013
   0.54205458  0.49069245  0.35270329
   0.58530102  0.64405774  0.51251842
   0.53480706  0.32084189  0.51027788
   0.53419660  0.62636033  0.38433658
   0.44094834  0.49150272  0.64147159
   0.49575665  0.61075224  0.60821934
   0.47002195  0.41071913  0.42929318
   0.42517691  0.38964717  0.55623247
   0.46230476  0.57329068  0.28037081
   0.45236194  0.66083948  0.48473909
   0.38641488  0.55930882  0.54001279
   0.42144704  0.54483951  0.40307930
   0.31516384  0.46228592  0.59951792
   0.40771665  0.67221080  0.36069650
   0.34745599  0.45271566  0.46822454
Direct configuration=    29
   0.65914868  0.42699348  0.67791531
   0.63830403  0.51018908  0.56677581
   0.63345447  0.54769748  0.43571113
   0.56503620  0.52076254  0.68913009
   0.65815265  0.35559410  0.56384246
   0.60250987  0.42199483  0.45910074
   0.62592127  0.62678754  0.63803300
   0.54730383  0.41579460  0.60466252
   0.51497826  0.52146987  0.50375788
   0.54219700  0.49106899  0.35241446
   0.58521618  0.64425176  0.51243685
   0.53445675  0.32132924  0.51029392
   0.53422247  0.62597669  0.38448171
   0.44084260  0.49127809  0.64193613
   0.49600767  0.61056615  0.60818976
   0.46995209  0.41076153  0.42899824
   0.42507278  0.39015387  0.55591104
   0.46253767  0.57349657  0.28052679
   0.45235463  0.66075885  0.48481838
   0.38666295  0.55924105  0.54019617
   0.42148656  0.54476418  0.40316072
   0.31533815  0.46221796  0.59932377
   0.40784536  0.67216365  0.36071389
   0.34714672  0.45287665  0.46794358
Direct configuration=    30
   0.65942536  0.42682831  0.67807450
   0.63854485  0.50945905  0.56656556
   0.63335544  0.54737515  0.43579764
   0.56513658  0.52087145  0.68952869
   0.65776788  0.35614869  0.56358847
   0.60244824  0.42200679  0.45876503
   0.62621316  0.62614406  0.63789315
   0.54677068  0.41587129  0.60509811
   0.51487910  0.52151288  0.50405932
   0.54237756  0.49154639  0.35204828
   0.58510862  0.64449773  0.51233343
   0.53401262  0.32194711  0.51031426
   0.53425527  0.62549029  0.38466571
   0.44070854  0.49099329  0.64252510
   0.49632591  0.61033020  0.60815227
   0.46986352  0.41081529  0.42862432
   0.42494077  0.39079629  0.55550352
   0.46283296  0.57375759  0.28072454
   0.45234536  0.66065663  0.48491890
   0.38697746  0.55915512  0.54042867
   0.42153666  0.54466867  0.40326396
   0.31555915  0.46213180  0.59907762
   0.40800854  0.67210387  0.36073594
   0.34675462  0.45308077  0.46758738
Direct configuration=    31
   0.65925621  0.42665462  0.67814803
   0.63854889  0.50877129  0.56655995
   0.63337486  0.54740200  0.43614280
   0.56527785  0.52074862  0.68997163
   0.65737361  0.35687909  0.56342965
   0.60231671  0.42207840  0.45832816
   0.62632017  0.62569543  0.63759148
   0.54664497  0.41597115  0.60578580
   0.51495093  0.52148232  0.50418211
   0.54257301  0.49163877  0.35165551
   0.58510466  0.64448844  0.51235456
   0.53385170  0.32221194  0.51024858
   0.53420793  0.62513068  0.38492517
   0.44081698  0.49086832  0.64307354
   0.49650436  0.61018823  0.60823996
   0.46994741  0.41109027  0.42828065
   0.42481635  0.39105002  0.55492962
   0.46282367  0.57404365  0.28057971
   0.45223390  0.66073095  0.48509564
   0.38724316  0.55894467  0.54069915
   0.42152581  0.54462476  0.40335845
   0.31560685  0.46207971  0.59884602
   0.40824064  0.67227931  0.36079760
   0.34658820  0.45313608  0.46705059
Direct configuration=    32
   0.65893234  0.42632206  0.67828881
   0.63855663  0.50745450  0.56654919
   0.63341205  0.54745341  0.43680364
   0.56554834  0.52051345  0.69081971
   0.65661873  0.35827753  0.56312557
   0.60206488  0.42221552  0.45749171
   0.62652505  0.62483647  0.63701390
   0.54640430  0.41616235  0.60710246
   0.51508845  0.52142381  0.50441722
   0.54294722  0.49181564  0.35090349
   0.58509709  0.64447065  0.51239500
   0.53354361  0.32271897  0.51012284
   0.53411730  0.62444216  0.38542193
   0.44102458  0.49062904  0.64412361
   0.49684602  0.60991642  0.60840786
   0.47010803  0.41161676  0.42762267
   0.42457813  0.39153582  0.55383081