 vasp.5.3.5 31Mar14 (build Feb 01 2018 12:10:03) gamma-only                     
  
 executed on             LinuxIFC date 2019.03.21  15:07:51
 running on   32 total cores
 distrk:  each k-point on   32 cores,    1 groups
 distr:  one band on NCORES_PER_BAND=   8 cores,    4 groups


--------------------------------------------------------------------------------------------------------


 INCAR:
 POTCAR:    PAW_PBE Ag 02Apr2005                  
 POTCAR:    PAW_PBE Ag 02Apr2005                  
   VRHFIN =Ag : s1 d10                                                          
   LEXCH  = PE                                                                  
   EATOM  =  1037.2675 eV,   76.2370 Ry                                         
                                                                                
   TITEL  = PAW_PBE Ag 02Apr2005                                                
   LULTRA =        F    use ultrasoft PP ?                                      
   IUNSCR =        1    unscreen: 0-lin 1-nonlin 2-no                           
   RPACOR =    2.000    partial core radius                                     
   POMASS =  107.868; ZVAL   =   11.000    mass and valenz                      
   RCORE  =    2.500    outmost cutoff radius                                   
   RWIGS  =    2.840; RWIGS  =    1.503    wigner-seitz radius (au A)           
   ENMAX  =  249.844; ENMIN  =  187.383 eV                                      
   ICORE  =        3    local potential                                         
   LCOR   =        T    correct aug charges                                     
   LPAW   =        T    paw PP                                                  
   EAUG   =  412.496                                                            
   DEXC   =    0.000                                                            
   RMAX   =    2.560    core radius for proj-oper                               
   RAUG   =    1.300    factor for augmentation sphere                          
   RDEP   =    2.576    radius for radial grids                                 
   RDEPT  =    2.072    core radius for aug-charge                              
                                                                                
   Atomic configuration                                                         
   12 entries                                                                   
     n  l   j            E        occ.                                          
     1  0  0.50    -25324.9161   2.0000                                         
     2  0  0.50     -3728.5341   2.0000                                         
     2  1  1.50     -3344.0404   6.0000                                         
     3  0  0.50      -683.5581   2.0000                                         
     3  1  1.50      -557.3225   6.0000                                         
     3  2  2.50      -358.3853  10.0000                                         
     4  0  0.50       -95.0341   2.0000                                         
     4  1  1.50       -58.5511   6.0000                                         
     4  2  2.50        -7.4440  10.0000                                         
     5  0  0.50        -4.4045   1.0000                                         
     5  1  0.50        -1.3606   0.0000                                         
     4  3  2.50        -1.3606   0.0000                                         
   Description                                                                  
     l       E           TYP  RCUT    TYP  RCUT                                 
     2     -7.4439781     23  2.400                                             
     2     -8.8045607     23  2.400                                             
     0     -4.4044681     23  2.400                                             
     0      1.9520038     23  2.400                                             
     1     -1.3605826     23  2.500                                             
     1     27.2116520     23  2.500                                             
     3     -4.0817478     23  2.400                                             
  local pseudopotential read in
  partial core-charges read in
  partial kinetic energy density read in
  atomic valenz-charges read in
  non local Contribution for L=           2  read in
    real space projection operators read in
  non local Contribution for L=           2  read in
    real space projection operators read in
  non local Contribution for L=           0  read in
    real space projection operators read in
  non local Contribution for L=           0  read in
    real space projection operators read in
  non local Contribution for L=           1  read in
    real space projection operators read in
  non local Contribution for L=           1  read in
    real space projection operators read in
    PAW grid and wavefunctions read in
 
   number of l-projection  operators is LMAX  =           6
   number of lm-projection operators is LMMAX =          18
 
  PAW_PBE Ag 02Apr2005                  :
 energy of atom  1       EATOM=-1037.2675
 kinetic energy error for atom=    0.0689 (will be added to EATOM!!)
 
 
 POSCAR: Al10, -26.49869766 <s> Ag </s>          
  positions in direct lattice
  No initial velocities read in
 exchange correlation table for  LEXCH =        8
   RHO(1)=    0.500       N(1)  =     2000
   RHO(2)=  100.500       N(2)  =     4000
 


--------------------------------------------------------------------------------------------------------


 ion  position               nearest neighbor table
   1  0.509  0.574  0.644-   8 2.62   3 2.65   2 2.66   4 2.81   7 3.45
   2  0.582  0.512  0.534-   1 2.66   7 2.75   5 2.78   4 2.84   9 2.96   8 3.00   6 3.12  10 3.29

   3  0.376  0.523  0.618-   1 2.65   7 2.72   4 2.75   8 3.52
   4  0.489  0.423  0.621-   6 2.62   3 2.75   1 2.81   2 2.84   7 2.96
   5  0.646  0.556  0.402-  10 2.65   9 2.76   2 2.78
   6  0.530  0.352  0.503-   4 2.62   9 2.63   2 3.12   7 3.12
   7  0.440  0.497  0.486-  10 2.72   3 2.72   2 2.75   9 2.80   8 2.95   4 2.96   6 3.12   1 3.45

   8  0.489  0.647  0.522-  10 2.61   1 2.62   7 2.95   2 3.00   3 3.52
   9  0.548  0.441  0.392-   6 2.63   5 2.76   7 2.80  10 2.84   2 2.96
  10  0.506  0.591  0.391-   8 2.61   5 2.65   7 2.72   9 2.84   2 3.29
 
  LATTYP: Found a simple cubic cell.
 ALAT       =    18.2391870378
  
  Lattice vectors:
  
 A1 = (  18.2391870378,   0.0000000000,   0.0000000000)
 A2 = (   0.0000000000,  18.2391870378,   0.0000000000)
 A3 = (   0.0000000000,   0.0000000000,  18.2391870378)


Analysis of symmetry for initial positions (statically):
=====================================================================
 Subroutine PRICEL returns:
 Original cell was already a primitive cell.
 

 Routine SETGRP: Setting up the symmetry group for a 
 simple cubic supercell.


 Subroutine GETGRP returns: Found  1 space group operations
 (whereof  1 operations were pure point group operations)
 out of a pool of 48 trial point group operations.


The static configuration has the point symmetry C_1 .


Analysis of symmetry for dynamics (positions and initial velocities):
=====================================================================
 Subroutine PRICEL returns:
 Original cell was already a primitive cell.
 

 Routine SETGRP: Setting up the symmetry group for a 
 simple cubic supercell.


 Subroutine GETGRP returns: Found  1 space group operations
 (whereof  1 operations were pure point group operations)
 out of a pool of 48 trial point group operations.


The dynamic configuration has the point symmetry C_1 .


Analysis of magnetic symmetry:
=====================================================================
 Subroutine PRICEL returns:
 Original cell was already a primitive cell.
 

 Subroutine MAGSYM returns: Found  1 space group operations
 (whereof  1 operations were pure point group operations)
 out of a pool of  1 trial space group operations
 (whereof  1 operations were pure point group operations)
 and found also     1 'primitive' translations


The magnetic configuration has the point symmetry C_1 .
 
 
 KPOINTS: Gamma-point only                        
  k-points in reciprocal lattice
Space group operators:
 irot       det(A)        alpha          n_x          n_y          n_z        tau_x        tau_y        tau_z
    1     1.000000     0.000001     1.000000     0.000000     0.000000     0.000000     0.000000     0.000000


--------------------------------------------------------------------------------------------------------




 Dimension of arrays:
   k-points           NKPTS =      1   k-points in BZ     NKDIM =      1   number of bands    NBANDS=     72
   number of dos      NEDOS =    301   number of ions     NIONS =     10
   non local maximal  LDIM  =      6   non local SUM 2l+1 LMDIM =     18
   total plane-waves  NPLWV = 373248
   max r-space proj   IRMAX =      1   max aug-charges    IRDMAX=   3224
   dimension x,y,z NGX =    72 NGY =   72 NGZ =   72
   dimension x,y,z NGXF=   144 NGYF=  144 NGZF=  144
   support grid    NGXF=   144 NGYF=  144 NGZF=  144
   ions per type =              10
 NGX,Y,Z   is equivalent  to a cutoff of   6.56,  6.56,  6.56 a.u.
 NGXF,Y,Z  is equivalent  to a cutoff of  13.13, 13.13, 13.13 a.u.


 I would recommend the setting:
   dimension x,y,z NGX =    71 NGY =   71 NGZ =   71
 SYSTEM =  unknown system                          
 POSCAR =  Al10, -26.49869766 <s> Ag </s>          

 Startparameter for this run:
   NWRITE =      2    write-flag & timer
   PREC   = normal    normal or accurate (medium, high low for compatibility)
   ISTART =      0    job   : 0-new  1-cont  2-samecut
   ICHARG =      2    charge: 1-file 2-atom 10-const
   ISPIN  =      2    spin polarized calculation?
   LNONCOLLINEAR =      F non collinear calculations
   LSORBIT =      F    spin-orbit coupling
   INIWAV =      1    electr: 0-lowe 1-rand  2-diag
   LASPH  =      F    aspherical Exc in radial PAW
   METAGGA=      F    non-selfconsistent MetaGGA calc.

 Electronic Relaxation 1
   ENCUT  =  249.8 eV  18.36 Ry    4.29 a.u.  23.51 23.51 23.51*2*pi/ulx,y,z
   ENINI  =  249.8     initial cutoff
   ENAUG  =  412.5 eV  augmentation charge cutoff
   NELM   =     60;   NELMIN=  2; NELMDL= -5     # of ELM steps 
   EDIFF  = 0.1E-03   stopping-criterion for ELM
   LREAL  =      F    real-space projection
   NLSPLINE    = F    spline interpolate recip. space projectors
   LCOMPAT=      F    compatible to vasp.4.4
   GGA_COMPAT  = T    GGA compatible to vasp.4.4-vasp.4.6
   LMAXPAW     = -100 max onsite density
   LMAXMIX     =    2 max onsite mixed and CHGCAR
   VOSKOWN=      0    Vosko Wilk Nusair interpolation
   ROPT   =    0.00000
 Ionic relaxation
   EDIFFG = 0.1E-02   stopping-criterion for IOM
   NSW    =   1000    number of steps for IOM
   NBLOCK =      1;   KBLOCK =   1000    inner block; outer block 
   IBRION =      2    ionic relax: 0-MD 1-quasi-New 2-CG
   NFREE  =      1    steps in history (QN), initial steepest desc. (CG)
   ISIF   =      2    stress and relaxation
   IWAVPR =     11    prediction:  0-non 1-charg 2-wave 3-comb
   ISYM   =      2    0-nonsym 1-usesym 2-fastsym
   LCORR  =      T    Harris-Foulkes like correction to forces

   POTIM  = 0.1000    time-step for ionic-motion
   TEIN   =    0.0    initial temperature
   TEBEG  =    0.0;   TEEND  =   0.0 temperature during run
   SMASS  =  -3.00    Nose mass-parameter (am)
   estimated Nose-frequenzy (Omega)   =  0.10E-29 period in steps =****** mass=  -0.760E-26a.u.
   SCALEE = 1.0000    scale energy and forces
   NPACO  =    256;   APACO  = 16.0  distance and # of slots for P.C.
   PSTRESS=    0.0 pullay stress

  Mass of Ions in am
   POMASS = 107.87
  Ionic Valenz
   ZVAL   =  11.00
  Atomic Wigner-Seitz radii
   RWIGS  =  -1.00
  virtual crystal weights 
   VCA    =   1.00
   NELECT =     110.0000    total number of electrons
   NUPDOWN=      -1.0000    fix difference up-down

 DOS related values:
   EMIN   =  10.00;   EMAX   =-10.00  energy-range for DOS
   EFERMI =   0.00
   ISMEAR =     0;   SIGMA  =   0.00  broadening in eV -4-tet -1-fermi 0-gaus

 Electronic relaxation 2 (details)
   IALGO  =     38    algorithm
   LDIAG  =      T    sub-space diagonalisation (order eigenvalues)
   LSUBROT=      F    optimize rotation matrix (better conditioning)
   TURBO    =      0    0=normal 1=particle mesh
   IRESTART =      0    0=no restart 2=restart with 2 vectors
   NREBOOT  =      0    no. of reboots
   NMIN     =      0    reboot dimension
   EREF     =   0.00    reference energy to select bands
   IMIX   =      4    mixing-type and parameters
     AMIX     =   0.40;   BMIX     =  1.00
     AMIX_MAG =   1.60;   BMIX_MAG =  1.00
     AMIN     =   0.10
     WC   =   100.;   INIMIX=   1;  MIXPRE=   1;  MAXMIX= -45

 Intra band minimization:
   WEIMIN = 0.0010     energy-eigenvalue tresh-hold
   EBREAK =  0.35E-06  absolut break condition
   DEPER  =   0.30     relativ break condition  

   TIME   =   0.40     timestep for ELM

  volume/ion in A,a.u.               =     606.76      4094.61
  Fermi-wavevector in a.u.,A,eV,Ry     =   0.430064  0.812704  2.516472  0.184955
  Thomas-Fermi vector in A             =   1.398365
 
 Write flags
   LWAVE  =      F    write WAVECAR
   LCHARG =      F    write CHGCAR
   LVTOT  =      F    write LOCPOT, total local potential
   LVHAR  =      F    write LOCPOT, Hartree potential only
   LELF   =      F    write electronic localiz. function (ELF)
   LORBIT =      0    0 simple, 1 ext, 2 COOP (PROOUT)


 Dipole corrections
   LMONO  =      F    monopole corrections only (constant potential shift)
   LDIPOL =      F    correct potential (dipole corrections)
   IDIPOL =      0    1-x, 2-y, 3-z, 4-all directions 
   EPSILON=  1.0000000 bulk dielectric constant

 Exchange correlation treatment:
   GGA     =    PE    GGA type
   LEXCH   =     8    internal setting for exchange type
   VOSKOWN=      0    Vosko Wilk Nusair interpolation
   LHFCALC =     F    Hartree Fock is set to
   LHFONE  =     F    Hartree Fock one center treatment
   AEXX    =    0.0000 exact exchange contribution

 Linear response parameters
   LEPSILON=     F    determine dielectric tensor
   LRPA    =     F    only Hartree local field effects (RPA)
   LNABLA  =     F    use nabla operator in PAW spheres
   LVEL    =     F    velocity operator in full k-point grid
   LINTERFAST=   F  fast interpolation
   KINTER  =     0    interpolate to denser k-point grid
   CSHIFT  =0.1000    complex shift for real part using Kramers Kronig
   OMEGAMAX=  -1.0    maximum frequency
   DEG_THRESHOLD= 0.2000000E-02 threshold for treating states as degnerate
   RTIME   =    0.100 relaxation time in fs

 Orbital magnetization related:
   ORBITALMAG=     F  switch on orbital magnetization
   LCHIMAG   =     F  perturbation theory with respect to B field
   DQ        =  0.001000  dq finite difference perturbation B field



--------------------------------------------------------------------------------------------------------


 conjugate gradient relaxation of ions
 charge density and potential will be updated during run
 spin polarized calculation
 Variant of blocked Davidson
 Davidson routine will perform the subspace rotation
 perform sub-space diagonalisation
    after iterative eigenvector-optimisation
 modified Broyden-mixing scheme, WC =      100.0
 initial mixing is a Kerker type mixing with AMIX =  0.4000 and BMIX =      1.0000
 Hartree-type preconditioning will be used
 using additional bands           17
 reciprocal scheme for non local part
 use partial core corrections
 calculate Harris-corrections to forces 
   (improved forces if not selfconsistent)
 use gradient corrections 
 use of overlap-Matrix (Vanderbilt PP)
 Gauss-broadening in eV      SIGMA  =   0.00


--------------------------------------------------------------------------------------------------------


  energy-cutoff  :      249.84
  volume of cell :     6067.59
      direct lattice vectors                 reciprocal lattice vectors
    18.239187038  0.000000000  0.000000000     0.054827005  0.000000000  0.000000000
     0.000000000 18.239187038  0.000000000     0.000000000  0.054827005  0.000000000
     0.000000000  0.000000000 18.239187038     0.000000000  0.000000000  0.054827005

  length of vectors
    18.239187038 18.239187038 18.239187038     0.054827005  0.054827005  0.054827005


 
 k-points in units of 2pi/SCALE and weight: Gamma-point only                        
   0.00000000  0.00000000  0.00000000       1.000
 
 k-points in reciprocal lattice and weights: Gamma-point only                        
   0.00000000  0.00000000  0.00000000       1.000
 
 position of ions in fractional coordinates (direct lattice) 
   0.50933262  0.57369593  0.64422925
   0.58206754  0.51183500  0.53370400
   0.37610462  0.52282840  0.61782581
   0.48914192  0.42287117  0.62133650
   0.64629202  0.55572435  0.40236608
   0.52967854  0.35201429  0.50347213
   0.44016201  0.49672302  0.48564732
   0.48850149  0.64685050  0.52210494
   0.54815058  0.44134339  0.39175905
   0.50582101  0.59135218  0.39111551
 
 position of ions in cartesian coordinates  (Angst):
   9.28981300 10.46374733 11.75021779
  10.61643881  9.33545433  9.73432705
   6.85984259  9.53596491 11.26864054
   8.92155101  7.71282627 11.33267257
  11.78784106 10.13596030  7.33883017
   9.66090600  6.42045456  9.18292226
   8.02819721  9.05982410  8.85781231
   8.90986997 11.79802732  9.52276963
   9.99782095  8.04974471  7.14536666
   9.22576393 10.78578293  7.13362896
 


--------------------------------------------------------------------------------------------------------


 use parallel FFT for wavefunctions z direction half grid
 k-point  1 :   0.0000 0.0000 0.0000  plane waves:   27218

 maximum and minimum number of plane-waves per node :      3409     3396

 maximum number of plane-waves:     27218
 maximum index in each direction: 
   IXMAX=   23   IYMAX=   23   IZMAX=   23
   IXMIN=  -23   IYMIN=  -23   IZMIN=    0

 WARNING: aliasing errors must be expected set NGX to  94 to avoid them
 WARNING: aliasing errors must be expected set NGY to  94 to avoid them
 WARNING: aliasing errors must be expected set NGZ to  94 to avoid them
 aliasing errors are usually negligible using standard VASP settings
 and one can safely disregard these warnings

 parallel 3D FFT for wavefunctions:
    minimum data exchange during FFTs selected (reduces bandwidth)
 parallel 3D FFT for charge:
    minimum data exchange during FFTs selected (reduces bandwidth)


 total amount of memory used by VASP on root node    48812. kBytes
========================================================================

   base      :      30000. kBytes
   nonl-proj :       1034. kBytes
   fftplans  :       4478. kBytes
   grid      :      11298. kBytes
   one-center:         31. kBytes
   wavefun   :       1971. kBytes
 
     INWAV:  cpu time    0.00: real time    0.00
 Broyden mixing: mesh for mixing (old mesh)
   NGX = 47   NGY = 47   NGZ = 47
  (NGX  =144   NGY  =144   NGZ  =144)
  gives a total of 103823 points

 initial charge density was supplied:
 charge density of overlapping atoms calculated
 number of electron     110.0000000 magnetization      10.0000000
 keeping initial charge density in first step


--------------------------------------------------------------------------------------------------------


 Maximum index for augmentation-charges          245 (set IRDMAX)


--------------------------------------------------------------------------------------------------------


 First call to EWALD:  gamma=   0.097
 Maximum number of real-space cells 3x 3x 3
 Maximum number of reciprocal cells 3x 3x 3

 FEWALD executed in parallel
    FEWALD:  cpu time    0.00: real time    0.00


----------------------------------------- Iteration    1(   1)  ---------------------------------------


    POTLOK:  cpu time    0.18: real time    0.18
    SETDIJ:  cpu time    0.01: real time    0.01
     EDDAV:  cpu time    0.48: real time    0.49
       DOS:  cpu time    0.00: real time    0.00
    --------------------------------------------
      LOOP:  cpu time    0.67: real time    0.73

 eigenvalue-minimisations  :   288
 total energy-change (2. order) : 0.9734949E+03  (-0.1688974E+04)
 number of electron     110.0000000 magnetization      10.0000000
 augmentation part      110.0000000 magnetization      10.0000000

 Free energy of the ion-electron system (eV)
  ---------------------------------------------------
  alpha Z        PSCENC =        14.01837747
  Ewald energy   TEWEN  =      9653.36627996
  -Hartree energ DENC   =    -19574.18864169
  -exchange      EXHF   =         0.00000000
  -V(xc)+E(xc)   XCENC  =      -111.98272558
  PAW double counting   =     10033.72178070    -9572.64608879
  entropy T*S    EENTRO =         0.00000000
  eigenvalues    EBANDS =       159.21957896
  atomic energy  EATOM  =     10371.98630086
  ---------------------------------------------------
  free energy    TOTEN  =       973.49486190 eV

  energy without entropy =      973.49486190  energy(sigma->0) =      973.49486190


--------------------------------------------------------------------------------------------------------




----------------------------------------- Iteration    1(   2)  ---------------------------------------


     EDDAV:  cpu time    0.80: real time    0.81
       DOS:  cpu time    0.00: real time    0.00
    --------------------------------------------
      LOOP:  cpu time    0.81: real time    0.81

 eigenvalue-minimisations  :   544
 total energy-change (2. order) :-0.6211819E+03  (-0.5463910E+03)
 number of electron     110.0000000 magnetization      10.0000000
 augmentation part      110.0000000 magnetization      10.0000000

 Free energy of the ion-electron system (eV)
  ---------------------------------------------------
  alpha Z        PSCENC =        14.01837747
  Ewald energy   TEWEN  =      9653.36627996
  -Hartree energ DENC   =    -19574.18864169
  -exchange      EXHF   =         0.00000000
  -V(xc)+E(xc)   XCENC  =      -111.98272558
  PAW double counting   =     10033.72178070    -9572.64608879
  entropy T*S    EENTRO =        -0.00000000
  eigenvalues    EBANDS =      -461.96231634
  atomic energy  EATOM  =     10371.98630086
  ---------------------------------------------------
  free energy    TOTEN  =       352.31296659 eV

  energy without entropy =      352.31296659  energy(sigma->0) =      352.31296659


--------------------------------------------------------------------------------------------------------




----------------------------------------- Iteration    1(   3)  ---------------------------------------


     EDDAV:  cpu time    0.65: real time    0.65
       DOS:  cpu time    0.00: real time    0.00
    --------------------------------------------
      LOOP:  cpu time    0.65: real time    0.66

 eigenvalue-minimisations  :   416
 total energy-change (2. order) :-0.3353097E+03  (-0.3083259E+03)
 number of electron     110.0000000 magnetization      10.0000000
 augmentation part      110.0000000 magnetization      10.0000000

 Free energy of the ion-electron system (eV)
  ---------------------------------------------------
  alpha Z        PSCENC =        14.01837747
  Ewald energy   TEWEN  =      9653.36627996
  -Hartree energ DENC   =    -19574.18864169
  -exchange      EXHF   =         0.00000000
  -V(xc)+E(xc)   XCENC  =      -111.98272558
  PAW double counting   =     10033.72178070    -9572.64608879
  entropy T*S    EENTRO =         0.00000000
  eigenvalues    EBANDS =      -797.27198424
  atomic energy  EATOM  =     10371.98630086
  ---------------------------------------------------
  free energy    TOTEN  =        17.00329870 eV

  energy without entropy =       17.00329870  energy(sigma->0) =       17.00329870


--------------------------------------------------------------------------------------------------------




----------------------------------------- Iteration    1(   4)  ---------------------------------------


     EDDAV:  cpu time    0.52: real time    0.52
       DOS:  cpu time    0.00: real time    0.00
    --------------------------------------------
      LOOP:  cpu time    0.52: real time    0.67

 eigenvalue-minimisations  :   312
 total energy-change (2. order) :-0.3322606E+02  (-0.3265994E+02)
 number of electron     110.0000000 magnetization      10.0000000
 augmentation part      110.0000000 magnetization      10.0000000

 Free energy of the ion-electron system (eV)
  ---------------------------------------------------
  alpha Z        PSCENC =        14.01837747
  Ewald energy   TEWEN  =      9653.36627996
  -Hartree energ DENC   =    -19574.18864169
  -exchange      EXHF   =         0.00000000
  -V(xc)+E(xc)   XCENC  =      -111.98272558
  PAW double counting   =     10033.72178070    -9572.64608879
  entropy T*S    EENTRO =         0.00000000
  eigenvalues    EBANDS =      -830.49804396
  atomic energy  EATOM  =     10371.98630086
  ---------------------------------------------------
  free energy    TOTEN  =       -16.22276102 eV

  energy without entropy =      -16.22276102  energy(sigma->0) =      -16.22276102


--------------------------------------------------------------------------------------------------------




----------------------------------------- Iteration    1(   5)  ---------------------------------------


     EDDAV:  cpu time    0.53: real time    0.53
       DOS:  cpu time    0.00: real time    0.00
    CHARGE:  cpu time    0.04: real time    0.04
    MIXING:  cpu time    0.00: real time    0.00
    --------------------------------------------
      LOOP:  cpu time    0.57: real time    0.58

 eigenvalue-minimisations  :   320
 total energy-change (2. order) :-0.5290735E+00  (-0.5284211E+00)
 number of electron     110.0000009 magnetization       8.3026713
 augmentation part       52.1137439 magnetization       8.4985990

 Broyden mixing:
  rms(total) = 0.17446E+01    rms(broyden)= 0.17443E+01
  rms(prec ) = 0.17845E+01
  weight for this iteration     100.00

 Free energy of the ion-electron system (eV)
  ---------------------------------------------------
  alpha Z        PSCENC =        14.01837747
  Ewald energy   TEWEN  =      9653.36627996
  -Hartree energ DENC   =    -19574.18864169
  -exchange      EXHF   =         0.00000000
  -V(xc)+E(xc)   XCENC  =      -111.98272558
  PAW double counting   =     10033.72178070    -9572.64608879
  entropy T*S    EENTRO =         0.00000000
  eigenvalues    EBANDS =      -831.02711748
  atomic energy  EATOM  =     10371.98630086
  ---------------------------------------------------
  free energy    TOTEN  =       -16.75183455 eV

  energy without entropy =      -16.75183455  energy(sigma->0) =      -16.75183455


--------------------------------------------------------------------------------------------------------




----------------------------------------- Iteration    1(   6)  ---------------------------------------


    POTLOK:  cpu time    0.17: real time    0.17
    SETDIJ:  cpu time    0.01: real time    0.01
     EDDAV:  cpu time    0.49: real time    0.49
       DOS:  cpu time    0.00: real time    0.00
    CHARGE:  cpu time    0.04: real time    0.04
    MIXING:  cpu time    0.00: real time    0.00
    --------------------------------------------
      LOOP:  cpu time    0.72: real time    2.18

 eigenvalue-minimisations  :   296
 total energy-change (2. order) : 0.1507783E+02  (-0.4563854E+01)
 number of electron     110.0000006 magnetization       7.6366948
 augmentation part       53.0319301 magnetization       2.9443475

 Broyden mixing:
  rms(total) = 0.78558E+00    rms(broyden)= 0.78542E+00
  rms(prec ) = 0.80796E+00
  weight for this iteration     100.00

 eigenvalues of (default mixing * dielectric matrix)
  average eigenvalue GAMMA=   0.8415
  0.8415

 Free energy of the ion-electron system (eV)
  ---------------------------------------------------
  alpha Z        PSCENC =        14.01837747
  Ewald energy   TEWEN  =      9653.36627996
  -Hartree energ DENC   =    -19545.50312827
  -exchange      EXHF   =         0.00000000
  -V(xc)+E(xc)   XCENC  =      -103.18549564
  PAW double counting   =     10336.19355389    -9881.30440760
  entropy T*S    EENTRO =         0.00000000
  eigenvalues    EBANDS =      -847.24548466
  atomic energy  EATOM  =     10371.98630086
  ---------------------------------------------------
  free energy    TOTEN  =        -1.67400399 eV

  energy without entropy =       -1.67400399  energy(sigma->0) =       -1.67400399


--------------------------------------------------------------------------------------------------------




----------------------------------------- Iteration    1(   7)  ---------------------------------------


    POTLOK:  cpu time    0.17: real time    0.17
    SETDIJ:  cpu time    0.01: real time    0.01
     EDDAV:  cpu time    0.52: real time    0.52
       DOS:  cpu time    0.00: real time    0.00
    CHARGE:  cpu time    0.04: real time    0.04
    MIXING:  cpu time    0.00: real time    0.00
    --------------------------------------------
      LOOP:  cpu time    0.74: real time    0.74

 eigenvalue-minimisations  :   312
 total energy-change (2. order) :-0.3752160E+01  (-0.2348623E+00)
 number of electron     110.0000007 magnetization       6.3526414
 augmentation part       52.9569300 magnetization       3.7926989

 Broyden mixing:
  rms(total) = 0.50205E+00    rms(broyden)= 0.50198E+00
  rms(prec ) = 0.51692E+00
  weight for this iteration     100.00

 eigenvalues of (default mixing * dielectric matrix)
  average eigenvalue GAMMA=   0.9425
  0.7286  1.1564

 Free energy of the ion-electron system (eV)
  ---------------------------------------------------
  alpha Z        PSCENC =        14.01837747
  Ewald energy   TEWEN  =      9653.36627996
  -Hartree energ DENC   =    -19560.57175318
  -exchange      EXHF   =         0.00000000
  -V(xc)+E(xc)   XCENC  =      -106.20041951
  PAW double counting   =     10508.93953346   -10057.85447225
  entropy T*S    EENTRO =         0.00000000
  eigenvalues    EBANDS =      -829.11001119
  atomic energy  EATOM  =     10371.98630086
  ---------------------------------------------------
  free energy    TOTEN  =        -5.42616438 eV

  energy without entropy =       -5.42616438  energy(sigma->0) =       -5.42616438


--------------------------------------------------------------------------------------------------------




----------------------------------------- Iteration    1(   8)  ---------------------------------------


    POTLOK:  cpu time    0.17: real time    0.17
    SETDIJ:  cpu time    0.01: real time    0.01
     EDDAV:  cpu time    0.52: real time    0.52
       DOS:  cpu time    0.00: real time    0.00
    CHARGE:  cpu time    0.04: real time    0.04
    MIXING:  cpu time    0.00: real time    0.00
    --------------------------------------------
      LOOP:  cpu time    0.74: real time    0.81

 eigenvalue-minimisations  :   320
 total energy-change (2. order) : 0.2555141E+01  (-0.8504245E-01)
 number of electron     110.0000007 magnetization       5.3254329
 augmentation part       52.9344670 magnetization       2.8578485

 Broyden mixing:
  rms(total) = 0.25115E+00    rms(broyden)= 0.25113E+00
  rms(prec ) = 0.25827E+00
  weight for this iteration     100.00

 eigenvalues of (default mixing * dielectric matrix)
  average eigenvalue GAMMA=   1.1253
  1.9160  0.8513  0.6086

 Free energy of the ion-electron system (eV)
  ---------------------------------------------------
  alpha Z        PSCENC =        14.01837747
  Ewald energy   TEWEN  =      9653.36627996
  -Hartree energ DENC   =    -19579.17239272
  -exchange      EXHF   =         0.00000000
  -V(xc)+E(xc)   XCENC  =      -103.84318867
  PAW double counting   =     10696.28543938   -10248.99693444
  entropy T*S    EENTRO =         0.00000000
  eigenvalues    EBANDS =      -806.51490479
  atomic energy  EATOM  =     10371.98630086
  ---------------------------------------------------
  free energy    TOTEN  =        -2.87102295 eV

  energy without entropy =       -2.87102295  energy(sigma->0) =       -2.87102295


--------------------------------------------------------------------------------------------------------




----------------------------------------- Iteration    1(   9)  ---------------------------------------


    POTLOK:  cpu time    0.18: real time    0.17
    SETDIJ:  cpu time    0.00: real time    0.01
     EDDAV:  cpu time    0.52: real time    0.53
       DOS:  cpu time    0.00: real time    0.00
    CHARGE:  cpu time    0.04: real time    0.04
    MIXING:  cpu time    0.00: real time    0.00
    --------------------------------------------
      LOOP:  cpu time    0.75: real time    0.89

 eigenvalue-minimisations  :   320
 total energy-change (2. order) :-0.3543895E+01  (-0.1411867E+00)
 number of electron     110.0000007 magnetization       4.6799745
 augmentation part       52.8759887 magnetization       2.3042161

 Broyden mixing:
  rms(total) = 0.13684E+00    rms(broyden)= 0.13684E+00
  rms(prec ) = 0.14264E+00
  weight for this iteration     100.00

 eigenvalues of (default mixing * dielectric matrix)
  average eigenvalue GAMMA=   1.1378
  2.0070  0.6920  0.6920  1.1602

 Free energy of the ion-electron system (eV)
  ---------------------------------------------------
  alpha Z        PSCENC =        14.01837747
  Ewald energy   TEWEN  =      9653.36627996
  -Hartree energ DENC   =    -19590.29018965
  -exchange      EXHF   =         0.00000000
  -V(xc)+E(xc)   XCENC  =      -106.36858591
  PAW double counting   =     10784.88999310   -10339.42561417
  entropy T*S    EENTRO =         0.00000000
  eigenvalues    EBANDS =      -794.59147983
  atomic energy  EATOM  =     10371.98630086
  ---------------------------------------------------
  free energy    TOTEN  =        -6.41491815 eV

  energy without entropy =       -6.41491815  energy(sigma->0) =       -6.41491815


--------------------------------------------------------------------------------------------------------




----------------------------------------- Iteration    1(  10)  ---------------------------------------


    POTLOK:  cpu time    0.17: real time    0.17
    SETDIJ:  cpu time    0.01: real time    0.01
     EDDAV:  cpu time    0.50: real time    0.50
       DOS:  cpu time    0.00: real time    0.00
    CHARGE:  cpu time    0.04: real time    0.04
    MIXING:  cpu time    0.00: real time    0.01
    --------------------------------------------
      LOOP:  cpu time    0.72: real time    0.72

 eigenvalue-minimisations  :   296
 total energy-change (2. order) :-0.3354059E+01  (-0.1170229E+00)
 number of electron     110.0000006 magnetization       3.8581529
 augmentation part       52.8719896 magnetization       1.5709298

 Broyden mixing:
  rms(total) = 0.10211E+00    rms(broyden)= 0.10210E+00
  rms(prec ) = 0.10672E+00
  weight for this iteration     100.00

 eigenvalues of (default mixing * dielectric matrix)
  average eigenvalue GAMMA=   1.2330
  2.0031  2.0031  0.7685  0.7685  0.6219

 Free energy of the ion-electron system (eV)
  ---------------------------------------------------
  alpha Z        PSCENC =        14.01837747
  Ewald energy   TEWEN  =      9653.36627996
  -Hartree energ DENC   =    -19589.33149796
  -exchange      EXHF   =         0.00000000
  -V(xc)+E(xc)   XCENC  =      -108.94850075
  PAW double counting   =     10787.31147275   -10341.94950514
  entropy T*S    EENTRO =         0.00000000
  eigenvalues    EBANDS =      -796.22190445
  atomic energy  EATOM  =     10371.98630086
  ---------------------------------------------------
  free energy    TOTEN  =        -9.76897725 eV

  energy without entropy =       -9.76897725  energy(sigma->0) =       -9.76897725


--------------------------------------------------------------------------------------------------------




----------------------------------------- Iteration    1(  11)  ---------------------------------------


    POTLOK:  cpu time    0.17: real time    0.17
    SETDIJ:  cpu time    0.00: real time    0.01
     EDDAV:  cpu time    0.50: real time    0.51
       DOS:  cpu time    0.00: real time    0.00
    CHARGE:  cpu time    0.04: real time    0.04
    MIXING:  cpu time    0.00: real time    0.01
    --------------------------------------------
      LOOP:  cpu time    0.73: real time    0.73

 eigenvalue-minimisations  :   304
 total energy-change (2. order) :-0.2878271E+01  (-0.1059651E+00)
 number of electron     110.0000006 magnetization       3.1831533
 augmentation part       52.9017959 magnetization       0.9821503

 Broyden mixing:
  rms(total) = 0.68198E-01    rms(broyden)= 0.68188E-01
  rms(prec ) = 0.71369E-01
  weight for this iteration     100.00

 eigenvalues of (default mixing * dielectric matrix)
  average eigenvalue GAMMA=   1.2942
  2.8577  1.5311  1.0091  1.0091  0.6304  0.7279

 Free energy of the ion-electron system (eV)
  ---------------------------------------------------
  alpha Z        PSCENC =        14.01837747
  Ewald energy   TEWEN  =      9653.36627996
  -Hartree energ DENC   =    -19585.65577834
  -exchange      EXHF   =         0.00000000
  -V(xc)+E(xc)   XCENC  =      -111.32221794
  PAW double counting   =     10777.38740852   -10332.04528340
  entropy T*S    EENTRO =         0.00000000
  eigenvalues    EBANDS =      -800.38233516
  atomic energy  EATOM  =     10371.98630086
  ---------------------------------------------------
  free energy    TOTEN  =       -12.64724802 eV

  energy without entropy =      -12.64724802  energy(sigma->0) =      -12.64724802


--------------------------------------------------------------------------------------------------------




----------------------------------------- Iteration    1(  12)  ---------------------------------------


    POTLOK:  cpu time    0.17: real time    0.17
    SETDIJ:  cpu time    0.01: real time    0.01
     EDDAV:  cpu time    0.52: real time    0.53
       DOS:  cpu time    0.00: real time    0.00
    CHARGE:  cpu time    0.04: real time    0.04
    MIXING:  cpu time    0.01: real time    0.01
    --------------------------------------------
      LOOP:  cpu time    0.75: real time    0.75

 eigenvalue-minimisations  :   320
 total energy-change (2. order) :-0.1689645E+01  (-0.4914050E-01)
 number of electron     110.0000008 magnetization       3.2025855
 augmentation part       52.9173457 magnetization       3.0469222

 Broyden mixing:
  rms(total) = 0.20440E+00    rms(broyden)= 0.20421E+00
  rms(prec ) = 0.22751E+00
  weight for this iteration     100.00

 eigenvalues of (default mixing * dielectric matrix)
  average eigenvalue GAMMA=   1.1101
  2.8551  1.5329  1.0097  1.0097  0.7273  0.6308  0.0053

 Free energy of the ion-electron system (eV)
  ---------------------------------------------------
  alpha Z        PSCENC =        14.01837747
  Ewald energy   TEWEN  =      9653.36627996
  -Hartree energ DENC   =    -19583.74337639
  -exchange      EXHF   =         0.00000000
  -V(xc)+E(xc)   XCENC  =      -112.75040489
  PAW double counting   =     10769.17050737   -10323.92786495
  entropy T*S    EENTRO =         0.00000000
  eigenvalues    EBANDS =      -802.45671272
  atomic energy  EATOM  =     10371.98630086
  ---------------------------------------------------
  free energy    TOTEN  =       -14.33689329 eV

  energy without entropy =      -14.33689329  energy(sigma->0) =      -14.33689329


--------------------------------------------------------------------------------------------------------




----------------------------------------- Iteration    1(  13)  ---------------------------------------


    POTLOK:  cpu time    0.17: real time    0.17
    SETDIJ:  cpu time    0.00: real time    0.01
     EDDAV:  cpu time    0.50: real time    0.50
       DOS:  cpu time    0.00: real time    0.00
    CHARGE:  cpu time    0.04: real time    0.04
    MIXING:  cpu time    0.00: real time    0.01
    --------------------------------------------
      LOOP:  cpu time    0.72: real time    0.73

 eigenvalue-minimisations  :   304
 total energy-change (2. order) : 0.6433461E-01  (-0.9400289E-03)
 number of electron     110.0000008 magnetization       3.2146363
 augmentation part       52.9124866 magnetization       3.0614572

 Broyden mixing:
  rms(total) = 0.20634E+00    rms(broyden)= 0.20633E+00
  rms(prec ) = 0.22993E+00
  weight for this iteration     100.00

 eigenvalues of (default mixing * dielectric matrix)
  average eigenvalue GAMMA=   0.9851
  2.8635  1.5227  1.0105  1.0105  0.7268  0.6306  0.0580  0.0580

 Free energy of the ion-electron system (eV)
  ---------------------------------------------------
  alpha Z        PSCENC =        14.01837747
  Ewald energy   TEWEN  =      9653.36627996
  -Hartree energ DENC   =    -19583.74166099
  -exchange      EXHF   =         0.00000000
  -V(xc)+E(xc)   XCENC  =      -112.68534372
  PAW double counting   =     10769.13240868   -10323.88662960
  entropy T*S    EENTRO =         0.00000000
  eigenvalues    EBANDS =      -802.46229135
  atomic energy  EATOM  =     10371.98630086
  ---------------------------------------------------
  free energy    TOTEN  =       -14.27255868 eV

  energy without entropy =      -14.27255868  energy(sigma->0) =      -14.27255868


--------------------------------------------------------------------------------------------------------




----------------------------------------- Iteration    1(  14)  ---------------------------------------


    POTLOK:  cpu time    0.17: real time    0.17
    SETDIJ:  cpu time    0.00: real time    0.01
     EDDAV:  cpu time    0.41: real time    0.41
       DOS:  cpu time    0.00: real time    0.00
    CHARGE:  cpu time    0.04: real time    0.04
    MIXING:  cpu time    0.01: real time    0.01
    --------------------------------------------
      LOOP:  cpu time    0.64: real time    0.64

 eigenvalue-minimisations  :   224
 total energy-change (2. order) : 0.1312228E-01  (-0.3909271E-04)
 number of electron     110.0000008 magnetization       2.8625656
 augmentation part       52.9141880 magnetization       2.7093330

 Broyden mixing:
  rms(total) = 0.20794E+00    rms(broyden)= 0.20794E+00
  rms(prec ) = 0.23163E+00
  weight for this iteration     100.00

 eigenvalues of (default mixing * dielectric matrix)
  average eigenvalue GAMMA=   1.0180
  2.9812  1.5249  1.0100  1.0100  0.7328  0.6331  0.5089  0.5089  0.2523

 Free energy of the ion-electron system (eV)
  ---------------------------------------------------
  alpha Z        PSCENC =        14.01837747
  Ewald energy   TEWEN  =      9653.36627996
  -Hartree energ DENC   =    -19583.46315655
  -exchange      EXHF   =         0.00000000
  -V(xc)+E(xc)   XCENC  =      -112.67661790
  PAW double counting   =     10767.60320755   -10322.34166270
  entropy T*S    EENTRO =         0.00000000
  eigenvalues    EBANDS =      -802.75216510
  atomic energy  EATOM  =     10371.98630086
  ---------------------------------------------------
  free energy    TOTEN  =       -14.25943640 eV

  energy without entropy =      -14.25943640  energy(sigma->0) =      -14.25943640


--------------------------------------------------------------------------------------------------------




----------------------------------------- Iteration    1(  15)  ---------------------------------------


    POTLOK:  cpu time    0.17: real time    0.17
    SETDIJ:  cpu time    0.01: real time    0.01
     EDDAV:  cpu time    0.48: real time    0.49
       DOS:  cpu time    0.00: real time    0.00
    CHARGE:  cpu time    0.04: real time    0.04
    MIXING:  cpu time    0.01: real time    0.01
    --------------------------------------------
      LOOP:  cpu time    0.71: real time    0.71

 eigenvalue-minimisations  :   288
 total energy-change (2. order) :-0.2713535E+00  (-0.3929916E-02)
 number of electron     110.0000008 magnetization       2.1068771
 augmentation part       52.8960916 magnetization       1.9711542

 Broyden mixing:
  rms(total) = 0.17530E+00    rms(broyden)= 0.17529E+00
  rms(prec ) = 0.19636E+00
  weight for this iteration     100.00

 eigenvalues of (default mixing * dielectric matrix)
  average eigenvalue GAMMA=   1.1303
  3.2682  1.8004  0.9470  0.9470  1.1015  1.0048  0.7311  0.6472  0.4277  0.4277

 Free energy of the ion-electron system (eV)
  ---------------------------------------------------
  alpha Z        PSCENC =        14.01837747
  Ewald energy   TEWEN  =      9653.36627996
  -Hartree energ DENC   =    -19586.13745587
  -exchange      EXHF   =         0.00000000
  -V(xc)+E(xc)   XCENC  =      -112.86869599
  PAW double counting   =     10784.46624683   -10339.22479393
  entropy T*S    EENTRO =         0.00000000
  eigenvalues    EBANDS =      -800.13704927
  atomic energy  EATOM  =     10371.98630086
  ---------------------------------------------------
  free energy    TOTEN  =       -14.53078995 eV

  energy without entropy =      -14.53078995  energy(sigma->0) =      -14.53078995


--------------------------------------------------------------------------------------------------------




----------------------------------------- Iteration    1(  16)  ---------------------------------------


    POTLOK:  cpu time    0.17: real time    0.17
    SETDIJ:  cpu time    0.01: real time    0.01
     EDDAV:  cpu time    0.49: real time    0.50
       DOS:  cpu time    0.00: real time    0.00
    CHARGE:  cpu time    0.04: real time    0.04
    MIXING:  cpu time    0.00: real time    0.01
    --------------------------------------------
      LOOP:  cpu time    0.72: real time    0.72

 eigenvalue-minimisations  :   296
 total energy-change (2. order) :-0.6626518E+00  (-0.1467294E-01)
 number of electron     110.0000008 magnetization       1.3706879
 augmentation part       52.8889918 magnetization       1.2753549

 Broyden mixing:
  rms(total) = 0.12162E+00    rms(broyden)= 0.12161E+00
  rms(prec ) = 0.13704E+00
  weight for this iteration     100.00

 eigenvalues of (default mixing * dielectric matrix)
  average eigenvalue GAMMA=   1.2645
  4.1961  2.4089  1.0592  1.0592  1.0520  1.0520  0.6921  0.6921  0.7219  0.6256
  0.3499

 Free energy of the ion-electron system (eV)
  ---------------------------------------------------
  alpha Z        PSCENC =        14.01837747
  Ewald energy   TEWEN  =      9653.36627996
  -Hartree energ DENC   =    -19586.60827895
  -exchange      EXHF   =         0.00000000
  -V(xc)+E(xc)   XCENC  =      -113.44063393
  PAW double counting   =     10787.99414312   -10342.56185925
  entropy T*S    EENTRO =         0.00000000
  eigenvalues    EBANDS =      -799.94777107
  atomic energy  EATOM  =     10371.98630086
  ---------------------------------------------------
  free energy    TOTEN  =       -15.19344177 eV

  energy without entropy =      -15.19344177  energy(sigma->0) =      -15.19344177


--------------------------------------------------------------------------------------------------------




----------------------------------------- Iteration    1(  17)  ---------------------------------------


    POTLOK:  cpu time    0.17: real time    0.17
    SETDIJ:  cpu time    0.00: real time    0.01
     EDDAV:  cpu time    0.48: real time    0.48
       DOS:  cpu time    0.00: real time    0.00
    CHARGE:  cpu time    0.04: real time    0.04
    MIXING:  cpu time    0.00: real time    0.01
    --------------------------------------------
      LOOP:  cpu time    0.71: real time    0.71

 eigenvalue-minimisations  :   288
 total energy-change (2. order) :-0.5175122E+00  (-0.1122029E-01)
 number of electron     110.0000008 magnetization       0.7707763
 augmentation part       52.8953362 magnetization       0.7148490

 Broyden mixing:
  rms(total) = 0.75544E-01    rms(broyden)= 0.75541E-01
  rms(prec ) = 0.85167E-01
  weight for this iteration     100.00

 eigenvalues of (default mixing * dielectric matrix)
  average eigenvalue GAMMA=   1.3864
  5.2845  2.4954  1.0138  1.0138  1.4097  1.4097  0.8207  0.8207  0.8029  0.6275
  0.5802  0.3575

 Free energy of the ion-electron system (eV)
  ---------------------------------------------------
  alpha Z        PSCENC =        14.01837747
  Ewald energy   TEWEN  =      9653.36627996
  -Hartree energ DENC   =    -19584.43597272
  -exchange      EXHF   =         0.00000000
  -V(xc)+E(xc)   XCENC  =      -113.93136356
  PAW double counting   =     10775.63348796   -10330.01962868
  entropy T*S    EENTRO =         0.00000000
  eigenvalues    EBANDS =      -802.32843522
  atomic energy  EATOM  =     10371.98630086
  ---------------------------------------------------
  free energy    TOTEN  =       -15.71095392 eV

  energy without entropy =      -15.71095392  energy(sigma->0) =      -15.71095392


--------------------------------------------------------------------------------------------------------




----------------------------------------- Iteration    1(  18)  ---------------------------------------


    POTLOK:  cpu time    0.17: real time    0.17
    SETDIJ:  cpu time    0.00: real time    0.01
     EDDAV:  cpu time    0.50: real time    0.50
       DOS:  cpu time    0.00: real time    0.00
    CHARGE:  cpu time    0.04: real time    0.04
    MIXING:  cpu time    0.00: real time    0.01
    --------------------------------------------
      LOOP:  cpu time    0.72: real time    0.72

 eigenvalue-minimisations  :   296
 total energy-change (2. order) :-0.3842973E+00  (-0.6720516E-02)
 number of electron     110.0000008 magnetization       0.2997182
 augmentation part       52.8980325 magnetization       0.2734239

 Broyden mixing:
  rms(total) = 0.40614E-01    rms(broyden)= 0.40609E-01
  rms(prec ) = 0.45739E-01
  weight for this iteration     100.00

 eigenvalues of (default mixing * dielectric matrix)
  average eigenvalue GAMMA=   1.5205
  6.5107  2.6252  1.8085  1.8085  1.0115  1.0115  0.9265  0.9265  0.7708  0.7708
  0.6394  0.5999  0.3565

 Free energy of the ion-electron system (eV)
  ---------------------------------------------------
  alpha Z        PSCENC =        14.01837747
  Ewald energy   TEWEN  =      9653.36627996
  -Hartree energ DENC   =    -19581.36794708
  -exchange      EXHF   =         0.00000000
  -V(xc)+E(xc)   XCENC  =      -114.31117665
  PAW double counting   =     10758.28452510   -10312.64996570
  entropy T*S    EENTRO =         0.00000000
  eigenvalues    EBANDS =      -805.42164523
  atomic energy  EATOM  =     10371.98630086
  ---------------------------------------------------
  free energy    TOTEN  =       -16.09525126 eV

  energy without entropy =      -16.09525126  energy(sigma->0) =      -16.09525126


--------------------------------------------------------------------------------------------------------




----------------------------------------- Iteration    1(  19)  ---------------------------------------


    POTLOK:  cpu time    0.17: real time    0.17
    SETDIJ:  cpu time    0.00: real time    0.01
     EDDAV:  cpu time    0.50: real time    0.51
       DOS:  cpu time    0.00: real time    0.00
    CHARGE:  cpu time    0.04: real time    0.04
    MIXING:  cpu time    0.01: real time    0.01
    --------------------------------------------
      LOOP:  cpu time    0.73: real time    0.73

 eigenvalue-minimisations  :   304
 total energy-change (2. order) :-0.4495809E+00  (-0.5679082E-02)
 number of electron     110.0000008 magnetization       0.1223305
 augmentation part       52.9156769 magnetization       0.1150507

 Broyden mixing:
  rms(total) = 0.11998E-01    rms(broyden)= 0.11989E-01
  rms(prec ) = 0.14559E-01
  weight for this iteration     100.00

 eigenvalues of (default mixing * dielectric matrix)
  average eigenvalue GAMMA=   1.5895
  7.2761  2.9549  2.3854  1.0108  1.0108  1.6197  1.1642  0.9008  0.9008  0.7174
  0.7174  0.6192  0.6192  0.3565

 Free energy of the ion-electron system (eV)
  ---------------------------------------------------
  alpha Z        PSCENC =        14.01837747
  Ewald energy   TEWEN  =      9653.36627996
  -Hartree energ DENC   =    -19576.43460663
  -exchange      EXHF   =         0.00000000
  -V(xc)+E(xc)   XCENC  =      -114.79712058
  PAW double counting   =     10737.85543594   -10292.18242246
  entropy T*S    EENTRO =         0.00000000
  eigenvalues    EBANDS =      -810.35707673
  atomic energy  EATOM  =     10371.98630086
  ---------------------------------------------------
  free energy    TOTEN  =       -16.54483216 eV

  energy without entropy =      -16.54483216  energy(sigma->0) =      -16.54483216


--------------------------------------------------------------------------------------------------------




----------------------------------------- Iteration    1(  20)  ---------------------------------------


    POTLOK:  cpu time    0.17: real time    0.17
    SETDIJ:  cpu time    0.01: real time    0.01
     EDDAV:  cpu time    0.52: real time    0.52
       DOS:  cpu time    0.00: real time    0.00
    CHARGE:  cpu time    0.04: real time    0.04
    MIXING:  cpu time    0.01: real time    0.01
    --------------------------------------------
      LOOP:  cpu time    0.74: real time    0.74

 eigenvalue-minimisations  :   312
 total energy-change (2. order) :-0.1001074E+00  (-0.9718040E-03)
 number of electron     110.0000008 magnetization       0.0892021
 augmentation part       52.9176874 magnetization       0.0879381

 Broyden mixing:
  rms(total) = 0.70241E-02    rms(broyden)= 0.70207E-02
  rms(prec ) = 0.86937E-02
  weight for this iteration     100.00

 eigenvalues of (default mixing * dielectric matrix)
  average eigenvalue GAMMA=   1.5923
  7.2587  3.2658  2.2701  2.2701  1.0106  1.0106  1.1132  1.1132  0.8096  0.7523
  0.7523  0.6549  0.6549  0.5913  0.3565

 Free energy of the ion-electron system (eV)
  ---------------------------------------------------
  alpha Z        PSCENC =        14.01837747
  Ewald energy   TEWEN  =      9653.36627996
  -Hartree energ DENC   =    -19574.45951817
  -exchange      EXHF   =         0.00000000
  -V(xc)+E(xc)   XCENC  =      -114.90634455
  PAW double counting   =     10734.81364641   -10289.16091597
  entropy T*S    EENTRO =         0.00000000
  eigenvalues    EBANDS =      -812.30276562
  atomic energy  EATOM  =     10371.98630086
  ---------------------------------------------------
  free energy    TOTEN  =       -16.64493959 eV

  energy without entropy =      -16.64493959  energy(sigma->0) =      -16.64493959


--------------------------------------------------------------------------------------------------------




----------------------------------------- Iteration    1(  21)  ---------------------------------------


    POTLOK:  cpu time    0.17: real time    0.17
    SETDIJ:  cpu time    0.01: real time    0.01
     EDDAV:  cpu time    0.46: real time    0.46
       DOS:  cpu time    0.00: real time    0.00
    CHARGE:  cpu time    0.04: real time    0.04
    MIXING:  cpu time    0.01: real time    0.01
    --------------------------------------------
      LOOP:  cpu time    0.68: real time    0.69

 eigenvalue-minimisations  :   264
 total energy-change (2. order) :-0.2403085E-01  (-0.2297879E-03)
 number of electron     110.0000008 magnetization       0.0191789
 augmentation part       52.9175567 magnetization       0.0174737

 Broyden mixing:
  rms(total) = 0.42773E-02    rms(broyden)= 0.42767E-02
  rms(prec ) = 0.58667E-02
  weight for this iteration     100.00

 eigenvalues of (default mixing * dielectric matrix)
  average eigenvalue GAMMA=   1.6267
  7.3970  3.6601  2.5252  2.5252  1.0107  1.0107  1.2115  1.2115  0.3565  0.8272
  0.8272  0.7937  0.7937  0.6152  0.6152  0.6459

 Free energy of the ion-electron system (eV)
  ---------------------------------------------------
  alpha Z        PSCENC =        14.01837747
  Ewald energy   TEWEN  =      9653.36627996
  -Hartree energ DENC   =    -19573.69852836
  -exchange      EXHF   =         0.00000000
  -V(xc)+E(xc)   XCENC  =      -114.93141248
  PAW double counting   =     10738.72048907   -10293.07108449
  entropy T*S    EENTRO =         0.00000000
  eigenvalues    EBANDS =      -813.05939248
  atomic energy  EATOM  =     10371.98630086
  ---------------------------------------------------
  free energy    TOTEN  =       -16.66897044 eV

  energy without entropy =      -16.66897044  energy(sigma->0) =      -16.66897044


--------------------------------------------------------------------------------------------------------




----------------------------------------- Iteration    1(  22)  ---------------------------------------


    POTLOK:  cpu time    0.17: real time    0.17
    SETDIJ:  cpu time    0.00: real time    0.01
     EDDAV:  cpu time    0.43: real time    0.43
       DOS:  cpu time    0.00: real time    0.00
    CHARGE:  cpu time    0.04: real time    0.04
    MIXING:  cpu time    0.01: real time    0.01
    --------------------------------------------
      LOOP:  cpu time    0.66: real time    0.66

 eigenvalue-minimisations  :   240
 total energy-change (2. order) :-0.1636223E-01  (-0.1652360E-03)
 number of electron     110.0000008 magnetization       0.0049631
 augmentation part       52.9172577 magnetization       0.0044248

 Broyden mixing:
  rms(total) = 0.27318E-02    rms(broyden)= 0.27312E-02
  rms(prec ) = 0.36470E-02
  weight for this iteration     100.00

 eigenvalues of (default mixing * dielectric matrix)
  average eigenvalue GAMMA=   1.6113
  7.6568  3.4504  2.6860  2.5819  1.0106  1.0106  1.3324  1.3324  0.3565  0.9363
  0.9363  0.7569  0.7376  0.7376  0.6488  0.6103  0.6103

 Free energy of the ion-electron system (eV)
  ---------------------------------------------------
  alpha Z        PSCENC =        14.01837747
  Ewald energy   TEWEN  =      9653.36627996
  -Hartree energ DENC   =    -19572.50734017
  -exchange      EXHF   =         0.00000000
  -V(xc)+E(xc)   XCENC  =      -114.95557677
  PAW double counting   =     10742.50615860   -10296.85794965
  entropy T*S    EENTRO =         0.00000000
  eigenvalues    EBANDS =      -814.24158297
  atomic energy  EATOM  =     10371.98630086
  ---------------------------------------------------
  free energy    TOTEN  =       -16.68533267 eV

  energy without entropy =      -16.68533267  energy(sigma->0) =      -16.68533267


--------------------------------------------------------------------------------------------------------




----------------------------------------- Iteration    1(  23)  ---------------------------------------


    POTLOK:  cpu time    0.17: real time    0.17
    SETDIJ:  cpu time    0.01: real time    0.01
     EDDAV:  cpu time    0.38: real time    0.38
       DOS:  cpu time    0.00: real time    0.00
    CHARGE:  cpu time    0.04: real time    0.04
    MIXING:  cpu time    0.01: real time    0.01
    --------------------------------------------
      LOOP:  cpu time    0.60: real time    0.61

 eigenvalue-minimisations  :   200
 total energy-change (2. order) :-0.1394727E-02  (-0.1327727E-04)
 number of electron     110.0000008 magnetization       0.0054270
 augmentation part       52.9169358 magnetization       0.0054471

 Broyden mixing:
  rms(total) = 0.16341E-02    rms(broyden)= 0.16339E-02
  rms(prec ) = 0.25496E-02
  weight for this iteration     100.00

 eigenvalues of (default mixing * dielectric matrix)
  average eigenvalue GAMMA=   1.6188
  7.5947  3.7113  3.1054  2.0478  2.0478  1.0106  1.0106  1.1123  1.1123  1.0357
  0.3565  0.8313  0.8313  0.7453  0.7453  0.6156  0.6156  0.6084

 Free energy of the ion-electron system (eV)
  ---------------------------------------------------
  alpha Z        PSCENC =        14.01837747
  Ewald energy   TEWEN  =      9653.36627996
  -Hartree energ DENC   =    -19572.14805764
  -exchange      EXHF   =         0.00000000
  -V(xc)+E(xc)   XCENC  =      -114.95933373
  PAW double counting   =     10743.22731815   -10297.57772183
  entropy T*S    EENTRO =         0.00000000
  eigenvalues    EBANDS =      -814.59989065
  atomic energy  EATOM  =     10371.98630086
  ---------------------------------------------------
  free energy    TOTEN  =       -16.68672739 eV

  energy without entropy =      -16.68672739  energy(sigma->0) =      -16.68672739


--------------------------------------------------------------------------------------------------------




----------------------------------------- Iteration    1(  24)  ---------------------------------------


    POTLOK:  cpu time    0.17: real time    0.17
    SETDIJ:  cpu time    0.00: real time    0.01
     EDDAV:  cpu time    0.39: real time    0.39
       DOS:  cpu time    0.00: real time    0.00
    CHARGE:  cpu time    0.04: real time    0.04
    MIXING:  cpu time    0.01: real time    0.01
    --------------------------------------------
      LOOP:  cpu time    0.62: real time    0.62

 eigenvalue-minimisations  :   208
 total energy-change (2. order) :-0.1186528E-02  (-0.2388890E-04)
 number of electron     110.0000008 magnetization       0.0028012
 augmentation part       52.9164756 magnetization       0.0023897

 Broyden mixing:
  rms(total) = 0.15073E-02    rms(broyden)= 0.15072E-02
  rms(prec ) = 0.19707E-02
  weight for this iteration     100.00

 eigenvalues of (default mixing * dielectric matrix)
  average eigenvalue GAMMA=   1.6733
  7.4315  4.8932  2.6162  2.6162  2.5417  1.0106  1.0106  1.2680  1.2680  0.3565
  0.9615  0.9615  0.8169  0.7600  0.7600  0.6655  0.6449  0.6048  0.6048

 Free energy of the ion-electron system (eV)
  ---------------------------------------------------
  alpha Z        PSCENC =        14.01837747
  Ewald energy   TEWEN  =      9653.36627996
  -Hartree energ DENC   =    -19571.51133958
  -exchange      EXHF   =         0.00000000
  -V(xc)+E(xc)   XCENC  =      -114.96462019
  PAW double counting   =     10743.80994174   -10298.15561998
  entropy T*S    EENTRO =         0.00000000
  eigenvalues    EBANDS =      -815.23723422
  atomic energy  EATOM  =     10371.98630086
  ---------------------------------------------------
  free energy    TOTEN  =       -16.68791392 eV

  energy without entropy =      -16.68791392  energy(sigma->0) =      -16.68791392


--------------------------------------------------------------------------------------------------------




----------------------------------------- Iteration    1(  25)  ---------------------------------------


    POTLOK:  cpu time    0.17: real time    0.17
    SETDIJ:  cpu time    0.00: real time    0.01
     EDDAV:  cpu time    0.39: real time    0.39
       DOS:  cpu time    0.00: real time    0.00
    CHARGE:  cpu time    0.04: real time    0.04
    MIXING:  cpu time    0.01: real time    0.01
    --------------------------------------------
      LOOP:  cpu time    0.62: real time    0.62

 eigenvalue-minimisations  :   208
 total energy-change (2. order) :-0.3287869E-03  (-0.9154639E-05)
 number of electron     110.0000008 magnetization       0.0025937
 augmentation part       52.9172179 magnetization       0.0021177

 Broyden mixing:
  rms(total) = 0.91545E-03    rms(broyden)= 0.91537E-03
  rms(prec ) = 0.12188E-02
  weight for this iteration     100.00

 eigenvalues of (default mixing * dielectric matrix)
  average eigenvalue GAMMA=   1.7088
  7.0327  6.0605  2.8686  2.8686  2.4893  1.0106  1.0106  1.5153  1.1185  1.1185
  1.0215  0.3565  0.8290  0.8290  0.7627  0.7627  0.6733  0.6090  0.6090  0.6296

 Free energy of the ion-electron system (eV)
  ---------------------------------------------------
  alpha Z        PSCENC =        14.01837747
  Ewald energy   TEWEN  =      9653.36627996
  -Hartree energ DENC   =    -19571.00071637
  -exchange      EXHF   =         0.00000000
  -V(xc)+E(xc)   XCENC  =      -114.96994836
  PAW double counting   =     10742.94829443   -10297.28927252
  entropy T*S    EENTRO =         0.00000000
  eigenvalues    EBANDS =      -815.74755820
  atomic energy  EATOM  =     10371.98630086
  ---------------------------------------------------
  free energy    TOTEN  =       -16.68824271 eV

  energy without entropy =      -16.68824271  energy(sigma->0) =      -16.68824271


--------------------------------------------------------------------------------------------------------




----------------------------------------- Iteration    1(  26)  ---------------------------------------


    POTLOK:  cpu time    0.17: real time    0.17
    SETDIJ:  cpu time    0.01: real time    0.01
     EDDAV:  cpu time    0.40: real time    0.40
       DOS:  cpu time    0.00: real time    0.00
    CHARGE:  cpu time    0.04: real time    0.04
    MIXING:  cpu time    0.01: real time    0.01
    --------------------------------------------
      LOOP:  cpu time    0.63: real time    0.63

 eigenvalue-minimisations  :   216
 total energy-change (2. order) :-0.4221212E-03  (-0.4712049E-05)
 number of electron     110.0000008 magnetization       0.0034193
 augmentation part       52.9177182 magnetization       0.0030524

 Broyden mixing:
  rms(total) = 0.69247E-03    rms(broyden)= 0.69240E-03
  rms(prec ) = 0.87361E-03
  weight for this iteration     100.00

 eigenvalues of (default mixing * dielectric matrix)
  average eigenvalue GAMMA=   1.7320
  6.9070  6.9070  2.9647  2.9647  2.5112  1.0106  1.0106  1.8054  1.2237  1.2237
  0.3565  0.9388  0.9388  0.7781  0.7781  0.8259  0.7089  0.6843  0.6075  0.6075
  0.6195

 Free energy of the ion-electron system (eV)
  ---------------------------------------------------
  alpha Z        PSCENC =        14.01837747
  Ewald energy   TEWEN  =      9653.36627996
  -Hartree energ DENC   =    -19570.66715690
  -exchange      EXHF   =         0.00000000
  -V(xc)+E(xc)   XCENC  =      -114.97357005
  PAW double counting   =     10742.28230523   -10296.62431596
  entropy T*S    EENTRO =         0.00000000
  eigenvalues    EBANDS =      -816.07688544
  atomic energy  EATOM  =     10371.98630086
  ---------------------------------------------------
  free energy    TOTEN  =       -16.68866483 eV

  energy without entropy =      -16.68866483  energy(sigma->0) =      -16.68866483


--------------------------------------------------------------------------------------------------------




----------------------------------------- Iteration    1(  27)  ---------------------------------------


    POTLOK:  cpu time    0.17: real time    0.17
    SETDIJ:  cpu time    0.01: real time    0.01
     EDDAV:  cpu time    0.40: real time    0.40
       DOS:  cpu time    0.00: real time    0.00
    CHARGE:  cpu time    0.04: real time    0.04
    MIXING:  cpu time    0.01: real time    0.01
    --------------------------------------------
      LOOP:  cpu time    0.63: real time    0.63

 eigenvalue-minimisations  :   216
 total energy-change (2. order) :-0.1273666E-03  (-0.7213579E-06)
 number of electron     110.0000008 magnetization       0.0012268
 augmentation part       52.9178082 magnetization       0.0008947

 Broyden mixing:
  rms(total) = 0.61928E-03    rms(broyden)= 0.61925E-03
  rms(prec ) = 0.74307E-03
  weight for this iteration     100.00

 eigenvalues of (default mixing * dielectric matrix)
  average eigenvalue GAMMA=   1.7401
  7.1211  7.1211  3.0025  3.0025  2.4668  2.2026  1.0106  1.0106  1.2872  1.2872
  0.3565  0.9816  0.9816  0.7639  0.7639  0.8246  0.8077  0.8077  0.6338  0.6338
  0.6076  0.6076

 Free energy of the ion-electron system (eV)
  ---------------------------------------------------
  alpha Z        PSCENC =        14.01837747
  Ewald energy   TEWEN  =      9653.36627996
  -Hartree energ DENC   =    -19570.59083453
  -exchange      EXHF   =         0.00000000
  -V(xc)+E(xc)   XCENC  =      -114.97412899
  PAW double counting   =     10742.23007839   -10296.57392737
  entropy T*S    EENTRO =        -0.00000000
  eigenvalues    EBANDS =      -816.15093799
  atomic energy  EATOM  =     10371.98630086
  ---------------------------------------------------
  free energy    TOTEN  =       -16.68879220 eV

  energy without entropy =      -16.68879220  energy(sigma->0) =      -16.68879220


--------------------------------------------------------------------------------------------------------




----------------------------------------- Iteration    1(  28)  ---------------------------------------


    POTLOK:  cpu time    0.17: real time    0.17
    SETDIJ:  cpu time    0.00: real time    0.01
     EDDAV:  cpu time    0.37: real time    0.37
       DOS:  cpu time    0.00: real time    0.00
    CHARGE:  cpu time    0.04: real time    0.04
    MIXING:  cpu time    0.01: real time    0.01
    --------------------------------------------
      LOOP:  cpu time    0.60: real time    0.60

 eigenvalue-minimisations  :   192
 total energy-change (2. order) :-0.1096132E-03  (-0.5656574E-06)
 number of electron     110.0000008 magnetization      -0.0008793
 augmentation part       52.9177413 magnetization      -0.0010492

 Broyden mixing:
  rms(total) = 0.27750E-03    rms(broyden)= 0.27744E-03
  rms(prec ) = 0.35580E-03
  weight for this iteration     100.00

 eigenvalues of (default mixing * dielectric matrix)
  average eigenvalue GAMMA=   1.7968
  7.3629  7.3629  3.8316  2.8348  2.8348  2.3260  1.0106  1.0106  1.4122  1.4122
  1.0853  1.0853  0.3565  0.9460  0.9460  0.7719  0.7719  0.7926  0.7004  0.6083
  0.6083  0.6351  0.6202

 Free energy of the ion-electron system (eV)
  ---------------------------------------------------
  alpha Z        PSCENC =        14.01837747
  Ewald energy   TEWEN  =      9653.36627996
  -Hartree energ DENC   =    -19570.55688621
  -exchange      EXHF   =         0.00000000
  -V(xc)+E(xc)   XCENC  =      -114.97409645
  PAW double counting   =     10742.45188767   -10296.79677634
  entropy T*S    EENTRO =         0.00000000
  eigenvalues    EBANDS =      -816.18398877
  atomic energy  EATOM  =     10371.98630086
  ---------------------------------------------------
  free energy    TOTEN  =       -16.68890181 eV

  energy without entropy =      -16.68890181  energy(sigma->0) =      -16.68890181


--------------------------------------------------------------------------------------------------------




----------------------------------------- Iteration    1(  29)  ---------------------------------------


    POTLOK:  cpu time    0.17: real time    0.17
    SETDIJ:  cpu time    0.00: real time    0.01
     EDDAV:  cpu time    0.38: real time    0.38
       DOS:  cpu time    0.00: real time    0.00
    --------------------------------------------
      LOOP:  cpu time    0.56: real time    0.57

 eigenvalue-minimisations  :   200
 total energy-change (2. order) :-0.7645321E-04  (-0.5286927E-06)
 number of electron     110.0000008 magnetization      -0.0008793
 augmentation part       52.9177413 magnetization      -0.0010492

 Free energy of the ion-electron system (eV)
  ---------------------------------------------------
  alpha Z        PSCENC =        14.01837747
  Ewald energy   TEWEN  =      9653.36627996
  -Hartree energ DENC   =    -19570.53649416
  -exchange      EXHF   =         0.00000000
  -V(xc)+E(xc)   XCENC  =      -114.97396439
  PAW double counting   =     10742.58138723   -10296.92687666
  entropy T*S    EENTRO =         0.00000000
  eigenvalues    EBANDS =      -816.20398858
  atomic energy  EATOM  =     10371.98630086
  ---------------------------------------------------
  free energy    TOTEN  =       -16.68897826 eV

  energy without entropy =      -16.68897826  energy(sigma->0) =      -16.68897826


--------------------------------------------------------------------------------------------------------




 average (electrostatic) potential at core
  the test charge radii are     1.1249
  (the norm of the test charge is              1.0000)
       1 -82.4798       2 -82.3848       3 -82.0920       4 -82.5760       5 -82.0931
       6 -82.4482       7 -82.3952       8 -82.1601       9 -82.6204      10 -82.4809
 
 
 
 E-fermi :  -3.7242     XC(G=0):  -0.7643     alpha+bet : -0.3783


 spin component 1

 k-point     1 :       0.0000    0.0000    0.0000
  band No.  band energies     occupation 
      1      -9.1813      1.00000
      2      -9.0782      1.00000
      3      -8.9722      1.00000
      4      -8.8498      1.00000
      5      -8.8242      1.00000
      6      -8.7754      1.00000
      7      -8.7522      1.00000
      8      -8.6705      1.00000
      9      -8.5810      1.00000
     10      -8.5665      1.00000
     11      -8.5087      1.00000
     12      -8.3986      1.00000
     13      -8.3691      1.00000
     14      -8.3485      1.00000
     15      -8.2937      1.00000
     16      -8.2182      1.00000
     17      -8.1369      1.00000
     18      -8.0856      1.00000
     19      -7.9998      1.00000
     20      -7.8938      1.00000
     21      -7.8477      1.00000
     22      -7.7064      1.00000
     23      -7.5928      1.00000
     24      -7.5774      1.00000
     25      -7.4617      1.00000
     26      -7.3824      1.00000
     27      -7.3541      1.00000
     28      -7.2919      1.00000
     29      -7.2655      1.00000
     30      -7.2294      1.00000
     31      -7.2134      1.00000
     32      -7.1843      1.00000
     33      -7.1341      1.00000
     34      -7.1047      1.00000
     35      -7.0878      1.00000
     36      -7.0720      1.00000
     37      -7.0026      1.00000
     38      -6.9395      1.00000
     39      -6.9049      1.00000
     40      -6.8718      1.00000
     41      -6.8106      1.00000
     42      -6.8017      1.00000
     43      -6.7761      1.00000
     44      -6.7249      1.00000
     45      -6.6935      1.00000
     46      -6.6924      1.00000
     47      -6.6357      1.00000
     48      -6.6046      1.00000
     49      -6.5781      1.00000
     50      -6.4398      1.00000
     51      -6.3979      1.00000
     52      -5.8438      1.00000
     53      -5.3842      1.00000
     54      -4.2482      1.00000
     55      -3.7415      1.00000
     56      -3.4716      0.00000
     57      -3.0796      0.00000
     58      -2.8832      0.00000
     59      -1.8785      0.00000
     60      -1.5241      0.00000
     61      -1.4403      0.00000
     62      -1.2953      0.00000
     63      -1.2321      0.00000
     64      -0.9649      0.00000
     65      -0.9391      0.00000
     66      -0.2304      0.00000
     67      -0.0409      0.00000
     68       0.2162      0.00000
     69       0.2970      0.00000
     70       0.3366      0.00000
     71       0.4692      0.00000
     72       0.6351      0.00000

 spin component 2

 k-point     1 :       0.0000    0.0000    0.0000
  band No.  band energies     occupation 
      1      -9.1813      1.00000
      2      -9.0782      1.00000
      3      -8.9722      1.00000
      4      -8.8498      1.00000
      5      -8.8242      1.00000
      6      -8.7754      1.00000
      7      -8.7522      1.00000
      8      -8.6705      1.00000
      9      -8.5810      1.00000
     10      -8.5665      1.00000
     11      -8.5087      1.00000
     12      -8.3986      1.00000
     13      -8.3691      1.00000
     14      -8.3485      1.00000
     15      -8.2938      1.00000
     16      -8.2182      1.00000
     17      -8.1369      1.00000
     18      -8.0856      1.00000
     19      -7.9999      1.00000
     20      -7.8939      1.00000
     21      -7.8478      1.00000
     22      -7.7065      1.00000
     23      -7.5928      1.00000
     24      -7.5775      1.00000
     25      -7.4617      1.00000
     26      -7.3824      1.00000
     27      -7.3541      1.00000
     28      -7.2919      1.00000
     29      -7.2655      1.00000
     30      -7.2294      1.00000
     31      -7.2134      1.00000
     32      -7.1843      1.00000
     33      -7.1341      1.00000
     34      -7.1047      1.00000
     35      -7.0878      1.00000
     36      -7.0720      1.00000
     37      -7.0026      1.00000
     38      -6.9396      1.00000
     39      -6.9049      1.00000
     40      -6.8718      1.00000
     41      -6.8106      1.00000
     42      -6.8017      1.00000
     43      -6.7761      1.00000
     44      -6.7249      1.00000
     45      -6.6935      1.00000
     46      -6.6924      1.00000
     47      -6.6357      1.00000
     48      -6.6046      1.00000
     49      -6.5781      1.00000
     50      -6.4398      1.00000
     51      -6.3980      1.00000
     52      -5.8438      1.00000
     53      -5.3843      1.00000
     54      -4.2483      1.00000
     55      -3.7416      1.00000
     56      -3.4717      0.00000
     57      -3.0796      0.00000
     58      -2.8832      0.00000
     59      -1.8786      0.00000
     60      -1.5242      0.00000
     61      -1.4404      0.00000
     62      -1.2953      0.00000
     63      -1.2319      0.00000
     64      -0.9646      0.00000
     65      -0.9387      0.00000
     66      -0.2303      0.00000
     67      -0.0415      0.00000
     68       0.2164      0.00000
     69       0.3091      0.00000
     70       0.3363      0.00000
     71       0.4818      0.00000
     72       0.6132      0.00000


--------------------------------------------------------------------------------------------------------


 soft charge-density along one line, spin component           1
         0         1         2         3         4         5         6         7         8         9
 total charge-density along one line
 
 soft charge-density along one line, spin component           2
         0         1         2         3         4         5         6         7         8         9
 total charge-density along one line
 
 pseudopotential strength for first ion, spin component:           1
-10.460  -0.002  -0.010  -0.007  -0.001 -10.429  -0.002  -0.010
 -0.002 -10.483  -0.001   0.016   0.002  -0.002 -10.451  -0.001
 -0.010  -0.001 -10.470  -0.000  -0.010  -0.010  -0.001 -10.438
 -0.007   0.016  -0.000 -10.459  -0.002  -0.006   0.016  -0.000
 -0.001   0.002  -0.010  -0.002 -10.468  -0.001   0.002  -0.009
-10.429  -0.002  -0.010  -0.006  -0.001 -10.374  -0.002  -0.009
 -0.002 -10.451  -0.001   0.016   0.002  -0.002 -10.395  -0.001
 -0.010  -0.001 -10.438  -0.000  -0.009  -0.009  -0.001 -10.382
 -0.006   0.016  -0.000 -10.428  -0.002  -0.006   0.015  -0.000
 -0.001   0.002  -0.009  -0.002 -10.436  -0.001   0.002  -0.009
 -0.003   0.000   0.001  -0.001  -0.003  -0.003   0.000   0.001
 -0.004   0.000   0.001  -0.002  -0.005  -0.004   0.000   0.001
  0.003   0.027  -0.010   0.000  -0.018   0.002   0.026  -0.009
  0.000   0.018   0.032   0.003   0.000   0.000   0.018   0.030
  0.018   0.000  -0.001   0.028   0.002   0.017   0.000  -0.001
  0.003   0.032  -0.012   0.001  -0.022   0.003   0.031  -0.012
  0.001   0.023   0.038   0.004   0.000   0.001   0.022   0.036
  0.022   0.001  -0.001   0.033   0.003   0.021   0.001  -0.001
 pseudopotential strength for first ion, spin component:           2
-10.460  -0.002  -0.010  -0.007  -0.001 -10.429  -0.002  -0.010
 -0.002 -10.483  -0.001   0.016   0.002  -0.002 -10.451  -0.001
 -0.010  -0.001 -10.470  -0.000  -0.010  -0.010  -0.001 -10.438
 -0.007   0.016  -0.000 -10.459  -0.002  -0.006   0.016  -0.000
 -0.001   0.002  -0.010  -0.002 -10.468  -0.001   0.002  -0.009
-10.429  -0.002  -0.010  -0.006  -0.001 -10.374  -0.002  -0.009
 -0.002 -10.451  -0.001   0.016   0.002  -0.002 -10.395  -0.001
 -0.010  -0.001 -10.438  -0.000  -0.009  -0.009  -0.001 -10.382
 -0.006   0.016  -0.000 -10.428  -0.002  -0.006   0.015  -0.000
 -0.001   0.002  -0.009  -0.002 -10.436  -0.001   0.002  -0.009
 -0.003   0.000   0.001  -0.001  -0.003  -0.003   0.000   0.001
 -0.004   0.000   0.001  -0.002  -0.005  -0.004   0.000   0.001
  0.003   0.027  -0.010   0.000  -0.018   0.002   0.026  -0.009
  0.000   0.018   0.032   0.003   0.000   0.000   0.018   0.030
[...]
      4      -8.8716      1.00000
      5      -8.7722      1.00000
      6      -8.7085      1.00000
      7      -8.5777      1.00000
      8      -8.4904      1.00000
      9      -8.4160      1.00000
     10      -8.3605      1.00000
     11      -8.2559      1.00000
     12      -8.2416      1.00000
     13      -8.1967      1.00000
     14      -8.1780      1.00000
     15      -8.0799      1.00000
     16      -8.0275      1.00000
     17      -7.9558      1.00000
     18      -7.9262      1.00000
     19      -7.7458      1.00000
     20      -7.6849      1.00000
     21      -7.6182      1.00000
     22      -7.5931      1.00000
     23      -7.5229      1.00000
     24      -7.4069      1.00000
     25      -7.3588      1.00000
     26      -7.2984      1.00000
     27      -7.2840      1.00000
     28      -7.2443      1.00000
     29      -7.2254      1.00000
     30      -7.1911      1.00000
     31      -7.0906      1.00000
     32      -7.0698      1.00000
     33      -7.0462      1.00000
     34      -7.0093      1.00000
     35      -6.9474      1.00000
     36      -6.9206      1.00000
     37      -6.8416      1.00000
     38      -6.8389      1.00000
     39      -6.7939      1.00000
     40      -6.7847      1.00000
     41      -6.7697      1.00000
     42      -6.7438      1.00000
     43      -6.7063      1.00000
     44      -6.6838      1.00000
     45      -6.6372      1.00000
     46      -6.6337      1.00000
     47      -6.6051      1.00000
     48      -6.5419      1.00000
     49      -6.5196      1.00000
     50      -6.4518      1.00000
     51      -6.3673      1.00000
     52      -5.7639      1.00000
     53      -5.0004      1.00000
     54      -4.7690      1.00000
     55      -3.8611      1.00000
     56      -3.0547      0.00000
     57      -2.7328      0.00000
     58      -2.5423      0.00000
     59      -2.2952      0.00000
     60      -1.9959      0.00000
     61      -1.6186      0.00000
     62      -1.0149      0.00000
     63      -0.8745      0.00000
     64      -0.6613      0.00000
     65      -0.4806      0.00000
     66      -0.4214      0.00000
     67      -0.3420      0.00000
     68      -0.0637      0.00000
     69       0.1171      0.00000
     70       0.2566      0.00000
     71       0.4617      0.00000
     72       0.4757      0.00000

 spin component 2

 k-point     1 :       0.0000    0.0000    0.0000
  band No.  band energies     occupation 
      1      -9.1898      1.00000
      2      -8.9756      1.00000
      3      -8.9335      1.00000
      4      -8.8716      1.00000
      5      -8.7722      1.00000
      6      -8.7085      1.00000
      7      -8.5777      1.00000
      8      -8.4904      1.00000
      9      -8.4160      1.00000
     10      -8.3605      1.00000
     11      -8.2559      1.00000
     12      -8.2416      1.00000
     13      -8.1967      1.00000
     14      -8.1780      1.00000
     15      -8.0799      1.00000
     16      -8.0275      1.00000
     17      -7.9558      1.00000
     18      -7.9262      1.00000
     19      -7.7458      1.00000
     20      -7.6849      1.00000
     21      -7.6182      1.00000
     22      -7.5931      1.00000
     23      -7.5229      1.00000
     24      -7.4069      1.00000
     25      -7.3588      1.00000
     26      -7.2984      1.00000
     27      -7.2840      1.00000
     28      -7.2443      1.00000
     29      -7.2254      1.00000
     30      -7.1911      1.00000
     31      -7.0906      1.00000
     32      -7.0698      1.00000
     33      -7.0462      1.00000
     34      -7.0093      1.00000
     35      -6.9474      1.00000
     36      -6.9206      1.00000
     37      -6.8416      1.00000
     38      -6.8389      1.00000
     39      -6.7939      1.00000
     40      -6.7847      1.00000
     41      -6.7697      1.00000
     42      -6.7438      1.00000
     43      -6.7063      1.00000
     44      -6.6838      1.00000
     45      -6.6372      1.00000
     46      -6.6337      1.00000
     47      -6.6051      1.00000
     48      -6.5419      1.00000
     49      -6.5196      1.00000
     50      -6.4518      1.00000
     51      -6.3673      1.00000
     52      -5.7639      1.00000
     53      -5.0004      1.00000
     54      -4.7690      1.00000
     55      -3.8611      1.00000
     56      -3.0547      0.00000
     57      -2.7328      0.00000
     58      -2.5423      0.00000
     59      -2.2952      0.00000
     60      -1.9959      0.00000
     61      -1.6186      0.00000
     62      -1.0149      0.00000
     63      -0.8745      0.00000
     64      -0.6613      0.00000
     65      -0.4806      0.00000
     66      -0.4214      0.00000
     67      -0.3420      0.00000
     68      -0.0637      0.00000
     69       0.1171      0.00000
     70       0.2566      0.00000
     71       0.4617      0.00000
     72       0.4757      0.00000


--------------------------------------------------------------------------------------------------------


 soft charge-density along one line, spin component           1
         0         1         2         3         4         5         6         7         8         9
 total charge-density along one line
 
 soft charge-density along one line, spin component           2
         0         1         2         3         4         5         6         7         8         9
 total charge-density along one line
 
 pseudopotential strength for first ion, spin component:           1
-10.377  -0.005   0.005  -0.010   0.002 -10.349  -0.005   0.005
 -0.005 -10.382  -0.009   0.002   0.011  -0.005 -10.354  -0.009
  0.005  -0.009 -10.387   0.001   0.000   0.005  -0.009 -10.359
 -0.010   0.002   0.001 -10.384  -0.006  -0.009   0.002   0.001
  0.002   0.011   0.000  -0.006 -10.371   0.002   0.011   0.000
-10.349  -0.005   0.005  -0.009   0.002 -10.298  -0.005   0.005
 -0.005 -10.354  -0.009   0.002   0.011  -0.005 -10.303  -0.009
  0.005  -0.009 -10.359   0.001   0.000   0.005  -0.009 -10.307
 -0.009   0.002   0.001 -10.356  -0.005  -0.009   0.002   0.001
  0.002   0.011   0.000  -0.005 -10.344   0.002   0.010   0.000
  0.001   0.005   0.003   0.002  -0.000   0.001   0.005   0.003
  0.002   0.009   0.005   0.004  -0.000   0.002   0.008   0.005
  0.013   0.032  -0.011  -0.000  -0.019   0.012   0.030  -0.011
 -0.000   0.018   0.036   0.013  -0.000  -0.000   0.017   0.035
  0.019  -0.000  -0.007   0.031   0.013   0.018  -0.000  -0.007
  0.016   0.039  -0.014  -0.000  -0.023   0.015   0.037  -0.013
 -0.000   0.022   0.044   0.016  -0.000  -0.000   0.021   0.043
  0.023  -0.000  -0.009   0.039   0.016   0.022  -0.000  -0.009
 pseudopotential strength for first ion, spin component:           2
-10.377  -0.005   0.005  -0.010   0.002 -10.349  -0.005   0.005
 -0.005 -10.382  -0.009   0.002   0.011  -0.005 -10.354  -0.009
  0.005  -0.009 -10.387   0.001   0.000   0.005  -0.009 -10.359
 -0.010   0.002   0.001 -10.384  -0.006  -0.009   0.002   0.001
  0.002   0.011   0.000  -0.006 -10.371   0.002   0.011   0.000
-10.349  -0.005   0.005  -0.009   0.002 -10.298  -0.005   0.005
 -0.005 -10.354  -0.009   0.002   0.011  -0.005 -10.303  -0.009
  0.005  -0.009 -10.359   0.001   0.000   0.005  -0.009 -10.307
 -0.009   0.002   0.001 -10.356  -0.005  -0.009   0.002   0.001
  0.002   0.011   0.000  -0.005 -10.344   0.002   0.010   0.000
  0.001   0.005   0.003   0.002  -0.000   0.001   0.005   0.003
  0.002   0.009   0.005   0.004  -0.000   0.002   0.008   0.005
  0.013   0.032  -0.011  -0.000  -0.019   0.012   0.030  -0.011
 -0.000   0.018   0.036   0.013  -0.000  -0.000   0.017   0.035
  0.019  -0.000  -0.007   0.031   0.013   0.018  -0.000  -0.007
  0.016   0.039  -0.014  -0.000  -0.023   0.015   0.037  -0.013
 -0.000   0.022   0.044   0.016  -0.000  -0.000   0.021   0.043
  0.023  -0.000  -0.009   0.039   0.016   0.022  -0.000  -0.009
 total augmentation occupancy for first ion, spin component:           1
  2.347   0.090  -0.080   0.077   0.030  -0.382  -0.115   0.134  -0.091  -0.004  -0.189   0.042   0.055   0.001   0.047   0.004
  0.090   2.464   0.006   0.092  -0.087  -0.116  -0.491  -0.063  -0.051   0.121  -0.420   0.087   0.076   0.056   0.015   0.013
 -0.080   0.006   2.568   0.110  -0.011   0.135  -0.063  -0.601  -0.076   0.012  -0.304   0.058  -0.024   0.105  -0.016  -0.007
  0.077   0.092   0.110   2.464   0.073  -0.091  -0.051  -0.076  -0.498  -0.106  -0.256   0.076   0.006   0.068   0.072  -0.001
  0.030  -0.087  -0.011   0.073   2.415  -0.003   0.121   0.012  -0.106  -0.360   0.007   0.013  -0.028  -0.001   0.042  -0.010
 -0.382  -0.116   0.135  -0.091  -0.003   0.395   0.137  -0.181   0.104  -0.018   0.172  -0.040  -0.078   0.006  -0.064   0.006
 -0.115  -0.491  -0.063  -0.051   0.121   0.137   0.499   0.112   0.018  -0.150   0.353  -0.065  -0.105  -0.077  -0.006   0.007
  0.134  -0.063  -0.601  -0.076   0.012  -0.181   0.112   0.613   0.048  -0.013   0.258  -0.046   0.029  -0.138   0.032  -0.000
 -0.091  -0.051  -0.076  -0.498  -0.106   0.104   0.018   0.048   0.511   0.134   0.229  -0.068   0.001  -0.071  -0.105   0.000
 -0.004   0.121   0.012  -0.106  -0.360  -0.018  -0.150  -0.013   0.134   0.294  -0.008  -0.009   0.046  -0.001  -0.050  -0.003
 -0.189  -0.420  -0.304  -0.256   0.007   0.172   0.353   0.258   0.229  -0.008   1.717  -0.185  -0.121  -0.215  -0.106   0.010
  0.042   0.087   0.058   0.076   0.013  -0.040  -0.065  -0.046  -0.068  -0.009  -0.185   0.033   0.018   0.034   0.022  -0.001
  0.055   0.076  -0.024   0.006  -0.028  -0.078  -0.105   0.029   0.001   0.046  -0.121   0.018   0.037   0.009   0.009  -0.003
  0.001   0.056   0.105   0.068  -0.001   0.006  -0.077  -0.138  -0.071  -0.001  -0.215   0.034   0.009   0.056   0.012  -0.001
  0.047   0.015  -0.016   0.072   0.042  -0.064  -0.006   0.032  -0.105  -0.050  -0.106   0.022   0.009   0.012   0.037  -0.001
  0.004   0.013  -0.007  -0.001  -0.010   0.006   0.007  -0.000   0.000  -0.003   0.010  -0.001  -0.003  -0.001  -0.001   0.001
 -0.001   0.005   0.013   0.003  -0.000   0.001   0.007   0.009   0.005   0.000   0.018  -0.003  -0.001  -0.005  -0.001   0.000
  0.008  -0.002  -0.004   0.013   0.005   0.004   0.001  -0.002   0.008   0.003   0.009  -0.002  -0.001  -0.001  -0.003   0.000
 total augmentation occupancy for first ion, spin component:           2
 -0.000   0.000  -0.000  -0.000   0.000   0.000  -0.000   0.000   0.000  -0.000  -0.000   0.000   0.000  -0.000   0.000  -0.000
  0.000  -0.000   0.000   0.000  -0.000  -0.000   0.000  -0.000  -0.000   0.000   0.000  -0.000   0.000   0.000  -0.000  -0.000
 -0.000   0.000  -0.000  -0.000   0.000   0.000  -0.000   0.000   0.000  -0.000  -0.000   0.000   0.000  -0.000   0.000  -0.000
 -0.000   0.000  -0.000   0.000   0.000   0.000  -0.000   0.000  -0.000  -0.000  -0.000   0.000   0.000   0.000   0.000  -0.000
  0.000  -0.000   0.000   0.000   0.000  -0.000   0.000  -0.000  -0.000  -0.000  -0.000   0.000   0.000  -0.000  -0.000  -0.000
  0.000  -0.000   0.000   0.000  -0.000  -0.000   0.000   0.000  -0.000   0.000   0.000  -0.000  -0.000   0.000  -0.000   0.000
 -0.000   0.000  -0.000  -0.000   0.000   0.000  -0.000   0.000   0.000  -0.000  -0.000   0.000   0.000  -0.000   0.000   0.000
  0.000  -0.000   0.000   0.000  -0.000   0.000   0.000  -0.000  -0.000   0.000   0.000  -0.000  -0.000  -0.000   0.000   0.000
  0.000  -0.000   0.000  -0.000  -0.000  -0.000   0.000  -0.000   0.000   0.000   0.000  -0.000  -0.000   0.000  -0.000   0.000
 -0.000   0.000  -0.000  -0.000  -0.000   0.000  -0.000   0.000   0.000   0.000   0.000  -0.000  -0.000   0.000   0.000   0.000
 -0.000   0.000  -0.000  -0.000  -0.000   0.000  -0.000   0.000   0.000   0.000   0.000  -0.000  -0.000   0.000  -0.000   0.000
  0.000  -0.000   0.000   0.000   0.000  -0.000   0.000  -0.000  -0.000  -0.000  -0.000   0.000   0.000  -0.000   0.000  -0.000
  0.000   0.000   0.000   0.000   0.000  -0.000   0.000  -0.000  -0.000  -0.000  -0.000   0.000   0.000  -0.000  -0.000  -0.000
 -0.000   0.000  -0.000   0.000  -0.000   0.000  -0.000  -0.000   0.000   0.000   0.000  -0.000  -0.000   0.000  -0.000   0.000
  0.000  -0.000   0.000   0.000  -0.000  -0.000   0.000   0.000  -0.000   0.000  -0.000   0.000  -0.000  -0.000   0.000   0.000
 -0.000  -0.000  -0.000  -0.000  -0.000   0.000   0.000   0.000   0.000   0.000   0.000  -0.000  -0.000   0.000   0.000   0.000
  0.000  -0.000   0.000  -0.000   0.000  -0.000   0.000   0.000  -0.000  -0.000  -0.000   0.000   0.000  -0.000   0.000  -0.000
 -0.000   0.000  -0.000  -0.000   0.000   0.000  -0.000  -0.000  -0.000  -0.000  -0.000   0.000   0.000   0.000  -0.000  -0.000


------------------------ aborting loop because EDIFF is reached ----------------------------------------


    CHARGE:  cpu time    0.03: real time    0.04
    FORLOC:  cpu time    0.01: real time    0.00
    FORNL :  cpu time    0.19: real time    0.19
    STRESS:  cpu time    0.24: real time    0.24
    FORCOR:  cpu time    0.17: real time    0.17
    FORHAR:  cpu time    0.02: real time    0.02
    MIXING:  cpu time    0.00: real time    0.00
    OFIELD:  cpu time    0.00: real time    0.00

  FORCE on cell =-STRESS in cart. coord.  units (eV):
  Direction    XX          YY          ZZ          XY          YZ          ZX
  --------------------------------------------------------------------------------------
  Alpha Z    14.01838    14.01838    14.01838
  Ewald    3213.82714  2053.21841  4005.73269   286.11149   102.11431 -1862.33493
  Hartree  6530.37143  5430.52158  7241.55341   245.73894    70.14762 -1618.39311
  E(xc)    -579.41816  -579.62615  -579.38308     0.13949     0.08537    -0.65743
  Local  -11360.05314 -9095.40402-12860.35527  -531.35664  -169.11573  3479.00786
  n-local  -113.71860  -115.11190  -114.13434     0.07409    -0.58570    -0.77292
  augment   918.28230   917.75414   917.68940    -0.23536    -0.75059     1.01751
  Kinetic  1373.38599  1371.39316  1371.58680    -0.39181    -1.89111     2.13673
  Fock        0.00000     0.00000     0.00000     0.00000     0.00000     0.00000
  -------------------------------------------------------------------------------------
  Total      -3.30467    -3.23642    -3.29201     0.08020     0.00417     0.00371
  in kB      -0.87262    -0.85459    -0.86927     0.02118     0.00110     0.00098
  external pressure =       -0.87 kB  Pullay stress =        0.00 kB


 VOLUME and BASIS-vectors are now :
 -----------------------------------------------------------------------------
  energy-cutoff  :      249.84
  volume of cell :     6067.59
      direct lattice vectors                 reciprocal lattice vectors
    18.239187038  0.000000000  0.000000000     0.054827005  0.000000000  0.000000000
     0.000000000 18.239187038  0.000000000     0.000000000  0.054827005  0.000000000
     0.000000000  0.000000000 18.239187038     0.000000000  0.000000000  0.054827005

  length of vectors
    18.239187038 18.239187038 18.239187038     0.054827005  0.054827005  0.054827005


 FORCES acting on ions
    electron-ion (+dipol)            ewald-force                    non-local-force                 convergence-correction
 -----------------------------------------------------------------------------------------------
   -.384E+03 -.343E+03 -.721E+03   0.382E+03 0.340E+03 0.715E+03   0.245E+01 0.340E+01 0.587E+01   0.741E-02 -.587E-02 0.210E-01
   -.728E+03 -.613E+01 -.193E+03   0.725E+03 0.649E+01 0.194E+03   0.309E+01 -.355E+00 -.126E+01   -.567E-02 0.793E-02 -.603E-02
   0.829E+03 -.679E+01 -.245E+03   -.823E+03 0.591E+01 0.244E+03   -.628E+01 0.884E+00 0.728E+00   -.514E-04 0.140E-01 0.347E-02
   0.171E+03 0.443E+03 -.729E+03   -.172E+03 -.441E+03 0.727E+03   0.776E+00 -.232E+01 0.195E+01   0.226E-02 0.495E-02 -.111E-01
   -.604E+03 -.210E+03 0.441E+03   0.598E+03 0.207E+03 -.440E+03   0.534E+01 0.271E+01 -.159E+01   0.174E-02 0.531E-02 -.340E-02
   -.110E+03 0.911E+03 -.464E+02   0.109E+03 -.905E+03 0.450E+02   0.555E+00 -.622E+01 0.143E+01   -.459E-02 -.548E-02 -.562E-02
   0.653E+03 0.226E+03 0.485E+03   -.651E+03 -.224E+03 -.484E+03   -.250E+01 -.183E+01 -.189E+01   -.330E-02 -.150E-01 -.942E-02
   0.325E+03 -.801E+03 -.189E+03   -.323E+03 0.797E+03 0.186E+03   -.204E+01 0.355E+01 0.300E+01   -.655E-02 -.189E-01 0.122E-02
   -.203E+03 0.476E+03 0.678E+03   0.204E+03 -.472E+03 -.674E+03   -.963E+00 -.387E+01 -.382E+01   0.138E-01 0.106E-01 0.114E-01
   0.486E+02 -.690E+03 0.517E+03   -.488E+02 0.686E+03 -.514E+03   0.138E+00 0.415E+01 -.360E+01   -.875E-02 0.428E-02 0.183E-02
 -----------------------------------------------------------------------------------------------
   -.432E+00 -.722E-01 -.841E+00   -.121E-12 -.114E-12 0.000E+00   0.566E+00 0.106E+00 0.817E+00   -.374E-02 0.187E-02 0.343E-02
 
 
 POSITION                                       TOTAL-FORCE (eV/Angst)
 -----------------------------------------------------------------------------------
     10.28047     10.41630     12.09441         0.012691     -0.003253      0.013877
     10.63045      9.32100      9.65700        -0.003432      0.014415     -0.000673
      6.08068      9.30905     10.68020        -0.004110      0.018236      0.002261
      8.52240      8.40896     11.39824        -0.008112     -0.018976     -0.008570
     12.10230     10.14700      6.58163         0.002017      0.005399     -0.002132
      9.55589      6.73190      9.36837        -0.003591     -0.006074     -0.002247
      7.86768      8.80363      8.57345        -0.006509     -0.002602     -0.009537
      8.32930     10.99437     10.11808         0.003184     -0.001723     -0.004416
     10.31162      8.24781      7.15016         0.016056      0.004419      0.001484
      9.61725     10.91776      7.64565        -0.008192     -0.009840      0.009954
 -----------------------------------------------------------------------------------
    total drift:                                0.130741      0.035272     -0.020084


--------------------------------------------------------------------------------------------------------



  FREE ENERGIE OF THE ION-ELECTRON SYSTEM (eV)
  ---------------------------------------------------
  free  energy   TOTEN  =       -17.67318848 eV

  energy  without entropy=      -17.67318848  energy(sigma->0) =      -17.67318848
 
 d Force =-0.1180887E-04[-0.313E-04, 0.771E-05]  d Energy =-0.3931687E-04 0.275E-04
 d Force =-0.2312224E-01[-0.231E-01,-0.232E-01]  d Ewald  =-0.2312225E-01 0.755E-08


--------------------------------------------------------------------------------------------------------


    POTLOK:  cpu time    0.18: real time    0.18


--------------------------------------------------------------------------------------------------------




--------------------------------------------------------------------------------------------------------


  
 reached required accuracy - stopping structural energy minimisation
     LOOP+:  cpu time    2.12: real time    2.16
    4ORBIT:  cpu time    0.00: real time    0.00

 total amount of memory used by VASP on root node    48812. kBytes
========================================================================

   base      :      30000. kBytes
   nonl-proj :       1034. kBytes
   fftplans  :       4478. kBytes
   grid      :      11298. kBytes
   one-center:         31. kBytes
   wavefun   :       1971. kBytes
 
  
  
 General timing and accounting informations for this job:
 ========================================================
  
                  Total CPU time used (sec):      270.713
                            User time (sec):      264.509
                          System time (sec):        6.204
                         Elapsed time (sec):      323.470
  
                   Maximum memory used (kb):       54880.
                   Average memory used (kb):           0.
  
                          Minor page faults:       982649
                          Major page faults:            0
                 Voluntary context switches:         9950
