 vasp.5.3.5 31Mar14 (build Feb 01 2018 12:10:03) gamma-only                     
  
 executed on             LinuxIFC date 2019.03.24  04:36:16
 running on   64 total cores
 distrk:  each k-point on   64 cores,    1 groups
 distr:  one band on NCORES_PER_BAND=  16 cores,    4 groups


--------------------------------------------------------------------------------------------------------


 INCAR:
 POTCAR:    PAW_PBE Ag 02Apr2005                  
 POTCAR:    PAW_PBE Ag 02Apr2005                  
   VRHFIN =Ag : s1 d10                                                          
   LEXCH  = PE                                                                  
   EATOM  =  1037.2675 eV,   76.2370 Ry                                         
                                                                                
   TITEL  = PAW_PBE Ag 02Apr2005                                                
   LULTRA =        F    use ultrasoft PP ?                                      
   IUNSCR =        1    unscreen: 0-lin 1-nonlin 2-no                           
   RPACOR =    2.000    partial core radius                                     
   POMASS =  107.868; ZVAL   =   11.000    mass and valenz                      
   RCORE  =    2.500    outmost cutoff radius                                   
   RWIGS  =    2.840; RWIGS  =    1.503    wigner-seitz radius (au A)           
   ENMAX  =  249.844; ENMIN  =  187.383 eV                                      
   ICORE  =        3    local potential                                         
   LCOR   =        T    correct aug charges                                     
   LPAW   =        T    paw PP                                                  
   EAUG   =  412.496                                                            
   DEXC   =    0.000                                                            
   RMAX   =    2.560    core radius for proj-oper                               
   RAUG   =    1.300    factor for augmentation sphere                          
   RDEP   =    2.576    radius for radial grids                                 
   RDEPT  =    2.072    core radius for aug-charge                              
                                                                                
   Atomic configuration                                                         
   12 entries                                                                   
     n  l   j            E        occ.                                          
     1  0  0.50    -25324.9161   2.0000                                         
     2  0  0.50     -3728.5341   2.0000                                         
     2  1  1.50     -3344.0404   6.0000                                         
     3  0  0.50      -683.5581   2.0000                                         
     3  1  1.50      -557.3225   6.0000                                         
     3  2  2.50      -358.3853  10.0000                                         
     4  0  0.50       -95.0341   2.0000                                         
     4  1  1.50       -58.5511   6.0000                                         
     4  2  2.50        -7.4440  10.0000                                         
     5  0  0.50        -4.4045   1.0000                                         
     5  1  0.50        -1.3606   0.0000                                         
     4  3  2.50        -1.3606   0.0000                                         
   Description                                                                  
     l       E           TYP  RCUT    TYP  RCUT                                 
     2     -7.4439781     23  2.400                                             
     2     -8.8045607     23  2.400                                             
     0     -4.4044681     23  2.400                                             
     0      1.9520038     23  2.400                                             
     1     -1.3605826     23  2.500                                             
     1     27.2116520     23  2.500                                             
     3     -4.0817478     23  2.400                                             
  local pseudopotential read in
  partial core-charges read in
  partial kinetic energy density read in
  atomic valenz-charges read in
  non local Contribution for L=           2  read in
    real space projection operators read in
  non local Contribution for L=           2  read in
    real space projection operators read in
  non local Contribution for L=           0  read in
    real space projection operators read in
  non local Contribution for L=           0  read in
    real space projection operators read in
  non local Contribution for L=           1  read in
    real space projection operators read in
  non local Contribution for L=           1  read in
    real space projection operators read in
    PAW grid and wavefunctions read in
 
   number of l-projection  operators is LMAX  =           6
   number of lm-projection operators is LMMAX =          18
 

 ----------------------------------------------------------------------------- 
|                                                                             |
|  ADVICE TO THIS USER RUNNING 'VASP/VAMP'   (HEAR YOUR MASTER'S VOICE ...):  |
|                                                                             |
|      You have a (more or less) 'large supercell' and for larger cells       |
|      it might be more efficient to use real space projection opertators     |
|      So try LREAL= Auto  in the INCAR   file.                               |
|      Mind: At the moment your POTCAR file does not contain real space       |
|       projectors, and has to be modified,  BUT if you                       |
|      want to do an extremely  accurate calculation you might also keep the  |
|      reciprocal projection scheme          (i.e. LREAL=.FALSE.)             |
|                                                                             |
 ----------------------------------------------------------------------------- 

  PAW_PBE Ag 02Apr2005                  :
 energy of atom  1       EATOM=-1037.2675
 kinetic energy error for atom=    0.0689 (will be added to EATOM!!)
 
 
 POSCAR: Al47, -149.53830665 <s> Ag </s>         
  positions in direct lattice
  No initial velocities read in
 exchange correlation table for  LEXCH =        8
   RHO(1)=    0.500       N(1)  =     2000
   RHO(2)=  100.500       N(2)  =     4000
 


--------------------------------------------------------------------------------------------------------


 ion  position               nearest neighbor table
   1  0.368  0.346  0.602-   3 2.71   7 2.77   4 2.81   5 2.83  10 3.18   2 3.21
   2  0.461  0.302  0.507-   3 2.80   9 2.81  10 2.88   4 2.89  11 2.93   8 2.97   1 3.21
   3  0.478  0.311  0.627-   1 2.71  12 2.74   8 2.75   2 2.80   5 2.93  10 2.93
   4  0.371  0.388  0.487-  11 2.72   6 2.75   1 2.81   2 2.89   7 2.94  10 2.98  18 3.15  13 3.55

   5  0.435  0.423  0.670-  14 2.75  10 2.82   1 2.83  20 2.87  12 2.91   3 2.93   7 2.94
   6  0.306  0.486  0.472-  16 2.67   4 2.75   7 2.88  13 2.94  18 2.95  19 3.20
   7  0.347  0.463  0.587-  19 2.74   1 2.77  20 2.86   6 2.88   4 2.94   5 2.94  18 3.05  10 3.28

   8  0.575  0.328  0.561-   9 2.73  17 2.74   3 2.75  21 2.80  12 2.84   2 2.97  10 3.04  15 3.08

   9  0.563  0.317  0.444-  22 2.71   8 2.73  21 2.76   2 2.81  11 2.89  15 3.16
  10  0.477  0.416  0.556-   5 2.82  18 2.82  33 2.82   2 2.88  15 2.90  11 2.91   3 2.93   4 2.98
                            20 3.04   8 3.04   1 3.18  12 3.18   7 3.28
  11  0.473  0.403  0.430-   4 2.72  25 2.74  23 2.83   9 2.89  10 2.91  22 2.92   2 2.93  13 3.07
                            15 3.07  18 3.08
  12  0.557  0.391  0.665-   3 2.74  24 2.76  17 2.83   8 2.84  14 2.87  33 2.88   5 2.91  10 3.18

  13  0.393  0.496  0.379-  18 2.83  32 2.85  23 2.90   6 2.94  31 2.96  16 3.02  26 3.02  11 3.07
                            25 3.12   4 3.55
  14  0.517  0.498  0.713-  28 2.73   5 2.75  33 2.86  12 2.87  24 2.88  20 2.94  37 2.98
  15  0.583  0.443  0.493-  33 2.73  25 2.79  21 2.85  22 2.85  10 2.90  27 2.99  47 3.01  17 3.04
                            11 3.07   8 3.08  40 3.09   9 3.16
  16  0.338  0.594  0.446-   6 2.67  26 2.79  31 2.81  19 2.85  39 2.87  36 2.99  13 3.02  18 3.06

  17  0.657  0.406  0.596-   8 2.74  35 2.75  24 2.75  21 2.79  12 2.83  27 3.02  33 3.03  15 3.04

  18  0.429  0.511  0.495-  20 2.75  10 2.82  13 2.83  26 2.84  25 2.91  30 2.92   6 2.95   7 3.05
                            16 3.06  11 3.08  19 3.09   4 3.15
  19  0.340  0.580  0.568-   7 2.74  29 2.84  16 2.85  20 2.88  39 2.92  18 3.09   6 3.20
  20  0.447  0.532  0.611-  18 2.75  33 2.78  29 2.79  37 2.85   7 2.86   5 2.87  19 2.88  14 2.94
                            30 2.97  10 3.04
  21  0.669  0.354  0.488-  27 2.71   9 2.76  17 2.79   8 2.80  15 2.85  22 3.48
  22  0.586  0.409  0.374-   9 2.71  34 2.76  25 2.85  15 2.85  23 2.90  11 2.92  40 3.22  21 3.48

  23  0.480  0.435  0.312-  32 2.77  11 2.83  13 2.90  22 2.90  34 2.96  25 3.01
  24  0.638  0.475  0.692-  17 2.75  12 2.76  38 2.83  28 2.83  33 2.85  14 2.88  35 2.95
  25  0.523  0.509  0.411-  26 2.69  11 2.74  15 2.79  22 2.85  34 2.86  32 2.86  40 2.88  18 2.91
                            46 2.93  23 3.01  13 3.12  30 3.25
  26  0.456  0.604  0.418-  25 2.69  42 2.76  43 2.78  16 2.79  39 2.80  32 2.82  18 2.84  31 2.86
                            36 2.87  30 2.92  46 3.00  13 3.02
  27  0.711  0.463  0.492-  21 2.71  35 2.79  47 2.80  40 2.81  15 2.99  17 3.02
  28  0.598  0.575  0.752-  14 2.73  38 2.78  24 2.83  37 2.89
  29  0.422  0.649  0.628-  39 2.69  45 2.79  20 2.79  37 2.82  19 2.84  30 3.56
  30  0.522  0.592  0.525-  45 2.88  47 2.89  33 2.90  37 2.91  18 2.92  26 2.92  20 2.97  41 3.06
                            39 3.07  42 3.14  44 3.14  25 3.25  29 3.56
  31  0.370  0.611  0.329-  32 2.77  16 2.81  36 2.83  26 2.86  43 2.96  13 2.96
  32  0.473  0.555  0.307-  23 2.77  31 2.77  26 2.82  34 2.84  13 2.85  25 2.86  46 2.89  43 2.93

  33  0.561  0.496  0.597-  15 2.73  47 2.74  20 2.78  10 2.82  24 2.85  14 2.86  12 2.88  30 2.90
                            37 2.94  17 3.03  38 3.35
  34  0.587  0.507  0.305-  22 2.76  46 2.81  32 2.84  25 2.86  40 2.89  23 2.96
  35  0.728  0.502  0.605-  38 2.73  17 2.75  27 2.79  47 2.87  24 2.95
  36  0.388  0.707  0.404-  39 2.73  43 2.79  31 2.83  26 2.87  16 2.99  42 3.13
  37  0.536  0.609  0.650-  29 2.82  20 2.85  28 2.89  38 2.90  30 2.91  45 2.94  33 2.94  14 2.98
                            44 2.98
  38  0.660  0.588  0.650-  44 2.68  35 2.73  28 2.78  24 2.83  47 2.86  37 2.90  33 3.35
  39  0.413  0.667  0.513-  29 2.69  36 2.73  26 2.80  45 2.81  16 2.87  19 2.92  42 2.92  30 3.07

  40  0.646  0.530  0.413-  47 2.81  27 2.81  25 2.88  46 2.89  34 2.89  41 2.99  15 3.09  22 3.22

  41  0.623  0.648  0.460-  44 2.70  46 2.72  47 2.77  42 2.78  40 2.99  30 3.06
  42  0.516  0.703  0.447-  26 2.76  41 2.78  45 2.86  39 2.92  43 2.94  36 3.13  30 3.14  46 3.15

  43  0.478  0.681  0.328-  46 2.74  26 2.78  36 2.79  32 2.93  42 2.94  31 2.96
  44  0.623  0.669  0.575-  38 2.68  45 2.68  41 2.70  47 2.88  37 2.98  30 3.14
  45  0.513  0.707  0.571-  44 2.68  29 2.79  39 2.81  42 2.86  30 2.88  37 2.94
  46  0.571  0.614  0.359-  41 2.72  43 2.74  34 2.81  32 2.89  40 2.89  25 2.93  26 3.00  42 3.15

  47  0.641  0.554  0.532-  33 2.74  41 2.77  27 2.80  40 2.81  38 2.86  35 2.87  44 2.88  30 2.89
                            15 3.01
 
  LATTYP: Found a simple cubic cell.
 ALAT       =    23.0568231294
  
  Lattice vectors:
  
 A1 = (  23.0568231294,   0.0000000000,   0.0000000000)
 A2 = (   0.0000000000,  23.0568231294,   0.0000000000)
 A3 = (   0.0000000000,   0.0000000000,  23.0568231294)


Analysis of symmetry for initial positions (statically):
=====================================================================
 Subroutine PRICEL returns:
 Original cell was already a primitive cell.
 

 Routine SETGRP: Setting up the symmetry group for a 
 simple cubic supercell.


 Subroutine GETGRP returns: Found  1 space group operations
 (whereof  1 operations were pure point group operations)
 out of a pool of 48 trial point group operations.


The static configuration has the point symmetry C_1 .


Analysis of symmetry for dynamics (positions and initial velocities):
=====================================================================
 Subroutine PRICEL returns:
 Original cell was already a primitive cell.
 

 Routine SETGRP: Setting up the symmetry group for a 
 simple cubic supercell.


 Subroutine GETGRP returns: Found  1 space group operations
 (whereof  1 operations were pure point group operations)
 out of a pool of 48 trial point group operations.


The dynamic configuration has the point symmetry C_1 .


Analysis of magnetic symmetry:
=====================================================================
 Subroutine PRICEL returns:
 Original cell was already a primitive cell.
 

 Subroutine MAGSYM returns: Found  1 space group operations
 (whereof  1 operations were pure point group operations)
 out of a pool of  1 trial space group operations
 (whereof  1 operations were pure point group operations)
 and found also     1 'primitive' translations


The magnetic configuration has the point symmetry C_1 .
 
 
 KPOINTS: Gamma-point only                        
  k-points in reciprocal lattice
Space group operators:
 irot       det(A)        alpha          n_x          n_y          n_z        tau_x        tau_y        tau_z
    1     1.000000     0.000000     1.000000     0.000000     0.000000     0.000000     0.000000     0.000000


--------------------------------------------------------------------------------------------------------




 Dimension of arrays:
   k-points           NKPTS =      1   k-points in BZ     NKDIM =      1   number of bands    NBANDS=    336
   number of dos      NEDOS =    301   number of ions     NIONS =     47
   non local maximal  LDIM  =      6   non local SUM 2l+1 LMDIM =     18
   total plane-waves  NPLWV = 729000
   max r-space proj   IRMAX =      1   max aug-charges    IRDMAX=   3123
   dimension x,y,z NGX =    90 NGY =   90 NGZ =   90
   dimension x,y,z NGXF=   180 NGYF=  180 NGZF=  180
   support grid    NGXF=   180 NGYF=  180 NGZF=  180
   ions per type =              47
 NGX,Y,Z   is equivalent  to a cutoff of   6.49,  6.49,  6.49 a.u.
 NGXF,Y,Z  is equivalent  to a cutoff of  12.98, 12.98, 12.98 a.u.


 I would recommend the setting:
   dimension x,y,z NGX =    89 NGY =   89 NGZ =   89
 SYSTEM =  unknown system                          
 POSCAR =  Al47, -149.53830665 <s> Ag </s>         

 Startparameter for this run:
   NWRITE =      2    write-flag & timer
   PREC   = normal    normal or accurate (medium, high low for compatibility)
   ISTART =      0    job   : 0-new  1-cont  2-samecut
   ICHARG =      2    charge: 1-file 2-atom 10-const
   ISPIN  =      2    spin polarized calculation?
   LNONCOLLINEAR =      F non collinear calculations
   LSORBIT =      F    spin-orbit coupling
   INIWAV =      1    electr: 0-lowe 1-rand  2-diag
   LASPH  =      F    aspherical Exc in radial PAW
   METAGGA=      F    non-selfconsistent MetaGGA calc.

 Electronic Relaxation 1
   ENCUT  =  249.8 eV  18.36 Ry    4.29 a.u.  29.72 29.72 29.72*2*pi/ulx,y,z
   ENINI  =  249.8     initial cutoff
   ENAUG  =  412.5 eV  augmentation charge cutoff
   NELM   =     60;   NELMIN=  2; NELMDL= -5     # of ELM steps 
   EDIFF  = 0.1E-03   stopping-criterion for ELM
   LREAL  =      F    real-space projection
   NLSPLINE    = F    spline interpolate recip. space projectors
   LCOMPAT=      F    compatible to vasp.4.4
   GGA_COMPAT  = T    GGA compatible to vasp.4.4-vasp.4.6
   LMAXPAW     = -100 max onsite density
   LMAXMIX     =    2 max onsite mixed and CHGCAR
   VOSKOWN=      0    Vosko Wilk Nusair interpolation
   ROPT   =    0.00000
 Ionic relaxation
   EDIFFG = 0.1E-02   stopping-criterion for IOM
   NSW    =   1000    number of steps for IOM
   NBLOCK =      1;   KBLOCK =   1000    inner block; outer block 
   IBRION =      2    ionic relax: 0-MD 1-quasi-New 2-CG
   NFREE  =      1    steps in history (QN), initial steepest desc. (CG)
   ISIF   =      2    stress and relaxation
   IWAVPR =     11    prediction:  0-non 1-charg 2-wave 3-comb
   ISYM   =      2    0-nonsym 1-usesym 2-fastsym
   LCORR  =      T    Harris-Foulkes like correction to forces

   POTIM  = 0.1000    time-step for ionic-motion
   TEIN   =    0.0    initial temperature
   TEBEG  =    0.0;   TEEND  =   0.0 temperature during run
   SMASS  =  -3.00    Nose mass-parameter (am)
   estimated Nose-frequenzy (Omega)   =  0.10E-29 period in steps =****** mass=  -0.121E-25a.u.
   SCALEE = 1.0000    scale energy and forces
   NPACO  =    256;   APACO  = 16.0  distance and # of slots for P.C.
   PSTRESS=    0.0 pullay stress

  Mass of Ions in am
   POMASS = 107.87
  Ionic Valenz
   ZVAL   =  11.00
  Atomic Wigner-Seitz radii
   RWIGS  =  -1.00
  virtual crystal weights 
   VCA    =   1.00
   NELECT =     517.0000    total number of electrons
   NUPDOWN=      -1.0000    fix difference up-down

 DOS related values:
   EMIN   =  10.00;   EMAX   =-10.00  energy-range for DOS
   EFERMI =   0.00
   ISMEAR =     0;   SIGMA  =   0.00  broadening in eV -4-tet -1-fermi 0-gaus

 Electronic relaxation 2 (details)
   IALGO  =     38    algorithm
   LDIAG  =      T    sub-space diagonalisation (order eigenvalues)
   LSUBROT=      F    optimize rotation matrix (better conditioning)
   TURBO    =      0    0=normal 1=particle mesh
   IRESTART =      0    0=no restart 2=restart with 2 vectors
   NREBOOT  =      0    no. of reboots
   NMIN     =      0    reboot dimension
   EREF     =   0.00    reference energy to select bands
   IMIX   =      4    mixing-type and parameters
     AMIX     =   0.40;   BMIX     =  1.00
     AMIX_MAG =   1.60;   BMIX_MAG =  1.00
     AMIN     =   0.10
     WC   =   100.;   INIMIX=   1;  MIXPRE=   1;  MAXMIX= -45

 Intra band minimization:
   WEIMIN = 0.0010     energy-eigenvalue tresh-hold
   EBREAK =  0.74E-07  absolut break condition
   DEPER  =   0.30     relativ break condition  

   TIME   =   0.40     timestep for ELM

  volume/ion in A,a.u.               =     260.80      1759.94
  Fermi-wavevector in a.u.,A,eV,Ry     =   0.569865  1.076889  4.418444  0.324746
  Thomas-Fermi vector in A             =   1.609682
 
 Write flags
   LWAVE  =      F    write WAVECAR
   LCHARG =      F    write CHGCAR
   LVTOT  =      F    write LOCPOT, total local potential
   LVHAR  =      F    write LOCPOT, Hartree potential only
   LELF   =      F    write electronic localiz. function (ELF)
   LORBIT =      0    0 simple, 1 ext, 2 COOP (PROOUT)


 Dipole corrections
   LMONO  =      F    monopole corrections only (constant potential shift)
   LDIPOL =      F    correct potential (dipole corrections)
   IDIPOL =      0    1-x, 2-y, 3-z, 4-all directions 
   EPSILON=  1.0000000 bulk dielectric constant

 Exchange correlation treatment:
   GGA     =    PE    GGA type
   LEXCH   =     8    internal setting for exchange type
   VOSKOWN=      0    Vosko Wilk Nusair interpolation
   LHFCALC =     F    Hartree Fock is set to
   LHFONE  =     F    Hartree Fock one center treatment
   AEXX    =    0.0000 exact exchange contribution

 Linear response parameters
   LEPSILON=     F    determine dielectric tensor
   LRPA    =     F    only Hartree local field effects (RPA)
   LNABLA  =     F    use nabla operator in PAW spheres
   LVEL    =     F    velocity operator in full k-point grid
   LINTERFAST=   F  fast interpolation
   KINTER  =     0    interpolate to denser k-point grid
   CSHIFT  =0.1000    complex shift for real part using Kramers Kronig
   OMEGAMAX=  -1.0    maximum frequency
   DEG_THRESHOLD= 0.2000000E-02 threshold for treating states as degnerate
   RTIME   =    0.100 relaxation time in fs

 Orbital magnetization related:
   ORBITALMAG=     F  switch on orbital magnetization
   LCHIMAG   =     F  perturbation theory with respect to B field
   DQ        =  0.001000  dq finite difference perturbation B field



--------------------------------------------------------------------------------------------------------


 conjugate gradient relaxation of ions
 charge density and potential will be updated during run
 spin polarized calculation
 Variant of blocked Davidson
 Davidson routine will perform the subspace rotation
 perform sub-space diagonalisation
    after iterative eigenvector-optimisation
 modified Broyden-mixing scheme, WC =      100.0
 initial mixing is a Kerker type mixing with AMIX =  0.4000 and BMIX =      1.0000
 Hartree-type preconditioning will be used
 using additional bands           77
 reciprocal scheme for non local part
 use partial core corrections
 calculate Harris-corrections to forces 
   (improved forces if not selfconsistent)
 use gradient corrections 
 use of overlap-Matrix (Vanderbilt PP)
 Gauss-broadening in eV      SIGMA  =   0.00


--------------------------------------------------------------------------------------------------------


  energy-cutoff  :      249.84
  volume of cell :    12257.40
      direct lattice vectors                 reciprocal lattice vectors
    23.056823129  0.000000000  0.000000000     0.043371109  0.000000000  0.000000000
     0.000000000 23.056823129  0.000000000     0.000000000  0.043371109  0.000000000
     0.000000000  0.000000000 23.056823129     0.000000000  0.000000000  0.043371109

  length of vectors
    23.056823129 23.056823129 23.056823129     0.043371109  0.043371109  0.043371109


 
 k-points in units of 2pi/SCALE and weight: Gamma-point only                        
   0.00000000  0.00000000  0.00000000       1.000
 
 k-points in reciprocal lattice and weights: Gamma-point only                        
   0.00000000  0.00000000  0.00000000       1.000
 
 position of ions in fractional coordinates (direct lattice) 
   0.36826460  0.34581172  0.60169115
   0.46077490  0.30245699  0.50723195
   0.47752442  0.31109567  0.62714416
   0.37104013  0.38795713  0.48747994
   0.43501186  0.42273666  0.67024894
   0.30554488  0.48632072  0.47176479
   0.34671082  0.46315419  0.58729389
   0.57499285  0.32803424  0.56087877
   0.56337241  0.31721720  0.44351737
   0.47719244  0.41643709  0.55572443
   0.47315879  0.40300379  0.43041891
   0.55706906  0.39087131  0.66516678
   0.39258340  0.49550051  0.37912080
   0.51661535  0.49815107  0.71307148
   0.58338682  0.44310970  0.49343743
   0.33825985  0.59416559  0.44560013
   0.65723136  0.40631164  0.59630960
   0.42903649  0.51119406  0.49531353
   0.33995092  0.58006645  0.56820275
   0.44703830  0.53203444  0.61146223
   0.66861176  0.35363645  0.48797503
   0.58635063  0.40928369  0.37444257
   0.48028457  0.43546004  0.31226536
   0.63755707  0.47503752  0.69190595
   0.52324709  0.50884985  0.41128110
   0.45574205  0.60356636  0.41818680
   0.71145442  0.46303035  0.49152102
   0.59827722  0.57456821  0.75239335
   0.42227255  0.64942255  0.62781055
   0.52229742  0.59151995  0.52532048
   0.36957906  0.61144238  0.32902523
   0.47349716  0.55521550  0.30744818
   0.56090798  0.49551535  0.59708546
   0.58676147  0.50663944  0.30469681
   0.72773016  0.50213699  0.60498999
   0.38760172  0.70686546  0.40434722
   0.53568822  0.60905407  0.64960089
   0.65974510  0.58814101  0.64972125
   0.41349670  0.66693002  0.51261267
   0.64622716  0.52950642  0.41274634
   0.62295355  0.64805498  0.45988113
   0.51612380  0.70298827  0.44733763
   0.47759123  0.68056334  0.32786380
   0.62260677  0.66924522  0.57494350
   0.51254443  0.70702488  0.57139733
   0.57117288  0.61447640  0.35910198
   0.64139992  0.55373122  0.53190353
 
 position of ions in cartesian coordinates  (Angst):
   8.49101164  7.97331963 13.87308633
  10.62400544  6.97369732 11.69515724
  11.01019615  7.17287779 14.45995206
   8.55500655  8.94505898 11.23973869
  10.02999157  9.74696447 15.45381116
   7.04489434 11.21301091 10.87739741
   7.99405006 10.67886420 13.54113129
  13.25750841  7.56342741 12.93208260
  12.98957800  7.31402080 10.22610150
  11.00254161  9.60171642 12.81323981
  10.90953860  9.29198710  9.92409275
  12.84424279  9.01225057 15.33663284
   9.05172612 11.42466769  8.74132131
  11.91150882 11.48578108 16.44116310
  13.45104667 10.21670193 11.37709958
   7.79919759 13.69957101 10.27412346
  15.15366716  9.36825568 13.74900509
   9.89221850 11.78651114 11.42035648
   7.83818833 13.37448944 13.10095034
  10.30728310 12.26702404 14.09837660
  15.41606319  8.15373311 11.25115396
  13.51938286  9.43678159  8.63345618
  11.07383649 10.04032501  7.19984722
  14.70004070 10.95285619 15.95315322
  12.06441559 11.73246092  9.48283565
  10.50796377 13.91632281  9.64205907
  16.40387871 10.67600877 11.33291333
  13.79437209 13.24771750 17.34780045
   9.73626341 14.97362080 14.47531692
  12.04251915 13.63857098 12.11222139
   8.52131892 14.09791884  7.58627654
  10.91734035 12.80150563  7.08877838
  12.93275610 11.42500976 13.76689385
  13.52885552 11.68149594  7.02534054
  16.77914561 11.57768376 13.94914715
   8.93686424 16.29807195  9.32296236
  12.35126850 14.04285197 14.97773286
  15.21162613 13.56066336 14.98050799
   9.53392025 15.37728760 11.81921974
  14.89994538 12.20873585  9.51661941
  14.36332979 14.94208900 10.60339787
  11.90017520 16.20867609 10.31418464
  11.01173661 15.69162847  7.55949766
  14.35533415 15.43066877 13.25637065
  11.81764616 16.30174769 13.17460722
  13.16943216 14.16787370  8.27975082
  14.78864445 12.76728274 12.26400571
 


--------------------------------------------------------------------------------------------------------


 use parallel FFT for wavefunctions z direction half grid
 k-point  1 :   0.0000 0.0000 0.0000  plane waves:   55002

 maximum and minimum number of plane-waves per node :      3441     3434

 maximum number of plane-waves:     55002
 maximum index in each direction: 
   IXMAX=   29   IYMAX=   29   IZMAX=   29
   IXMIN=  -29   IYMIN=  -29   IZMIN=    0

 WARNING: aliasing errors must be expected set NGX to 118 to avoid them
 WARNING: aliasing errors must be expected set NGY to 118 to avoid them
 WARNING: aliasing errors must be expected set NGZ to 118 to avoid them
 aliasing errors are usually negligible using standard VASP settings
 and one can safely disregard these warnings

 parallel 3D FFT for wavefunctions:
    minimum data exchange during FFTs selected (reduces bandwidth)
 parallel 3D FFT for charge:
    minimum data exchange during FFTs selected (reduces bandwidth)


 total amount of memory used by VASP on root node    57764. kBytes
========================================================================

   base      :      30000. kBytes
   nonl-proj :       3085. kBytes
   fftplans  :       4337. kBytes
   grid      :      10964. kBytes
   one-center:         46. kBytes
   wavefun   :       9332. kBytes
 
     INWAV:  cpu time    0.00: real time    0.00
 Broyden mixing: mesh for mixing (old mesh)
   NGX = 59   NGY = 59   NGZ = 59
  (NGX  =180   NGY  =180   NGZ  =180)
  gives a total of 205379 points

 initial charge density was supplied:
 charge density of overlapping atoms calculated
 number of electron     517.0000000 magnetization      47.0000000
 keeping initial charge density in first step


--------------------------------------------------------------------------------------------------------


 Maximum index for augmentation-charges          245 (set IRDMAX)


--------------------------------------------------------------------------------------------------------


 First call to EWALD:  gamma=   0.077
 Maximum number of real-space cells 3x 3x 3
 Maximum number of reciprocal cells 3x 3x 3

 FEWALD executed in parallel
    FEWALD:  cpu time    0.00: real time    0.00


----------------------------------------- Iteration    1(   1)  ---------------------------------------


    POTLOK:  cpu time    0.23: real time    0.23
    SETDIJ:  cpu time    0.00: real time    0.01
     EDDAV:  cpu time    5.27: real time    5.28
       DOS:  cpu time    0.00: real time    0.00
    --------------------------------------------
      LOOP:  cpu time    5.51: real time    5.53

 eigenvalue-minimisations  :  1344
 total energy-change (2. order) : 0.4316739E+04  (-0.1077585E+05)
 number of electron     517.0000000 magnetization      47.0000000
 augmentation part      517.0000000 magnetization      47.0000000

 Free energy of the ion-electron system (eV)
  ---------------------------------------------------
  alpha Z        PSCENC =       153.28917698
  Ewald energy   TEWEN  =    136150.97539638
  -Hartree energ DENC   =   -183045.06000629
  -exchange      EXHF   =         0.00000000
  -V(xc)+E(xc)   XCENC  =      -511.71583197
  PAW double counting   =     47158.49236927   -44991.43661731
  entropy T*S    EENTRO =         0.00000000
  eigenvalues    EBANDS =       653.85856380
  atomic energy  EATOM  =     48748.33561406
  ---------------------------------------------------
  free energy    TOTEN  =      4316.73866492 eV

  energy without entropy =     4316.73866492  energy(sigma->0) =     4316.73866492


--------------------------------------------------------------------------------------------------------




----------------------------------------- Iteration    1(   2)  ---------------------------------------


     EDDAV:  cpu time    7.68: real time    7.69
       DOS:  cpu time    0.00: real time    0.00
    --------------------------------------------
      LOOP:  cpu time    7.69: real time    7.70

 eigenvalue-minimisations  :  2152
 total energy-change (2. order) :-0.3633610E+04  (-0.3262089E+04)
 number of electron     517.0000000 magnetization      47.0000000
 augmentation part      517.0000000 magnetization      47.0000000

 Free energy of the ion-electron system (eV)
  ---------------------------------------------------
  alpha Z        PSCENC =       153.28917698
  Ewald energy   TEWEN  =    136150.97539638
  -Hartree energ DENC   =   -183045.06000629
  -exchange      EXHF   =         0.00000000
  -V(xc)+E(xc)   XCENC  =      -511.71583197
  PAW double counting   =     47158.49236927   -44991.43661731
  entropy T*S    EENTRO =         0.00000000
  eigenvalues    EBANDS =     -2979.75180710
  atomic energy  EATOM  =     48748.33561406
  ---------------------------------------------------
  free energy    TOTEN  =       683.12829402 eV

  energy without entropy =      683.12829402  energy(sigma->0) =      683.12829402


--------------------------------------------------------------------------------------------------------




----------------------------------------- Iteration    1(   3)  ---------------------------------------


     EDDAV:  cpu time    6.24: real time    6.25
       DOS:  cpu time    0.00: real time    0.00
    --------------------------------------------
      LOOP:  cpu time    6.25: real time    6.26

 eigenvalue-minimisations  :  1672
 total energy-change (2. order) :-0.7556929E+03  (-0.6949760E+03)
 number of electron     517.0000000 magnetization      47.0000000
 augmentation part      517.0000000 magnetization      47.0000000

 Free energy of the ion-electron system (eV)
  ---------------------------------------------------
  alpha Z        PSCENC =       153.28917698
  Ewald energy   TEWEN  =    136150.97539638
  -Hartree energ DENC   =   -183045.06000629
  -exchange      EXHF   =         0.00000000
  -V(xc)+E(xc)   XCENC  =      -511.71583197
  PAW double counting   =     47158.49236927   -44991.43661731
  entropy T*S    EENTRO =         0.00000000
  eigenvalues    EBANDS =     -3735.44467450
  atomic energy  EATOM  =     48748.33561406
  ---------------------------------------------------
  free energy    TOTEN  =       -72.56457337 eV

  energy without entropy =      -72.56457337  energy(sigma->0) =      -72.56457337


--------------------------------------------------------------------------------------------------------




----------------------------------------- Iteration    1(   4)  ---------------------------------------


     EDDAV:  cpu time    5.62: real time    5.63
       DOS:  cpu time    0.00: real time    0.00
    --------------------------------------------
      LOOP:  cpu time    5.63: real time    5.64

 eigenvalue-minimisations  :  1464
 total energy-change (2. order) :-0.2953871E+02  (-0.2928644E+02)
 number of electron     517.0000000 magnetization      47.0000000
 augmentation part      517.0000000 magnetization      47.0000000

 Free energy of the ion-electron system (eV)
  ---------------------------------------------------
  alpha Z        PSCENC =       153.28917698
  Ewald energy   TEWEN  =    136150.97539638
  -Hartree energ DENC   =   -183045.06000629
  -exchange      EXHF   =         0.00000000
  -V(xc)+E(xc)   XCENC  =      -511.71583197
  PAW double counting   =     47158.49236927   -44991.43661731
  entropy T*S    EENTRO =         0.00000000
  eigenvalues    EBANDS =     -3764.98338870
  atomic energy  EATOM  =     48748.33561406
  ---------------------------------------------------
  free energy    TOTEN  =      -102.10328758 eV

  energy without entropy =     -102.10328758  energy(sigma->0) =     -102.10328758


--------------------------------------------------------------------------------------------------------




----------------------------------------- Iteration    1(   5)  ---------------------------------------


     EDDAV:  cpu time    5.80: real time    5.80
       DOS:  cpu time    0.00: real time    0.00
    CHARGE:  cpu time    0.13: real time    0.13
    MIXING:  cpu time    0.00: real time    0.00
    --------------------------------------------
      LOOP:  cpu time    5.93: real time    5.94

 eigenvalue-minimisations  :  1512
 total energy-change (2. order) :-0.4341494E+00  (-0.4337451E+00)
 number of electron     516.9999990 magnetization      42.3546305
 augmentation part      242.3044137 magnetization      38.7011789

 Broyden mixing:
  rms(total) = 0.39319E+01    rms(broyden)= 0.39312E+01
  rms(prec ) = 0.39941E+01
  weight for this iteration     100.00

 Free energy of the ion-electron system (eV)
  ---------------------------------------------------
  alpha Z        PSCENC =       153.28917698
  Ewald energy   TEWEN  =    136150.97539638
  -Hartree energ DENC   =   -183045.06000629
  -exchange      EXHF   =         0.00000000
  -V(xc)+E(xc)   XCENC  =      -511.71583197
  PAW double counting   =     47158.49236927   -44991.43661731
  entropy T*S    EENTRO =         0.00000000
  eigenvalues    EBANDS =     -3765.41753811
  atomic energy  EATOM  =     48748.33561406
  ---------------------------------------------------
  free energy    TOTEN  =      -102.53743699 eV

  energy without entropy =     -102.53743699  energy(sigma->0) =     -102.53743699


--------------------------------------------------------------------------------------------------------




----------------------------------------- Iteration    1(   6)  ---------------------------------------


    POTLOK:  cpu time    0.21: real time    0.21
    SETDIJ:  cpu time    0.01: real time    0.09
     EDDAV:  cpu time    5.32: real time    5.32
       DOS:  cpu time    0.00: real time    0.00
    CHARGE:  cpu time    0.13: real time    0.13
    MIXING:  cpu time    0.00: real time    0.00
    --------------------------------------------
      LOOP:  cpu time    5.68: real time    5.77

 eigenvalue-minimisations  :  1360
 total energy-change (2. order) : 0.4941240E+02  (-0.1560151E+02)
 number of electron     516.9999989 magnetization      39.1136428
 augmentation part      248.3123925 magnetization      24.7515407

 Broyden mixing:
  rms(total) = 0.21310E+01    rms(broyden)= 0.21308E+01
  rms(prec ) = 0.21535E+01
  weight for this iteration     100.00

 eigenvalues of (default mixing * dielectric matrix)
  average eigenvalue GAMMA=   0.8536
  0.8536

 Free energy of the ion-electron system (eV)
  ---------------------------------------------------
  alpha Z        PSCENC =       153.28917698
  Ewald energy   TEWEN  =    136150.97539638
  -Hartree energ DENC   =   -182836.10942241
  -exchange      EXHF   =         0.00000000
  -V(xc)+E(xc)   XCENC  =      -493.24178749
  PAW double counting   =     48738.22744541   -46606.61764723
  entropy T*S    EENTRO =         0.00000000
  eigenvalues    EBANDS =     -3907.98380780
  atomic energy  EATOM  =     48748.33561406
  ---------------------------------------------------
  free energy    TOTEN  =       -53.12503211 eV

  energy without entropy =      -53.12503211  energy(sigma->0) =      -53.12503211


--------------------------------------------------------------------------------------------------------




----------------------------------------- Iteration    1(   7)  ---------------------------------------


    POTLOK:  cpu time    0.21: real time    0.21
    SETDIJ:  cpu time    0.01: real time    0.01
     EDDAV:  cpu time    5.45: real time    5.45
       DOS:  cpu time    0.00: real time    0.00
    CHARGE:  cpu time    0.13: real time    0.13
    MIXING:  cpu time    0.00: real time    0.00
    --------------------------------------------
      LOOP:  cpu time    5.81: real time    5.92

 eigenvalue-minimisations  :  1400
 total energy-change (2. order) : 0.1248017E+02  (-0.1006487E+01)
 number of electron     516.9999988 magnetization      33.9670610
 augmentation part      248.3301623 magnetization      19.9978890

 Broyden mixing:
  rms(total) = 0.13153E+01    rms(broyden)= 0.13153E+01
  rms(prec ) = 0.13263E+01
  weight for this iteration     100.00

 eigenvalues of (default mixing * dielectric matrix)
  average eigenvalue GAMMA=   1.0035
  0.7575  1.2496

 Free energy of the ion-electron system (eV)
  ---------------------------------------------------
  alpha Z        PSCENC =       153.28917698
  Ewald energy   TEWEN  =    136150.97539638
  -Hartree energ DENC   =   -182945.77901533
  -exchange      EXHF   =         0.00000000
  -V(xc)+E(xc)   XCENC  =      -483.33606625
  PAW double counting   =     49674.21814006   -47564.78161251
  entropy T*S    EENTRO =         0.00000000
  eigenvalues    EBANDS =     -3773.56649775
  atomic energy  EATOM  =     48748.33561406
  ---------------------------------------------------
  free energy    TOTEN  =       -40.64486437 eV

  energy without entropy =      -40.64486437  energy(sigma->0) =      -40.64486437


--------------------------------------------------------------------------------------------------------




----------------------------------------- Iteration    1(   8)  ---------------------------------------


    POTLOK:  cpu time    0.21: real time    0.21
    SETDIJ:  cpu time    0.01: real time    0.01
     EDDAV:  cpu time    5.57: real time    5.58
       DOS:  cpu time    0.00: real time    0.00
    CHARGE:  cpu time    0.13: real time    0.13
    MIXING:  cpu time    0.00: real time    0.00
    --------------------------------------------
      LOOP:  cpu time    5.93: real time    5.94

 eigenvalue-minimisations  :  1440
 total energy-change (2. order) : 0.3934331E+01  (-0.2397394E+00)
 number of electron     516.9999988 magnetization      30.1887864
 augmentation part      248.1652768 magnetization      16.4449295

 Broyden mixing:
  rms(total) = 0.75195E+00    rms(broyden)= 0.75193E+00
  rms(prec ) = 0.75503E+00
  weight for this iteration     100.00

 eigenvalues of (default mixing * dielectric matrix)
  average eigenvalue GAMMA=   1.2816
  2.3305  0.9036  0.6108

 Free energy of the ion-electron system (eV)
  ---------------------------------------------------
  alpha Z        PSCENC =       153.28917698
  Ewald energy   TEWEN  =    136150.97539638
  -Hartree energ DENC   =   -183071.30333442
  -exchange      EXHF   =         0.00000000
  -V(xc)+E(xc)   XCENC  =      -479.87333042
  PAW double counting   =     50797.07460478   -48711.38071079
  entropy T*S    EENTRO =         0.00000000
  eigenvalues    EBANDS =     -3623.82794969
  atomic energy  EATOM  =     48748.33561406
  ---------------------------------------------------
  free energy    TOTEN  =       -36.71053313 eV

  energy without entropy =      -36.71053313  energy(sigma->0) =      -36.71053313


--------------------------------------------------------------------------------------------------------




----------------------------------------- Iteration    1(   9)  ---------------------------------------


    POTLOK:  cpu time    0.21: real time    0.21
    SETDIJ:  cpu time    0.00: real time    0.01
     EDDAV:  cpu time    5.57: real time    5.58
       DOS:  cpu time    0.00: real time    0.00
    CHARGE:  cpu time    0.13: real time    0.13
    MIXING:  cpu time    0.00: real time    0.01
    --------------------------------------------
      LOOP:  cpu time    5.93: real time    6.08

 eigenvalue-minimisations  :  1440
 total energy-change (2. order) :-0.3015531E+01  (-0.8562897E-01)
 number of electron     516.9999988 magnetization      25.9950346
 augmentation part      248.0587055 magnetization      12.5001399

 Broyden mixing:
  rms(total) = 0.46735E+00    rms(broyden)= 0.46734E+00
  rms(prec ) = 0.47011E+00
  weight for this iteration     100.00

 eigenvalues of (default mixing * dielectric matrix)
  average eigenvalue GAMMA=   1.2656
  2.3632  0.6163  0.8225  1.2606

 Free energy of the ion-electron system (eV)
  ---------------------------------------------------
  alpha Z        PSCENC =       153.28917698
  Ewald energy   TEWEN  =    136150.97539638
  -Hartree energ DENC   =   -183125.17178043
  -exchange      EXHF   =         0.00000000
  -V(xc)+E(xc)   XCENC  =      -481.68217158
  PAW double counting   =     51257.83510940   -49181.59845473
  entropy T*S    EENTRO =         0.00000000
  eigenvalues    EBANDS =     -3561.70895377
  atomic energy  EATOM  =     48748.33561406
  ---------------------------------------------------
  free energy    TOTEN  =       -39.72606370 eV

  energy without entropy =      -39.72606370  energy(sigma->0) =      -39.72606370


--------------------------------------------------------------------------------------------------------




----------------------------------------- Iteration    1(  10)  ---------------------------------------


    POTLOK:  cpu time    0.21: real time    0.21
    SETDIJ:  cpu time    0.01: real time    0.01
     EDDAV:  cpu time    5.39: real time    5.39
       DOS:  cpu time    0.00: real time    0.00
    CHARGE:  cpu time    0.13: real time    0.13
    MIXING:  cpu time    0.01: real time    0.01
    --------------------------------------------
      LOOP:  cpu time    5.75: real time    5.86

 eigenvalue-minimisations  :  1376
 total energy-change (2. order) :-0.1349652E+02  (-0.3842295E+00)
 number of electron     516.9999988 magnetization      19.7279029
 augmentation part      247.9992918 magnetization       6.8899056

 Broyden mixing:
  rms(total) = 0.33535E+00    rms(broyden)= 0.33534E+00
  rms(prec ) = 0.33692E+00
  weight for this iteration     100.00

 eigenvalues of (default mixing * dielectric matrix)
  average eigenvalue GAMMA=   1.5751
  3.2304  2.1961  0.9088  0.9088  0.6314

 Free energy of the ion-electron system (eV)
  ---------------------------------------------------
  alpha Z        PSCENC =       153.28917698
  Ewald energy   TEWEN  =    136150.97539638
  -Hartree energ DENC   =   -183133.21375621
  -exchange      EXHF   =         0.00000000
  -V(xc)+E(xc)   XCENC  =      -491.81910753
  PAW double counting   =     51267.70429815   -49191.62721606
  entropy T*S    EENTRO =         0.00000000
  eigenvalues    EBANDS =     -3556.86699011
  atomic energy  EATOM  =     48748.33561406
  ---------------------------------------------------
  free energy    TOTEN  =       -53.22258434 eV

  energy without entropy =      -53.22258434  energy(sigma->0) =      -53.22258434


--------------------------------------------------------------------------------------------------------




----------------------------------------- Iteration    1(  11)  ---------------------------------------


    POTLOK:  cpu time    0.21: real time    0.21
    SETDIJ:  cpu time    0.01: real time    0.01
     EDDAV:  cpu time    5.45: real time    5.46
       DOS:  cpu time    0.00: real time    0.00
    CHARGE:  cpu time    0.13: real time    0.13
    MIXING:  cpu time    0.00: real time    0.01
    --------------------------------------------
      LOOP:  cpu time    5.81: real time    5.82

 eigenvalue-minimisations  :  1400
 total energy-change (2. order) :-0.2105180E+02  (-0.1063328E+01)
 number of electron     516.9999989 magnetization      18.7558676
 augmentation part      247.9590005 magnetization      10.5984433

 Broyden mixing:
  rms(total) = 0.30922E+00    rms(broyden)= 0.30905E+00
  rms(prec ) = 0.31462E+00
  weight for this iteration     100.00

 eigenvalues of (default mixing * dielectric matrix)
  average eigenvalue GAMMA=   1.3818
  3.4540  2.1860  0.6299  0.9315  0.8777  0.2120

 Free energy of the ion-electron system (eV)
  ---------------------------------------------------
  alpha Z        PSCENC =       153.28917698
  Ewald energy   TEWEN  =    136150.97539638
  -Hartree energ DENC   =   -183132.63719018
  -exchange      EXHF   =         0.00000000
  -V(xc)+E(xc)   XCENC  =      -507.54690858
  PAW double counting   =     51211.78524693   -49135.29394023
  entropy T*S    EENTRO =         0.00000000
  eigenvalues    EBANDS =     -3563.18178318
  atomic energy  EATOM  =     48748.33561406
  ---------------------------------------------------
  free energy    TOTEN  =       -74.27438783 eV

  energy without entropy =      -74.27438783  energy(sigma->0) =      -74.27438783


--------------------------------------------------------------------------------------------------------




----------------------------------------- Iteration    1(  12)  ---------------------------------------


    POTLOK:  cpu time    0.21: real time    0.21
    SETDIJ:  cpu time    0.01: real time    0.01
     EDDAV:  cpu time    6.03: real time    6.04
       DOS:  cpu time    0.00: real time    0.00
    CHARGE:  cpu time    0.13: real time    0.13
    MIXING:  cpu time    0.00: real time    0.01
    --------------------------------------------
      LOOP:  cpu time    6.39: real time    6.41

 eigenvalue-minimisations  :  1592
 total energy-change (2. order) :-0.1457178E+01  (-0.3103799E-01)
 number of electron     516.9999989 magnetization      15.3289984
 augmentation part      247.9051389 magnetization       7.3421781

 Broyden mixing:
  rms(total) = 0.26863E+00    rms(broyden)= 0.26862E+00
  rms(prec ) = 0.27355E+00
  weight for this iteration     100.00

 eigenvalues of (default mixing * dielectric matrix)
  average eigenvalue GAMMA=   1.3717
  3.7814  2.2604  0.9229  0.9229  0.6287  0.5427  0.5427

 Free energy of the ion-electron system (eV)
  ---------------------------------------------------
  alpha Z        PSCENC =       153.28917698
  Ewald energy   TEWEN  =    136150.97539638
  -Hartree energ DENC   =   -183133.88655308
  -exchange      EXHF   =         0.00000000
  -V(xc)+E(xc)   XCENC  =      -508.51915338
  PAW double counting   =     51212.74960661   -49136.45036852
  entropy T*S    EENTRO =         0.00000000
  eigenvalues    EBANDS =     -3562.22528533
  atomic energy  EATOM  =     48748.33561406
  ---------------------------------------------------
  free energy    TOTEN  =       -75.73156629 eV

  energy without entropy =      -75.73156629  energy(sigma->0) =      -75.73156629


--------------------------------------------------------------------------------------------------------




----------------------------------------- Iteration    1(  13)  ---------------------------------------


    POTLOK:  cpu time    0.23: real time    0.23
    SETDIJ:  cpu time    0.01: real time    0.01
     EDDAV:  cpu time    5.39: real time    5.39
       DOS:  cpu time    0.00: real time    0.00
    CHARGE:  cpu time    0.13: real time    0.13
    MIXING:  cpu time    0.00: real time    0.01
    --------------------------------------------
      LOOP:  cpu time    5.77: real time    6.21

 eigenvalue-minimisations  :  1376
 total energy-change (2. order) :-0.7377052E+01  (-0.2575016E+00)
 number of electron     516.9999989 magnetization      11.9050791
 augmentation part      247.9184639 magnetization       6.2245855

 Broyden mixing:
  rms(total) = 0.24230E+00    rms(broyden)= 0.24221E+00
  rms(prec ) = 0.24713E+00
  weight for this iteration     100.00

 eigenvalues of (default mixing * dielectric matrix)
  average eigenvalue GAMMA=   1.4460
  4.7528  2.2766  1.0404  0.9370  0.7685  0.7685  0.6313  0.3931

 Free energy of the ion-electron system (eV)
  ---------------------------------------------------
  alpha Z        PSCENC =       153.28917698
  Ewald energy   TEWEN  =    136150.97539638
  -Hartree energ DENC   =   -183120.43878485
  -exchange      EXHF   =         0.00000000
  -V(xc)+E(xc)   XCENC  =      -514.20599522
  PAW double counting   =     51107.41662689   -49030.73554070
  entropy T*S    EENTRO =         0.00000000
  eigenvalues    EBANDS =     -3577.74511176
  atomic energy  EATOM  =     48748.33561406
  ---------------------------------------------------
  free energy    TOTEN  =       -83.10861822 eV

  energy without entropy =      -83.10861822  energy(sigma->0) =      -83.10861822


--------------------------------------------------------------------------------------------------------




----------------------------------------- Iteration    1(  14)  ---------------------------------------


    POTLOK:  cpu time    0.21: real time    0.21
    SETDIJ:  cpu time    0.01: real time    0.01
     EDDAV:  cpu time    5.39: real time    5.39
       DOS:  cpu time    0.00: real time    0.00
    CHARGE:  cpu time    0.13: real time    0.13
    MIXING:  cpu time    0.01: real time    0.01
    --------------------------------------------
      LOOP:  cpu time    5.75: real time    5.76

 eigenvalue-minimisations  :  1376
 total energy-change (2. order) :-0.4812647E+01  (-0.1291639E+00)
 number of electron     516.9999990 magnetization       9.6383527
 augmentation part      247.9516490 magnetization       6.1832090

 Broyden mixing:
  rms(total) = 0.21447E+00    rms(broyden)= 0.21436E+00
  rms(prec ) = 0.22275E+00
  weight for this iteration     100.00

 eigenvalues of (default mixing * dielectric matrix)
  average eigenvalue GAMMA=   1.4469
  5.5913  2.2183  1.3269  0.8882  0.7637  0.7637  0.6244  0.4229  0.4229

 Free energy of the ion-electron system (eV)
  ---------------------------------------------------
  alpha Z        PSCENC =       153.28917698
  Ewald energy   TEWEN  =    136150.97539638
  -Hartree energ DENC   =   -183110.38491919
  -exchange      EXHF   =         0.00000000
  -V(xc)+E(xc)   XCENC  =      -518.11002080
  PAW double counting   =     51054.88879864   -48978.49586645
  entropy T*S    EENTRO =         0.00000000
  eigenvalues    EBANDS =     -3588.41944460
  atomic energy  EATOM  =     48748.33561406
  ---------------------------------------------------
  free energy    TOTEN  =       -87.92126498 eV

  energy without entropy =      -87.92126498  energy(sigma->0) =      -87.92126498


--------------------------------------------------------------------------------------------------------




----------------------------------------- Iteration    1(  15)  ---------------------------------------


    POTLOK:  cpu time    0.21: real time    0.21
    SETDIJ:  cpu time    0.01: real time    0.01
     EDDAV:  cpu time    5.48: real time    5.49
       DOS:  cpu time    0.00: real time    0.00
    CHARGE:  cpu time    0.13: real time    0.13
    MIXING:  cpu time    0.00: real time    0.01
    --------------------------------------------
      LOOP:  cpu time    5.84: real time    5.85

 eigenvalue-minimisations  :  1408
 total energy-change (2. order) :-0.2382000E+01  (-0.4006349E-01)
 number of electron     516.9999990 magnetization       7.0144795
 augmentation part      247.9380064 magnetization       3.7413292

 Broyden mixing:
  rms(total) = 0.15459E+00    rms(broyden)= 0.15458E+00
  rms(prec ) = 0.16161E+00
  weight for this iteration     100.00

 eigenvalues of (default mixing * dielectric matrix)
  average eigenvalue GAMMA=   1.5953
  7.1955  2.1756  1.7137  0.7647  0.7647  0.9637  0.8235  0.6221  0.4646  0.4646

 Free energy of the ion-electron system (eV)
  ---------------------------------------------------
  alpha Z        PSCENC =       153.28917698
  Ewald energy   TEWEN  =    136150.97539638
  -Hartree energ DENC   =   -183107.30007347
  -exchange      EXHF   =         0.00000000
  -V(xc)+E(xc)   XCENC  =      -520.10565879
  PAW double counting   =     51036.99167379   -48960.87549781
  entropy T*S    EENTRO =         0.00000000
  eigenvalues    EBANDS =     -3591.61389566
  atomic energy  EATOM  =     48748.33561406
  ---------------------------------------------------
  free energy    TOTEN  =       -90.30326452 eV

  energy without entropy =      -90.30326452  energy(sigma->0) =      -90.30326452


--------------------------------------------------------------------------------------------------------




----------------------------------------- Iteration    1(  16)  ---------------------------------------


    POTLOK:  cpu time    0.21: real time    0.21
    SETDIJ:  cpu time    0.00: real time    0.01
     EDDAV:  cpu time    5.34: real time    5.35
       DOS:  cpu time    0.00: real time    0.00
    CHARGE:  cpu time    0.13: real time    0.13
    MIXING:  cpu time    0.00: real time    0.01
    --------------------------------------------
      LOOP:  cpu time    5.70: real time    5.72

 eigenvalue-minimisations  :  1360
 total energy-change (2. order) :-0.3747172E+01  (-0.8241278E-01)
 number of electron     516.9999990 magnetization       5.3050469
 augmentation part      247.8620794 magnetization       2.1906610

 Broyden mixing:
  rms(total) = 0.10240E+00    rms(broyden)= 0.10239E+00
  rms(prec ) = 0.11028E+00
  weight for this iteration     100.00

 eigenvalues of (default mixing * dielectric matrix)
  average eigenvalue GAMMA=   1.7592
  8.9912  2.5164  1.8008  1.1856  0.9276  0.9276  0.8390  0.6360  0.5502  0.4883
  0.4883

 Free energy of the ion-electron system (eV)
  ---------------------------------------------------
  alpha Z        PSCENC =       153.28917698
  Ewald energy   TEWEN  =    136150.97539638
  -Hartree energ DENC   =   -183095.21546402
  -exchange      EXHF   =         0.00000000
  -V(xc)+E(xc)   XCENC  =      -523.33909502
  PAW double counting   =     51015.63681576   -48939.30973331
  entropy T*S    EENTRO =         0.00000000
  eigenvalues    EBANDS =     -3604.42314767
  atomic energy  EATOM  =     48748.33561406
  ---------------------------------------------------
  free energy    TOTEN  =       -94.05043685 eV

  energy without entropy =      -94.05043685  energy(sigma->0) =      -94.05043685


--------------------------------------------------------------------------------------------------------




----------------------------------------- Iteration    1(  17)  ---------------------------------------


    POTLOK:  cpu time    0.21: real time    0.21
    SETDIJ:  cpu time    0.01: real time    0.01
     EDDAV:  cpu time    5.39: real time    5.39
       DOS:  cpu time    0.00: real time    0.00
    CHARGE:  cpu time    0.13: real time    0.13
    MIXING:  cpu time    0.01: real time    0.01
    --------------------------------------------
      LOOP:  cpu time    5.75: real time    6.18

 eigenvalue-minimisations  :  1376
 total energy-change (2. order) :-0.2623449E+01  (-0.4042310E-01)
 number of electron     516.9999990 magnetization       4.9377124
 augmentation part      247.8537290 magnetization       1.8963824

 Broyden mixing:
  rms(total) = 0.71945E-01    rms(broyden)= 0.71923E-01
  rms(prec ) = 0.79760E-01
  weight for this iteration     100.00

 eigenvalues of (default mixing * dielectric matrix)
  average eigenvalue GAMMA=   1.7657
  9.5387  2.6697  1.9724  1.1513  1.1513  0.9236  0.7067  0.7067  0.7743  0.6326
  0.4806  0.4806

 Free energy of the ion-electron system (eV)
  ---------------------------------------------------
  alpha Z        PSCENC =       153.28917698
  Ewald energy   TEWEN  =    136150.97539638
  -Hartree energ DENC   =   -183066.73880997
  -exchange      EXHF   =         0.00000000
  -V(xc)+E(xc)   XCENC  =      -525.90967060
  PAW double counting   =     50992.29530740   -48915.12459832
  entropy T*S    EENTRO =         0.00000000
  eigenvalues    EBANDS =     -3633.79630129
  atomic energy  EATOM  =     48748.33561406
  ---------------------------------------------------
  free energy    TOTEN  =       -96.67388536 eV

  energy without entropy =      -96.67388536  energy(sigma->0) =      -96.67388536


--------------------------------------------------------------------------------------------------------




----------------------------------------- Iteration    1(  18)  ---------------------------------------


    POTLOK:  cpu time    0.21: real time    0.21
    SETDIJ:  cpu time    0.01: real time    0.01
     EDDAV:  cpu time    5.52: real time    5.52
       DOS:  cpu time    0.00: real time    0.00
    CHARGE:  cpu time    0.13: real time    0.13
    MIXING:  cpu time    0.01: real time    0.01
    --------------------------------------------
      LOOP:  cpu time    5.88: real time    5.89

 eigenvalue-minimisations  :  1416
 total energy-change (2. order) :-0.1425777E+01  (-0.7999581E-02)
 number of electron     516.9999990 magnetization       3.7586538
 augmentation part      247.8672592 magnetization       0.7038379

 Broyden mixing:
  rms(total) = 0.46297E-01    rms(broyden)= 0.46279E-01
  rms(prec ) = 0.53099E-01
  weight for this iteration     100.00

 eigenvalues of (default mixing * dielectric matrix)
  average eigenvalue GAMMA=   1.8961
 10.3185  3.6757  2.2294  1.3413  1.3413  1.0659  0.8187  0.8187  0.8185  0.6359
  0.6183  0.4833  0.4833

 Free energy of the ion-electron system (eV)
  ---------------------------------------------------
  alpha Z        PSCENC =       153.28917698
  Ewald energy   TEWEN  =    136150.97539638
  -Hartree energ DENC   =   -183041.41170679
  -exchange      EXHF   =         0.00000000
  -V(xc)+E(xc)   XCENC  =      -527.45424354
  PAW double counting   =     51000.35459729   -48922.90636672
  entropy T*S    EENTRO =         0.00000000
  eigenvalues    EBANDS =     -3659.28213043
  atomic energy  EATOM  =     48748.33561406
  ---------------------------------------------------
  free energy    TOTEN  =       -98.09966277 eV

  energy without entropy =      -98.09966277  energy(sigma->0) =      -98.09966277


--------------------------------------------------------------------------------------------------------




----------------------------------------- Iteration    1(  19)  ---------------------------------------


    POTLOK:  cpu time    0.21: real time    0.21
    SETDIJ:  cpu time    0.01: real time    0.01
     EDDAV:  cpu time    5.45: real time    5.45
       DOS:  cpu time    0.00: real time    0.00
    CHARGE:  cpu time    0.13: real time    0.13
    MIXING:  cpu time    0.01: real time    0.01
    --------------------------------------------
      LOOP:  cpu time    5.81: real time    6.66

 eigenvalue-minimisations  :  1392
 total energy-change (2. order) :-0.2042015E+01  (-0.1514173E-01)
 number of electron     516.9999990 magnetization       3.5264409
 augmentation part      247.9164805 magnetization       0.4879323

 Broyden mixing:
  rms(total) = 0.24259E-01    rms(broyden)= 0.24208E-01
  rms(prec ) = 0.27536E-01
  weight for this iteration     100.00

 eigenvalues of (default mixing * dielectric matrix)
  average eigenvalue GAMMA=   1.8994
 10.6313  4.1326  2.4325  1.4467  1.4467  1.0752  0.8102  0.8102  0.8046  0.8046
  0.4833  0.4833  0.6411  0.5893

 Free energy of the ion-electron system (eV)
  ---------------------------------------------------
  alpha Z        PSCENC =       153.28917698
  Ewald energy   TEWEN  =    136150.97539638
  -Hartree energ DENC   =   -182994.62199314
  -exchange      EXHF   =         0.00000000
  -V(xc)+E(xc)   XCENC  =      -529.79973529
  PAW double counting   =     50995.48942162   -48917.67557549
  entropy T*S    EENTRO =         0.00000000
  eigenvalues    EBANDS =     -3706.13398238
  atomic energy  EATOM  =     48748.33561406
  ---------------------------------------------------
  free energy    TOTEN  =      -100.14167728 eV

  energy without entropy =     -100.14167728  energy(sigma->0) =     -100.14167728


--------------------------------------------------------------------------------------------------------




----------------------------------------- Iteration    1(  20)  ---------------------------------------


    POTLOK:  cpu time    0.21: real time    0.21
    SETDIJ:  cpu time    0.01: real time    0.01
     EDDAV:  cpu time    5.62: real time    5.63
       DOS:  cpu time    0.00: real time    0.00
    CHARGE:  cpu time    0.13: real time    0.13
    MIXING:  cpu time    0.01: real time    0.01
    --------------------------------------------
      LOOP:  cpu time    5.98: real time    6.39

 eigenvalue-minimisations  :  1448
 total energy-change (2. order) :-0.2670761E+00  (-0.6856892E-03)
 number of electron     516.9999990 magnetization       3.3121457
 augmentation part      247.9051293 magnetization       0.2755055

 Broyden mixing:
  rms(total) = 0.16714E-01    rms(broyden)= 0.16706E-01
  rms(prec ) = 0.19604E-01
  weight for this iteration     100.00

 eigenvalues of (default mixing * dielectric matrix)
  average eigenvalue GAMMA=   1.9047
 10.9347  4.4344  2.4735  1.5967  1.5967  1.1710  0.8163  0.8163  0.9525  0.7896
  0.7896  0.4831  0.4831  0.6393  0.5935

 Free energy of the ion-electron system (eV)
  ---------------------------------------------------
  alpha Z        PSCENC =       153.28917698
  Ewald energy   TEWEN  =    136150.97539638
  -Hartree energ DENC   =   -182985.61024762
  -exchange      EXHF   =         0.00000000
  -V(xc)+E(xc)   XCENC  =      -530.10290595
  PAW double counting   =     51006.89713744   -48929.35112250
  entropy T*S    EENTRO =         0.00000000
  eigenvalues    EBANDS =     -3714.84180213
  atomic energy  EATOM  =     48748.33561406
  ---------------------------------------------------
  free energy    TOTEN  =      -100.40875335 eV

  energy without entropy =     -100.40875335  energy(sigma->0) =     -100.40875335


--------------------------------------------------------------------------------------------------------




----------------------------------------- Iteration    1(  21)  ---------------------------------------


    POTLOK:  cpu time    0.21: real time    0.21
    SETDIJ:  cpu time    0.01: real time    0.01
     EDDAV:  cpu time    5.46: real time    5.46
       DOS:  cpu time    0.00: real time    0.00
    CHARGE:  cpu time    0.13: real time    0.13
    MIXING:  cpu time    0.01: real time    0.01
    --------------------------------------------
      LOOP:  cpu time    5.82: real time    7.55

 eigenvalue-minimisations  :  1400
 total energy-change (2. order) :-0.2069040E+00  (-0.4651928E-03)
 number of electron     516.9999990 magnetization       3.2673325
 augmentation part      247.9126146 magnetization       0.2344757

 Broyden mixing:
  rms(total) = 0.95062E-02    rms(broyden)= 0.95027E-02
  rms(prec ) = 0.11849E-01
  weight for this iteration     100.00

 eigenvalues of (default mixing * dielectric matrix)
  average eigenvalue GAMMA=   1.9411
 10.9493  5.0743  2.5097  2.3402  1.4575  1.4575  1.1095  0.8164  0.8164  0.8316
  0.8316  0.4834  0.4834  0.6670  0.6055  0.6238

 Free energy of the ion-electron system (eV)
  ---------------------------------------------------
  alpha Z        PSCENC =       153.28917698
  Ewald energy   TEWEN  =    136150.97539638
  -Hartree energ DENC   =   -182974.83564173
  -exchange      EXHF   =         0.00000000
  -V(xc)+E(xc)   XCENC  =      -530.36079413
  PAW double counting   =     51009.20956084   -48931.66841685
  entropy T*S    EENTRO =         0.00000000
  eigenvalues    EBANDS =     -3725.56055294
  atomic energy  EATOM  =     48748.33561406
  ---------------------------------------------------
  free energy    TOTEN  =      -100.61565739 eV

  energy without entropy =     -100.61565739  energy(sigma->0) =     -100.61565739


--------------------------------------------------------------------------------------------------------




----------------------------------------- Iteration    1(  22)  ---------------------------------------


    POTLOK:  cpu time    0.21: real time    0.21
    SETDIJ:  cpu time    0.01: real time    0.01
     EDDAV:  cpu time    5.47: real time    5.47
       DOS:  cpu time    0.00: real time    0.00
    CHARGE:  cpu time    0.13: real time    0.13
    MIXING:  cpu time    0.01: real time    0.01
    --------------------------------------------
      LOOP:  cpu time    5.83: real time    5.86

 eigenvalue-minimisations  :  1400
 total energy-change (2. order) :-0.1420878E+00  (-0.3736972E-03)
 number of electron     516.9999990 magnetization       3.1935919
 augmentation part      247.9143316 magnetization       0.1517376

 Broyden mixing:
  rms(total) = 0.61170E-02    rms(broyden)= 0.61140E-02
  rms(prec ) = 0.75689E-02
  weight for this iteration     100.00

 eigenvalues of (default mixing * dielectric matrix)
  average eigenvalue GAMMA=   1.9252
 11.0522  5.3770  2.5496  2.5496  1.5316  1.5316  0.8123  0.8123  0.9767  0.9767
  0.9262  0.8183  0.4834  0.4834  0.6340  0.6067  0.6067

 Free energy of the ion-electron system (eV)
  ---------------------------------------------------
  alpha Z        PSCENC =       153.28917698
  Ewald energy   TEWEN  =    136150.97539638
  -Hartree energ DENC   =   -182965.19014181
  -exchange      EXHF   =         0.00000000
  -V(xc)+E(xc)   XCENC  =      -530.53409531
  PAW double counting   =     51014.78032232   -48937.23426234
  entropy T*S    EENTRO =         0.00000000
  eigenvalues    EBANDS =     -3735.17975548
  atomic energy  EATOM  =     48748.33561406
  ---------------------------------------------------
  free energy    TOTEN  =      -100.75774521 eV

  energy without entropy =     -100.75774521  energy(sigma->0) =     -100.75774521


--------------------------------------------------------------------------------------------------------




----------------------------------------- Iteration    1(  23)  ---------------------------------------


    POTLOK:  cpu time    0.21: real time    0.21
    SETDIJ:  cpu time    0.01: real time    0.01
     EDDAV:  cpu time    4.09: real time    4.09
       DOS:  cpu time    0.00: real time    0.00
    CHARGE:  cpu time    0.13: real time    0.13
    MIXING:  cpu time    0.01: real time    0.01
    --------------------------------------------
      LOOP:  cpu time    4.45: real time    4.47

 eigenvalue-minimisations  :   936
 total energy-change (2. order) :-0.1255284E-01  (-0.5597405E-04)
 number of electron     516.9999990 magnetization       3.1204483
 augmentation part      247.9155079 magnetization       0.0797433

 Broyden mixing:
  rms(total) = 0.45394E-02    rms(broyden)= 0.45387E-02
  rms(prec ) = 0.57101E-02
  weight for this iteration     100.00

 eigenvalues of (default mixing * dielectric matrix)
  average eigenvalue GAMMA=   1.9091
 11.1284  5.4618  2.6543  2.6543  1.4913  1.4913  1.2230  1.2230  0.8122  0.8122
  0.9468  0.9197  0.4834  0.4834  0.7139  0.6346  0.6346  0.5951

 Free energy of the ion-electron system (eV)
  ---------------------------------------------------
  alpha Z        PSCENC =       153.28917698
  Ewald energy   TEWEN  =    136150.97539638
  -Hartree energ DENC   =   -182961.49855430
  -exchange      EXHF   =         0.00000000
  -V(xc)+E(xc)   XCENC  =      -530.56178410
  PAW double counting   =     51015.59766490   -48938.05308572
  entropy T*S    EENTRO =         0.00000000
  eigenvalues    EBANDS =     -3738.85472624
  atomic energy  EATOM  =     48748.33561406
  ---------------------------------------------------
  free energy    TOTEN  =      -100.77029805 eV

  energy without entropy =     -100.77029805  energy(sigma->0) =     -100.77029805


--------------------------------------------------------------------------------------------------------




----------------------------------------- Iteration    1(  24)  ---------------------------------------


    POTLOK:  cpu time    0.21: real time    0.21
    SETDIJ:  cpu time    0.01: real time    0.01
     EDDAV:  cpu time    4.20: real time    4.20
       DOS:  cpu time    0.00: real time    0.00
    CHARGE:  cpu time    0.13: real time    0.13
    MIXING:  cpu time    0.01: real time    0.01
    --------------------------------------------
      LOOP:  cpu time    4.56: real time    4.57

 eigenvalue-minimisations  :   968
 total energy-change (2. order) :-0.1724283E-01  (-0.6302597E-04)
 number of electron     516.9999990 magnetization       3.0760458
 augmentation part      247.9161256 magnetization       0.0371242

 Broyden mixing:
  rms(total) = 0.25212E-02    rms(broyden)= 0.25206E-02
  rms(prec ) = 0.32986E-02
  weight for this iteration     100.00

 eigenvalues of (default mixing * dielectric matrix)
  average eigenvalue GAMMA=   1.9219
 11.1052  5.7723  3.0859  2.5754  1.9635  1.4764  1.3420  1.3420  1.0213  0.8141
  0.8141  0.8366  0.8366  0.4834  0.4834  0.7191  0.6212  0.6212  0.6014

 Free energy of the ion-electron system (eV)
  ---------------------------------------------------
  alpha Z        PSCENC =       153.28917698
  Ewald energy   TEWEN  =    136150.97539638
  -Hartree energ DENC   =   -182957.45048082
  -exchange      EXHF   =         0.00000000
  -V(xc)+E(xc)   XCENC  =      -530.59235644
  PAW double counting   =     51016.51475925   -48938.96963540
  entropy T*S    EENTRO =         0.00000000
  eigenvalues    EBANDS =     -3742.89001489
  atomic energy  EATOM  =     48748.33561406
  ---------------------------------------------------
  free energy    TOTEN  =      -100.78754088 eV

  energy without entropy =     -100.78754088  energy(sigma->0) =     -100.78754088


--------------------------------------------------------------------------------------------------------




----------------------------------------- Iteration    1(  25)  ---------------------------------------


    POTLOK:  cpu time    0.21: real time    0.21
    SETDIJ:  cpu time    0.01: real time    0.01
     EDDAV:  cpu time    4.14: real time    4.14
       DOS:  cpu time    0.00: real time    0.00
    CHARGE:  cpu time    0.13: real time    0.13
    MIXING:  cpu time    0.01: real time    0.01
    --------------------------------------------
      LOOP:  cpu time    4.50: real time    4.99

 eigenvalue-minimisations  :   944
 total energy-change (2. order) :-0.7659643E-02  (-0.1756902E-04)
 number of electron     516.9999990 magnetization       3.0337102
 augmentation part      247.9158253 magnetization      -0.0040910

 Broyden mixing:
  rms(total) = 0.17867E-02    rms(broyden)= 0.17864E-02
  rms(prec ) = 0.23148E-02
  weight for this iteration     100.00

 eigenvalues of (default mixing * dielectric matrix)
  average eigenvalue GAMMA=   1.9050
 11.1554  5.7855  3.4258  2.3376  2.3376  1.4255  1.4255  1.4055  0.8131  0.8131
  1.0137  1.0137  0.4834  0.4834  0.8763  0.7812  0.6555  0.6371  0.6371  0.5938

 Free energy of the ion-electron system (eV)
  ---------------------------------------------------
  alpha Z        PSCENC =       153.28917698
  Ewald energy   TEWEN  =    136150.97539638
  -Hartree energ DENC   =   -182955.10958478
  -exchange      EXHF   =         0.00000000
  -V(xc)+E(xc)   XCENC  =      -530.60709948
  PAW double counting   =     51017.38219172   -48939.84651433
  entropy T*S    EENTRO =         0.00000000
  eigenvalues    EBANDS =     -3745.21438107
  atomic energy  EATOM  =     48748.33561406
  ---------------------------------------------------
  free energy    TOTEN  =      -100.79520052 eV

  energy without entropy =     -100.79520052  energy(sigma->0) =     -100.79520052


--------------------------------------------------------------------------------------------------------




----------------------------------------- Iteration    1(  26)  ---------------------------------------


    POTLOK:  cpu time    0.21: real time    0.21
    SETDIJ:  cpu time    0.01: real time    0.01
     EDDAV:  cpu time    4.09: real time    4.10
       DOS:  cpu time    0.00: real time    0.00
    CHARGE:  cpu time    0.14: real time    0.13
    MIXING:  cpu time    0.01: real time    0.01
    --------------------------------------------
      LOOP:  cpu time    4.46: real time    4.47

 eigenvalue-minimisations  :   928
 total energy-change (2. order) :-0.5293411E-02  (-0.7281461E-05)
 number of electron     516.9999990 magnetization       3.0357627
 augmentation part      247.9166834 magnetization      -0.0001430

 Broyden mixing:
  rms(total) = 0.11805E-02    rms(broyden)= 0.11804E-02
  rms(prec ) = 0.15635E-02
  weight for this iteration     100.00

 eigenvalues of (default mixing * dielectric matrix)
  average eigenvalue GAMMA=   1.9184
 11.0933  6.0462  3.7761  2.3330  2.3330  1.9227  1.3791  1.3791  1.3413  0.8142
  0.8142  0.9851  0.8975  0.8975  0.4834  0.4834  0.8079  0.6387  0.6387  0.5948
  0.6262

 Free energy of the ion-electron system (eV)
  ---------------------------------------------------
  alpha Z        PSCENC =       153.28917698
  Ewald energy   TEWEN  =    136150.97539638
  -Hartree energ DENC   =   -182953.42711534
  -exchange      EXHF   =         0.00000000
  -V(xc)+E(xc)   XCENC  =      -530.61857213
  PAW double counting   =     51017.40661159   -48939.87894431
  entropy T*S    EENTRO =         0.00000000
  eigenvalues    EBANDS =     -3746.88266115
  atomic energy  EATOM  =     48748.33561406
  ---------------------------------------------------
  free energy    TOTEN  =      -100.80049393 eV

  energy without entropy =     -100.80049393  energy(sigma->0) =     -100.80049393


--------------------------------------------------------------------------------------------------------




----------------------------------------- Iteration    1(  27)  ---------------------------------------


    POTLOK:  cpu time    0.21: real time    0.21
    SETDIJ:  cpu time    0.01: real time    0.01
     EDDAV:  cpu time    4.10: real time    4.10
       DOS:  cpu time    0.00: real time    0.00
    CHARGE:  cpu time    0.14: real time    0.13
    MIXING:  cpu time    0.01: real time    0.01
    --------------------------------------------
      LOOP:  cpu time    4.47: real time    4.47

 eigenvalue-minimisations  :   936
 total energy-change (2. order) :-0.6305565E-02  (-0.8969507E-05)
 number of electron     516.9999990 magnetization       3.0150124
 augmentation part      247.9157043 magnetization      -0.0222728

 Broyden mixing:
  rms(total) = 0.89928E-03    rms(broyden)= 0.89913E-03
  rms(prec ) = 0.10803E-02
  weight for this iteration     100.00

 eigenvalues of (default mixing * dielectric matrix)
  average eigenvalue GAMMA=   1.9707
 11.1043  6.5583  4.7768  2.8648  2.1735  2.1735  1.4918  1.3913  1.3913  1.0898
  0.8135  0.8135  0.9043  0.9043  0.4834  0.4834  0.7707  0.7023  0.5964  0.6263
  0.6208  0.6208

 Free energy of the ion-electron system (eV)
  ---------------------------------------------------
  alpha Z        PSCENC =       153.28917698
  Ewald energy   TEWEN  =    136150.97539638
  -Hartree energ DENC   =   -182951.77303478
  -exchange      EXHF   =         0.00000000
  -V(xc)+E(xc)   XCENC  =      -530.62667827
  PAW double counting   =     51017.83635463   -48940.30644101
  entropy T*S    EENTRO =         0.00000000
  eigenvalues    EBANDS =     -3748.53718749
  atomic energy  EATOM  =     48748.33561406
  ---------------------------------------------------
  free energy    TOTEN  =      -100.80679950 eV

  energy without entropy =     -100.80679950  energy(sigma->0) =     -100.80679950


--------------------------------------------------------------------------------------------------------




----------------------------------------- Iteration    1(  28)  ---------------------------------------


    POTLOK:  cpu time    0.21: real time    0.21
    SETDIJ:  cpu time    0.01: real time    0.01
     EDDAV:  cpu time    4.00: real time    4.01
       DOS:  cpu time    0.00: real time    0.00
    CHARGE:  cpu time    0.13: real time    0.13
    MIXING:  cpu time    0.01: real time    0.01
    --------------------------------------------
      LOOP:  cpu time    4.37: real time    4.38

 eigenvalue-minimisations  :   896
 total energy-change (2. order) :-0.1943886E-02  (-0.2861247E-05)
 number of electron     516.9999990 magnetization       3.0099080
 augmentation part      247.9162251 magnetization      -0.0266414

 Broyden mixing:
  rms(total) = 0.53571E-03    rms(broyden)= 0.53562E-03
  rms(prec ) = 0.66775E-03
  weight for this iteration     100.00

 eigenvalues of (default mixing * dielectric matrix)
  average eigenvalue GAMMA=   1.9626
 11.1028  6.9112  5.0593  2.6841  2.6841  2.0898  1.4129  1.4129  1.2368  1.2368
  0.8136  0.8136  1.0478  0.4834  0.4834  0.8583  0.8583  0.7641  0.5967  0.6758
  0.6233  0.6450  0.6450

 Free energy of the ion-electron system (eV)
  ---------------------------------------------------
  alpha Z        PSCENC =       153.28917698
  Ewald energy   TEWEN  =    136150.97539638
  -Hartree energ DENC   =   -182950.89010361
  -exchange      EXHF   =         0.00000000
  -V(xc)+E(xc)   XCENC  =      -530.63211181
  PAW double counting   =     51017.63458370   -48940.10101024
  entropy T*S    EENTRO =         0.00000000
  eigenvalues    EBANDS =     -3749.42028884
  atomic energy  EATOM  =     48748.33561406
  ---------------------------------------------------
  free energy    TOTEN  =      -100.80874338 eV

  energy without entropy =     -100.80874338  energy(sigma->0) =     -100.80874338


--------------------------------------------------------------------------------------------------------




----------------------------------------- Iteration    1(  29)  ---------------------------------------


    POTLOK:  cpu time    0.21: real time    0.21
    SETDIJ:  cpu time    0.01: real time    0.01
     EDDAV:  cpu time    4.02: real time    4.03
       DOS:  cpu time    0.00: real time    0.00
    CHARGE:  cpu time    0.14: real time    0.13
    MIXING:  cpu time    0.01: real time    0.01
    --------------------------------------------
      LOOP:  cpu time    4.39: real time    4.40

 eigenvalue-minimisations  :   904
 total energy-change (2. order) :-0.8324540E-03  (-0.6123224E-06)
 number of electron     516.9999990 magnetization       3.0004155
 augmentation part      247.9161797 magnetization      -0.0360949

 Broyden mixing:
  rms(total) = 0.36681E-03    rms(broyden)= 0.36675E-03
  rms(prec ) = 0.46499E-03
  weight for this iteration     100.00

 eigenvalues of (default mixing * dielectric matrix)
  average eigenvalue GAMMA=   1.9825
 11.1321  7.1663  5.3547  2.8260  2.8260  2.2590  1.5106  1.5106  1.3335  1.3335
  0.8136  0.8136  1.0488  1.0488  0.4834  0.4834  0.8520  0.8520  0.7952  0.6760
  0.5961  0.6218  0.6211  0.6211

 Free energy of the ion-electron system (eV)
  ---------------------------------------------------
  alpha Z        PSCENC =       153.28917698
  Ewald energy   TEWEN  =    136150.97539638
  -Hartree energ DENC   =   -182950.61126682
  -exchange      EXHF   =         0.00000000
  -V(xc)+E(xc)   XCENC  =      -530.63356885
  PAW double counting   =     51017.95705805   -48940.42769630
  entropy T*S    EENTRO =         0.00000000
  eigenvalues    EBANDS =     -3749.69428933
[...]
  2.705   0.025  -0.080  -0.028  -0.128  -0.705  -0.043   0.039   0.031   0.111   0.219   0.003  -0.097  -0.025  -0.013  -0.004
  0.025   2.641  -0.112   0.107   0.100  -0.043  -0.646   0.111  -0.069  -0.098   0.067  -0.029   0.033  -0.104  -0.030   0.002
 -0.080  -0.112   2.667  -0.125  -0.077   0.039   0.111  -0.667   0.115   0.041   0.004  -0.027   0.024   0.101   0.064   0.004
 -0.028   0.107  -0.125   2.732   0.025   0.031  -0.070   0.115  -0.731  -0.027  -0.096  -0.012  -0.007  -0.134  -0.004   0.001
 -0.128   0.100  -0.077   0.025   2.952   0.111  -0.098   0.041  -0.027  -0.931   0.111  -0.005   0.155  -0.036  -0.141   0.002
 -0.705  -0.043   0.039   0.031   0.111   0.674   0.058  -0.005  -0.035  -0.097  -0.190  -0.007   0.107   0.025   0.023  -0.006
 -0.043  -0.646   0.111  -0.070  -0.098   0.058   0.619  -0.111   0.039   0.099  -0.072   0.030  -0.039   0.116   0.029   0.003
  0.039   0.111  -0.667   0.115   0.041  -0.005  -0.111   0.632  -0.107  -0.010  -0.007   0.022  -0.037  -0.110  -0.067   0.003
  0.031  -0.069   0.115  -0.731  -0.027  -0.035   0.039  -0.107   0.698   0.031   0.095   0.003   0.011   0.151  -0.001  -0.001
  0.111  -0.098   0.041  -0.027  -0.931  -0.097   0.099  -0.010   0.031   0.885  -0.084  -0.005  -0.176   0.032   0.156   0.010
  0.219   0.067   0.004  -0.096   0.111  -0.190  -0.072  -0.007   0.095  -0.084   1.865  -0.248   0.135  -0.068   0.155  -0.013
  0.003  -0.029  -0.027  -0.012  -0.005  -0.007   0.030   0.022   0.003  -0.005  -0.248   0.055  -0.029   0.016  -0.042   0.002
 -0.097   0.033   0.024  -0.007   0.155   0.107  -0.039  -0.037   0.011  -0.176   0.135  -0.029   0.081  -0.005  -0.012  -0.005
 -0.025  -0.104   0.101  -0.134  -0.036   0.025   0.116  -0.110   0.151   0.032  -0.068   0.016  -0.005   0.083   0.012   0.000
 -0.013  -0.030   0.064  -0.004  -0.141   0.023   0.029  -0.067  -0.001   0.156   0.155  -0.042  -0.012   0.012   0.076   0.000
 -0.004   0.002   0.004   0.001   0.002  -0.006   0.003   0.003  -0.001   0.010  -0.013   0.002  -0.005   0.000   0.000   0.000
  0.001  -0.003  -0.001  -0.001   0.002  -0.002  -0.007   0.006  -0.009  -0.002   0.007  -0.001   0.000  -0.005  -0.000  -0.000
 -0.008   0.001   0.001   0.004   0.001  -0.002  -0.002   0.004   0.000  -0.009  -0.016   0.003   0.000  -0.000  -0.005   0.000
 total augmentation occupancy for first ion, spin component:           2
 -0.007  -0.001   0.016   0.009  -0.001   0.002   0.001  -0.013  -0.007   0.000  -0.004  -0.002  -0.002  -0.000   0.003   0.000
 -0.001   0.008  -0.013   0.009  -0.002   0.001  -0.010   0.010  -0.007   0.002  -0.019  -0.003   0.000  -0.010  -0.001   0.000
  0.016  -0.013   0.024   0.014  -0.007  -0.013   0.010  -0.023  -0.011   0.005  -0.010  -0.001  -0.006   0.004   0.007   0.000
  0.009   0.009   0.014  -0.012  -0.004  -0.007  -0.007  -0.011   0.006   0.003  -0.014  -0.002  -0.003  -0.003   0.004   0.000
 -0.001  -0.002  -0.007  -0.004  -0.006   0.000   0.002   0.005   0.003   0.001   0.009   0.001   0.002   0.001  -0.004  -0.000
  0.002   0.001  -0.013  -0.007   0.000   0.004  -0.001   0.011   0.005  -0.000   0.003   0.001   0.001  -0.000  -0.002  -0.000
  0.001  -0.010   0.010  -0.007   0.002  -0.001   0.013  -0.007   0.005  -0.002   0.015   0.001   0.001   0.008   0.001  -0.000
 -0.013   0.010  -0.023  -0.011   0.005   0.011  -0.007   0.023   0.009  -0.004   0.008   0.001   0.004  -0.002  -0.005  -0.000
 -0.007  -0.007  -0.011   0.006   0.003   0.005   0.005   0.009   0.001  -0.003   0.011   0.001   0.002   0.002  -0.002  -0.000
  0.000   0.002   0.005   0.003   0.001  -0.000  -0.002  -0.004  -0.003   0.003  -0.007  -0.000  -0.002  -0.001   0.003   0.000
 -0.004  -0.019  -0.010  -0.014   0.009   0.003   0.015   0.008   0.011  -0.007   0.034   0.001   0.005   0.010  -0.005  -0.000
 -0.002  -0.003  -0.001  -0.002   0.001   0.001   0.001   0.001   0.001  -0.000   0.001   0.001   0.000   0.001  -0.000   0.000
 -0.002   0.000  -0.006  -0.003   0.002   0.001   0.001   0.004   0.002  -0.002   0.005   0.000   0.001   0.000  -0.001  -0.000
 -0.000  -0.010   0.004  -0.003   0.001  -0.000   0.008  -0.002   0.002  -0.001   0.010   0.001   0.000   0.004   0.000  -0.000
  0.003  -0.001   0.007   0.004  -0.004  -0.002   0.001  -0.005  -0.002   0.003  -0.005  -0.000  -0.001   0.000   0.002   0.000
  0.000   0.000   0.000   0.000  -0.000  -0.000  -0.000  -0.000  -0.000   0.000  -0.000   0.000  -0.000  -0.000   0.000   0.000
  0.000   0.000  -0.000   0.000  -0.000  -0.000  -0.000   0.000  -0.000   0.000  -0.000  -0.000  -0.000  -0.000  -0.000   0.000
  0.000   0.000  -0.000  -0.000   0.000   0.000  -0.000   0.000   0.000  -0.000   0.000   0.000   0.000  -0.000  -0.000  -0.000


------------------------ aborting loop because EDIFF is reached ----------------------------------------


    CHARGE:  cpu time    0.13: real time    0.13
    FORLOC:  cpu time    0.02: real time    0.02
    FORNL :  cpu time    4.20: real time    4.21
    STRESS:  cpu time    4.99: real time    4.99
    FORCOR:  cpu time    0.21: real time    0.21
    FORHAR:  cpu time    0.04: real time    0.04
    MIXING:  cpu time    0.00: real time    0.00
    OFIELD:  cpu time    0.00: real time    0.00

  FORCE on cell =-STRESS in cart. coord.  units (eV):
  Direction    XX          YY          ZZ          XY          YZ          ZX
  --------------------------------------------------------------------------------------
  Alpha Z   153.28918   153.28918   153.28918
  Ewald   38769.70566 46255.90525 49639.71209 -3243.98884 -5962.46104  6483.47343
  Hartree 54649.30577 61776.57430 65056.64402 -3058.95726 -5664.51291  6116.38248
  E(xc)   -2726.10117 -2725.68581 -2725.50998    -0.13456    -0.18801     0.38859
  Local  ************************************  6301.74390 11628.02285-12601.28593
  n-local  -488.00716  -488.79789  -487.09059    -0.12277    -0.61101     1.38827
  augment  4320.04676  4318.81419  4318.90933     0.42641     0.00494    -0.13601
  Kinetic  6435.30665  6431.73883  6433.04629     0.90341    -0.30161    -0.13837
  Fock        0.00000     0.00000     0.00000     0.00000     0.00000     0.00000
  -------------------------------------------------------------------------------------
  Total     -15.65865   -16.14343   -16.21973    -0.12971    -0.04680     0.07245
  in kB      -2.04676    -2.11012    -2.12010    -0.01695    -0.00612     0.00947
  external pressure =       -2.09 kB  Pullay stress =        0.00 kB


 VOLUME and BASIS-vectors are now :
 -----------------------------------------------------------------------------
  energy-cutoff  :      249.84
  volume of cell :    12257.40
      direct lattice vectors                 reciprocal lattice vectors
    23.056823129  0.000000000  0.000000000     0.043371109  0.000000000  0.000000000
     0.000000000 23.056823129  0.000000000     0.000000000  0.043371109  0.000000000
     0.000000000  0.000000000 23.056823129     0.000000000  0.000000000  0.043371109

  length of vectors
    23.056823129 23.056823129 23.056823129     0.043371109  0.043371109  0.043371109


 FORCES acting on ions
    electron-ion (+dipol)            ewald-force                    non-local-force                 convergence-correction
 -----------------------------------------------------------------------------------------------
   0.122E+04 0.116E+04 -.589E+03   -.122E+04 -.115E+04 0.588E+03   -.254E+01 -.275E+01 0.137E+01   -.891E-03 -.478E-03 0.238E-02
   0.510E+03 0.166E+04 0.258E+03   -.509E+03 -.165E+04 -.257E+03   -.140E+01 -.338E+01 -.347E+00   -.176E-02 0.133E-03 0.110E-02
   0.210E+03 0.149E+04 -.940E+03   -.209E+03 -.148E+04 0.938E+03   -.108E+01 -.372E+01 0.231E+01   0.795E-03 -.855E-04 0.293E-03
   0.131E+04 0.104E+04 0.476E+03   -.131E+04 -.104E+04 -.474E+03   -.195E+01 -.110E+01 -.167E+01   0.112E-02 -.587E-03 0.235E-02
   0.796E+03 0.540E+03 -.147E+04   -.794E+03 -.539E+03 0.147E+04   -.217E+01 -.764E+00 0.306E+01   -.254E-03 0.516E-03 0.367E-02
   0.174E+04 0.271E+03 0.274E+03   -.173E+04 -.270E+03 -.274E+03   -.403E+01 -.159E+01 -.610E+00   0.321E-02 0.609E-03 -.210E-02
   0.150E+04 0.299E+03 -.779E+03   -.150E+04 -.299E+03 0.778E+03   -.272E+01 -.204E+00 0.105E+01   -.150E-02 0.249E-02 -.500E-03
   -.548E+03 0.152E+04 -.352E+03   0.547E+03 -.152E+04 0.352E+03   0.410E+00 -.203E+01 -.539E+00   0.116E-03 -.194E-02 -.170E-02
   -.294E+03 0.157E+04 0.771E+03   0.294E+03 -.157E+04 -.770E+03   0.705E-01 -.360E+01 -.169E+01   -.309E-02 -.108E-02 -.254E-02
   0.326E+03 0.696E+03 -.326E+03   -.325E+03 -.695E+03 0.325E+03   -.461E+00 -.136E+01 0.111E+01   0.475E-03 0.310E-03 0.569E-02
   0.452E+03 0.106E+04 0.849E+03   -.452E+03 -.106E+04 -.849E+03   -.858E-01 -.913E+00 -.271E+00   -.198E-02 0.683E-03 0.222E-02
   -.382E+03 0.997E+03 -.132E+04   0.382E+03 -.996E+03 0.132E+04   0.210E+00 -.117E+01 0.130E+01   -.684E-03 -.108E-02 -.762E-03
   0.114E+04 0.477E+03 0.110E+04   -.114E+04 -.475E+03 -.110E+04   -.238E+01 -.150E+01 -.129E+01   0.340E-02 -.468E-03 -.337E-03
   0.246E+03 0.277E+02 -.167E+04   -.245E+03 -.280E+02 0.166E+04   -.124E+01 0.322E+00 0.342E+01   -.139E-03 -.717E-03 0.117E-02
   -.607E+03 0.503E+03 0.245E+03   0.607E+03 -.503E+03 -.245E+03   0.349E+00 -.763E+00 -.115E+00   -.381E-02 0.276E-02 0.265E-02
   0.158E+04 -.589E+03 0.337E+03   -.158E+04 0.588E+03 -.337E+03   -.256E+01 0.766E+00 0.149E+00   0.413E-03 0.181E-03 -.307E-03
   -.122E+04 0.894E+03 -.610E+03   0.122E+04 -.893E+03 0.610E+03   0.213E+01 -.625E+00 0.335E+00   -.103E-02 -.284E-02 -.126E-02
   0.681E+03 0.252E+02 0.654E+02   -.680E+03 -.253E+02 -.658E+02   -.829E+00 0.830E-01 0.444E+00   0.205E-02 -.988E-03 0.134E-02
   0.151E+04 -.563E+03 -.670E+03   -.151E+04 0.563E+03 0.670E+03   -.274E+01 0.640E+00 0.562E+00   -.996E-03 -.429E-03 -.305E-02
   0.744E+03 -.284E+03 -.107E+04   -.743E+03 0.284E+03 0.107E+04   -.471E+00 0.542E+00 0.906E-02   -.109E-02 0.510E-03 0.111E-03
   -.126E+04 0.124E+04 0.355E+03   0.125E+04 -.123E+04 -.353E+03   0.347E+01 -.265E+01 -.231E+01   -.319E-02 0.243E-04 -.143E-02
   -.845E+03 0.928E+03 0.121E+04   0.842E+03 -.926E+03 -.121E+04   0.263E+01 -.150E+01 -.230E+01   -.190E-03 0.615E-03 0.732E-03
   0.299E+03 0.880E+03 0.154E+04   -.299E+03 -.877E+03 -.153E+04   -.401E+00 -.345E+01 -.282E+01   0.999E-03 -.188E-02 0.262E-03
   -.973E+03 0.372E+03 -.136E+04   0.971E+03 -.372E+03 0.136E+04   0.146E+01 -.619E-01 0.289E+01   0.642E-03 -.191E-02 -.113E-02
   -.188E+03 0.647E+02 0.739E+03   0.187E+03 -.650E+02 -.738E+03   0.667E+00 0.373E+00 -.122E+01   0.785E-03 0.171E-02 -.252E-02
   0.383E+03 -.623E+03 0.589E+03   -.383E+03 0.622E+03 -.587E+03   -.471E+00 0.102E+01 -.119E+01   -.708E-03 -.140E-03 0.265E-02
   -.168E+04 0.295E+03 0.417E+03   0.168E+04 -.294E+03 -.415E+03   0.347E+01 -.866E+00 -.196E+01   -.119E-02 -.787E-03 -.232E-03
   -.395E+03 -.570E+03 -.150E+04   0.394E+03 0.567E+03 0.150E+04   0.434E+00 0.239E+01 0.550E+01   0.154E-02 -.119E-02 -.121E-02
   0.843E+03 -.106E+04 -.116E+04   -.841E+03 0.106E+04 0.116E+04   -.173E+01 0.198E+01 0.384E+01   -.302E-03 -.386E-03 -.108E-02
   -.156E+03 -.661E+03 -.101E+03   0.156E+03 0.660E+03 0.101E+03   0.408E+00 0.705E+00 -.145E+00   0.809E-03 -.939E-04 -.206E-03
   0.114E+04 -.435E+03 0.128E+04   -.113E+04 0.434E+03 -.128E+04   -.317E+01 0.104E+01 -.333E+01   0.151E-02 -.134E-02 -.139E-03
   0.229E+03 -.149E+03 0.169E+04   -.229E+03 0.149E+03 -.168E+04   -.726E-02 0.442E+00 -.253E+01   0.706E-03 -.862E-03 -.273E-03
   -.353E+03 0.274E+02 -.616E+03   0.352E+03 -.265E+02 0.615E+03   0.301E+00 -.823E+00 0.105E+01   0.138E-02 0.203E-02 0.241E-02
   -.848E+03 0.931E+02 0.158E+04   0.846E+03 -.923E+02 -.158E+04   0.225E+01 -.870E+00 -.409E+01   0.475E-03 -.138E-02 -.174E-02
   -.165E+04 0.354E+01 -.520E+03   0.165E+04 -.365E+01 0.519E+03   0.506E+01 0.101E+00 0.501E+00   -.131E-02 -.121E-02 -.440E-03
   0.879E+03 -.146E+04 0.482E+03   -.877E+03 0.145E+04 -.481E+03   -.232E+01 0.465E+01 -.118E+01   0.764E-03 -.163E-04 -.830E-03
   -.436E+02 -.981E+03 -.118E+04   0.430E+02 0.980E+03 0.117E+04   0.547E+00 0.143E+01 0.108E+01   -.692E-03 0.916E-03 0.618E-03
   -.118E+04 -.787E+03 -.895E+03   0.118E+04 0.787E+03 0.895E+03   0.160E+01 0.397E+00 0.866E+00   0.144E-02 -.738E-04 -.784E-03
   0.853E+03 -.130E+04 -.287E+03   -.854E+03 0.130E+04 0.286E+03   0.267E+00 0.739E+00 0.107E+01   0.662E-03 0.124E-02 -.334E-03
   -.140E+04 -.196E+03 0.879E+03   0.139E+04 0.196E+03 -.878E+03   0.202E+01 0.231E-01 -.849E+00   0.641E-03 0.164E-03 -.161E-02
   -.119E+04 -.117E+04 0.481E+03   0.119E+04 0.117E+04 -.480E+03   0.206E+01 0.269E+01 -.899E+00   0.168E-02 -.299E-03 0.509E-04
   -.289E+03 -.164E+04 0.343E+03   0.288E+03 0.163E+04 -.343E+03   0.877E+00 0.299E+01 -.155E-01   0.133E-02 -.106E-02 -.204E-03
   0.727E+01 -.121E+04 0.127E+04   -.735E+01 0.121E+04 -.127E+04   0.884E-01 0.302E+01 -.376E+01   -.170E-03 -.181E-02 0.148E-03
   -.976E+03 -.141E+04 -.410E+03   0.975E+03 0.140E+04 0.410E+03   0.138E+01 0.377E+01 0.475E-01   -.911E-03 -.541E-03 0.409E-04
   -.139E+02 -.165E+04 -.568E+03   0.136E+02 0.165E+04 0.567E+03   0.245E+00 0.365E+01 0.824E+00   0.584E-03 -.350E-03 -.602E-03
   -.819E+03 -.887E+03 0.117E+04   0.818E+03 0.886E+03 -.117E+04   0.143E+01 0.149E+01 -.104E+01   0.103E-02 -.139E-03 -.466E-03
   -.128E+04 -.494E+03 -.252E+01   0.128E+04 0.495E+03 0.192E+01   0.717E+00 -.523E+00 0.599E+00   0.106E-02 -.574E-03 -.900E-03
 -----------------------------------------------------------------------------------------------
   0.226E+00 0.870E+00 0.301E+01   0.136E-11 -.165E-11 -.377E-12   -.201E+00 -.960E+00 -.279E+01   0.372E-02 -.118E-01 0.121E-02
 
 
 POSITION                                       TOTAL-FORCE (eV/Angst)
 -----------------------------------------------------------------------------------
      8.53162      7.84734     13.77128        -0.007937     -0.000756      0.013425
     10.50447      7.02202     11.80855        -0.006858      0.001101      0.003733
     11.02996      7.04717     14.67753        -0.003240      0.002309     -0.003924
      8.52885      9.01987     11.20096         0.006553     -0.011083      0.007192
     10.04979      9.63551     15.53911        -0.003964      0.003192      0.014706
      7.10252     11.37834     10.99038         0.015519      0.007063     -0.013085
      8.19371     10.57583     13.52323        -0.010003      0.009512      0.002204
     13.11021      7.63776     12.92662        -0.002554     -0.003224     -0.006790
     12.82409      7.26256     10.15720        -0.008182     -0.011200     -0.010884
     10.94483      9.56624     12.90638         0.001894     -0.002110      0.017498
     10.94820      9.27647      9.94094        -0.009523      0.012261      0.009610
     12.85428      9.02845     15.37862        -0.007770      0.000895     -0.008028
      9.09233     11.45888      8.74997         0.013484     -0.000784      0.003160
     12.01506     11.52359     16.44416        -0.011852     -0.006320     -0.001491
     13.44235     10.18679     11.37204        -0.013678      0.009715      0.009108
      7.67603     13.90567     10.16708        -0.006703     -0.004989      0.006717
     15.08546      9.50679     13.65816        -0.001847     -0.004961     -0.002841
      9.92624     11.77458     11.42794         0.008850     -0.005772     -0.003113
      7.93304     13.32699     12.99434        -0.001518     -0.002598     -0.011700
     10.27576     12.24815     14.29355         0.011445     -0.000950      0.011069
     15.29501      8.04610     11.19826        -0.013371      0.004165     -0.019145
     13.67700      9.49691      8.68875         0.008369      0.001910      0.003924
     11.21209     10.11250      7.23736         0.004518     -0.007387      0.004679
     14.81894     10.97885     16.06197         0.002596     -0.001145     -0.006260
     12.06312     11.76150      9.43515        -0.005225     -0.000920     -0.001251
     10.39999     13.93564      9.52887         0.002733     -0.002554      0.007708
     16.38904     10.61111     11.34384        -0.004705     -0.002376     -0.005393
     13.83801     13.35198     17.39855         0.003634      0.001631      0.002681
      9.68550     14.92201     14.59630        -0.000618      0.002541      0.001638
     12.12149     13.62402     11.98210         0.004141     -0.000237     -0.002369
      8.47440     14.07311      7.46886         0.003997     -0.002647     -0.001508
     10.92447     12.85541      6.86355         0.000517      0.000174      0.001966
     12.91193     11.47802     13.78530        -0.001927      0.009689      0.010237
     13.56221     11.75448      6.96251         0.003420     -0.005740     -0.004221
     16.89516     11.53696     14.07255        -0.006022     -0.003859     -0.003406
      8.96213     16.31916      9.30012        -0.000478      0.005693     -0.001713
     12.39024     14.07103     15.00218        -0.007366      0.002412      0.004119
     15.22369     13.53416     15.05493         0.007499     -0.007067     -0.000526
      9.51117     15.32607     11.85544        -0.003973      0.006943     -0.008555
     14.81909     12.16961      9.51596         0.007087      0.000582     -0.001136
     14.36003     14.81056     10.53752         0.009195      0.003031     -0.004016
     11.85156     16.14558     10.25784         0.007998     -0.001187     -0.002382
     10.92019     15.73274      7.41655         0.005098     -0.001025      0.001307
     14.27744     15.32940     13.23337        -0.004397      0.002487     -0.005340
     11.71773     16.29123     13.22203         0.004265     -0.001514     -0.002256
     13.07544     14.20423      8.22134         0.005358      0.007896      0.000273
     14.98962     12.75841     12.32161         0.005543     -0.002798     -0.005619
 -----------------------------------------------------------------------------------
    total drift:                                0.028465     -0.102052      0.218518


--------------------------------------------------------------------------------------------------------



  FREE ENERGIE OF THE ION-ELECTRON SYSTEM (eV)
  ---------------------------------------------------
  free  energy   TOTEN  =      -101.45301695 eV

  energy  without entropy=     -101.45301695  energy(sigma->0) =     -101.45301695
 
 d Force = 0.1059739E-05[ 0.207E-05, 0.504E-07]  d Energy =-0.2841193E-04 0.295E-04
 d Force =-0.2367687E-01[-0.237E-01,-0.237E-01]  d Ewald  =-0.2367687E-01-0.192E-08


--------------------------------------------------------------------------------------------------------


    POTLOK:  cpu time    0.22: real time    0.22


--------------------------------------------------------------------------------------------------------




--------------------------------------------------------------------------------------------------------


  
 reached required accuracy - stopping structural energy minimisation
     LOOP+:  cpu time   17.91: real time   17.96
    4ORBIT:  cpu time    0.00: real time    0.00

 total amount of memory used by VASP on root node    57764. kBytes
========================================================================

   base      :      30000. kBytes
   nonl-proj :       3085. kBytes
   fftplans  :       4337. kBytes
   grid      :      10964. kBytes
   one-center:         46. kBytes
   wavefun   :       9332. kBytes
 
  
  
 General timing and accounting informations for this job:
 ========================================================
  
                  Total CPU time used (sec):     1027.388
                            User time (sec):     1021.852
                          System time (sec):        5.536
                         Elapsed time (sec):     1053.767
  
                   Maximum memory used (kb):       71192.
                   Average memory used (kb):           0.
  
                          Minor page faults:       391496
                          Major page faults:            0
                 Voluntary context switches:        18648
