unknown system                          
           1
    21.117419    0.000000    0.000000
     0.000000   21.117419    0.000000
     0.000000    0.000000   21.117419
   Ag
  23
Direct configuration=     1
   0.54123630  0.47785352  0.61553115
   0.62506055  0.39456379  0.53532976
   0.62089254  0.59270640  0.61425144
   0.38092663  0.58663732  0.60871158
   0.58062768  0.66581716  0.52154625
   0.39673163  0.50945729  0.44413988
   0.59851510  0.42313468  0.40293858
   0.43224834  0.50158313  0.69506353
   0.39282068  0.38009805  0.47303422
   0.47977560  0.65849155  0.43261875
   0.50232010  0.60455504  0.65620380
   0.45565978  0.69140557  0.56301677
   0.36822613  0.62405469  0.48761202
   0.67951464  0.48374140  0.60383549
   0.60510686  0.63234096  0.39813148
   0.50716376  0.44216699  0.49496744
   0.52273137  0.53569977  0.39032474
   0.61271131  0.52753977  0.49214650
   0.40652563  0.45554896  0.57718528
   0.46301472  0.42603333  0.36914775
   0.63224807  0.29685788  0.45168913
   0.50697713  0.32344432  0.44321305
   0.48763946  0.56586731  0.52803606
Direct configuration=     2
   0.54137951  0.47787451  0.61560806
   0.62499264  0.39447333  0.53522217
   0.62097409  0.59270841  0.61431146
   0.38079231  0.58659912  0.60875969
   0.58053490  0.66583707  0.52148264
   0.39670712  0.50944351  0.44414590
   0.59853383  0.42300723  0.40301787
   0.43233676  0.50156938  0.69512669
   0.39273386  0.37999297  0.47299172
   0.47979514  0.65851117  0.43247206
   0.50228951  0.60463445  0.65619626
   0.45562776  0.69145902  0.56305554
   0.36813023  0.62416897  0.48761911
   0.67960949  0.48366617  0.60390105
   0.60522350  0.63236216  0.39820466
   0.50712328  0.44209484  0.49493759
   0.52266537  0.53577601  0.39044105
   0.61282476  0.52760605  0.49221931
   0.40652108  0.45573431  0.57712714
   0.46298486  0.42584270  0.36902571
   0.63227417  0.29690290  0.45161804
   0.50708164  0.32334009  0.44314898
   0.48753821  0.56599447  0.52804192
Direct configuration=     3
   0.54180911  0.47793745  0.61583880
   0.62478892  0.39420197  0.53489938
   0.62121872  0.59271445  0.61449150
   0.38038934  0.58648454  0.60890404
   0.58025658  0.66589681  0.52129183
   0.39663359  0.50940219  0.44416396
   0.59859002  0.42262490  0.40325575
   0.43260204  0.50152815  0.69531618
   0.39247338  0.37967774  0.47286424
   0.47985376  0.65857003  0.43203199
   0.50219774  0.60487266  0.65617364
   0.45553173  0.69161939  0.56317185
   0.36784253  0.62451180  0.48764039
   0.67989403  0.48344050  0.60409774
   0.60557343  0.63242576  0.39842422
   0.50700183  0.44187838  0.49484806
   0.52246739  0.53600472  0.39079001
   0.61316510  0.52780491  0.49243776
   0.40650743  0.45629036  0.57695271
   0.46289527  0.42527081  0.36865961
   0.63235247  0.29703799  0.45140476
   0.50739517  0.32302741  0.44295675
   0.48723444  0.56637597  0.52805949
Direct configuration=     4
   0.54266832  0.47806335  0.61630027
   0.62438146  0.39365924  0.53425380
   0.62170800  0.59272651  0.61485158
   0.37958341  0.58625538  0.60919273
   0.57969993  0.66601628  0.52091019
   0.39648653  0.50931955  0.44420009
   0.59870239  0.42186022  0.40373150
   0.43313258  0.50144567  0.69569516
   0.39195243  0.37904728  0.47260928
   0.47997100  0.65868775  0.43115184
   0.50201419  0.60534910  0.65612840
   0.45533965  0.69194012  0.56340446
   0.36726714  0.62519746  0.48768294
   0.68046312  0.48298916  0.60449111
   0.60627329  0.63255296  0.39886333
   0.50675893  0.44144545  0.49466900
   0.52207144  0.53646215  0.39148791
   0.61384579  0.52820261  0.49287467
   0.40648013  0.45740247  0.57660386
   0.46271610  0.42412702  0.36792740
   0.63250908  0.29730815  0.45097820
   0.50802222  0.32240204  0.44257230
   0.48662690  0.56713896  0.52809464
Direct configuration=     5
   0.54438674  0.47831515  0.61722322
   0.62356654  0.39257379  0.53296263
   0.62268654  0.59275065  0.61557175
   0.37797155  0.58579705  0.60977010
   0.57858664  0.66625522  0.52014691
   0.39619241  0.50915426  0.44427235
   0.59892713  0.42033086  0.40468301
   0.43419368  0.50128072  0.69645311
   0.39091052  0.37778635  0.47209935
   0.48020549  0.65892319  0.42939154
   0.50164709  0.60630196  0.65603792
   0.45495550  0.69258158  0.56386970
   0.36611634  0.62656879  0.48776804
   0.68160129  0.48208647  0.60527786
   0.60767302  0.63280735  0.39974155
   0.50627314  0.44057961  0.49431088
   0.52127952  0.53737700  0.39288372
   0.61520715  0.52899803  0.49374847
   0.40642553  0.45962668  0.57590615
   0.46235775  0.42183945  0.36646298
   0.63282230  0.29784847  0.45012507
   0.50927632  0.32115130  0.44180339
   0.48541182  0.56866495  0.52816493
Direct configuration=     6
   0.54481056  0.47837725  0.61745085
   0.62336556  0.39230609  0.53264419
   0.62292788  0.59275660  0.61574937
   0.37757402  0.58568401  0.60991250
   0.57831206  0.66631415  0.51995866
   0.39611987  0.50911349  0.44429017
   0.59898256  0.41995367  0.40491768
   0.43445538  0.50124004  0.69664004
   0.39065355  0.37747537  0.47197359
   0.48026333  0.65898126  0.42895740
   0.50155655  0.60653697  0.65601560
   0.45486076  0.69273978  0.56398444
   0.36583252  0.62690700  0.48778902
   0.68188199  0.48186384  0.60547190
   0.60801823  0.63287010  0.39995814
   0.50615333  0.44036606  0.49422256
   0.52108421  0.53760263  0.39322797
   0.61554291  0.52919420  0.49396398
   0.40641206  0.46017524  0.57573408
   0.46226937  0.42127526  0.36610181
   0.63289955  0.29798173  0.44991467
   0.50958562  0.32084283  0.44161375
   0.48511214  0.56904130  0.52818227
Direct configuration=     7
   0.54557715  0.47870629  0.61721584
   0.62310557  0.39269605  0.53306286
   0.62315023  0.59292877  0.61578879
   0.37683754  0.58573678  0.61021212
   0.57782810  0.66607602  0.52035364
   0.39612769  0.50896456  0.44430742
   0.59877051  0.41977087  0.40504631
   0.43530000  0.50130031  0.69674403
   0.39071640  0.37713501  0.47173915
   0.47990535  0.65923763  0.42824389
   0.50145941  0.60687707  0.65571170
   0.45436625  0.69312223  0.56413340
   0.36574905  0.62748461  0.48784945
   0.68207130  0.48095465  0.60547618
   0.60884257  0.63269678  0.40035972
   0.50561665  0.44066890  0.49426421
   0.52067538  0.53702440  0.39414207
   0.61577879  0.52933115  0.49457624
   0.40649553  0.46130948  0.57505038
   0.46241245  0.42065572  0.36605460
   0.63386741  0.29742137  0.44906096
   0.50942490  0.32042537  0.44116634
   0.48459578  0.56907481  0.52811534
Direct configuration=     8
   0.54735205  0.47946812  0.61667172
   0.62250360  0.39359896  0.53403222
   0.62366503  0.59332740  0.61588006
   0.37513235  0.58585894  0.61090584
   0.57670756  0.66552469  0.52126816
   0.39614582  0.50861974  0.44434737
   0.59827955  0.41934761  0.40534411
   0.43725557  0.50143987  0.69698480
   0.39086192  0.37634699  0.47119635
   0.47907651  0.65983123  0.42659187
   0.50123449  0.60766452  0.65500807
   0.45322129  0.69400771  0.56447830
   0.36555579  0.62882198  0.48798934
   0.68250961  0.47884958  0.60548610
   0.61075119  0.63229550  0.40128950
   0.50437408  0.44137006  0.49436064
   0.51972881  0.53568562  0.39625850
   0.61632494  0.52964823  0.49599385
   0.40668877  0.46393564  0.57346738
   0.46274373  0.41922127  0.36594529
   0.63610833  0.29612397  0.44708435
   0.50905279  0.31945882  0.44013043
   0.48340023  0.56915241  0.52796037
Direct configuration=     9
   0.54775698  0.48008729  0.61593970
   0.62184970  0.39317004  0.53374428
   0.62419602  0.59304438  0.61598608
   0.37452439  0.58647298  0.61131803
   0.57575572  0.66502420  0.52177728
   0.39569131  0.50874770  0.44408475
   0.59776650  0.41927719  0.40558222
   0.43863487  0.50161875  0.69642797
   0.39131980  0.37616196  0.47109694
   0.47892042  0.65987319  0.42625874
   0.50121669  0.60797276  0.65424351
   0.45253827  0.69426175  0.56450235
   0.36593964  0.62896948  0.48806804
   0.68276767  0.47854968  0.60577529
   0.61095746  0.63140508  0.40219501
   0.50442286  0.44126087  0.49423386
   0.52004246  0.53520851  0.39710536
   0.61600932  0.52960861  0.49669846
   0.40630909  0.46489587  0.57323945
   0.46307820  0.41905340  0.36628384
   0.63676348  0.29625031  0.44637861
   0.50941204  0.31924267  0.43991744
   0.48280114  0.56944220  0.52781742
Direct configuration=    10
   0.54897176  0.48194478  0.61374364
   0.61988798  0.39188328  0.53288045
   0.62578896  0.59219530  0.61630414
   0.37270053  0.58831509  0.61255460
   0.57290018  0.66352271  0.52330465
   0.39432777  0.50913158  0.44329686
   0.59622735  0.41906593  0.40629658
   0.44277275  0.50215540  0.69475749
   0.39269346  0.37560689  0.47079870
   0.47845215  0.65999910  0.42525935
   0.50116331  0.60889745  0.65194984
   0.45048922  0.69502390  0.56457452
   0.36709118  0.62941200  0.48830412
   0.68354182  0.47764997  0.60664288
   0.61157628  0.62873383  0.40491154
   0.50456921  0.44093328  0.49385354
   0.52098339  0.53377717  0.39964591
   0.61506245  0.52948973  0.49881229
   0.40517006  0.46777655  0.57255564
   0.46408162  0.41854980  0.36729950
   0.63872893  0.29662934  0.44426138
   0.51048978  0.31859423  0.43927847
   0.48100386  0.57031155  0.52738855
Direct configuration=    11
   0.54905993  0.48248015  0.61279596
   0.61968019  0.39106921  0.53296055
   0.62678588  0.59214521  0.61681181
   0.37215843  0.58941922  0.61332117
   0.57183926  0.66318998  0.52412354
   0.39382561  0.50911192  0.44275545
   0.59644796  0.41897766  0.40574577
   0.44426346  0.50217898  0.69377635
   0.39321155  0.37554539  0.47114130
   0.47878752  0.65976146  0.42500885
   0.50176592  0.60967162  0.65088814
   0.44967200  0.69575904  0.56470457
   0.36699112  0.62916064  0.48815288
   0.68368186  0.47704112  0.60667710
   0.61153590  0.62758695  0.40619877
   0.50360624  0.44078389  0.49476005
   0.52147847  0.53400742  0.39997509
   0.61466950  0.52902476  0.49958808
   0.40452870  0.46824509  0.57221819
   0.46419713  0.41884478  0.36728137
   0.63926173  0.29730835  0.44338674
   0.51140565  0.31814454  0.43948053
   0.47982003  0.57014150  0.52692238
Direct configuration=    12
   0.54920065  0.48333464  0.61128338
   0.61934855  0.38976988  0.53308838
   0.62837704  0.59206526  0.61762210
   0.37129319  0.59118151  0.61454470
   0.57014593  0.66265891  0.52543056
   0.39302411  0.50908054  0.44189130
   0.59680007  0.41883677  0.40486663
   0.44664276  0.50221662  0.69221037
   0.39403849  0.37544721  0.47168811
   0.47932279  0.65938216  0.42460903
   0.50272773  0.61090728  0.64919357
   0.44836762  0.69693240  0.56491213
   0.36683140  0.62875945  0.48791150
   0.68390537  0.47606932  0.60673172
   0.61147147  0.62575642  0.40825331
   0.50206925  0.44054545  0.49620691
   0.52226866  0.53437491  0.40050050
   0.61404231  0.52828262  0.50082632
   0.40350501  0.46899293  0.57167959
   0.46438149  0.41931560  0.36725244
   0.64011213  0.29839210  0.44199073
   0.51286746  0.31742679  0.43980303
   0.47793054  0.56987009  0.52617832
Direct configuration=    13
   0.54943992  0.48379875  0.61059191
   0.61921524  0.38909291  0.53326095
   0.62991562  0.59231707  0.61834484
   0.37146445  0.59260110  0.61556810
   0.56925600  0.66231248  0.52708791
   0.39271464  0.50855604  0.44079361
   0.59678841  0.41931997  0.40458198
   0.44794665  0.50237474  0.69095175
   0.39413502  0.37490084  0.47225998
   0.47982736  0.65898691  0.42455448
   0.50406230  0.61212688  0.64768134
   0.44722265  0.69803670  0.56491425
   0.36592225  0.62834151  0.48759455
   0.68370715  0.47496457  0.60636975
   0.61206570  0.62527396  0.40971315
   0.50227764  0.43977536  0.49623662
   0.52205155  0.53391605  0.40025513
   0.61371266  0.52707001  0.50148853
   0.40133428  0.46933083  0.57200321
   0.46460526  0.41989669  0.36739234
   0.64114810  0.29925300  0.44086752
   0.51367592  0.31773646  0.44046016
   0.47618527  0.56961604  0.52570260
Direct configuration=    14
   0.54965818  0.48422211  0.60996114
   0.61909363  0.38847538  0.53341837
   0.63131912  0.59254677  0.61900413
   0.37162067  0.59389606  0.61650164
   0.56844419  0.66199646  0.52859975
   0.39243234  0.50807759  0.43979230
   0.59677777  0.41976074  0.40432231
   0.44913607  0.50251898  0.68980363
   0.39422307  0.37440243  0.47278164
   0.48028762  0.65862636  0.42450472
   0.50527970  0.61323940  0.64630188
   0.44617820  0.69904404  0.56491618
   0.36509293  0.62796026  0.48730543
   0.68352633  0.47395682  0.60603957
   0.61260777  0.62483387  0.41104482
   0.50246774  0.43907289  0.49626371
   0.52185349  0.53349748  0.40003131
   0.61341196  0.52596386  0.50209260
   0.39935414  0.46963906  0.57229841
   0.46480938  0.42042676  0.36751996
   0.64209311  0.30003832  0.43984292
   0.51441340  0.31801894  0.44105959
   0.47459322  0.56938430  0.52526864
Direct configuration=    15
   0.55002581  0.48434187  0.61048744
   0.61905226  0.38800308  0.53309291
   0.63243798  0.59222445  0.61895056
   0.37284711  0.59431353  0.61665906
   0.56848848  0.66144485  0.52952337
   0.39253580  0.50742117  0.43954393
   0.59684719  0.42050464  0.40466906
   0.44901619  0.50334565  0.68950080
   0.39390682  0.37385470  0.47308651
   0.48042033  0.65824091  0.42505782
   0.50616058  0.61379882  0.64539039
   0.44514781  0.69909357  0.56430179
   0.36425092  0.62779022  0.48726800
   0.68332956  0.47359342  0.60596405
   0.61307806  0.62520536  0.41216022
   0.50213663  0.43936188  0.49636972
   0.52161812  0.53367749  0.39969278
   0.61344394  0.52578373  0.50139315
   0.39793067  0.46969187  0.57165345
   0.46464786  0.41981371  0.36754197
   0.64299083  0.30041716  0.43937081
   0.51437392  0.31880275  0.44160184
   0.47398716  0.56887404  0.52539500
Direct configuration=    16
   0.55083109  0.48460417  0.61164025
   0.61896165  0.38696853  0.53238000
   0.63488875  0.59151845  0.61883321
   0.37553351  0.59522798  0.61700386
   0.56858547  0.66023659  0.53154648
   0.39276240  0.50598333  0.43899991
   0.59699925  0.42213409  0.40542859
   0.44875362  0.50515641  0.68883749
   0.39321410  0.37265496  0.47375429
   0.48071102  0.65739661  0.42626935
   0.50809007  0.61502420  0.64339386
   0.44289084  0.69920206  0.56295603
   0.36240658  0.62741776  0.48718601
   0.68289856  0.47279742  0.60579863
   0.61410817  0.62601909  0.41460341
   0.50141136  0.43999490  0.49660192
   0.52110256  0.53407179  0.39895128
   0.61351398  0.52538918  0.49986107
   0.39481269  0.46980753  0.57024073
   0.46429408  0.41847087  0.36759019
   0.64495722  0.30124698  0.43833671
   0.51428744  0.32051962  0.44278960
   0.47265962  0.56775636  0.52567176
Direct configuration=    17
   0.55159900  0.48466548  0.61159165
   0.61836143  0.38687672  0.53210961
   0.63643762  0.59091921  0.61824401
   0.37670020  0.59521546  0.61716062
   0.56840328  0.65961690  0.53224406
   0.39248011  0.50573021  0.43870009
   0.59734341  0.42295248  0.40586882
   0.44769829  0.50685654  0.68803425
   0.39292923  0.37209134  0.47401192
   0.48052249  0.65715432  0.42771473
   0.50960107  0.61557872  0.64351594
   0.44249287  0.69867942  0.56123443
   0.36129775  0.62609900  0.48691530
   0.68280669  0.47168698  0.60538214
   0.61432484  0.62692495  0.41549790
   0.50067039  0.44113433  0.49800969
   0.52106183  0.53467221  0.39829889
   0.61362606  0.52502040  0.50007081
   0.39282988  0.46984917  0.56952872
   0.46411545  0.41764768  0.36752469
   0.64501672  0.30210260  0.43768719
   0.51578562  0.32066223  0.44368707
   0.47256978  0.56746252  0.52564212
Direct configuration=    18
   0.55174401  0.48467706  0.61158248
   0.61824809  0.38685938  0.53205855
   0.63673008  0.59080606  0.61813275
   0.37692050  0.59521310  0.61719022
   0.56836888  0.65949989  0.53237578
   0.39242681  0.50568241  0.43864348
   0.59740840  0.42310701  0.40595195
   0.44749902  0.50717757  0.68788258
   0.39287545  0.37198491  0.47406057
   0.48048689  0.65710857  0.42798766
   0.50988639  0.61568342  0.64353899
   0.44241772  0.69858074  0.56090936
   0.36108837  0.62584999  0.48686418
   0.68278935  0.47147730  0.60530350
   0.61436575  0.62709600  0.41566680
   0.50053048  0.44134948  0.49827551
   0.52105414  0.53478559  0.39817570
   0.61364723  0.52495077  0.50011041
   0.39245548  0.46985703  0.56939428
   0.46408171  0.41749224  0.36751232
   0.64502796  0.30226417  0.43756454
   0.51606851  0.32068916  0.44385654
   0.47255281  0.56740704  0.52563652
Direct configuration=    19
   0.55168132  0.48503909  0.61207514
   0.61723411  0.38691809  0.53217095
   0.63789117  0.59060066  0.61747267
   0.37680533  0.59538420  0.61699869
   0.56864929  0.65957426  0.53221669
   0.39226882  0.50558682  0.43811305
   0.59700939  0.42390733  0.40610740
   0.44680339  0.50829042  0.68699488
   0.39372485  0.37206884  0.47385581
   0.47996533  0.65759758  0.42870175
   0.51063011  0.61569460  0.64455752
   0.44313669  0.69776370  0.55954673
   0.36045458  0.62409602  0.48686229
   0.68346586  0.47004410  0.60507442
   0.61387422  0.62752689  0.41560286
   0.49982643  0.44092368  0.49815615
   0.52122103  0.53467840  0.39792697
   0.61375003  0.52509034  0.50050129
   0.39097071  0.47011161  0.56930912
   0.46451119  0.41742857  0.36846697
   0.64485175  0.30264074  0.43708401
   0.51717622  0.32099930  0.44476114
   0.47277219  0.56763364  0.52611814
Direct configuration=    20
   0.55166483  0.48513427  0.61220467
   0.61696752  0.38693352  0.53220050
   0.63819644  0.59054666  0.61729913
   0.37677505  0.59542919  0.61694833
   0.56872302  0.65959381  0.53217486
   0.39222729  0.50556169  0.43797359
   0.59690449  0.42411774  0.40614827
   0.44662050  0.50858300  0.68676148
   0.39394817  0.37209091  0.47380198
   0.47982821  0.65772614  0.42888949
   0.51082564  0.61569754  0.64482531
   0.44332572  0.69754889  0.55918847
   0.36028794  0.62363488  0.48686179
   0.68364373  0.46966730  0.60501420
   0.61374499  0.62764017  0.41558605
   0.49964133  0.44081173  0.49812477
   0.52126490  0.53465022  0.39786157
   0.61377706  0.52512704  0.50060406
   0.39058034  0.47017854  0.56928673
   0.46462411  0.41741183  0.36871796
   0.64480543  0.30273974  0.43695768
   0.51746746  0.32108084  0.44499897
   0.47282987  0.56769321  0.52624477
Direct configuration=    21
   0.55164380  0.48556712  0.61240579
   0.61590323  0.38686172  0.53240037
   0.63899490  0.59007979  0.61656651
   0.37579169  0.59638123  0.61653403
   0.56957731  0.65981967  0.53227513
   0.39249208  0.50549861  0.43754435
   0.59685821  0.42482341  0.40607522
   0.44598910  0.50875521  0.68649928
   0.39414982  0.37174400  0.47357622
   0.47928474  0.65808690  0.42864846
   0.51152981  0.61581259  0.64522725
   0.44407507  0.69684667  0.55855130
   0.35983076  0.62186584  0.48718491
   0.68422053  0.46848242  0.60497435
   0.61277873  0.62760267  0.41480859
   0.49960205  0.44164037  0.49878644
   0.52117234  0.53513803  0.39833465
   0.61359037  0.52547132  0.50092778
   0.38971203  0.47085705  0.56877729
   0.46517941  0.41756255  0.36907007
   0.64520723  0.30295509  0.43666187
   0.51784310  0.32082434  0.44592916
   0.47324770  0.56692228  0.52691559
Direct configuration=    22
   0.55164007  0.48564388  0.61244145
   0.61571450  0.38684899  0.53243582
   0.63913648  0.58999700  0.61643659
   0.37561731  0.59655005  0.61646057
   0.56972880  0.65985972  0.53229291
   0.39253903  0.50548743  0.43746824
   0.59685001  0.42494854  0.40606227
   0.44587714  0.50878575  0.68645278
   0.39418558  0.37168248  0.47353619
   0.47918837  0.65815088  0.42860571
   0.51165468  0.61583300  0.64529853
   0.44420795  0.69672214  0.55843832
   0.35974969  0.62155213  0.48724221
   0.68432281  0.46827231  0.60496729
   0.61260739  0.62759602  0.41467073
   0.49959509  0.44178731  0.49890377
   0.52115592  0.53522454  0.39841854
   0.61355726  0.52553237  0.50098518
   0.38955805  0.47097737  0.56868695
   0.46527788  0.41758928  0.36913251
   0.64527848  0.30299327  0.43660942
   0.51790972  0.32077885  0.44609412
   0.47332179  0.56678558  0.52703455
Direct configuration=    23
   0.55215979  0.48592489  0.61299465
   0.61522191  0.38646345  0.53237862
   0.63971831  0.58919814  0.61618953
   0.37489703  0.59740450  0.61660227
   0.57023999  0.65982819  0.53213335
   0.39308139  0.50503498  0.43693406
   0.59711567  0.42512603  0.40624534
   0.44516254  0.50882059  0.68610964
   0.39440843  0.37150326  0.47350361
   0.47874712  0.65786810  0.42845031
   0.51196325  0.61579473  0.64488915
   0.44457058  0.69616697  0.55831818
   0.35984126  0.62059797  0.48771473
   0.68429318  0.46766973  0.60496134
   0.61164415  0.62760391  0.41373381
   0.49952400  0.44162091  0.49904025
   0.52056944  0.53573414  0.39897666
   0.61348646  0.52581656  0.50088146
   0.38884811  0.47186187  0.56804285
   0.46592229  0.41758765  0.36910767
   0.64578241  0.30355433  0.43664875
   0.51780244  0.32095746  0.44708700
   0.47367427  0.56746051  0.52773146
Direct configuration=    24
   0.55228290  0.48599145  0.61312568
   0.61510524  0.38637213  0.53236508
   0.63985612  0.58900892  0.61613100
   0.37472642  0.59760689  0.61663583
   0.57036107  0.65982072  0.53209555
   0.39320985  0.50492781  0.43680753
   0.59717859  0.42516807  0.40628870
   0.44499327  0.50882884  0.68602836
   0.39446122  0.37146081  0.47349589
   0.47864261  0.65780112  0.42841349
   0.51203634  0.61578567  0.64479218
   0.44465648  0.69603547  0.55828972
   0.35986295  0.62037197  0.48782665
   0.68428617  0.46752700  0.60495993
   0.61141599  0.62760578  0.41351189
   0.49950716  0.44158150  0.49907258
   0.52043052  0.53585485  0.39910886
   0.61346969  0.52588388  0.50085689
   0.38867994  0.47207138  0.56789029
   0.46607492  0.41758727  0.36910179
   0.64590177  0.30368722  0.43665807
   0.51777703  0.32099977  0.44732218
   0.47375776  0.56762038  0.52789653
Direct configuration=    25
   0.55214547  0.48559372  0.61310288
   0.61556583  0.38642390  0.53268338
   0.63969703  0.58922775  0.61649389
   0.37497867  0.59728029  0.61746631
   0.57059602  0.65963241  0.53173593
   0.39323536  0.50495571  0.43689980
   0.59718300  0.42520342  0.40640439
   0.44502550  0.50908314  0.68536706
   0.39427721  0.37162009  0.47363514
   0.47847613  0.65783164  0.42846027
   0.51202606  0.61558330  0.64508961
   0.44430547  0.69675066  0.55854868
   0.35989006  0.62069619  0.48751812
   0.68406748  0.46742883  0.60480113
   0.61152145  0.62795063  0.41339916
   0.49949692  0.44222402  0.49955555
   0.52033196  0.53490178  0.39904195
   0.61342803  0.52561611  0.50050303
   0.38865994  0.47263188  0.56754317
   0.46630396  0.41726625  0.36867584
   0.64579227  0.30390680  0.43666212
   0.51807025  0.32092159  0.44763361
   0.47359994  0.56686877  0.52745361
Direct configuration=    26
   0.55220277  0.48575956  0.61311239
   0.61537378  0.38640231  0.53255066
   0.63976336  0.58913651  0.61634258
   0.37487349  0.59741647  0.61712003
   0.57049805  0.65971093  0.53188588
   0.39322472  0.50494408  0.43686132
   0.59718116  0.42518868  0.40635615
   0.44501206  0.50897710  0.68564280
   0.39435394  0.37155367  0.47357707
   0.47854555  0.65781891  0.42844076
   0.51203035  0.61566768  0.64496559
   0.44445183  0.69645244  0.55844070
   0.35987876  0.62056100  0.48764677
   0.68415866  0.46746976  0.60486734
   0.61147748  0.62780684  0.41344616
   0.49950119  0.44195611  0.49935416
   0.52037306  0.53529918  0.39906985
   0.61344540  0.52572776  0.50065058
   0.38866828  0.47239817  0.56768790
   0.46620846  0.41740011  0.36885345
   0.64583793  0.30381524  0.43666043
   0.51794799  0.32095419  0.44750375
   0.47366575  0.56718217  0.52763830
Direct configuration=    27
   0.55234827  0.48546654  0.61324033
   0.61563959  0.38629080  0.53268669
   0.63956451  0.58913258  0.61660555
   0.37508494  0.59751350  0.61759528
   0.57042534  0.65933921  0.53168788
   0.39320770  0.50481290  0.43666724
   0.59723330  0.42507080  0.40656002
   0.44497511  0.50897435  0.68512508
   0.39442542  0.37181327  0.47366441
   0.47844174  0.65759174  0.42853469
   0.51205482  0.61559991  0.64479935
   0.44425723  0.69674276  0.55871729
   0.36008015  0.62082748  0.48766899
   0.68397958  0.46753032  0.60481621
   0.61126733  0.62797846  0.41313271
   0.49955204  0.44167803  0.49947368
   0.52038374  0.53492133  0.39898977
   0.61346813  0.52564883  0.50043494
   0.38826160  0.47297040  0.56732321
   0.46642770  0.41690357  0.36861871
   0.64589278  0.30409540  0.43667820
   0.51808908  0.32115927  0.44809182
   0.47361392  0.56753742  0.52756260
Direct configuration=    28
   0.55240515  0.48535200  0.61329035
   0.61574351  0.38624721  0.53273987
   0.63948677  0.58913104  0.61670835
   0.37516760  0.59755143  0.61778107
   0.57039692  0.65919390  0.53161047
   0.39320105  0.50476162  0.43659136
   0.59725368  0.42502472  0.40663971
   0.44496067  0.50897328  0.68492269
   0.39445336  0.37191475  0.47369855
   0.47840116  0.65750294  0.42857141
   0.51206439  0.61557341  0.64473436
   0.44418116  0.69685625  0.55882542
   0.36015888  0.62093166  0.48767767
   0.68390957  0.46755399  0.60479622
   0.61118518  0.62804556  0.41301017
   0.49957192  0.44156932  0.49952041
   0.52038792  0.53477362  0.39895847
   0.61347702  0.52561797  0.50035065
   0.38810262  0.47319409  0.56718064
   0.46651341  0.41670945  0.36852695
   0.64591422  0.30420492  0.43668514
   0.51814423  0.32123944  0.44832171
   0.47359365  0.56767629  0.52753300
Direct configuration=    29
   0.55258450  0.48520949  0.61330932
   0.61583339  0.38611015  0.53285568
   0.63936322  0.58901275  0.61681289
   0.37520003  0.59799515  0.61786727
   0.57035986  0.65891888  0.53151390
   0.39330420  0.50470963  0.43630702
   0.59734286  0.42492354  0.40673413
   0.44496346  0.50869898  0.68464855
   0.39442965  0.37206719  0.47372427
   0.47836190  0.65728807  0.42848321
   0.51209634  0.61562405  0.64457748
   0.44417162  0.69698623  0.55906495
   0.36025235  0.62097792  0.48785245
   0.68393828  0.46771594  0.60485429
   0.61082027  0.62805628  0.41264481
   0.49958452  0.44170738  0.49976775
   0.52041441  0.53467871  0.39892801
   0.61347782  0.52569197  0.50035128
   0.38759819  0.47368557  0.56677517
   0.46664370  0.41633277  0.36850729
   0.64614208  0.30432735  0.43664555
   0.51820959  0.32122873  0.44892811
   0.47358178  0.56765216  0.52752129
Direct configuration=    30
   0.55312254  0.48478198  0.61336624
   0.61610305  0.38569900  0.53320310
   0.63899257  0.58865787  0.61712653
   0.37529731  0.59932630  0.61812587
   0.57024870  0.65809382  0.53122420
   0.39361364  0.50455366  0.43545397
   0.59761043  0.42461999  0.40701739
   0.44497183  0.50787609  0.68382612
   0.39435851  0.37252449  0.47380141
   0.47824414  0.65664345  0.42821860
   0.51219220  0.61577596  0.64410684
   0.44414298  0.69737616  0.55978355
   0.36053278  0.62111672  0.48837679
   0.68402443  0.46820177  0.60502848
   0.60972556  0.62808844  0.41154872
   0.49962232  0.44212155  0.50050976
   0.52049389  0.53439400  0.39883662
   0.61348022  0.52591394  0.50035316
   0.38608490  0.47515998  0.56555878
   0.46703459  0.41520271  0.36844831
   0.64682566  0.30469464  0.43652675
   0.51840565  0.32119659  0.45074730
   0.47354616  0.56757976  0.52748614
Direct configuration=    31
   0.55321276  0.48473608  0.61341320
   0.61612592  0.38566987  0.53328314
   0.63897055  0.58863652  0.61719009
   0.37531481  0.59952335  0.61821619
   0.57027437  0.65799654  0.53113572
   0.39369673  0.50458050  0.43525830
   0.59762096  0.42458480  0.40708818
   0.44496076  0.50777181  0.68358872
   0.39435370  0.37260118  0.47382506
   0.47817743  0.65656010  0.42815915
   0.51216700  0.61576120  0.64410962
   0.44420433  0.69745342  0.55985306
   0.36055457  0.62107021  0.48844735
   0.68410725  0.46822671  0.60505124
   0.60955754  0.62810533  0.41133381
   0.49960668  0.44215750  0.50059893
   0.52049198  0.53425914  0.39880432
   0.61348335  0.52595914  0.50034979
   0.38571056  0.47543707  0.56533829
   0.46713619  0.41504089  0.36853534
   0.64694791  0.30474267  0.43650916
   0.51846965  0.32118675  0.45107514
   0.47352903  0.56753812  0.52751083
Direct configuration=    32
   0.55325814  0.48471299  0.61343683
   0.61613742  0.38565521  0.53332340
   0.63895947  0.58862578  0.61722206
   0.37532361  0.59962247  0.61826162
   0.57028729  0.65794761  0.53109122
   0.39373853  0.50459400  0.43515987
   0.59762626  0.42456710  0.40712378
   0.44495519  0.50771935  0.68346931
   0.39435128  0.37263975  0.47383696
   0.47814388  0.65651817  0.42812924
   0.51215432  0.61575378  0.64411102
   0.44423519  0.69749228  0.55988803
   0.36056553  0.62104681  0.48848284
   0.68414891  0.46823925  0.60506269
   0.60947303  0.62811382  0.41122571
   0.49959881  0.44217558  0.50064378
   0.52049102  0.53419130  0.39878807
   0.61348492  0.52598187  0.50034810
   0.38552227  0.47557645  0.56522738
   0.46718730  0.41495950  0.36857912
   0.64700940  0.30476683  0.43650031
   0.51850184  0.32118180  0.45124005
   0.47352041  0.56751717  0.52752324
Direct configuration=    33
   0.55325626  0.48475081  0.61347432
   0.61610887  0.38571109  0.53333982
   0.63901022  0.58867729  0.61722646
   0.37532297  0.59956506  0.61831145
   0.57033525  0.65800669  0.53105664
   0.39376072  0.50465824  0.43511904
   0.59758900  0.42458671  0.40714709
   0.44493368  0.50777210  0.68337027
   0.39435785  0.37262855  0.47385207
   0.47809286  0.65655029  0.42812431
   0.51211447  0.61570773  0.64420711
   0.44430937  0.69748989  0.55980849
   0.36053221  0.62096711  0.48845516
   0.68422171  0.46816686  0.60504884
   0.60951469  0.62812464  0.41121530
   0.49956892  0.44212652  0.50060194
   0.52047953  0.53411622  0.39876947
   0.61348664  0.52598411  0.50034513
   0.38541551  0.47558070  0.56522050
   0.46721556  0.41500676  0.36868214
   0.64699668  0.30474934  0.43651265
   0.51853792  0.32117456  0.45122335
   0.47351312  0.56749762  0.52756308
Direct configuration=    34