  47  47   0   0
  0.2481547E+03  0.2267811E-08  0.2267811E-08  0.2267811E-08  0.1000000E-15
  1.000000000000000E-004
  CAR 
 unknown system                          
      2.17757277    -10.28033241  301     -3.21047122      1.00000000
    -10.280  0.0000E+00  0.0000E+00  0.0000E+00  0.0000E+00
    -10.239  0.0000E+00  0.0000E+00  0.0000E+00  0.0000E+00
    -10.197  0.0000E+00  0.0000E+00  0.0000E+00  0.0000E+00
    -10.156  0.0000E+00  0.0000E+00  0.0000E+00  0.0000E+00
    -10.114  0.0000E+00  0.0000E+00  0.0000E+00  0.0000E+00
    -10.073  0.0000E+00  0.0000E+00  0.0000E+00  0.0000E+00
    -10.031  0.0000E+00  0.0000E+00  0.0000E+00  0.0000E+00
     -9.990  0.0000E+00  0.0000E+00  0.0000E+00  0.0000E+00
     -9.948  0.0000E+00  0.0000E+00  0.0000E+00  0.0000E+00
     -9.907  0.0000E+00  0.0000E+00  0.0000E+00  0.0000E+00
     -9.865  0.0000E+00  0.0000E+00  0.0000E+00  0.0000E+00
     -9.824  0.0000E+00  0.0000E+00  0.0000E+00  0.0000E+00
     -9.782  0.0000E+00  0.0000E+00  0.0000E+00  0.0000E+00
     -9.740  0.0000E+00  0.0000E+00  0.0000E+00  0.0000E+00
     -9.699  0.0000E+00  0.0000E+00  0.1000E-02  0.1000E-02
     -9.657  0.0000E+00  0.0000E+00  0.1000E-02  0.1000E-02
     -9.616  0.0000E+00  0.0000E+00  0.1000E-02  0.1000E-02
     -9.574  0.0000E+00  0.0000E+00  0.1000E-02  0.1000E-02
     -9.533  0.0000E+00  0.0000E+00  0.1000E-02  0.1000E-02
     -9.491  0.0000E+00  0.0000E+00  0.1000E-02  0.1000E-02
     -9.450  0.0000E+00  0.0000E+00  0.1000E-02  0.1000E-02
     -9.408  0.0000E+00  0.0000E+00  0.1000E-02  0.1000E-02
     -9.367  0.0000E+00  0.0000E+00  0.1000E-02  0.1000E-02
     -9.325  0.0000E+00  0.0000E+00  0.1000E-02  0.1000E-02
     -9.284  0.0000E+00  0.0000E+00  0.1000E-02  0.1000E-02
     -9.242  0.0000E+00  0.0000E+00  0.1000E-02  0.1000E-02
     -9.201  0.0000E+00  0.0000E+00  0.1000E-02  0.1000E-02
     -9.159  0.1830E-01  0.0000E+00  0.2760E-02  0.2000E-02
     -9.118  0.0000E+00  0.0000E+00  0.3000E-02  0.3000E-02
     -9.076  0.0000E+00  0.0000E+00  0.4000E-02  0.4000E-02
     -9.035  0.0000E+00  0.0000E+00  0.5000E-02  0.4000E-02
     -8.993  0.0000E+00  0.0000E+00  0.7000E-02  0.7000E-02
     -8.951  0.0000E+00  0.0000E+00  0.8000E-02  0.8000E-02
     -8.910  0.0000E+00  0.0000E+00  0.9000E-02  0.9000E-02
     -8.868  0.0000E+00  0.0000E+00  0.1100E-01  0.1100E-01
     -8.827  0.0000E+00  0.0000E+00  0.1300E-01  0.1300E-01
     -8.785  0.0000E+00  0.0000E+00  0.1400E-01  0.1400E-01
     -8.744  0.0000E+00  0.0000E+00  0.1600E-01  0.1500E-01
     -8.702  0.0000E+00  0.0000E+00  0.1800E-01  0.1700E-01
     -8.661  0.0000E+00  0.0000E+00  0.2000E-01  0.2000E-01
     -8.619  0.0000E+00  0.0000E+00  0.2200E-01  0.2100E-01
     -8.578  0.0000E+00  0.1337E-17  0.2500E-01  0.2400E-01
     -8.536  0.2455E-09  0.0000E+00  0.2700E-01  0.2700E-01
     -8.495  0.0000E+00  0.0000E+00  0.3100E-01  0.3000E-01
     -8.453  0.0000E+00  0.0000E+00  0.3300E-01  0.3300E-01
     -8.412  0.0000E+00  0.0000E+00  0.3600E-01  0.3500E-01
     -8.370  0.0000E+00  0.9883E-10  0.4000E-01  0.3900E-01
     -8.329  0.0000E+00  0.0000E+00  0.4100E-01  0.4100E-01
     -8.287  0.0000E+00  0.0000E+00  0.4600E-01  0.4500E-01
     -8.246  0.0000E+00  0.0000E+00  0.4800E-01  0.4700E-01
     -8.204  0.0000E+00  0.0000E+00  0.5000E-01  0.4900E-01
     -8.162  0.0000E+00  0.0000E+00  0.5300E-01  0.5200E-01
     -8.121  0.0000E+00  0.0000E+00  0.5700E-01  0.5700E-01
     -8.079  0.0000E+00  0.0000E+00  0.6000E-01  0.6000E-01
     -8.038  0.0000E+00  0.0000E+00  0.6300E-01  0.6300E-01
     -7.996  0.0000E+00  0.0000E+00  0.6700E-01  0.6600E-01
     -7.955  0.0000E+00  0.0000E+00  0.6900E-01  0.6900E-01
     -7.913  0.0000E+00  0.0000E+00  0.7200E-01  0.7200E-01
     -7.872  0.0000E+00  0.0000E+00  0.7600E-01  0.7500E-01
     -7.830  0.0000E+00  0.2408E-01  0.7800E-01  0.7800E-01
     -7.789  0.0000E+00  0.0000E+00  0.8200E-01  0.8100E-01
     -7.747  0.0000E+00  0.0000E+00  0.8500E-01  0.8500E-01
     -7.706  0.0000E+00  0.0000E+00  0.8700E-01  0.8600E-01
     -7.664  0.0000E+00  0.0000E+00  0.9000E-01  0.9000E-01
     -7.623  0.0000E+00  0.0000E+00  0.9300E-01  0.9300E-01
     -7.581  0.0000E+00  0.0000E+00  0.9800E-01  0.9600E-01
     -7.540  0.0000E+00  0.0000E+00  0.9900E-01  0.9900E-01
     -7.498  0.0000E+00  0.0000E+00  0.1030E+00  0.1020E+00
     -7.457  0.0000E+00  0.0000E+00  0.1080E+00  0.1080E+00
     -7.415  0.0000E+00  0.2406E-01  0.1100E+00  0.1100E+00
     -7.373  0.0000E+00  0.0000E+00  0.1130E+00  0.1120E+00
     -7.332  0.0000E+00  0.0000E+00  0.1170E+00  0.1160E+00
     -7.290  0.0000E+00  0.0000E+00  0.1190E+00  0.1190E+00
     -7.249  0.0000E+00  0.0000E+00  0.1220E+00  0.1220E+00
     -7.207  0.0000E+00  0.0000E+00  0.1240E+00  0.1240E+00
     -7.166  0.0000E+00  0.0000E+00  0.1280E+00  0.1280E+00
     -7.124  0.0000E+00  0.0000E+00  0.1310E+00  0.1300E+00
     -7.083  0.0000E+00  0.0000E+00  0.1340E+00  0.1340E+00
     -7.041  0.1075E-11  0.0000E+00  0.1370E+00  0.1370E+00
     -7.000  0.0000E+00  0.0000E+00  0.1420E+00  0.1410E+00
     -6.958  0.0000E+00  0.0000E+00  0.1450E+00  0.1440E+00
     -6.917  0.0000E+00  0.0000E+00  0.1470E+00  0.1470E+00
     -6.875  0.0000E+00  0.0000E+00  0.1510E+00  0.1510E+00
     -6.834  0.0000E+00  0.0000E+00  0.1550E+00  0.1540E+00
     -6.792  0.0000E+00  0.5952E-13  0.1580E+00  0.1570E+00
     -6.751  0.0000E+00  0.0000E+00  0.1620E+00  0.1610E+00
     -6.709  0.1020E-04  0.0000E+00  0.1670E+00  0.1670E+00
     -6.668  0.0000E+00  0.0000E+00  0.1710E+00  0.1710E+00
     -6.626  0.0000E+00  0.0000E+00  0.1760E+00  0.1750E+00
     -6.584  0.0000E+00  0.0000E+00  0.1810E+00  0.1810E+00
     -6.543  0.0000E+00  0.0000E+00  0.1860E+00  0.1850E+00
     -6.501  0.0000E+00  0.0000E+00  0.1920E+00  0.1910E+00
     -6.460  0.0000E+00  0.0000E+00  0.1980E+00  0.1970E+00
     -6.418  0.0000E+00  0.2408E-01  0.2030E+00  0.2030E+00
     -6.377  0.0000E+00  0.0000E+00  0.2090E+00  0.2090E+00
     -6.335  0.0000E+00  0.0000E+00  0.2130E+00  0.2130E+00
     -6.294  0.0000E+00  0.0000E+00  0.2170E+00  0.2170E+00
     -6.252  0.0000E+00  0.0000E+00  0.2220E+00  0.2210E+00
     -6.211  0.0000E+00  0.0000E+00  0.2260E+00  0.2250E+00
     -6.169  0.0000E+00  0.0000E+00  0.2290E+00  0.2280E+00
     -6.128  0.0000E+00  0.0000E+00  0.2320E+00  0.2320E+00
     -6.086  0.0000E+00  0.0000E+00  0.2340E+00  0.2340E+00
     -6.045  0.0000E+00  0.0000E+00  0.2370E+00  0.2370E+00
     -6.003  0.0000E+00  0.0000E+00  0.2390E+00  0.2380E+00
     -5.962  0.0000E+00  0.0000E+00  0.2400E+00  0.2400E+00
     -5.920  0.0000E+00  0.0000E+00  0.2420E+00  0.2410E+00
     -5.879  0.0000E+00  0.0000E+00  0.2420E+00  0.2420E+00
     -5.837  0.0000E+00  0.0000E+00  0.2420E+00  0.2420E+00
     -5.795  0.0000E+00  0.0000E+00  0.2430E+00  0.2430E+00
     -5.754  0.0000E+00  0.0000E+00  0.2430E+00  0.2430E+00
     -5.712  0.0000E+00  0.0000E+00  0.2440E+00  0.2430E+00
     -5.671  0.0000E+00  0.0000E+00  0.2440E+00  0.2440E+00
     -5.629  0.0000E+00  0.0000E+00  0.2440E+00  0.2440E+00
     -5.588  0.0000E+00  0.0000E+00  0.2440E+00  0.2440E+00
     -5.546  0.0000E+00  0.0000E+00  0.2440E+00  0.2440E+00
     -5.505  0.0000E+00  0.0000E+00  0.2440E+00  0.2440E+00
     -5.463  0.0000E+00  0.0000E+00  0.2440E+00  0.2440E+00
     -5.422  0.0000E+00  0.0000E+00  0.2440E+00  0.2440E+00
     -5.380  0.0000E+00  0.0000E+00  0.2450E+00  0.2450E+00
     -5.339  0.0000E+00  0.0000E+00  0.2450E+00  0.2450E+00
     -5.297  0.0000E+00  0.0000E+00  0.2450E+00  0.2450E+00
     -5.256  0.0000E+00  0.0000E+00  0.2450E+00  0.2450E+00
     -5.214  0.0000E+00  0.0000E+00  0.2450E+00  0.2450E+00
     -5.173  0.0000E+00  0.0000E+00  0.2450E+00  0.2450E+00
     -5.131  0.0000E+00  0.0000E+00  0.2460E+00  0.2460E+00
     -5.090  0.0000E+00  0.0000E+00  0.2460E+00  0.2460E+00
     -5.048  0.0000E+00  0.0000E+00  0.2460E+00  0.2460E+00
     -5.006  0.2737E-08  0.0000E+00  0.2460E+00  0.2460E+00
     -4.965  0.0000E+00  0.0000E+00  0.2470E+00  0.2470E+00
     -4.923  0.0000E+00  0.0000E+00  0.2470E+00  0.2470E+00
     -4.882  0.0000E+00  0.0000E+00  0.2480E+00  0.2470E+00
     -4.840  0.0000E+00  0.0000E+00  0.2480E+00  0.2480E+00
     -4.799  0.0000E+00  0.0000E+00  0.2490E+00  0.2480E+00
     -4.757  0.0000E+00  0.0000E+00  0.2490E+00  0.2490E+00
     -4.716  0.0000E+00  0.0000E+00  0.2490E+00  0.2490E+00
     -4.674  0.0000E+00  0.0000E+00  0.2490E+00  0.2490E+00
     -4.633  0.0000E+00  0.0000E+00  0.2490E+00  0.2490E+00
     -4.591  0.0000E+00  0.0000E+00  0.2490E+00  0.2490E+00
     -4.550  0.0000E+00  0.0000E+00  0.2500E+00  0.2500E+00
     -4.508  0.0000E+00  0.0000E+00  0.2500E+00  0.2500E+00
     -4.467  0.0000E+00  0.0000E+00  0.2500E+00  0.2500E+00
     -4.425  0.0000E+00  0.0000E+00  0.2500E+00  0.2500E+00
     -4.384  0.0000E+00  0.0000E+00  0.2500E+00  0.2500E+00
     -4.342  0.0000E+00  0.0000E+00  0.2510E+00  0.2510E+00
     -4.301  0.0000E+00  0.0000E+00  0.2510E+00  0.2510E+00
     -4.259  0.0000E+00  0.0000E+00  0.2520E+00  0.2520E+00
     -4.217  0.0000E+00  0.0000E+00  0.2520E+00  0.2520E+00
     -4.176  0.0000E+00  0.0000E+00  0.2520E+00  0.2520E+00
     -4.134  0.0000E+00  0.0000E+00  0.2520E+00  0.2520E+00
     -4.093  0.0000E+00  0.0000E+00  0.2520E+00  0.2520E+00
     -4.051  0.0000E+00  0.0000E+00  0.2520E+00  0.2520E+00
     -4.010  0.0000E+00  0.0000E+00  0.2520E+00  0.2520E+00
     -3.968  0.0000E+00  0.0000E+00  0.2530E+00  0.2530E+00
     -3.927  0.0000E+00  0.0000E+00  0.2530E+00  0.2530E+00
     -3.885  0.0000E+00  0.0000E+00  0.2530E+00  0.2530E+00
     -3.844  0.0000E+00  0.0000E+00  0.2540E+00  0.2530E+00
     -3.802  0.0000E+00  0.0000E+00  0.2540E+00  0.2540E+00
     -3.761  0.0000E+00  0.0000E+00  0.2540E+00  0.2540E+00
     -3.719  0.0000E+00  0.0000E+00  0.2540E+00  0.2540E+00
     -3.678  0.2408E-01  0.0000E+00  0.2550E+00  0.2540E+00
     -3.636  0.0000E+00  0.0000E+00  0.2550E+00  0.2550E+00
     -3.595  0.0000E+00  0.0000E+00  0.2550E+00  0.2550E+00
     -3.553  0.0000E+00  0.0000E+00  0.2570E+00  0.2570E+00
     -3.512  0.0000E+00  0.0000E+00  0.2570E+00  0.2570E+00
     -3.470  0.0000E+00  0.0000E+00  0.2580E+00  0.2570E+00
     -3.428  0.0000E+00  0.0000E+00  0.2580E+00  0.2580E+00
     -3.387  0.0000E+00  0.0000E+00  0.2580E+00  0.2580E+00
     -3.345  0.0000E+00  0.0000E+00  0.2580E+00  0.2580E+00
     -3.304  0.0000E+00  0.0000E+00  0.2580E+00  0.2580E+00
     -3.262  0.0000E+00  0.0000E+00  0.2580E+00  0.2580E+00
     -3.221  0.0000E+00  0.0000E+00  0.2590E+00  0.2580E+00
     -3.179  0.0000E+00  0.0000E+00  0.2590E+00  0.2580E+00
     -3.138  0.0000E+00  0.0000E+00  0.2590E+00  0.2590E+00
     -3.096  0.0000E+00  0.0000E+00  0.2590E+00  0.2590E+00
     -3.055  0.0000E+00  0.0000E+00  0.2590E+00  0.2590E+00
     -3.013  0.0000E+00  0.0000E+00  0.2590E+00  0.2590E+00
     -2.972  0.0000E+00  0.0000E+00  0.2590E+00  0.2590E+00
     -2.930  0.0000E+00  0.0000E+00  0.2600E+00  0.2600E+00
     -2.889  0.0000E+00  0.0000E+00  0.2600E+00  0.2600E+00
     -2.847  0.0000E+00  0.0000E+00  0.2610E+00  0.2600E+00
     -2.806  0.0000E+00  0.0000E+00  0.2610E+00  0.2610E+00
     -2.764  0.0000E+00  0.0000E+00  0.2610E+00  0.2610E+00
     -2.723  0.0000E+00  0.0000E+00  0.2610E+00  0.2610E+00
     -2.681  0.0000E+00  0.0000E+00  0.2630E+00  0.2620E+00
     -2.639  0.0000E+00  0.0000E+00  0.2630E+00  0.2630E+00
     -2.598  0.0000E+00  0.0000E+00  0.2640E+00  0.2630E+00
     -2.556  0.0000E+00  0.0000E+00  0.2640E+00  0.2640E+00
     -2.515  0.0000E+00  0.0000E+00  0.2640E+00  0.2640E+00
     -2.473  0.0000E+00  0.0000E+00  0.2650E+00  0.2640E+00
     -2.432  0.0000E+00  0.0000E+00  0.2650E+00  0.2650E+00
     -2.390  0.0000E+00  0.0000E+00  0.2660E+00  0.2650E+00
     -2.349  0.0000E+00  0.0000E+00  0.2660E+00  0.2660E+00
     -2.307  0.0000E+00  0.0000E+00  0.2660E+00  0.2660E+00
     -2.266  0.0000E+00  0.0000E+00  0.2670E+00  0.2660E+00
     -2.224  0.0000E+00  0.0000E+00  0.2670E+00  0.2670E+00
     -2.183  0.0000E+00  0.0000E+00  0.2670E+00  0.2670E+00
     -2.141  0.0000E+00  0.0000E+00  0.2670E+00  0.2670E+00
     -2.100  0.0000E+00  0.0000E+00  0.2680E+00  0.2680E+00
     -2.058  0.0000E+00  0.0000E+00  0.2700E+00  0.2690E+00
     -2.017  0.0000E+00  0.0000E+00  0.2700E+00  0.2700E+00
     -1.975  0.0000E+00  0.0000E+00  0.2710E+00  0.2710E+00
     -1.934  0.0000E+00  0.0000E+00  0.2710E+00  0.2710E+00
     -1.892  0.0000E+00  0.0000E+00  0.2710E+00  0.2710E+00
     -1.850  0.0000E+00  0.0000E+00  0.2710E+00  0.2710E+00
     -1.809  0.0000E+00  0.0000E+00  0.2710E+00  0.2710E+00
     -1.767  0.0000E+00  0.0000E+00  0.2730E+00  0.2720E+00
     -1.726  0.0000E+00  0.0000E+00  0.2730E+00  0.2730E+00
     -1.684  0.0000E+00  0.0000E+00  0.2740E+00  0.2730E+00
     -1.643  0.0000E+00  0.0000E+00  0.2740E+00  0.2740E+00
     -1.601  0.0000E+00  0.0000E+00  0.2740E+00  0.2740E+00
     -1.560  0.0000E+00  0.0000E+00  0.2740E+00  0.2740E+00
     -1.518  0.0000E+00  0.0000E+00  0.2740E+00  0.2740E+00
     -1.477  0.0000E+00  0.0000E+00  0.2750E+00  0.2740E+00
     -1.435  0.0000E+00  0.0000E+00  0.2760E+00  0.2750E+00
     -1.394  0.0000E+00  0.0000E+00  0.2760E+00  0.2760E+00
     -1.352  0.0000E+00  0.0000E+00  0.2770E+00  0.2760E+00
     -1.311  0.0000E+00  0.0000E+00  0.2780E+00  0.2770E+00
     -1.269  0.0000E+00  0.0000E+00  0.2780E+00  0.2780E+00
     -1.228  0.0000E+00  0.0000E+00  0.2780E+00  0.2780E+00
     -1.186  0.0000E+00  0.0000E+00  0.2780E+00  0.2780E+00
     -1.145  0.0000E+00  0.0000E+00  0.2790E+00  0.2790E+00
     -1.103  0.0000E+00  0.0000E+00  0.2800E+00  0.2790E+00
     -1.061  0.0000E+00  0.0000E+00  0.2810E+00  0.2800E+00
     -1.020  0.0000E+00  0.0000E+00  0.2810E+00  0.2810E+00
     -0.978  0.0000E+00  0.0000E+00  0.2810E+00  0.2810E+00
     -0.937  0.0000E+00  0.0000E+00  0.2820E+00  0.2820E+00
     -0.895  0.0000E+00  0.0000E+00  0.2820E+00  0.2820E+00
     -0.854  0.0000E+00  0.0000E+00  0.2830E+00  0.2830E+00
     -0.812  0.0000E+00  0.0000E+00  0.2840E+00  0.2840E+00
     -0.771  0.0000E+00  0.0000E+00  0.2840E+00  0.2840E+00
     -0.729  0.0000E+00  0.0000E+00  0.2840E+00  0.2840E+00
     -0.688  0.0000E+00  0.0000E+00  0.2850E+00  0.2850E+00
     -0.646  0.0000E+00  0.0000E+00  0.2850E+00  0.2850E+00
     -0.605  0.0000E+00  0.0000E+00  0.2860E+00  0.2850E+00
     -0.563  0.0000E+00  0.0000E+00  0.2860E+00  0.2860E+00
     -0.522  0.0000E+00  0.0000E+00  0.2870E+00  0.2860E+00
     -0.480  0.0000E+00  0.0000E+00  0.2870E+00  0.2870E+00
     -0.439  0.0000E+00  0.0000E+00  0.2880E+00  0.2870E+00
     -0.397  0.0000E+00  0.0000E+00  0.2880E+00  0.2880E+00
     -0.356  0.0000E+00  0.0000E+00  0.2880E+00  0.2880E+00
     -0.314  0.0000E+00  0.0000E+00  0.2900E+00  0.2880E+00
     -0.272  0.0000E+00  0.0000E+00  0.2900E+00  0.2900E+00
     -0.231  0.0000E+00  0.0000E+00  0.2900E+00  0.2900E+00
     -0.189  0.0000E+00  0.0000E+00  0.2900E+00  0.2900E+00
     -0.148  0.0000E+00  0.0000E+00  0.2910E+00  0.2910E+00
     -0.106  0.0000E+00  0.0000E+00  0.2910E+00  0.2910E+00
     -0.065  0.0000E+00  0.0000E+00  0.2930E+00  0.2920E+00
     -0.023  0.0000E+00  0.0000E+00  0.2940E+00  0.2930E+00
      0.018  0.0000E+00  0.0000E+00  0.2940E+00  0.2940E+00
      0.060  0.0000E+00  0.0000E+00  0.2940E+00  0.2940E+00
      0.101  0.0000E+00  0.0000E+00  0.2940E+00  0.2940E+00
      0.143  0.0000E+00  0.0000E+00  0.2950E+00  0.2950E+00
      0.184  0.0000E+00  0.0000E+00  0.2960E+00  0.2950E+00
      0.226  0.0000E+00  0.0000E+00  0.2960E+00  0.2960E+00
      0.267  0.0000E+00  0.0000E+00  0.2970E+00  0.2970E+00
      0.309  0.0000E+00  0.0000E+00  0.2970E+00  0.2970E+00
      0.350  0.0000E+00  0.0000E+00  0.2970E+00  0.2970E+00
      0.392  0.0000E+00  0.0000E+00  0.2980E+00  0.2980E+00
      0.433  0.0000E+00  0.0000E+00  0.2990E+00  0.2980E+00
      0.475  0.0000E+00  0.0000E+00  0.2990E+00  0.2990E+00
      0.517  0.0000E+00  0.0000E+00  0.3000E+00  0.3000E+00
      0.558  0.0000E+00  0.0000E+00  0.3010E+00  0.3000E+00
      0.600  0.0000E+00  0.0000E+00  0.3010E+00  0.3010E+00
      0.641  0.0000E+00  0.0000E+00  0.3020E+00  0.3020E+00
      0.683  0.0000E+00  0.0000E+00  0.3020E+00  0.3020E+00
      0.724  0.0000E+00  0.0000E+00  0.3030E+00  0.3030E+00
      0.766  0.0000E+00  0.0000E+00  0.3040E+00  0.3040E+00
      0.807  0.0000E+00  0.0000E+00  0.3050E+00  0.3040E+00
      0.849  0.0000E+00  0.0000E+00  0.3060E+00  0.3060E+00
      0.890  0.0000E+00  0.2408E-01  0.3070E+00  0.3070E+00
      0.932  0.0000E+00  0.0000E+00  0.3070E+00  0.3070E+00
      0.973  0.0000E+00  0.0000E+00  0.3080E+00  0.3080E+00
      1.015  0.0000E+00  0.0000E+00  0.3100E+00  0.3100E+00
      1.056  0.0000E+00  0.0000E+00  0.3120E+00  0.3120E+00
      1.098  0.0000E+00  0.0000E+00  0.3140E+00  0.3140E+00
      1.139  0.0000E+00  0.0000E+00  0.3150E+00  0.3150E+00
      1.181  0.0000E+00  0.0000E+00  0.3180E+00  0.3180E+00
      1.222  0.0000E+00  0.0000E+00  0.3200E+00  0.3200E+00
      1.264  0.0000E+00  0.0000E+00  0.3210E+00  0.3210E+00
      1.306  0.0000E+00  0.0000E+00  0.3230E+00  0.3220E+00
      1.347  0.0000E+00  0.0000E+00  0.3240E+00  0.3230E+00
      1.389  0.0000E+00  0.0000E+00  0.3250E+00  0.3250E+00
      1.430  0.0000E+00  0.0000E+00  0.3270E+00  0.3270E+00
      1.472  0.4381E-10  0.0000E+00  0.3290E+00  0.3290E+00
      1.513  0.0000E+00  0.0000E+00  0.3320E+00  0.3310E+00
      1.555  0.0000E+00  0.0000E+00  0.3330E+00  0.3320E+00
      1.596  0.0000E+00  0.0000E+00  0.3360E+00  0.3350E+00
      1.638  0.0000E+00  0.0000E+00  0.3360E+00  0.3360E+00
      1.679  0.0000E+00  0.0000E+00  0.3360E+00  0.3360E+00
      1.721  0.0000E+00  0.0000E+00  0.3360E+00  0.3360E+00
      1.762  0.0000E+00  0.0000E+00  0.3360E+00  0.3360E+00
      1.804  0.0000E+00  0.0000E+00  0.3360E+00  0.3360E+00
      1.845  0.0000E+00  0.0000E+00  0.3360E+00  0.3360E+00
      1.887  0.0000E+00  0.0000E+00  0.3360E+00  0.3360E+00
      1.928  0.0000E+00  0.0000E+00  0.3360E+00  0.3360E+00
      1.970  0.0000E+00  0.0000E+00  0.3360E+00  0.3360E+00
      2.011  0.0000E+00  0.0000E+00  0.3360E+00  0.3360E+00
      2.053  0.0000E+00  0.0000E+00  0.3360E+00  0.3360E+00
      2.095  0.0000E+00  0.0000E+00  0.3360E+00  0.3360E+00
      2.136  0.0000E+00  0.0000E+00  0.3360E+00  0.3360E+00
      2.178  0.0000E+00  0.0000E+00  0.3360E+00  0.3360E+00
