13
Energy = -50.54832297 eV
Sb 16.251550548396843 11.79447583274697 11.34311634231675
Sb 14.460904822898476 12.1090893982523 13.578523251572236
Sb 14.813404995930648 12.917920883917681 9.173060471394578
Sb 12.230657349142957 13.481671530424965 12.429106054782068
Sb 12.086592050295483 12.421923525928241 9.795229509969404
Sb 14.595207359482243 9.603222878207994 12.212440130067941
Sb 12.443938315842455 9.649673624640744 10.331166316081646
Sb 8.241679202853513 12.165504169200114 9.62020712368788
Sb 8.192578176356408 13.136930810949103 12.321053837319912
Sb 10.302133014436665 11.804149424427354 13.723802173256098
Sb 10.48401758429891 9.273686789263696 12.383101086761242
Sb 8.405764268540603 9.414796864576 10.421640356950917
Sb 6.350220116813851 11.085602072753893 11.526201151127893
