10
Energy = -38.44386069 eV
Sb 11.326278498717688 7.138818704945974 10.169197056830624
Sb 11.602873853482134 8.307269177393827 7.557315846928192
Sb 12.277100961258842 9.837538872112605 9.893002666845577
Sb 9.37356347238752 9.563500791046778 6.313545914061541
Sb 8.82106643719275 7.2612502002723005 11.522255152666881
Sb 8.21362030483814 10.015415762396826 12.05915750537241
Sb 6.566148580671363 8.509342089678439 10.251068259439394
Sb 6.841991931413102 9.683059140332762 7.672669415854848
Sb 10.016672498423135 11.537789367245704 10.410501602681796
Sb 8.68874141816986 11.874073851129184 7.8793445358727325
