15
Energy = -57.08172532 eV
Sb 12.489222053014192 14.202954205888997 8.189254507597626
Sb 12.486134394867008 11.338011767782424 8.557973706449694
Sb 15.373929238998358 13.969133886234086 8.692549348709605
Sb 14.970271914965217 11.415533415148792 9.976675487117896
Sb 12.497942947661619 15.156148905936027 10.878914264596204
Sb 10.488789665557917 13.304405679234003 12.201204887308656
Sb 11.286677524059884 10.763075660430243 11.109260787987042
Sb 8.531959905772638 10.021628545511884 11.116428095553548
Sb 14.936437891156533 13.846291660393796 11.56596629831347
Sb 13.474001528644278 10.951483255094875 14.092409984094205
Sb 12.483781619619265 13.658452460985773 14.285316704693
Sb 8.507955794303104 11.340769100787435 13.473058868878754
Sb 11.082883266506451 9.868061540614852 15.321200527691136
Sb 13.31810635388303 10.70665091472682 16.99305899508344
Sb 11.087276390141275 12.472769490381054 16.562098025076512
