19
Energy = -72.24939926 eV
Sb 13.339909031755676 14.178188494524889 8.405568663787946
Sb 16.03503533700209 15.212271356684512 8.246023945996727
Sb 9.98276005939453 14.272025164372831 11.155761660890057
Sb 14.183214745259221 12.417400923387495 10.547626743941525
Sb 15.873069239741747 14.70042795513756 11.112485335957734
Sb 14.088667840728249 16.575095263004027 9.832710022495952
Sb 12.074386246177058 12.886231724759284 12.487737507943638
Sb 9.790814809600699 15.885982359529697 13.327987034141831
Sb 12.567493382899002 15.413469524040694 13.761756083608176
Sb 15.625972316473383 13.895186319460171 15.19021985623553
Sb 15.617694850746147 16.908536357436535 16.10062014827294
Sb 12.879216271768671 14.038881542460809 16.28812699924175
Sb 18.044349698010404 14.28374573890974 16.82660499756514
Sb 15.548562053279282 11.373009339173231 16.85206519337923
Sb 13.334898745372689 16.428964149335965 17.791160859182845
Sb 17.200698540740824 16.41495427914715 18.493155517087903
Sb 15.270045031316997 12.336416923403165 19.555700981880207
Sb 17.886918485897944 11.914562965251115 18.459341255126297
Sb 14.96776777404005 15.176124080185058 19.87682165346928
