18
Energy = -69.70724579 eV
Sb 14.38977255723493 12.995553487605363 18.701437869523183
Sb 16.245654297461957 13.778287413717853 16.667220459126536
Sb 13.117277892835705 15.499106575960797 19.328375701725694
Sb 15.606448858521933 11.526634046282934 15.002264299428862
Sb 11.791835310277708 13.59156669317296 17.6435558411748
Sb 14.478369797173768 17.303026990354006 17.541794314752604
Sb 15.347489860807626 12.919466336698987 12.50277529194691
Sb 14.836360095930027 15.75808605876 15.162108300703757
Sb 12.988154943232999 12.083024389496698 13.916958470148776
Sb 14.289305731708387 20.768885179627897 15.663486766916167
Sb 12.2312062487602 14.634618645860801 15.026692148326484
Sb 15.404996074413127 10.392048919924072 11.110714312212272
Sb 12.308218535956852 18.82617610912295 16.380878061107122
Sb 13.705032321657782 18.849902819528303 13.880700628840321
Sb 16.158296994866095 11.50459821534567 8.523827692415395
Sb 12.77222230299799 10.754124007284602 9.951659858786684
Sb 13.648501347438623 12.913419358429346 8.24529526499029
Sb 13.870951947807681 10.232325505224411 7.313870716336117
