14
Energy = -54.68419548 eV
Sb 14.827680836464449 8.759646677891823 11.283178468314734
Sb 14.416666681138135 6.37644866634443 9.740505878400104
Sb 14.682806708402781 8.915358263809706 8.421701156271155
Sb 12.240839161216508 9.275721457488958 12.37278487495128
Sb 12.210678137184084 7.475188322724769 8.266831693221082
Sb 12.315172740949587 12.069836151419059 11.630407687526523
Sb 10.256570609094862 12.579895241406494 13.53586483988147
Sb 10.477222052497185 8.725046777359251 10.173375083366862
Sb 10.922568282446484 11.390922222534018 9.171647418370549
Sb 9.330150717869246 15.159588797320689 12.705743753959528
Sb 7.939018296419854 11.23457104943938 12.521011409733095
Sb 7.98043676129342 14.708639420057473 10.218392365054648
Sb 8.172302284081534 11.887971795884942 9.744731642974854
Sb 6.709867647776274 13.92314607315403 12.695804644809293
