28
Energy = -109.63235899 eV
Sb 8.74392774997969 6.923418832814897 13.42104389008189
Sb 9.369086021873327 9.47754964975141 14.600429076813136
Sb 10.661527236456635 6.33465294481989 11.360615134290798
Sb 8.032662988322969 7.364487923052315 10.663136460323557
Sb 13.895284585072805 9.051445780067125 14.87697902628533
Sb 7.3996786681727365 10.658781089139032 12.843935737645463
Sb 14.366479331050341 11.574910301339234 16.256043511141943
Sb 11.800567790155794 10.37073136135434 13.292752328661875
Sb 11.925871440260208 8.780696277652456 10.529453173815195
Sb 8.811021029754421 10.166713263178307 10.421230631290362
Sb 11.766643510728173 12.439727904072754 15.410680616116752
Sb 7.996769454393187 13.495398539512735 12.70115921478546
Sb 15.986087398887245 10.812401053074923 13.998040914310275
Sb 14.647712196836917 8.413418329674546 10.783283554027703
Sb 16.34364854237478 12.187136498291375 9.716183158380458
Sb 14.410993887589415 11.890853224752899 11.858385677878227
Sb 10.662695780597975 13.125648359576218 11.669242448557688
Sb 6.5085574610827 11.115697782911663 8.95706159830291
Sb 6.433484069234863 13.706199314850853 10.268811508293044
Sb 11.802591302020943 14.799301783427811 13.741441750711926
Sb 14.866554072299841 10.031865606829369 8.42835954074578
Sb 14.435958679405978 14.690252355808738 12.59099244424241
Sb 12.529224917657782 11.771311514437885 9.148201366548944
Sb 7.847078697156107 13.383244113949784 7.778076355130188
Sb 10.741844857187447 15.240017258012989 9.671836697426553
Sb 10.748483715285156 13.363345318699459 7.460812770363661
Sb 13.583041766806916 15.81292961205085 10.062404297227173
Sb 14.42482547331095 13.760166630850959 8.23170974055612
