23
Energy = -89.50413871 eV
Sb 13.640099021926108 7.881150116707773 9.107444828096794
Sb 12.874793400806729 6.805719522767187 11.712601678921274
Sb 9.580123012444208 9.655169248463023 6.904449015937863
Sb 10.087804929442877 7.439188068570203 11.378051381042544
Sb 11.33991917019245 9.682123095113889 9.324524037845123
Sb 15.392479836056738 9.419153783728401 10.848152126377894
Sb 8.252886506747956 12.103989497729428 7.545579681884849
Sb 13.696667542462398 9.181304963473362 13.171976102197167
Sb 7.029642200702461 9.605244795884092 8.234508852339436
Sb 13.029466971721478 11.810463858815297 8.107809615116631
Sb 9.391508715250085 7.82538409381628 14.159652751365815
Sb 14.940859783963104 12.21475924552416 10.156208807121299
Sb 11.513607862733325 10.879470404495818 12.233099063716033
Sb 9.643259703424512 12.702506624678978 10.109772627647871
Sb 8.064478120457823 9.83805288404308 10.963242961862028
Sb 13.409603076992289 13.090139517744602 12.422891540058293
Sb 7.1555820916802695 12.470825558396356 11.568848217823096
Sb 10.26162974326245 10.537124835224809 14.847442529556796
Sb 6.7756484702536355 8.871635177477321 13.381881611315896
Sb 12.604393318020483 14.694817085550618 8.16309684465674
Sb 10.174542020024468 15.442481319480542 9.498754835375607
Sb 7.587899264047936 11.506658185310416 14.340215658708358
Sb 12.678689342837718 15.468222222455873 10.94537933648411
