25
Energy = -96.82621608 eV
Sb 10.088097760256634 10.896736615756993 10.748255585672757
Sb 9.319783464978048 10.539135128598769 13.56055541446971
Sb 11.891444655404245 9.353372145308064 13.54466189965021
Sb 9.77720666631611 13.37787117232065 13.777724669687522
Sb 12.929167587303263 11.05969844784567 11.476509215014833
Sb 11.330472618739618 13.44199517269964 11.371143766480586
Sb 11.418059762801457 11.880948130242563 17.615758793044485
Sb 12.477266032500125 9.508538872783932 16.404509490121757
Sb 12.391983208193574 21.000276813503316 12.424341311893206
Sb 11.878734390535508 13.948043454686758 15.63852856789141
Sb 12.876380583072464 18.115376274541298 12.317801078607177
Sb 11.948538194124872 19.40574297256951 14.73970785868083
Sb 14.10662451600888 12.593625550021132 14.330554374216335
Sb 15.667638941506489 18.608286038123502 12.933150528780386
Sb 14.694247643644 14.961913472083157 12.779941363096112
Sb 15.618980274964343 16.542995316224403 14.978261313726916
Sb 14.182819224712278 11.15745294513538 18.047228648556278
Sb 14.459774151660145 20.806757316669334 14.422321381263199
Sb 15.558650727728125 13.320752750510602 16.69192501117369
Sb 16.713754407598472 11.08382904231855 13.148884515692306
Sb 16.95957417910023 13.502063926709832 11.667782318132252
Sb 18.496906923669687 16.393702501461707 14.91609200095404
Sb 17.733976742331947 11.652427940186227 15.764836621263143
Sb 19.31956941047729 14.777634403022768 12.694870209688398
Sb 19.63441205711539 13.783833985389593 15.36943520258614
