23
Energy = -88.63285576 eV
Sb 16.904666909228276 9.270943286296209 17.41130237333232
Sb 12.905744394491721 13.200775027703472 14.88595136741165
Sb 17.852110573055143 9.09903824723541 13.507656027138866
Sb 16.960303679445452 12.587116391207926 14.392379870318587
Sb 14.541822655609502 9.052501186957809 15.784691061112586
Sb 15.300858092729962 13.501918854966448 16.5518155801808
Sb 11.955022756515138 15.902499913004787 14.818431441947514
Sb 16.24285682794522 16.008122775212552 13.050549703455982
Sb 16.965898682757995 16.515983530026254 17.734668300712286
Sb 14.0558090584588 16.646023198775456 17.08158484050308
Sb 18.227502708645517 16.170563884916238 15.27716776267909
Sb 13.5058755066279 14.922478117632938 12.682926891007007
Sb 15.061204763545785 17.97710519228044 14.66880640408712
Sb 16.255024366624408 21.46080825873988 13.739910667689063
Sb 13.176949199468917 21.350415801405475 16.334531422812567
Sb 16.813033529641825 19.689594454958012 18.019801775941794
Sb 13.94934316938455 19.33833997941138 18.25672564805564
Sb 17.62519020006339 19.119809108582842 15.26691165983708
Sb 13.609681888398322 20.252961822174214 13.672167309868733
Sb 15.925003022167 22.26817031576201 16.424212072258186
Sb 14.680896609654681 11.010218853548876 17.87449078849804
Sb 18.71517445466958 10.7265412156713 15.709953344561791
Sb 15.308762343663187 10.466804610641564 13.392098055121473
