25
Energy = -96.5275348 eV
Sb 15.03073245462434 15.035025848318616 13.854608149312158
Sb 10.776017709381215 9.413586714614572 10.29945248216066
Sb 7.205261579756306 13.067202614950565 13.910295057737295
Sb 14.695146474846446 12.154898243078428 14.05177906193099
Sb 10.994473107957774 13.933860123496135 14.317559894954728
Sb 10.990457307735351 10.388012600769612 6.415428439657136
Sb 16.847748618093675 14.623238142021414 11.613035221162978
Sb 8.64944819762552 15.539304554015159 14.11851484578185
Sb 8.041782455235676 12.000273151480105 8.7486752655416
Sb 10.340772497343092 10.976497833956815 16.765463112105152
Sb 14.442118479799037 9.515031531736877 10.628897964716845
Sb 17.36123514014763 12.076813926246246 12.91160782943017
Sb 7.96980043937874 9.228327565740809 9.505419499012383
Sb 14.3543828867328 8.943386959702766 7.97691213000193
Sb 13.101205003432469 12.393444987794698 11.635748290036439
Sb 8.124425796376826 9.31295660813017 16.003308129986777
Sb 15.128632431566578 13.213363343802682 9.750977968200354
Sb 8.145514235627148 9.918290644641463 6.722406197465315
Sb 7.706243267235516 12.101800101083743 16.57495020833304
Sb 12.620408196324636 15.216559853344314 12.28974352124392
Sb 10.968160204322153 11.936134504396488 8.908266873300288
Sb 9.57926290543613 12.103722177364132 12.575557103478607
Sb 10.272327888639175 9.778673999391113 14.132240992503336
Sb 11.64479229772147 8.01924310988662 7.9013518060863195
Sb 16.885083830262573 10.985784265639053 10.263233361462172
