28
Energy = -108.98828077 eV
Sb 17.57218875577912 13.583905061772041 15.488826042549011
Sb 18.277204341759255 14.122655054725756 12.742498193944863
Sb 17.907556718227752 16.302542324376027 14.604528648717288
Sb 16.31380007124112 12.661590835770035 8.87702881065362
Sb 14.85666815570223 9.796900303269364 16.133843559102555
Sb 14.45864838167615 8.55563286203213 13.556088930604128
Sb 16.478699946256313 10.023984123611752 10.066609163243266
Sb 14.808464669488478 12.668909319719281 15.57423488997433
Sb 16.31843122868361 10.645250741247603 12.911390982054673
Sb 16.010945814268734 14.559241616492274 10.944310289854398
Sb 14.66396599883973 20.085664871844823 14.882605885724939
Sb 14.17877119829937 12.611622583071513 18.40007521483662
Sb 16.174213684271937 18.25223954802009 13.19305229979375
Sb 14.441513709929941 16.315698962947977 16.66314859142792
Sb 13.075434848183532 18.769241769725838 16.953598076968504
Sb 12.554433031920462 14.986080087178625 18.365869917829883
Sb 13.75516776748397 17.23678644543802 12.052459457547807
Sb 12.417854676157253 10.473784263322534 17.556401336908138
Sb 13.453625582907565 15.2958736665755 14.13988353543197
Sb 12.363456387561419 19.591923258296877 13.132503940112985
Sb 14.216171637930996 12.50623662238184 12.048653680809101
Sb 12.166536780822 9.385680494373355 11.986209583828515
Sb 13.7701845624475 10.880634057444862 9.69464045940299
Sb 10.738396471671871 18.47913093989888 15.270506777344384
Sb 10.253312804675032 14.309352374665206 16.742931937945464
Sb 10.612150661169435 11.652994389076985 15.649731833128804
Sb 11.439659223956392 11.929010406390397 12.90780715458536
Sb 10.664147003401599 15.766977701357657 14.319264776361267
