28
Energy = -108.46384226 eV
Sb 18.43613379306005 13.34625679247617 17.84101054386601
Sb 18.28066689519042 12.546440322209483 14.995411503146169
Sb 15.941677341765478 11.234652907368156 16.1690449878526
Sb 15.106574708562869 8.869962617272886 13.209986541360363
Sb 15.544543049797372 13.283941554623594 18.161459144471472
Sb 18.923093772166105 15.25784537990031 15.79767336707859
Sb 12.901171129874053 9.3117622180136 15.348926214423196
Sb 13.98300632945979 9.753704949901932 10.74661665922966
Sb 15.599972686606128 11.530397497742737 12.321181157698302
Sb 10.158997680143795 10.460914335715852 15.553267431053257
Sb 10.688076228806331 8.267399838692393 13.788349893862168
Sb 16.717497966189853 17.088589200593418 15.96510855456019
Sb 13.84873667458622 14.612021974582573 16.162830727372565
Sb 13.715812223388328 12.089083430558473 14.519597112143249
Sb 15.480359034613143 15.515985029697955 13.93428275892584
Sb 11.136379163165694 9.279998531603617 11.171995182690452
Sb 17.918548399054945 18.819816297248394 13.990903196490033
Sb 9.268509562800991 12.59290064072653 13.860859538443995
Sb 11.155770671436532 14.772887039907694 13.824944015320641
Sb 12.775262480657009 14.197226930054109 11.56281294069894
Sb 9.338613118030917 11.50968168579367 11.186866850596894
Sb 15.852219524733641 19.2751753402576 12.3503736960161
Sb 13.658744771750557 17.71542522084012 13.376310699924668
Sb 10.827173566195532 13.40165135497756 9.638526242036512
Sb 13.047254047192805 16.8958119704577 10.660819479188897
Sb 8.991135777523983 16.297009475173034 12.702806879202523
Sb 8.81351529276414 15.42059463285459 9.974220045366636
Sb 10.297729219228467 17.789394296349624 10.641319133245497
