23
Energy = -89.47783083 eV
Sb 13.485076625598973 6.921893993454574 9.845880966418006
Sb 11.814433452761564 7.101149226334701 12.233736110559315
Sb 14.293415770093915 9.562511880474384 9.212103972276312
Sb 13.493334420832122 9.018093745061858 13.523032541757411
Sb 12.986113232436264 10.936056808972456 11.43887441678556
Sb 10.186088511586517 9.249343860598694 11.093354303669747
Sb 12.01810440017409 10.281804522336984 7.180115748622013
Sb 11.452659700683045 10.197215113196515 15.239576278509533
Sb 11.026226401475531 7.932139766755269 8.429741698827264
Sb 14.257576573515685 13.059218432777557 12.99642803278911
Sb 10.833303225967406 12.016135805980172 9.340249567827751
Sb 9.005708042727619 9.514710692669237 13.818901970219654
Sb 8.085380396521787 7.929219255633646 7.672820839801268
Sb 11.912325233839246 13.04252807775223 14.688064018954123
Sb 8.847906229182389 10.374129207644755 6.548540851833011
Sb 8.141626778949936 12.467675273839141 8.354124521327632
Sb 10.328464547558394 12.872226890381427 12.294981417401626
Sb 7.484324213607673 8.419195325131833 10.459715215084513
Sb 13.439675686059562 15.362429134706456 11.376393854312692
Sb 11.856370899471303 14.785788753744471 9.04963149517256
Sb 7.7100470949057485 12.018932662701857 13.102524900783244
Sb 6.645567650771235 11.169640241065457 10.475149338227364
Sb 10.579149544011656 15.650839961518143 11.508936571571956
