20
Energy = -78.90247313 eV
Sb 10.438997695697752 16.183147094270353 17.838801535676694
Sb 10.606038472803283 18.670547318782653 16.328866617768334
Sb 13.02528736473858 15.411296389829673 16.81012275892334
Sb 13.183261079528869 17.868427541319125 15.300682758415695
Sb 8.90506254332159 16.533701036768665 15.43626754902424
Sb 11.894757932678168 13.505643820869718 15.04556868465477
Sb 12.111106308069765 17.280180962185252 12.741351503974435
Sb 14.348839101768766 15.7312889337704 11.835962428205345
Sb 14.243269694748712 13.272265908334804 13.402222711993684
Sb 10.317291894154241 15.157860774559461 13.34252626713706
Sb 13.854247572357089 9.794991761032232 12.804929839760137
Sb 12.770701084976444 13.476777248657461 10.952497254544275
Sb 15.929519604923717 10.147687264953571 10.890158003278144
Sb 14.66231894804524 12.17201445424059 9.205877947492205
Sb 11.504334444959872 9.973500320324051 11.17274151875885
Sb 13.7619400711032 6.869460736381348 12.761952813013497
Sb 11.366608937320237 7.057766240656512 11.137834172353172
Sb 12.562102285930948 10.262118618120965 8.535659778865844
Sb 14.887292827786625 8.610244212894399 8.705232709278604
Sb 13.853811186663474 6.247868413624793 9.977532198457528
