37
Energy = -143.95039005 eV
Sb 11.12971129372213 12.706294493561026 17.192006903581962
Sb 14.197035784337407 16.310909748030983 14.35393350337319
Sb 13.321447652675129 18.131780851697943 12.237751880480582
Sb 11.558372667236096 15.918196044004922 15.456833488135599
Sb 10.749836863782201 18.04913096193834 13.562028751526588
Sb 17.0505096650931 15.264655837423906 12.042669598717133
Sb 12.600103786684318 11.073390288736872 19.07662979699896
Sb 15.428717125421397 13.752786930960351 13.86013269942578
Sb 8.958339478329183 10.880647807802347 17.632296440592796
Sb 13.321347610124931 11.101321325603791 16.24144530588111
Sb 12.623623325872437 14.548420666400691 10.127727198635656
Sb 16.824728923326795 15.050690179037161 9.160839121580139
Sb 12.732196419606286 17.375344205040175 9.544227645063515
Sb 18.497466756941094 13.220819274267175 10.66545172879894
Sb 9.29841993331545 15.918953782787147 12.280633484394684
Sb 10.961688624443475 13.860244358325955 13.46968374316871
Sb 8.301209104910994 12.658223125622923 13.883825006896734
Sb 13.987366824328653 12.13147575482603 11.938607419831632
Sb 10.196747203173807 15.97875536594441 9.548065907106649
Sb 14.288867463166913 9.489780730235466 13.229900569153758
Sb 8.202772610639729 9.989018518158137 15.018812669835793
Sb 16.25346794561221 11.288572303189913 10.314692295903798
Sb 12.348422263055827 8.398503545840365 16.27276725243558
Sb 10.744439473516804 8.849316066970175 18.616464972100914
Sb 9.336765276036004 11.82061027893315 11.27419572452621
Sb 15.73141117860737 12.719077505418594 7.8369770473166565
Sb 11.876271521397143 11.025178029082936 9.17161058079179
Sb 12.90800522993058 13.236248190414376 7.565797508535284
Sb 7.845250740617179 13.128470701457259 9.116904363739037
Sb 11.590652605133366 9.35516848162741 12.222581777897515
Sb 10.226329901081407 8.008533820747322 14.401273796295975
Sb 9.338546293168463 11.168201963633173 7.6550275861070185
Sb 14.11509714809247 6.933659577473068 9.37030681336535
Sb 7.463577718318102 10.32879458372018 9.669716106541372
Sb 12.134280290568972 8.442633960158137 7.886667216391473
Sb 11.44185684364371 7.095708185515398 10.375397475547066
Sb 15.86551379066895 8.240879891993401 11.176513955905309
