38
Energy = -146.94355174 eV
Sb 19.44015407743985 13.278538525683492 9.084270962337808
Sb 13.360356571284994 19.61099724062327 13.347294729604183
Sb 13.670831769813855 16.246529596400592 8.870234826839006
Sb 17.502348977732755 15.23160485239455 10.0443281938049
Sb 11.25495785950425 14.829487932770283 9.619503735075634
Sb 15.602732935377174 17.238547940814385 12.968158872361961
Sb 18.081555853052386 15.555191342673394 12.828503150938653
Sb 17.64545359736999 12.77398929030624 13.24523136805135
Sb 16.670447831977334 12.564785146976554 9.296493637153413
Sb 12.744208335569551 18.3307884531007 15.818599577121343
Sb 18.62761820601789 11.283758391119276 10.971813151802406
Sb 18.13152043083934 11.581721238045976 15.829749075448596
Sb 11.933424229126718 17.455601883768793 12.243223972088042
Sb 11.31518690521378 17.708716390613077 9.404518346561256
Sb 13.858723450729459 15.215320712504937 11.833157784899141
Sb 14.873653588720506 16.232759176504615 15.600571789145006
Sb 8.870606872909319 12.089348931000645 9.964905143417722
Sb 14.83420262175345 12.11145794138343 13.661931166490682
Sb 15.581039950953489 12.951778842914775 16.39775895807311
Sb 14.906559345990592 7.234029998962071 11.16471589352219
Sb 8.675388774507837 14.415503796719857 8.238538183930402
Sb 13.460155421918085 9.705720993074195 11.032887646502555
Sb 12.663654804356492 14.516365693557539 14.763115780212676
Sb 14.54389510346458 10.358475208323313 17.347232101537134
Sb 16.059567069554685 9.703443090880425 14.942365083082905
Sb 9.516670886464501 10.265093693665811 12.982374393107335
Sb 8.249738005016757 14.652807464676364 11.094076354987552
Sb 13.049709908209872 7.922074078915166 13.23809215247532
Sb 6.24410282828993 12.577942457803696 11.01666338160925
Sb 12.10042349343538 7.212322161392028 10.624064226863302
Sb 10.678084385016817 16.560610730736393 14.76262335469656
Sb 9.55039634292326 12.93108428058704 14.096926693218972
Sb 12.29153051427079 10.675714032793755 15.570498558907888
Sb 8.670588322181 8.513443888263923 15.132544940152663
Sb 7.0194949758090335 11.54490619522063 13.664350740956033
Sb 11.029760976052177 8.344332010573236 16.774225595624937
Sb 10.345585340732008 12.403499164511873 16.82950340975111
Sb 8.796542216702859 10.022580010025331 17.545825847928665
