36
Energy = -140.68680959 eV
Sb 17.459751686626053 15.057069063522167 12.909244032224853
Sb 17.319217115590074 10.145224014458599 12.89185686195426
Sb 16.380913774937515 15.25766903364671 10.20519346568019
Sb 14.808459897148266 17.71004151369403 10.140691364316266
Sb 16.781899162557302 10.330846316035721 10.045360416233084
Sb 16.2025357926173 12.507224421777488 16.0601131264396
Sb 15.895559623479976 12.617349537547124 13.180610282031706
Sb 14.19122621371988 18.33240975095872 12.87476080268028
Sb 14.294339185682958 11.402680813165112 9.142125834690034
Sb 15.245962175064792 8.811295415310791 14.412405546996853
Sb 14.797675874180243 15.644872556804811 13.802056224819253
Sb 13.007965235583546 15.820334071837186 8.800298483722425
Sb 15.085822542939292 15.132481371420905 16.64342906960955
Sb 13.930878957578098 10.701379319363971 16.21671226756052
Sb 13.902955192403631 13.832582752588769 10.7091750744699
Sb 16.039966250138896 7.727079031900504 9.093114072397094
Sb 12.274624804399796 9.847776400073348 10.431984377358335
Sb 13.086035887896346 8.15607629619976 12.65992113240457
Sb 14.472669640476422 6.263373660378015 10.996704938526301
Sb 11.858219750107718 16.52237281541518 12.603539621906277
Sb 11.174480769581686 16.54553738580584 15.452327205500616
Sb 13.174029048090938 7.627783702835891 8.777680959464352
Sb 12.291530458032957 12.469912778307725 14.563780886877888
Sb 12.326076973988219 14.27259351618748 16.81518063649262
Sb 10.631140563227945 13.393466944366287 11.850691543517557
Sb 10.334195695721661 14.658299088634928 9.295201690494673
Sb 9.05418967778338 17.466736843164636 12.48221817039217
Sb 10.034940261778228 8.903727729256136 14.794053359862415
Sb 9.157307645256434 15.089704177480947 14.008354888100024
Sb 7.9560171313155745 15.964621821388414 10.256844602581932
Sb 9.214885340554606 8.446609289541762 12.082320919041816
Sb 9.569514666440964 11.640126388534803 15.492881631442877
Sb 7.870951295434068 13.095386170187124 11.031497860821405
Sb 7.446646006265042 7.739793461481474 14.264093434219799
Sb 7.256562504568698 12.28302488212698 13.823431932158083
Sb 6.713502829283911 9.82518729505325 12.432792913463178
