30
Energy = -117.67347196 eV
Sb 20.28240848297279 12.636648357326633 18.489858735235785
Sb 18.518117593489816 14.22135821347327 16.842894841566107
Sb 18.433287612419765 12.330769864071522 14.724240194275465
Sb 19.101795522776108 10.026858553345855 18.320014949591428
Sb 18.026884250123924 11.92766188291983 20.1955811257921
Sb 16.031051632975533 13.628521848980855 13.832091015741922
Sb 17.327485540869727 10.063298649190143 16.05326608849656
Sb 15.603441357040131 12.720078601378416 11.153885929410281
Sb 16.28429396998866 13.547134157992636 18.552921905432584
Sb 15.221669578373922 9.899892852030947 11.454687093944926
Sb 15.120202411342762 11.210075716376398 17.442640126300393
Sb 13.05217951221384 14.071837843023392 11.460882016663072
Sb 13.830270062665473 12.224954649370085 15.066216824800678
Sb 14.114784490748656 9.535167707767572 14.100123628127967
Sb 12.655183681902761 9.132635423146285 10.257241973318031
Sb 11.453558668783602 9.24606022236648 12.903898567463932
Sb 10.503191658009131 16.60951023393018 13.904409908297316
Sb 12.218667521192087 17.503929600218164 11.789163033859124
Sb 10.58792030394915 19.414206816441556 13.290933953655703
Sb 11.092847706674704 11.526949317353331 9.736485310844413
Sb 12.880282027384666 13.686030338345267 8.681400953187755
Sb 10.793766619469352 12.091189245568396 12.576987842196717
Sb 10.44757119233784 15.132528869484979 8.103209079012238
Sb 9.22716849839055 14.511105972438195 10.623863400312139
Sb 10.731908013323178 17.768307205585824 9.329697400733224
Sb 8.151189424827566 17.95654151240806 12.93128517630135
Sb 8.444276047844458 10.246431717298755 9.24225441147266
Sb 8.071315105528925 17.1261410747466 10.185634969686795
Sb 8.06801478089207 10.727099176164755 11.988153234087761
Sb 7.060087123505212 12.611894769271606 10.100896702207569
