38
Energy = -146.9659498 eV
Sb 12.534355624668237 8.941425055351766 18.38140846398415
Sb 13.003772085154548 11.99240184527606 18.28168927548202
Sb 12.287620251173424 14.794631056147063 17.138548839386857
Sb 11.365793336995724 11.415471359308611 15.942813352351036
Sb 13.650003439981974 18.4236467669006 15.997891983888813
Sb 11.650045848668103 8.553105467697682 15.735140841654134
Sb 9.01338733289307 14.100710820154768 15.262129423669386
Sb 14.79869188226506 16.154804129313348 17.363640356138944
Sb 7.783945484007649 11.639038628926313 14.339991630383548
Sb 16.716929883733883 12.586060924871006 15.624715361084336
Sb 15.165078028381446 10.077270398166613 17.791776472823386
Sb 8.90977065842176 9.36046857369678 12.922319727130322
Sb 14.641234944586941 8.949773468989115 15.173633444093547
Sb 14.03854307261146 11.679796258122092 14.461728058717199
Sb 11.791941876400708 14.222963761399908 14.421794879731943
Sb 15.21914387500688 19.117166545281492 13.70100718525085
Sb 6.106399309589954 12.594673782583413 12.248940027415115
Sb 7.340451604787631 15.354596157588626 13.278240084709275
Sb 12.87831115931889 17.335238924502406 13.465980208211258
Sb 16.74518988574253 15.449234250305107 15.411733145787169
Sb 18.347659284028268 11.991018501206439 13.354289316491554
Sb 15.52082799051336 16.34001439879956 12.952860545310497
Sb 10.355878644860741 12.814261994177233 11.583300937501425
Sb 9.17466926098549 15.414766902837346 11.155165106234689
Sb 14.0170124873687 10.323237580944328 11.887126679296422
Sb 7.895119870256856 12.971824649975776 10.009324243394833
Sb 13.656684768119451 14.411068487972688 10.40527634130653
Sb 15.545022835730617 15.86721023477874 8.68574835965883
Sb 6.518085301122741 9.571289332548073 11.380243846359601
Sb 16.6654600796094 9.661022886590343 12.822684404381313
Sb 17.852600829337568 15.848067566689753 10.48821347226429
Sb 16.683228779274845 13.382723739112345 11.467940078321167
Sb 8.969882032984144 10.079929806192151 10.133162908113116
Sb 11.510274141959442 13.090470773864139 8.913930569104515
Sb 14.072843193727747 11.781494485888482 9.371147754764792
Sb 16.771008805400644 13.739013400427273 7.137569315586834
Sb 17.770308249892018 11.958683491003955 9.153550287454408
Sb 19.30127585922076 14.279875591191649 8.421795071344045
