35
Energy = -135.21417164 eV
Sb 17.778100599517515 15.738555446334605 20.038320127106697
Sb 14.967387813746779 14.759931781834073 9.763237410395744
Sb 20.940582747393254 14.348416535409674 14.948480094863276
Sb 15.669055824540276 18.122718233771142 12.286252171840124
Sb 20.51158834717534 17.288814047936945 11.019091901271596
Sb 14.846561238869661 15.371364706164393 12.59662133419218
Sb 13.159748063115487 16.798805248873816 10.741869859130771
Sb 12.252694271649766 13.386093173538296 18.309190710124852
Sb 13.957533395872346 13.871739621419696 20.62036395602309
Sb 18.148370114924404 14.770104582213184 15.698631294964706
Sb 16.250592296015466 13.5928013965552 18.913454866858732
Sb 8.52919537586136 16.369459558431245 14.930131956745772
Sb 14.289790943149953 18.41973163383988 18.47459296227416
Sb 8.645311647088171 16.047087501349026 12.052044361509852
Sb 10.941374112890758 17.109524771346884 13.401296104893262
Sb 16.002962147631035 17.923182987941843 20.73338822055332
Sb 12.924830267540216 10.607075223552497 18.057782409869468
Sb 13.410333708008096 16.70988274653793 20.630898156978986
Sb 14.43700398846715 14.455300851469008 16.751266301071315
Sb 19.778233840840553 12.70119254891915 16.967436260088235
Sb 14.23479024181486 18.857667670924922 14.60839852587633
Sb 8.889230101860337 13.19408818809882 12.49854403405389
Sb 21.288621685921612 15.021334173508803 17.732245667533626
Sb 15.368406389921745 12.35087044273824 15.011339794936314
Sb 18.984244879732977 14.918966824157526 11.45943223655412
Sb 9.459203272761464 13.638168825540793 15.311690246726123
Sb 15.699170310125659 17.205744390486178 16.274046960217987
Sb 18.07599142061476 16.867381407753857 9.564235210811862
Sb 20.393604934460015 15.273236648806636 8.993829735594383
Sb 15.613553119817691 10.347431648215345 17.07968291041688
Sb 12.060476607598444 14.652394587525189 14.377841527742339
Sb 13.369423392114639 10.278604523962542 15.2362717542457
Sb 12.114798778873123 14.154554863865245 9.83009286261733
Sb 18.925551877273442 16.786473312413882 17.61470285902664
Sb 11.724567087850707 12.718032134782325 12.260418990821256
