39
Energy = -153.13124698 eV
Sb 13.473668211313722 16.975263524228623 10.076057008610645
Sb 16.075713164290963 14.013162076079432 9.47290569118415
Sb 14.219483098230782 14.659047049806945 11.581563810063995
Sb 17.890581837532867 15.996172942019225 10.580945852144298
Sb 16.06674115401696 18.238843114388143 10.326110266492726
Sb 11.803381379960296 18.16392298781893 12.117236491567581
Sb 10.323274025340485 14.577149806349574 12.321854142542463
Sb 12.042567862689875 13.15985670476116 10.535785649779704
Sb 13.478072027412873 20.295148788298917 13.149145291586292
Sb 16.225492983338395 19.416003446853118 12.929838245502324
Sb 17.401183134505473 14.484441750170111 13.04766337592796
Sb 12.778799644182682 10.716268606824434 11.90186884962852
Sb 20.07276878371388 14.925508049301822 14.008959280224433
Sb 17.473234208842758 12.181973544961984 11.250440940072433
Sb 12.306527223432662 16.143194256600363 14.150542659686428
Sb 9.226953248403134 12.456702375544113 13.782159474348086
Sb 16.03827062750635 17.184402864140583 14.752968721585697
Sb 15.535418345671763 10.611781378061572 12.76264821996661
Sb 12.944468050892413 19.053845508328628 15.691928716961456
Sb 11.41680922360457 10.73099679177862 14.424328560965566
Sb 12.444404530679817 13.033046325768039 15.884276976655544
Sb 9.948290895367293 16.591125441320493 15.749962644483613
Sb 19.78854796536805 13.60894958236594 16.63325234083982
Sb 15.748130355999526 12.164822607438962 15.214705263597393
Sb 18.36019179212143 11.064237212671438 15.836490976248644
Sb 17.08666861096245 14.6405782586101 16.965472123616827
Sb 18.986091787932544 17.53646409468005 14.80533771781208
Sb 14.821024671675524 10.060025267517945 16.966006618488898
Sb 9.767847436615163 13.84628793415198 16.620585524669202
Sb 15.637382541607602 19.390842348644608 16.597386640061814
Sb 12.831511109330284 11.610396601422023 18.373196993235865
Sb 19.627901271667813 16.64303498056506 17.460181611103643
Sb 17.279052627224946 10.442887994514606 18.4116332779222
Sb 11.109338299034421 16.04065713282504 18.339528190797218
Sb 13.836704951788416 15.688004046415035 17.525520649944113
Sb 15.042403096983854 17.925229801990298 18.99263735372106
Sb 17.5126951510596 16.513723559435636 19.382590659628814
Sb 17.013648113822818 13.208908104342708 19.43563757785705
Sb 14.160188984017388 13.802525567144082 19.73607803861575
