31
Energy = -120.5368499 eV
Sb 17.72791072982774 17.909800305142703 9.074555930487836
Sb 17.777040144690055 15.425996457816028 7.634844757899215
Sb 15.080308093702254 7.8145916091380165 15.918265657308828
Sb 17.206851736102035 11.531695764213621 14.096962277185451
Sb 17.219645015746075 9.610818070830959 16.254158658818763
Sb 14.707052946693684 11.137103363193154 12.728043304479826
Sb 16.128191118672188 13.59734592824287 9.112534723064012
Sb 19.97099307823148 16.129471923476828 9.34569539181993
Sb 12.895368823983983 13.268422209740693 13.531552593960543
Sb 14.436253039712998 15.691730466096953 10.13895835025615
Sb 13.315223179038886 9.01568508940996 14.043598324201271
Sb 12.267516301625793 13.893618195281936 10.79031878223819
Sb 17.136907222689437 13.482600895261886 16.270746828540545
Sb 16.19953498811908 11.51192840479009 18.19390010056593
Sb 18.286524716521022 16.679178625015954 11.604474736910984
Sb 10.49750739629852 11.680559256672398 13.25634966031556
Sb 16.43836865941032 14.475920865536358 11.802180035160678
Sb 12.332174284050037 9.683139454100454 16.659104870835566
Sb 14.605757264403936 16.74682371911538 14.29469492247356
Sb 13.312841543889556 12.066109616723898 17.903400595977477
Sb 9.722474808931306 10.87507974984311 15.879613628304615
Sb 14.384636647212336 14.331141485601663 16.198369231599045
Sb 10.494265235415753 15.930121592051439 11.746660344334252
Sb 8.771317434829559 14.006475232488203 13.177731207102962
Sb 11.918289371517414 17.38092567143933 13.852436761361211
Sb 11.401824815109276 15.391198494597988 15.94278229282344
Sb 14.32132729039453 18.293514968837727 16.798893775014093
Sb 10.171703932521574 13.14267673707716 17.532846352892935
Sb 14.689230798427078 16.05451010830606 18.570374619931496
Sb 8.576024531244443 14.993700078966919 15.914291133824005
Sb 12.078690919241236 17.136609964742487 18.188416124946695
