42
Energy = -163.04686319 eV
Sb 12.512132559813695 13.97412328369235 10.744697802586758
Sb 17.30922447846727 15.00608925435409 11.095830065391526
Sb 14.888277234956888 12.379931520692978 10.967633791185417
Sb 13.859006161546807 9.906931466183659 12.098515931066995
Sb 15.05632692167742 18.498104248418535 12.180785162183412
Sb 17.80998602172966 17.777579054064958 11.5556694215351
Sb 12.838058629334995 16.902626574241275 11.0822150688885
Sb 10.846518921345195 13.301616306967839 12.984944816346328
Sb 11.193659238428092 10.432892236997874 13.041607561204874
Sb 18.630974693974505 13.541524996171406 13.177319000875897
Sb 15.753490626942797 13.877184429253765 13.291821808137787
Sb 10.981669827989295 19.04043310882678 14.847963800927339
Sb 18.20026935253857 17.99893360352957 14.423478495850093
Sb 15.664831442926296 10.472021685550073 14.213416753586511
Sb 15.286109289209184 17.307133798536004 14.81100616483222
Sb 12.341974455610199 13.600027849803254 15.46304424692075
Sb 9.456180765076036 16.610525354812705 14.555331622951512
Sb 18.563393180391884 15.32919458364533 15.442228536717833
Sb 22.848190063014478 17.094094762307353 15.161759832017577
Sb 21.08392357850399 19.21935582619846 14.42903210706519
Sb 12.298830453851576 16.693473892593975 13.89910432439607
Sb 21.33296067979516 14.817462289407304 16.04319547368227
Sb 12.074482157916893 19.165468247172814 17.516699133058516
Sb 14.755137891722741 19.533071836496774 16.534414886055746
Sb 14.60132798524418 16.446807143468668 18.186988191801543
Sb 11.476861280454255 10.81320642193871 15.884685736064188
Sb 20.08653841233907 19.49159318389166 19.309006394838608
Sb 14.239370681217851 10.849365027955619 16.46097287808677
Sb 17.75066121406359 18.397644887574373 17.89080735408487
Sb 10.14767207759429 14.954598340790854 16.825645014246888
Sb 23.585087633463406 18.494705062708352 17.578782803278013
Sb 21.7944299985788 20.609950979913734 16.75173031985207
Sb 18.25140252865249 15.884942479098896 19.312689786336886
Sb 11.730711098390392 16.50820793443853 18.666902287606945
Sb 16.441436122094036 19.907738022453817 19.930074105440163
Sb 20.980271685041373 14.95537423631125 18.874338383117184
Sb 18.549221667641746 19.436017030280443 21.878321380995146
Sb 15.856029465215014 14.250576601586504 19.80338143229017
Sb 22.0156920932188 17.45067572956553 19.809272364749265
Sb 14.335779823243032 18.054758871134844 20.59058810950752
Sb 18.477654600941303 16.611831080780057 22.083004886295292
Sb 15.62275707889824 15.930720829244173 22.129606836998853
