45
Energy = -175.71526727 eV
Sb 13.237233865523093 17.10297268680284 9.842682773108168
Sb 12.513238916971003 14.408942121600337 10.526667306600094
Sb 15.87002133700315 17.74507976047062 10.819152377963249
Sb 15.125268356504563 13.484679705639874 11.232166102223523
Sb 13.199775634111878 18.451286310131586 12.425102802880694
Sb 17.124070257227977 15.478050225589946 11.98968295950145
Sb 13.789634247501505 16.20967026941974 14.200654350378649
Sb 11.326626530029214 15.346517083939561 13.00880947291661
Sb 19.083417271758297 12.181003734952611 13.530728722659383
Sb 10.107134325298148 17.935547554997896 12.775227703664962
Sb 18.431271888366833 19.4400754063489 13.131145043052307
Sb 16.379281050233296 21.389771728603122 13.526096393950407
Sb 14.441100783847682 11.521815531992244 13.23961246289993
Sb 16.604295061630065 12.44614441572644 14.944773590426452
Sb 10.416589430117348 13.361569063225138 14.887825940776864
Sb 20.711731106032992 10.663551767277363 15.436213266056766
Sb 19.09169212043067 18.39551026963707 15.798053054177725
Sb 16.811403366324434 17.35710136957256 14.274810511661743
Sb 21.886622894119366 13.185906554818468 16.19759613628024
Sb 18.039008319598018 23.292589810429604 14.820943564479148
Sb 19.704142546552266 14.703600237971793 14.936353486710551
Sb 9.888950046448882 18.172360545774634 15.519791755560725
Sb 17.199645785970997 19.694732797480516 17.528781163755088
Sb 13.247158722330925 13.099043801657716 15.39319870415581
Sb 15.015754094250951 20.177917787076307 15.728505957363927
Sb 10.457604221443193 15.199034188215792 17.115344078162078
Sb 16.58918932766851 9.893826699422346 16.282418088163713
Sb 21.552957045289002 13.538318978493384 19.065492319625577
Sb 15.769451989549289 0.5331355858747715 15.845844612368383
Sb 12.444207206372054 17.248553433592615 16.507096896930516
Sb 18.55371358858267 22.197332790203266 17.439400190902745
Sb 19.914294698806295 15.8831050129894 18.58398333929001
Sb 12.47999917564303 11.013731004801299 17.24503187028916
Sb 18.14024848374582 14.040618870103474 17.29109136759112
Sb 14.120357359694282 22.663818871112827 16.91467669585187
Sb 16.292271576760093 -0.5632775026953915 18.49486605726441
Sb 19.100643840425654 9.783589632070917 17.64122439598718
Sb 11.713541955407017 13.18473176133594 18.987570560445526
Sb 19.7245577444563 11.491654244807282 19.900538305737765
Sb 14.87061795590333 10.127173620614498 18.574323931604667
Sb 16.02802948665338 15.937034606051762 17.998573822908266
Sb 17.66198673539918 15.90169937317943 20.402971140508313
Sb 15.130941889558775 12.150841520402427 20.637745198184376
Sb 17.777608330681872 13.109255766213332 21.270314326289075
Sb 14.080820025357943 14.61648388478735 19.7350277942729
