4
Energy = -12.22851623 eV
Sb 10.781805611203117 13.349012923168635 13.674471817870876
Sb 14.607366455692322 9.291585110286215 6.526922111998502
Sb 9.808718551978568 14.950621855846798 15.340470789220717
Sb 13.855184369309521 10.877935334955671 8.317564030568066
