42
Energy = -162.90590633 eV
Sb 13.0059020702307 16.02407020939188 10.238453000577259
Sb 15.021550127588625 11.654533361514043 11.54665558409145
Sb 14.586893009346877 18.367779627941005 10.951222419336837
Sb 20.951227218266006 17.594068846511096 11.75184560627506
Sb 15.317435581481968 14.535598385432294 11.238719500706274
Sb 12.068342625818186 16.1032391839729 12.977004394281622
Sb 20.74591001265713 14.797544677729608 11.244073382186981
Sb 10.478737047580449 18.460375230826287 12.689002631654192
Sb 17.896090402945134 11.536407383969186 12.034455111697868
Sb 12.690616550642599 20.226397085223923 12.234634233280582
Sb 18.36047620198511 16.30199475540053 11.592595293566067
Sb 14.228617893451881 10.749500126225282 15.893516248288416
Sb 11.56519103011947 12.890088535601596 13.74776486899406
Sb 21.569213258773427 17.197389956065184 14.572953366925205
Sb 11.39510157830907 10.49359559741313 15.59136002318956
Sb 14.452322030711484 13.355955848646794 13.805158329854295
Sb 14.770462381982 17.176427452575048 13.627192593376023
Sb 20.41748810254926 14.549745088367514 14.436723836797624
Sb 9.934814066127299 18.64185956455887 15.487860027963197
Sb 19.008606075361495 18.19271818859576 15.391886772565398
Sb 17.392845307427585 12.314612679114585 14.813028155455529
Sb 15.41568591933167 8.395951461337951 14.786938752247199
Sb 17.968290777929386 9.544887220782979 14.159322141266863
Sb 19.088669368782888 16.90596470643657 17.963665860976473
Sb 11.115877744175842 14.69695506053355 15.940175157901763
Sb 20.528083556433533 14.369132492654979 17.362576055915216
Sb 10.870054323446151 12.354702060541753 17.714565855916256
Sb 17.770889314173917 15.750677077651208 14.441023799782313
Sb 14.254035847542337 19.813906664414898 14.629647606974437
Sb 10.199281736875815 21.544754471050556 15.907038083535507
Sb 15.571719956852176 13.21663694027325 17.82930421707268
Sb 19.458017919403243 11.732825260703452 16.733694473651497
Sb 12.539801575546445 18.687300508787224 16.664865148284996
Sb 13.217651193409194 12.535553271256216 19.369913407000976
Sb 15.565008081641608 8.875015618839935 17.659471389848896
Sb 13.720419394839201 15.935070726598894 16.718468354130415
Sb 16.35250917091911 17.26322012771807 18.341244747937154
Sb 9.27450271097038 21.43785938635321 18.583759681437225
Sb 17.325908342618217 11.027085298215708 18.60826396179475
Sb 11.956439223486521 21.37824441923982 18.200230658818512
Sb 15.947860334581382 15.064330107396179 20.072830953403837
Sb 13.111074319480208 15.415648719932202 19.55651769683477
