5
Energy = -18.36415657 eV
Sb 10.448832048203842 10.969227327225111 8.251154045983368
Sb 11.022521011151069 11.174248035025256 11.093213720588526
Sb 8.302481937220746 10.980656510288258 10.10707128881865
Sb 11.18153943316572 8.324866324496197 11.299154059363325
Sb 9.32052035422804 8.443100038253464 9.127107174866195
