52
Energy = -202.88774782 eV
Sb 12.573791774336652 12.509332470993678 5.336659667635328
Sb 15.022494393680335 9.184677636784688 7.854705170682832
Sb 10.041929896498427 11.697053494235913 6.452190083780028
Sb 11.082836755440972 14.336486593127526 7.018316655375016
Sb 14.934204036416965 11.91556563816969 6.857402517182665
Sb 12.391749282148936 8.221393309096648 7.337205228695403
Sb 14.545579261665493 15.567354845753753 8.952011152150309
Sb 11.059191885473954 10.425677929257324 8.811232114523218
Sb 14.287780343990107 11.366248601920129 9.610232932570318
Sb 10.504620548567905 16.787813941168483 9.48691530495157
Sb 8.211689256960824 11.488253832739202 9.832239649931307
Sb 9.406757300995254 8.10798916271343 9.42008178060001
Sb 8.019016385591279 14.706303313404856 9.727923771674071
Sb 17.093178823296206 11.781037098339468 10.23919893707701
Sb 16.652392283327217 15.394048090981634 10.976859446055196
Sb 8.37069618358256 18.23056194535 11.025386388141627
Sb 12.06196519152768 14.270968647203118 9.80419426195294
Sb 11.966501372972376 6.790281361294758 9.83862336638931
Sb 15.924237169797063 13.070843577015943 12.530057543799693
Sb 9.271264759579164 13.257607997773842 11.825577551269399
Sb 14.404140258224485 18.30894400988913 10.04369990380747
Sb 11.946247100630837 18.24428504903544 11.55190600159987
Sb 13.202106977273116 8.495101577477433 11.858682453856737
Sb 8.038537105618499 9.228938725719862 11.734530925019028
Sb 18.205943988571676 9.86021213051787 13.93696364159424
Sb 6.237400642237351 16.318136957184162 11.345646990739738
Sb 11.596849232354726 6.679294531094368 13.494250224827555
Sb 13.02799797912236 16.089558548022975 13.164507142025613
Sb 15.533301515252427 17.496090672517855 12.6019700054381
Sb 17.27693934986766 9.195281803976334 11.476261446288259
Sb 10.137199437728317 10.362246379111834 13.414998694191855
Sb 18.445249267504856 12.734249251999152 13.844324253072225
Sb 15.25966996653306 6.51121126053736 12.41460757238087
Sb 9.813615890502318 15.253751509366875 14.374579794785944
Sb 14.447624246125534 10.201465229835849 14.826287964875291
Sb 10.271763502636645 8.325353006396158 15.459337274716754
Sb 7.775042726424142 17.200480174617432 13.61760167539535
Sb 6.687464484648996 12.959624722316716 13.169621633943756
Sb 13.815458944905254 5.480104856707544 14.795675947925082
Sb 7.829377130346942 11.058054306926044 15.0246528347072
Sb 12.84555703998564 17.817303444123887 15.476746722974418
Sb 14.708365605769854 13.616675398726194 16.049685913605995
Sb 17.48667914975377 13.008142410163435 16.57598598613311
Sb 15.769265742809287 7.618897701351308 15.008413256173023
Sb 7.675391935591804 13.85660724941197 15.73173054785159
Sb 16.170804721337458 10.469513562373255 17.176126294352322
Sb 10.357604077121787 16.884955580815966 16.67396559184937
Sb 11.74718665895767 11.902125961056026 18.18893602209505
Sb 12.538694782351177 9.442609373440508 16.843845112510923
Sb 14.538255755920396 12.433627260037444 18.655113611137615
Sb 14.220190277111 16.107776446205822 17.411258840070733
Sb 11.737279033655089 14.898962854443246 18.290153628341805
