7
Energy = -25.33731428 eV
Sb 11.062558016469367 10.969853252185937 9.1554838273201
Sb 12.00906391106364 11.487921707179778 12.844597869737191
Sb 10.390844660638551 10.884409249355132 6.311108961279836
Sb 9.273742754550703 12.197239280417717 13.224361740673672
Sb 12.944338603169406 10.666539299582237 7.163466126441845
Sb 9.95630711841473 9.549467229725488 12.416144892271324
Sb 10.55805299279501 10.43947803865527 15.079744639377436
