7
Energy = -25.30043636 eV
Sb 9.878244176188085 11.694263651379018 13.788288075563125
Sb 11.975905378570175 12.080679403089427 15.682087777188077
Sb 10.889344285541712 9.474542869390497 15.264112155910167
Sb 12.50079241978145 10.694415574433622 13.239423335828096
Sb 11.634556343703817 12.968577168827057 7.414702980314738
Sb 12.342745039902159 13.814338579999006 9.910852173965639
Sb 14.37611898098443 12.89661213995089 8.343815050582814
