8
Energy = -29.06524169 eV
Sb 15.213335674352372 12.349045007051455 12.960736471115489
Sb 13.101039457733103 11.747136739588486 14.675324338324723
Sb 14.665262918759911 11.56351690123435 10.211878245725186
Sb 14.481758106060207 14.33974875520389 10.964812230395184
Sb 12.14647328359923 12.917110569925235 10.128677273690856
Sb 11.17804541496015 12.130429195328182 12.713042419543722
Sb 8.904842831141393 10.473326232222282 12.841801227086387
Sb 8.672767590885174 13.09158048043578 13.57078220263915
