<?xml version="1.0" encoding="ISO-8859-1"?>
<modeling>
 <generator>
  <i name="program" type="string">vasp </i>
  <i name="version" type="string">5.3.5  </i>
  <i name="subversion" type="string">31Mar14 (build Feb 01 2018 12:10:03) gamma-only                       parallel </i>
  <i name="platform" type="string">LinuxIFC </i>
  <i name="date" type="string">2019 03 22 </i>
  <i name="time" type="string">06:05:40 </i>
 </generator>
 <incar>
  <i type="string" name="PREC">normal</i>
  <i type="int" name="ISPIN">     2</i>
  <i type="int" name="IBRION">     2</i>
  <i type="int" name="NSW">  1000</i>
  <i type="int" name="ISIF">     2</i>
  <i name="POTIM">      0.10000000</i>
  <i type="logical" name="LPLANE"> T  </i>
  <i type="int" name="ISMEAR">     0</i>
  <i name="SIGMA">      0.00010000</i>
  <i type="logical" name="LWAVE"> F  </i>
  <i type="logical" name="LCHARG"> F  </i>
  <i type="logical" name="LVTOT"> F  </i>
  <i type="string" name="GGA"> PE</i>
 </incar>
 <kpoints>
  <varray name="kpointlist" >
   <v>       0.00000000       0.00000000       0.00000000 </v>
  </varray>
  <varray name="weights" >
   <v>       1.00000000 </v>
  </varray>
 </kpoints>
 <parameters>
  <separator name="general" >
   <i type="string" name="SYSTEM">unknown system</i>
   <i type="logical" name="LCOMPAT"> F  </i>
  </separator>
  <separator name="electronic" >
   <i type="string" name="PREC">normal</i>
   <i name="ENMAX">    249.84400000</i>
   <i name="ENAUG">    412.49600000</i>
   <i name="EDIFF">      0.00010000</i>
   <i type="int" name="IALGO">    38</i>
   <i type="int" name="IWAVPR">    11</i>
   <i type="int" name="NBANDS">   180</i>
   <i name="NELECT">    275.00000000</i>
   <i type="int" name="TURBO">     0</i>
   <i type="int" name="IRESTART">     0</i>
   <i type="int" name="NREBOOT">     0</i>
   <i type="int" name="NMIN">     0</i>
   <i name="EREF">      0.00000000</i>
   <separator name="electronic smearing" >
    <i type="int" name="ISMEAR">     0</i>
    <i name="SIGMA">      0.00010000</i>
    <i name="KSPACING">      0.50000000</i>
    <i type="logical" name="KGAMMA"> T  </i>
   </separator>
   <separator name="electronic projectors" >
    <i type="logical" name="LREAL"> F  </i>
    <v name="ROPT">      0.00000000</v>
    <i type="int" name="LMAXPAW">  -100</i>
    <i type="int" name="LMAXMIX">     2</i>
    <i type="logical" name="NLSPLINE"> F  </i>
   </separator>
   <separator name="electronic startup" >
    <i type="int" name="ISTART">     0</i>
    <i type="int" name="ICHARG">     2</i>
    <i type="int" name="INIWAV">     1</i>
   </separator>
   <separator name="electronic spin" >
    <i type="int" name="ISPIN">     2</i>
    <i type="logical" name="LNONCOLLINEAR"> F  </i>
    <v name="MAGMOM">      1.00000000      1.00000000      1.00000000      1.00000000      1.00000000      1.00000000      1.00000000      1.00000000      1.00000000      1.00000000      1.00000000      1.00000000      1.00000000      1.00000000      1.00000000      1.00000000      1.00000000      1.00000000      1.00000000      1.00000000
      1.00000000      1.00000000      1.00000000      1.00000000      1.00000000</v>
    <i name="NUPDOWN">     -1.00000000</i>
    <i type="logical" name="LSORBIT"> F  </i>
    <v name="SAXIS">      0.00000000      0.00000000      1.00000000</v>
    <i type="logical" name="LSPIRAL"> F  </i>
    <v name="QSPIRAL">      0.00000000      0.00000000      0.00000000</v>
    <i type="logical" name="LZEROZ"> F  </i>
   </separator>
   <separator name="electronic exchange-correlation" >
    <i type="logical" name="LASPH"> F  </i>
    <i type="logical" name="LMETAGGA"> F  </i>
   </separator>
   <separator name="electronic convergence" >
    <i type="int" name="NELM">    60</i>
    <i type="int" name="NELMDL">    -5</i>
    <i type="int" name="NELMIN">     2</i>
    <i name="ENINI">    249.84400000</i>
    <separator name="electronic convergence detail" >
     <i type="logical" name="LDIAG"> T  </i>
     <i type="logical" name="LSUBROT"> F  </i>
     <i name="WEIMIN">      0.00100000</i>
     <i name="EBREAK">      0.00000014</i>
     <i name="DEPER">      0.30000000</i>
     <i type="int" name="NRMM">     4</i>
     <i name="TIME">      0.40000000</i>
    </separator>
   </separator>
   <separator name="electronic mixer" >
    <i name="AMIX">      0.40000000</i>
    <i name="BMIX">      1.00000000</i>
    <i name="AMIN">      0.10000000</i>
    <i name="AMIX_MAG">      1.60000000</i>
    <i name="BMIX_MAG">      1.00000000</i>
    <separator name="electronic mixer details" >
     <i type="int" name="IMIX">     4</i>
     <i type="int" name="MAXMIX">   -45</i>
     <i name="WC">    100.00000000</i>
     <i type="int" name="INIMIX">     1</i>
     <i type="int" name="MIXPRE">     1</i>
     <i type="int" name="MREMOVE">     5</i>
    </separator>
   </separator>
   <separator name="electronic dipolcorrection" >
    <i type="logical" name="LDIPOL"> F  </i>
    <i type="logical" name="LMONO"> F  </i>
    <i type="int" name="IDIPOL">     0</i>
    <i name="EPSILON">      1.00000000</i>
    <v name="DIPOL">   -100.00000000   -100.00000000   -100.00000000</v>
    <i name="EFIELD">      0.00000000</i>
   </separator>
  </separator>
  <separator name="grids" >
   <i type="int" name="NGX">    80</i>
   <i type="int" name="NGY">    80</i>
   <i type="int" name="NGZ">    80</i>
   <i type="int" name="NGXF">   160</i>
   <i type="int" name="NGYF">   160</i>
   <i type="int" name="NGZF">   160</i>
   <i type="logical" name="ADDGRID"> F  </i>
  </separator>
  <separator name="ionic" >
   <i type="int" name="NSW">  1000</i>
   <i type="int" name="IBRION">     2</i>
   <i type="int" name="ISIF">     2</i>
   <i name="PSTRESS">      0.00000000</i>
   <i name="EDIFFG">      0.00100000</i>
   <i type="int" name="NFREE">     1</i>
   <i name="POTIM">      0.10000000</i>
   <i name="SMASS">     -3.00000000</i>
   <i name="SCALEE">      1.00000000</i>
  </separator>
  <separator name="ionic md" >
   <i name="TEBEG">      0.00010000</i>
   <i name="TEEND">      0.00010000</i>
   <i type="int" name="NBLOCK">     1</i>
   <i type="int" name="KBLOCK">  1000</i>
   <i type="int" name="NPACO">   256</i>
   <i name="APACO">     16.00000000</i>
  </separator>
  <separator name="symmetry" >
   <i type="int" name="ISYM">     2</i>
   <i name="SYMPREC">      0.00001000</i>
  </separator>
  <separator name="dos" >
   <i type="logical" name="LORBIT"> F  </i>
   <v name="RWIGS">     -1.00000000</v>
   <i type="int" name="NEDOS">   301</i>
   <i name="EMIN">     10.00000000</i>
   <i name="EMAX">    -10.00000000</i>
   <i name="EFERMI">      0.00000000</i>
  </separator>
  <separator name="writing" >
   <i type="int" name="NWRITE">     2</i>
   <i type="logical" name="LWAVE"> F  </i>
   <i type="logical" name="LCHARG"> F  </i>
   <i type="logical" name="LPARD"> F  </i>
   <i type="logical" name="LVTOT"> F  </i>
   <i type="logical" name="LVHAR"> F  </i>
   <i type="logical" name="LELF"> F  </i>
   <i type="logical" name="LOPTICS"> F  </i>
   <v name="STM">      0.00000000      0.00000000      0.00000000      0.00000000      0.00000000      0.00000000      0.00000000</v>
  </separator>
  <separator name="performance" >
   <i type="int" name="NPAR">     4</i>
   <i type="int" name="NSIM">     4</i>
   <i type="int" name="NBLK">    -1</i>
   <i type="logical" name="LPLANE"> T  </i>
   <i type="logical" name="LSCALAPACK"> T  </i>
   <i type="logical" name="LSCAAWARE"> F  </i>
   <i type="logical" name="LSCALU"> F  </i>
   <i type="logical" name="LASYNC"> F  </i>
   <i type="logical" name="LORBITALREAL"> F  </i>
  </separator>
  <separator name="miscellaneous" >
   <i type="int" name="IDIOT">     3</i>
   <i type="logical" name="LMUSIC"> F  </i>
   <v name="POMASS">    107.86800000</v>
   <v name="DARWINR">      0.00000000</v>
   <v name="DARWINV">      1.00000000</v>
   <i type="logical" name="LCORR"> T  </i>
  </separator>
  <i type="logical" name="GGA_COMPAT"> T  </i>
  <i type="logical" name="LBERRY"> F  </i>
  <i type="int" name="ICORELEVEL">     0</i>
  <i type="logical" name="LDAU"> F  </i>
  <i type="int" name="I_CONSTRAINED_M">     0</i>
  <separator name="electronic exchange-correlation" >
   <i type="string" name="GGA">PE</i>
   <i type="int" name="VOSKOWN">     0</i>
   <i type="logical" name="LHFCALC"> F  </i>
   <i type="string" name="PRECFOCK"></i>
   <i type="logical" name="LSYMGRAD"> F  </i>
   <i type="logical" name="LHFONE"> F  </i>
   <i type="logical" name="LRHFCALC"> F  </i>
   <i type="logical" name="LTHOMAS"> F  </i>
   <i type="logical" name="LMODELHF"> F  </i>
   <i name="ENCUT4O">     -1.00000000</i>
   <i type="int" name="EXXOEP">     0</i>
   <i type="int" name="FOURORBIT">     0</i>
   <i name="AEXX">      0.00000000</i>
   <i name="HFALPHA">      0.00000000</i>
   <i name="MCALPHA">      0.00000000</i>
   <i name="ALDAX">      1.00000000</i>
   <i name="AGGAX">      1.00000000</i>
   <i name="ALDAC">      1.00000000</i>
   <i name="AGGAC">      1.00000000</i>
   <i type="int" name="NKREDX">     1</i>
   <i type="int" name="NKREDY">     1</i>
   <i type="int" name="NKREDZ">     1</i>
   <i type="logical" name="SHIFTRED"> F  </i>
   <i type="logical" name="ODDONLY"> F  </i>
   <i type="logical" name="EVENONLY"> F  </i>
   <i type="int" name="LMAXFOCK">     0</i>
   <i type="int" name="NMAXFOCKAE">     0</i>
   <i type="logical" name="LFOCKAEDFT"> F  </i>
   <i name="HFSCREEN">      0.00000000</i>
   <i name="HFSCREENC">      0.00000000</i>
   <i type="int" name="NBANDSGWLOW">     0</i>
  </separator>
  <separator name="vdW DFT" >
   <i type="logical" name="LUSE_VDW"> F  </i>
   <i name="Zab_VDW">     -0.84910000</i>
   <i name="PARAM1">      0.12340000</i>
   <i name="PARAM2">      1.00000000</i>
   <i name="PARAM3">      0.00000000</i>
  </separator>
  <separator name="model GW" >
   <i type="int" name="MODEL_GW">     0</i>
   <i name="MODEL_EPS0">    214.04679192</i>
   <i name="MODEL_ALPHA">      1.00000000</i>
  </separator>
  <separator name="linear response parameters" >
   <i type="logical" name="LEPSILON"> F  </i>
   <i type="logical" name="LRPA"> F  </i>
   <i type="logical" name="LNABLA"> F  </i>
   <i type="logical" name="LVEL"> F  </i>
   <i type="int" name="KINTER">     0</i>
   <i name="CSHIFT">      0.10000000</i>
   <i name="OMEGAMAX">     -1.00000000</i>
   <i name="DEG_THRESHOLD">      0.00200000</i>
  </separator>
  <separator name="orbital magnetization" >
   <i type="logical" name="NUCIND"> F  </i>
   <v name="MAGPOS">      0.00000000      0.00000000      0.00000000</v>
   <i type="logical" name="LNICSALL"> T  </i>
   <i type="logical" name="ORBITALMAG"> F  </i>
   <i type="logical" name="LMAGBLOCH"> F  </i>
   <i type="logical" name="LCHIMAG"> F  </i>
   <i type="logical" name="LGAUGE"> T  </i>
   <i type="int" name="MAGATOM">     0</i>
   <v name="MAGDIPOL">      0.00000000      0.00000000      0.00000000</v>
   <v name="AVECCONST">      0.00000000      0.00000000      0.00000000</v>
  </separator>
  <separator name="response functions" >
   <i type="logical" name="LADDER"> F  </i>
   <i type="logical" name="LFXC"> F  </i>
   <i type="logical" name="LHARTREE"> T  </i>
   <i type="int" name="IBSE">     0</i>
   <i type="logical" name="LTCTE"> F  </i>
   <i type="logical" name="LTETE"> F  </i>
   <i type="logical" name="LTRIPLET"> F  </i>
   <i type="logical" name="LFXCEPS"> F  </i>
   <i type="logical" name="LFXHEG"> F  </i>
   <i type="logical" name="L2ORDER"> F  </i>
   <i type="logical" name="LUSEW"> F  </i>
   <i name="ENCUTGW">     -2.00000000</i>
   <i name="ENCUTGWSOFT">     -2.00000000</i>
   <i name="ENCUTLF">     -1.00000000</i>
   <i type="int" name="LMAXMP2">    -1</i>
   <i name="SCISSOR">      0.00000000</i>
   <i type="int" name="NOMEGA">     0</i>
   <i type="int" name="NOMEGAR">     0</i>
   <i type="int" name="NBANDSGW">    -1</i>
   <i type="int" name="NBANDSO">    -1</i>
   <i type="int" name="NBANDSV">    -1</i>
   <i type="int" name="NELM">     1</i>
   <i type="int" name="DIM">     3</i>
   <i type="int" name="ANTIRES">     0</i>
   <i name="OMEGAMAX">    -30.00000000</i>
   <i name="OMEGAMIN">    -30.00000000</i>
   <i name="OMEGATL">   -200.00000000</i>
   <i type="int" name="OMEGAGRID">     0</i>
   <i name="CSHIFT">     -0.10000000</i>
   <i type="logical" name="SELFENERGY"> F  </i>
   <i type="logical" name="LSPECTRAL"> F  </i>
   <i type="logical" name="ODDONLYGW"> F  </i>
   <i type="logical" name="EVENONLYGW"> F  </i>
   <i type="int" name="NKREDLFX">     1</i>
   <i type="int" name="NKREDLFY">     1</i>
   <i type="int" name="NKREDLFZ">     1</i>
   <i type="int" name="MAXMEM">  1800</i>
   <i type="int" name="TELESCOPE">     0</i>
   <i type="int" name="TAUPAR">     1</i>
  </separator>
  <separator name="External order field" >
   <i name="OFIELD_KAPPA">      0.00000000</i>
   <v name="OFIELD_K">      0.00000000      0.00000000      0.00000000</v>
   <i name="OFIELD_Q6_NEAR">      0.00000000</i>
   <i name="OFIELD_Q6_FAR">      0.00000000</i>
   <i name="OFIELD_A">      0.00000000</i>
  </separator>
 </parameters>
 <atominfo>
  <atoms>      25 </atoms>
  <types>       1 </types>
  <array name="atoms" >
   <dimension dim="1">ion</dimension>
   <field type="string">element</field>
   <field type="int">atomtype</field>
   <set>
    <rc><c>Ag</c><c>   1</c></rc>
    <rc><c>Ag</c><c>   1</c></rc>
    <rc><c>Ag</c><c>   1</c></rc>
    <rc><c>Ag</c><c>   1</c></rc>
    <rc><c>Ag</c><c>   1</c></rc>
    <rc><c>Ag</c><c>   1</c></rc>
    <rc><c>Ag</c><c>   1</c></rc>
    <rc><c>Ag</c><c>   1</c></rc>
    <rc><c>Ag</c><c>   1</c></rc>
    <rc><c>Ag</c><c>   1</c></rc>
    <rc><c>Ag</c><c>   1</c></rc>
    <rc><c>Ag</c><c>   1</c></rc>
    <rc><c>Ag</c><c>   1</c></rc>
    <rc><c>Ag</c><c>   1</c></rc>
    <rc><c>Ag</c><c>   1</c></rc>
    <rc><c>Ag</c><c>   1</c></rc>
    <rc><c>Ag</c><c>   1</c></rc>
    <rc><c>Ag</c><c>   1</c></rc>
    <rc><c>Ag</c><c>   1</c></rc>
    <rc><c>Ag</c><c>   1</c></rc>
    <rc><c>Ag</c><c>   1</c></rc>
    <rc><c>Ag</c><c>   1</c></rc>
    <rc><c>Ag</c><c>   1</c></rc>
    <rc><c>Ag</c><c>   1</c></rc>
    <rc><c>Ag</c><c>   1</c></rc>
   </set>
  </array>
  <array name="atomtypes" >
   <dimension dim="1">type</dimension>
   <field type="int">atomspertype</field>
   <field type="string">element</field>
   <field>mass</field>
   <field>valence</field>
   <field type="string">pseudopotential</field>
   <set>
    <rc><c>  25</c><c>Ag</c><c>    107.86800000</c><c>     11.00000000</c><c>  PAW_PBE Ag 02Apr2005                  </c></rc>
   </set>
  </array>
 </atominfo>
 <structure name="initialpos" >
  <crystal>
   <varray name="basis" >
    <v>      20.73795020       0.00000000       0.00000000 </v>
    <v>       0.00000000      20.73795020       0.00000000 </v>
    <v>       0.00000000       0.00000000      20.73795020 </v>
   </varray>
   <i name="volume">   8918.61633006 </i>
   <varray name="rec_basis" >
    <v>       0.04822077       0.00000000       0.00000000 </v>
    <v>       0.00000000       0.04822077       0.00000000 </v>
    <v>       0.00000000       0.00000000       0.04822077 </v>
   </varray>
  </crystal>
  <varray name="positions" >
   <v>       0.64276508       0.66051496       0.38380433 </v>
   <v>       0.51861356       0.48971539       0.46049811 </v>
   <v>       0.51683136       0.62275049       0.42296456 </v>
   <v>       0.72901628       0.65165744       0.49340149 </v>
   <v>       0.59454448       0.70142272       0.49903995 </v>
   <v>       0.52731350       0.35512907       0.47765808 </v>
   <v>       0.41003312       0.42340975       0.49630677 </v>
   <v>       0.63555555       0.31418016       0.54568473 </v>
   <v>       0.40740039       0.56500588       0.47597403 </v>
   <v>       0.62920164       0.56790044       0.47923348 </v>
   <v>       0.45301252       0.68544776       0.52341700 </v>
   <v>       0.63161183       0.44017960       0.51537505 </v>
   <v>       0.73028589       0.53142184       0.56273263 </v>
   <v>       0.52539540       0.58054546       0.56896225 </v>
   <v>       0.70498739       0.40716631       0.61797017 </v>
   <v>       0.40832488       0.51430811       0.59767418 </v>
   <v>       0.51505757       0.42949959       0.58811429 </v>
   <v>       0.54229379       0.72171800       0.61566335 </v>
   <v>       0.66056939       0.64303638       0.60737623 </v>
   <v>       0.44362630       0.63891100       0.65966215 </v>
   <v>       0.62277145       0.51209719       0.63782841 </v>
   <v>       0.50103962       0.51545737       0.69223624 </v>
   <v>       0.63932458       0.74200823       0.70170198 </v>
   <v>       0.57463186       0.62339187       0.70811289 </v>
   <v>       0.50710717       0.73443958       0.73992225 </v>
  </varray>
 </structure>
 <calculation>
  <scstep>
   <time name="dav">    2.56    2.56</time>
   <time name="total">    2.80    2.83</time>
   <energy>
    <i name="alphaZ">     59.60692482 </i>
    <i name="ewald">  46573.92669423 </i>
    <i name="hartreedc"> -71450.74307809 </i>
    <i name="XCdc">   -275.58251656 </i>
    <i name="pawpsdc">  25084.30445174 </i>
    <i name="pawaedc"> -23931.61522197 </i>
    <i name="eentropy">     -0.00000000 </i>
    <i name="bandstr">    365.63019383 </i>
    <i name="atom">  25929.96575216 </i>
    <i name="e_fr_energy">   2355.49320016 </i>
    <i name="e_wo_entrp">   2355.49320016 </i>
    <i name="e_0_energy">   2355.49320016 </i>
   </energy>
  </scstep>
  <scstep>
   <time name="dav">    3.99    3.99</time>
   <time name="total">    3.99    4.00</time>
   <energy>
    <i name="e_fr_energy">    501.58984271 </i>
    <i name="e_wo_entrp">    501.58984271 </i>
    <i name="e_0_energy">    501.58984271 </i>
   </energy>
  </scstep>
  <scstep>
   <time name="dav">    3.22    3.22</time>
   <time name="total">    3.22    3.23</time>
   <energy>
    <i name="e_fr_energy">    -26.39841604 </i>
    <i name="e_wo_entrp">    -26.39841604 </i>
    <i name="e_0_energy">    -26.39841604 </i>
   </energy>
  </scstep>
  <scstep>
   <time name="dav">    2.78    2.78</time>
   <time name="total">    2.79    2.79</time>
   <energy>
    <i name="e_fr_energy">    -50.76594294 </i>
    <i name="e_wo_entrp">    -50.76594294 </i>
    <i name="e_0_energy">    -50.76594294 </i>
   </energy>
  </scstep>
  <scstep>
   <time name="dav">    2.89    2.89</time>
   <time name="total">    3.00    3.00</time>
   <energy>
    <i name="e_fr_energy">    -51.11932138 </i>
    <i name="e_wo_entrp">    -51.11932138 </i>
    <i name="e_0_energy">    -51.11932138 </i>
   </energy>
  </scstep>
  <scstep>
   <time name="dav">    2.62    2.62</time>
   <time name="total">    2.95    3.66</time>
   <energy>
    <i name="e_fr_energy">    -17.67908517 </i>
    <i name="e_wo_entrp">    -17.67908517 </i>
    <i name="e_0_energy">    -17.67908517 </i>
   </energy>
  </scstep>
  <scstep>
   <time name="dav">    2.72    2.73</time>
   <time name="total">    3.06    3.07</time>
   <energy>
    <i name="e_fr_energy">    -12.82864078 </i>
    <i name="e_wo_entrp">    -12.82864078 </i>
    <i name="e_0_energy">    -12.82864078 </i>
   </energy>
  </scstep>
  <scstep>
   <time name="dav">    2.78    2.78</time>
   <time name="total">    3.12    3.13</time>
   <energy>
    <i name="e_fr_energy">    -15.21549434 </i>
    <i name="e_wo_entrp">    -15.21549434 </i>
    <i name="e_0_energy">    -15.21549434 </i>
   </energy>
  </scstep>
  <scstep>
   <time name="dav">    2.80    2.80</time>
   <time name="total">    3.14    3.14</time>
   <energy>
    <i name="e_fr_energy">    -19.70525536 </i>
    <i name="e_wo_entrp">    -19.70525536 </i>
    <i name="e_0_energy">    -19.70525536 </i>
   </energy>
  </scstep>
  <scstep>
   <time name="dav">    2.67    2.67</time>
   <time name="total">    3.01    3.01</time>
   <energy>
    <i name="e_fr_energy">    -28.95012307 </i>
    <i name="e_wo_entrp">    -28.95012307 </i>
    <i name="e_0_energy">    -28.95012307 </i>
   </energy>
  </scstep>
  <scstep>
   <time name="dav">    2.85    2.85</time>
   <time name="total">    3.19    3.20</time>
   <energy>
    <i name="e_fr_energy">    -31.49158675 </i>
    <i name="e_wo_entrp">    -31.49158675 </i>
    <i name="e_0_energy">    -31.49158675 </i>
   </energy>
  </scstep>
  <scstep>
   <time name="dav">    2.67    2.67</time>
   <time name="total">    3.02    3.02</time>
   <energy>
    <i name="e_fr_energy">    -38.41988159 </i>
    <i name="e_wo_entrp">    -38.41988159 </i>
    <i name="e_0_energy">    -38.41988159 </i>
   </energy>
  </scstep>
  <scstep>
   <time name="dav">    2.83    2.83</time>
   <time name="total">    3.17    3.19</time>
   <energy>
    <i name="e_fr_energy">    -40.19081543 </i>
    <i name="e_wo_entrp">    -40.19081543 </i>
    <i name="e_0_energy">    -40.19081543 </i>
   </energy>
  </scstep>
  <scstep>
   <time name="dav">    2.70    2.70</time>
   <time name="total">    3.04    3.04</time>
   <energy>
    <i name="e_fr_energy">    -44.54265021 </i>
    <i name="e_wo_entrp">    -44.54265021 </i>
    <i name="e_0_energy">    -44.54265021 </i>
   </energy>
  </scstep>
  <scstep>
   <time name="dav">    2.72    2.72</time>
   <time name="total">    3.06    3.08</time>
   <energy>
    <i name="e_fr_energy">    -46.91613001 </i>
    <i name="e_wo_entrp">    -46.91613001 </i>
    <i name="e_0_energy">    -46.91613001 </i>
   </energy>
  </scstep>
  <scstep>
   <time name="dav">    2.66    2.66</time>
   <time name="total">    3.00    3.00</time>
   <energy>
    <i name="e_fr_energy">    -48.24196000 </i>
    <i name="e_wo_entrp">    -48.24196000 </i>
    <i name="e_0_energy">    -48.24196000 </i>
   </energy>
  </scstep>
  <scstep>
   <time name="dav">    2.68    2.68</time>
   <time name="total">    3.02    3.03</time>
   <energy>
    <i name="e_fr_energy">    -49.65516902 </i>
    <i name="e_wo_entrp">    -49.65516902 </i>
    <i name="e_0_energy">    -49.65516902 </i>
   </energy>
  </scstep>
  <scstep>
   <time name="dav">    2.74    2.75</time>
   <time name="total">    3.09    3.19</time>
   <energy>
    <i name="e_fr_energy">    -50.16788242 </i>
    <i name="e_wo_entrp">    -50.16788242 </i>
    <i name="e_0_energy">    -50.16788242 </i>
   </energy>
  </scstep>
  <scstep>
   <time name="dav">    2.76    2.76</time>
   <time name="total">    3.10    3.67</time>
   <energy>
    <i name="e_fr_energy">    -50.38394031 </i>
    <i name="e_wo_entrp">    -50.38394031 </i>
    <i name="e_0_energy">    -50.38394031 </i>
   </energy>
  </scstep>
  <scstep>
   <time name="dav">    2.70    2.70</time>
   <time name="total">    3.05    3.07</time>
   <energy>
    <i name="e_fr_energy">    -50.49890522 </i>
    <i name="e_wo_entrp">    -50.49890522 </i>
    <i name="e_0_energy">    -50.49890522 </i>
   </energy>
  </scstep>
  <scstep>
   <time name="dav">    2.27    2.27</time>
   <time name="total">    2.62    2.62</time>
   <energy>
    <i name="e_fr_energy">    -50.51231159 </i>
    <i name="e_wo_entrp">    -50.51231159 </i>
    <i name="e_0_energy">    -50.51231159 </i>
   </energy>
  </scstep>
  <scstep>
   <time name="dav">    2.12    2.12</time>
   <time name="total">    2.46    2.47</time>
   <energy>
    <i name="e_fr_energy">    -50.51504532 </i>
    <i name="e_wo_entrp">    -50.51504532 </i>
    <i name="e_0_energy">    -50.51504532 </i>
   </energy>
  </scstep>
  <scstep>
   <time name="dav">    2.10    2.10</time>
   <time name="total">    2.45    2.45</time>
   <energy>
    <i name="e_fr_energy">    -50.51721112 </i>
    <i name="e_wo_entrp">    -50.51721112 </i>
    <i name="e_0_energy">    -50.51721112 </i>
   </energy>
  </scstep>
  <scstep>
   <time name="dav">    2.08    2.08</time>
   <time name="total">    2.42    2.46</time>
   <energy>
    <i name="e_fr_energy">    -50.51994777 </i>
    <i name="e_wo_entrp">    -50.51994777 </i>
    <i name="e_0_energy">    -50.51994777 </i>
   </energy>
  </scstep>
  <scstep>
   <time name="dav">    2.05    2.05</time>
   <time name="total">    2.40    2.40</time>
   <energy>
    <i name="e_fr_energy">    -50.52315261 </i>
    <i name="e_wo_entrp">    -50.52315261 </i>
    <i name="e_0_energy">    -50.52315261 </i>
   </energy>
  </scstep>
  <scstep>
   <time name="dav">    2.04    2.04</time>
   <time name="total">    2.39    2.39</time>
   <energy>
    <i name="e_fr_energy">    -50.52434134 </i>
    <i name="e_wo_entrp">    -50.52434134 </i>
    <i name="e_0_energy">    -50.52434134 </i>
   </energy>
  </scstep>
  <scstep>
   <time name="dav">    2.06    2.06</time>
   <time name="total">    2.41    2.44</time>
   <energy>
    <i name="e_fr_energy">    -50.52453853 </i>
    <i name="e_wo_entrp">    -50.52453853 </i>
    <i name="e_0_energy">    -50.52453853 </i>
   </energy>
  </scstep>
  <scstep>
   <time name="dav">    2.00    2.00</time>
   <time name="total">    2.23    2.24</time>
   <energy>
    <i name="alphaZ">     59.60692482 </i>
    <i name="ewald">  46573.92669423 </i>
    <i name="hartreedc"> -71435.35409589 </i>
    <i name="XCdc">   -284.50634258 </i>
    <i name="pawpsdc">  26975.44041763 </i>
    <i name="pawaedc"> -25866.30041389 </i>
    <i name="eentropy">      0.00000000 </i>
    <i name="bandstr">  -2003.30347447 </i>
    <i name="atom">  25929.96575216 </i>
    <i name="e_fr_energy">    -50.52453799 </i>
    <i name="e_wo_entrp">    -50.52453799 </i>
    <i name="e_0_energy">    -50.52453799 </i>
   </energy>
  </scstep>
  <structure>
   <crystal>
    <varray name="basis" >
     <v>      20.73795020       0.00000000       0.00000000 </v>
     <v>       0.00000000      20.73795020       0.00000000 </v>
     <v>       0.00000000       0.00000000      20.73795020 </v>
    </varray>
    <i name="volume">   8918.61633006 </i>
    <varray name="rec_basis" >
     <v>       0.04822077       0.00000000       0.00000000 </v>
     <v>       0.00000000       0.04822077       0.00000000 </v>
     <v>       0.00000000       0.00000000       0.04822077 </v>
    </varray>
   </crystal>
   <varray name="positions" >
    <v>       0.64276508       0.66051496       0.38380433 </v>
    <v>       0.51861356       0.48971539       0.46049811 </v>
    <v>       0.51683136       0.62275049       0.42296456 </v>
    <v>       0.72901628       0.65165744       0.49340149 </v>
    <v>       0.59454448       0.70142272       0.49903995 </v>
    <v>       0.52731350       0.35512907       0.47765808 </v>
    <v>       0.41003312       0.42340975       0.49630677 </v>
    <v>       0.63555555       0.31418016       0.54568473 </v>
    <v>       0.40740039       0.56500588       0.47597403 </v>
    <v>       0.62920164       0.56790044       0.47923348 </v>
    <v>       0.45301252       0.68544776       0.52341700 </v>
    <v>       0.63161183       0.44017960       0.51537505 </v>
    <v>       0.73028589       0.53142184       0.56273263 </v>
    <v>       0.52539540       0.58054546       0.56896225 </v>
    <v>       0.70498739       0.40716631       0.61797017 </v>
    <v>       0.40832488       0.51430811       0.59767418 </v>
    <v>       0.51505757       0.42949959       0.58811429 </v>
    <v>       0.54229379       0.72171800       0.61566335 </v>
    <v>       0.66056939       0.64303638       0.60737623 </v>
    <v>       0.44362630       0.63891100       0.65966215 </v>
    <v>       0.62277145       0.51209719       0.63782841 </v>
    <v>       0.50103962       0.51545737       0.69223624 </v>
    <v>       0.63932458       0.74200823       0.70170198 </v>
    <v>       0.57463186       0.62339187       0.70811289 </v>
    <v>       0.50710717       0.73443958       0.73992225 </v>
   </varray>
  </structure>
  <varray name="forces" >
   <v>      -0.04561481       0.06199397      -0.03420302 </v>
   <v>       0.09174845       0.05952602       0.03704217 </v>
   <v>      -0.09687916      -0.02493734      -0.06909508 </v>
   <v>       0.09535807      -0.02669628      -0.00674416 </v>
   <v>       0.02238336       0.06272246       0.04942127 </v>
   <v>      -0.03237650      -0.06034608      -0.05909376 </v>
   <v>       0.00356691      -0.04802419       0.01690975 </v>
   <v>       0.01521581      -0.05003693       0.04991011 </v>
   <v>      -0.03653907       0.07306023      -0.06192055 </v>
   <v>      -0.10204928      -0.14605718      -0.04928320 </v>
   <v>      -0.01494937       0.02830642       0.04138048 </v>
   <v>       0.01069271       0.07556651      -0.08717274 </v>
   <v>       0.02327819       0.03489821      -0.01154521 </v>
   <v>       0.05512016      -0.05421724       0.00121736 </v>
   <v>       0.06310023       0.02224485       0.00227935 </v>
   <v>      -0.03627668      -0.01414187       0.03205352 </v>
   <v>      -0.02903878      -0.01323988       0.08700548 </v>
   <v>      -0.08101958       0.08312249      -0.15596872 </v>
   <v>       0.03704213       0.01871759       0.07526158 </v>
   <v>      -0.06258561      -0.00378966       0.03718214 </v>
   <v>      -0.01671187       0.00870542       0.07303710 </v>
   <v>       0.05167892      -0.06519615      -0.06543145 </v>
   <v>       0.02851398       0.02082924       0.00376315 </v>
   <v>       0.07354578      -0.12243614       0.06226636 </v>
   <v>      -0.01720398       0.07942552       0.03172805 </v>
  </varray>
  <varray name="stress" >
   <v>      -1.29649389       0.00751947       0.07110965 </v>
   <v>       0.00751947      -1.27157209      -0.02311643 </v>
   <v>       0.07110963      -0.02311643      -1.21083794 </v>
  </varray>
  <energy>
   <i name="e_fr_energy">    -50.52453799 </i>
   <i name="e_wo_entrp">    -50.52453799 </i>
   <i name="e_0_energy">      0.00000000 </i>
  </energy>
  <time name="totalsc">   86.11   88.87</time>
 </calculation>
 <calculation>
  <scstep>
   <time name="dav">    2.73    2.74</time>
   <time name="total">    3.08    3.09</time>
   <energy>
    <i name="alphaZ">     59.60692482 </i>
    <i name="ewald">  46562.47189957 </i>
    <i name="hartreedc"> -71423.94331239 </i>
    <i name="XCdc">   -284.52609866 </i>
    <i name="pawpsdc">  26975.41296852 </i>
    <i name="pawaedc"> -25866.27240081 </i>
    <i name="eentropy">      0.00000000 </i>
    <i name="bandstr">  -2003.24256165 </i>
    <i name="atom">  25929.96575216 </i>
    <i name="e_fr_energy">    -50.52682844 </i>
    <i name="e_wo_entrp">    -50.52682844 </i>
    <i name="e_0_energy">    -50.52682844 </i>
   </energy>
  </scstep>
  <scstep>
   <time name="dav">    2.74    2.74</time>
   <time name="total">    3.08    3.08</time>
   <energy>
    <i name="e_fr_energy">    -50.52695537 </i>
    <i name="e_wo_entrp">    -50.52695537 </i>
    <i name="e_0_energy">    -50.52695537 </i>
   </energy>
  </scstep>
  <scstep>
   <time name="dav">    1.84    1.85</time>
   <time name="total">    2.08    2.09</time>
   <energy>
    <i name="alphaZ">     59.60692482 </i>
    <i name="ewald">  46562.47189957 </i>
    <i name="hartreedc"> -71424.03119877 </i>
    <i name="XCdc">   -284.52262387 </i>
    <i name="pawpsdc">  26973.79437334 </i>
    <i name="pawaedc"> -25864.62936450 </i>
    <i name="eentropy">      0.00000000 </i>
    <i name="bandstr">  -2003.18274811 </i>
    <i name="atom">  25929.96575216 </i>
    <i name="e_fr_energy">    -50.52698534 </i>
    <i name="e_wo_entrp">    -50.52698534 </i>
    <i name="e_0_energy">    -50.52698534 </i>
   </energy>
  </scstep>
  <structure>
   <crystal>
    <varray name="basis" >
     <v>      20.73795020       0.00000000       0.00000000 </v>
     <v>       0.00000000      20.73795020       0.00000000 </v>
     <v>       0.00000000       0.00000000      20.73795020 </v>
    </varray>
    <i name="volume">   8918.61633006 </i>
    <varray name="rec_basis" >
     <v>       0.04822077       0.00000000       0.00000000 </v>
     <v>       0.00000000       0.04822077       0.00000000 </v>
     <v>       0.00000000       0.00000000       0.04822077 </v>
    </varray>
   </crystal>
   <varray name="positions" >
    <v>       0.64274386       0.66054380       0.38378842 </v>
    <v>       0.51865625       0.48974309       0.46051535 </v>
    <v>       0.51678629       0.62273889       0.42293242 </v>
    <v>       0.72906064       0.65164502       0.49339835 </v>
    <v>       0.59455490       0.70145190       0.49906294 </v>
    <v>       0.52729843       0.35510099       0.47763058 </v>
    <v>       0.41003478       0.42338741       0.49631464 </v>
    <v>       0.63556263       0.31415688       0.54570795 </v>
    <v>       0.40738339       0.56503987       0.47594522 </v>
    <v>       0.62915416       0.56783248       0.47921055 </v>
    <v>       0.45300556       0.68546093       0.52343625 </v>
    <v>       0.63161680       0.44021476       0.51533449 </v>
    <v>       0.73029672       0.53143808       0.56272726 </v>
    <v>       0.52542104       0.58052024       0.56896282 </v>
    <v>       0.70501675       0.40717666       0.61797123 </v>
    <v>       0.40830801       0.51430153       0.59768910 </v>
    <v>       0.51504405       0.42949343       0.58815477 </v>
    <v>       0.54225610       0.72175668       0.61559078 </v>
    <v>       0.66058663       0.64304509       0.60741125 </v>
    <v>       0.44359718       0.63890923       0.65967945 </v>
    <v>       0.62276368       0.51210124       0.63786239 </v>
    <v>       0.50106367       0.51542703       0.69220580 </v>
    <v>       0.63933785       0.74201793       0.70170373 </v>
    <v>       0.57466608       0.62333490       0.70814186 </v>
    <v>       0.50709916       0.73447653       0.73993701 </v>
   </varray>
  </structure>
  <varray name="forces" >
   <v>      -0.04593055       0.05793343      -0.02744384 </v>
   <v>       0.07985386       0.05182225       0.03596156 </v>
   <v>      -0.08971472      -0.01950250      -0.06463963 </v>
   <v>       0.08424985      -0.02999281      -0.00666619 </v>
   <v>       0.02455538       0.05370113       0.04022482 </v>
   <v>      -0.02902264      -0.05514845      -0.05319088 </v>
   <v>       0.00694753      -0.04370746       0.01662979 </v>
   <v>       0.01322157      -0.04159321       0.04733981 </v>
   <v>      -0.03538516       0.06744664      -0.05600362 </v>
   <v>      -0.08984913      -0.12470076      -0.05117265 </v>
   <v>      -0.01496368       0.02404861       0.03766601 </v>
   <v>       0.01251385       0.06009040      -0.07635181 </v>
   <v>       0.02016867       0.03444568      -0.01051494 </v>
   <v>       0.04897395      -0.04891688       0.00334303 </v>
   <v>       0.05923928       0.02351960      -0.00167226 </v>
   <v>      -0.03473078      -0.01197342       0.02712201 </v>
   <v>      -0.02607345      -0.01674862       0.07767472 </v>
   <v>      -0.07658638       0.07887785      -0.13229764 </v>
   <v>       0.03575955       0.01882858       0.06980940 </v>
   <v>      -0.05631880      -0.00388294       0.03519416 </v>
   <v>      -0.00940048       0.00558696       0.06746348 </v>
   <v>       0.04651229      -0.06141319      -0.06079138 </v>
   <v>       0.02101352       0.01742092       0.00041733 </v>
   <v>       0.06705232      -0.10799931       0.05893952 </v>
   <v>      -0.01208586       0.07185749       0.02295921 </v>
  </varray>
  <varray name="stress" >
   <v>      -1.30929274       0.00774249       0.06953974 </v>
   <v>       0.00774247      -1.28502854      -0.02195807 </v>
   <v>       0.06953975      -0.02195806      -1.22368491 </v>
  </varray>
  <energy>
   <i name="e_fr_energy">    -50.52698534 </i>
   <i name="e_wo_entrp">    -50.52698534 </i>
   <i name="e_0_energy">      0.00000000 </i>
  </energy>
  <time name="totalsc">   13.11   13.25</time>
 </calculation>
 <calculation>
  <scstep>
   <time name="dav">    2.71    2.72</time>
   <time name="total">    3.05    3.07</time>
   <energy>
    <i name="alphaZ">     59.60692482 </i>
    <i name="ewald">  46528.15523529 </i>
    <i name="hartreedc"> -71390.05702280 </i>
    <i name="XCdc">   -284.57986618 </i>
    <i name="pawpsdc">  26972.93677112 </i>
    <i name="pawaedc"> -25863.75720607 </i>
    <i name="eentropy">      0.00000000 </i>
    <i name="bandstr">  -2002.80275147 </i>
    <i name="atom">  25929.96575216 </i>
    <i name="e_fr_energy">    -50.53216312 </i>
    <i name="e_wo_entrp">    -50.53216312 </i>
    <i name="e_0_energy">    -50.53216312 </i>
   </energy>
  </scstep>
  <scstep>
   <time name="dav">    2.80    2.80</time>
   <time name="total">    3.14    3.16</time>
   <energy>
    <i name="e_fr_energy">    -50.53285986 </i>
    <i name="e_wo_entrp">    -50.53285986 </i>
    <i name="e_0_energy">    -50.53285986 </i>
   </energy>
  </scstep>
  <scstep>
   <time name="dav">    2.00    2.00</time>
   <time name="total">    2.24    2.24</time>
   <energy>
    <i name="alphaZ">     59.60692482 </i>
    <i name="ewald">  46528.15523529 </i>
    <i name="hartreedc"> -71390.28439407 </i>
    <i name="XCdc">   -284.56992554 </i>
    <i name="pawpsdc">  26968.04973726 </i>
    <i name="pawaedc"> -25858.79516807 </i>
    <i name="eentropy">      0.00000000 </i>
    <i name="bandstr">  -2002.66101184 </i>
    <i name="atom">  25929.96575216 </i>
    <i name="e_fr_energy">    -50.53284998 </i>
    <i name="e_wo_entrp">    -50.53284998 </i>
    <i name="e_0_energy">    -50.53284998 </i>
   </energy>
  </scstep>
  <structure>
   <crystal>
    <varray name="basis" >
     <v>      20.73795020       0.00000000       0.00000000 </v>
     <v>       0.00000000      20.73795020       0.00000000 </v>
     <v>       0.00000000       0.00000000      20.73795020 </v>
    </varray>
    <i name="volume">   8918.61633006 </i>
    <varray name="rec_basis" >
     <v>       0.04822077       0.00000000       0.00000000 </v>
     <v>       0.00000000       0.04822077       0.00000000 </v>
     <v>       0.00000000       0.00000000       0.04822077 </v>
    </varray>
   </crystal>
   <varray name="positions" >
    <v>       0.64268019       0.66063033       0.38374068 </v>
    <v>       0.51878431       0.48982617       0.46056705 </v>
    <v>       0.51665107       0.62270408       0.42283598 </v>
    <v>       0.72919374       0.65160776       0.49338894 </v>
    <v>       0.59458614       0.70153945       0.49913192 </v>
    <v>       0.52725324       0.35501676       0.47754810 </v>
    <v>       0.41003976       0.42332038       0.49633824 </v>
    <v>       0.63558387       0.31408704       0.54577761 </v>
    <v>       0.40733239       0.56514184       0.47585879 </v>
    <v>       0.62901172       0.56762862       0.47914176 </v>
    <v>       0.45298470       0.68550044       0.52349401 </v>
    <v>       0.63163173       0.44032023       0.51521281 </v>
    <v>       0.73032921       0.53148679       0.56271115 </v>
    <v>       0.52549798       0.58044456       0.56896452 </v>
    <v>       0.70510482       0.40720771       0.61797441 </v>
    <v>       0.40825737       0.51428179       0.59773384 </v>
    <v>       0.51500352       0.42947495       0.58827621 </v>
    <v>       0.54214301       0.72187270       0.61537309 </v>
    <v>       0.66063833       0.64307122       0.60751630 </v>
    <v>       0.44350983       0.63890395       0.65973135 </v>
    <v>       0.62274035       0.51211339       0.63796433 </v>
    <v>       0.50113580       0.51533604       0.69211447 </v>
    <v>       0.63937765       0.74204700       0.70170898 </v>
    <v>       0.57476873       0.62316401       0.70822877 </v>
    <v>       0.50707515       0.73458739       0.73998130 </v>
   </varray>
  </structure>
  <varray name="forces" >
   <v>      -0.04820890       0.04735751      -0.00874293 </v>
   <v>       0.05165463       0.03069064       0.03318384 </v>
   <v>      -0.07090143      -0.00409019      -0.05328691 </v>
   <v>       0.05397633      -0.03971776      -0.00607059 </v>
   <v>       0.03128550       0.02917876       0.01444793 </v>
   <v>      -0.02000829      -0.04113288      -0.03687656 </v>
   <v>       0.01657521      -0.03202901       0.01598383 </v>
   <v>       0.00755970      -0.01780699       0.04044363 </v>
   <v>      -0.03310749       0.05262450      -0.03980262 </v>
   <v>      -0.05727615      -0.06632213      -0.05798566 </v>
   <v>      -0.01578557       0.01213741       0.02729420 </v>
   <v>       0.01801998       0.01614321      -0.04627082 </v>
   <v>       0.01142805       0.03300813      -0.00756298 </v>
   <v>       0.03227204      -0.03479640       0.00930846 </v>
   <v>       0.04867251       0.02763300      -0.01287682 </v>
   <v>      -0.03153317      -0.00580879       0.01346084 </v>
   <v>      -0.01806455      -0.02732661       0.05208234 </v>
   <v>      -0.06534533       0.06846854      -0.06633009 </v>
   <v>       0.03250365       0.01959337       0.05552387 </v>
   <v>      -0.03882438      -0.00408502       0.03001649 </v>
   <v>       0.01161640      -0.00331487       0.05264316 </v>
   <v>       0.03205647      -0.05156845      -0.04803701 </v>
   <v>      -0.00030357       0.00819399      -0.00914568 </v>
   <v>       0.04961574      -0.06830484       0.05046318 </v>
   <v>       0.00212262       0.05127490      -0.00186308 </v>
  </varray>
  <varray name="stress" >
   <v>      -1.34621001       0.00875405       0.06423651 </v>
   <v>       0.00875406      -1.32471280      -0.01863389 </v>
   <v>       0.06423650      -0.01863389      -1.26130282 </v>
  </varray>
  <energy>
   <i name="e_fr_energy">    -50.53284998 </i>
   <i name="e_wo_entrp">    -50.53284998 </i>
   <i name="e_0_energy">      0.00000000 </i>
  </energy>
  <time name="totalsc">   13.31   14.16</time>
 </calculation>
 <calculation>
  <scstep>
   <time name="dav">    2.70    2.69</time>
   <time name="total">    3.04    3.05</time>
   <energy>
    <i name="alphaZ">     59.60692482 </i>
    <i name="ewald">  46459.73653005 </i>
    <i name="hartreedc"> -71322.55303211 </i>
    <i name="XCdc">   -284.68146931 </i>
    <i name="pawpsdc">  26965.42655837 </i>
    <i name="pawaedc"> -25856.12745274 </i>
    <i name="eentropy">      0.00000000 </i>
    <i name="bandstr">  -2001.91016084 </i>
    <i name="atom">  25929.96575216 </i>
    <i name="e_fr_energy">    -50.53634960 </i>
    <i name="e_wo_entrp">    -50.53634960 </i>
    <i name="e_0_energy">    -50.53634960 </i>
   </energy>
  </scstep>
  <scstep>
   <time name="dav">    2.79    2.79</time>
   <time name="total">    3.13    3.13</time>
   <energy>
    <i name="e_fr_energy">    -50.53908818 </i>
    <i name="e_wo_entrp">    -50.53908818 </i>
    <i name="e_0_energy">    -50.53908818 </i>
   </energy>
  </scstep>
  <scstep>
   <time name="dav">    2.81    2.81</time>
   <time name="total">    3.05    3.05</time>
   <energy>
    <i name="alphaZ">     59.60692482 </i>
    <i name="ewald">  46459.73653005 </i>
    <i name="hartreedc"> -71322.99070438 </i>
    <i name="XCdc">   -284.66179003 </i>
    <i name="pawpsdc">  26956.23666285 </i>
    <i name="pawaedc"> -25846.79338525 </i>
    <i name="eentropy">      0.00000000 </i>
    <i name="bandstr">  -2001.63902129 </i>
    <i name="atom">  25929.96575216 </i>
    <i name="e_fr_energy">    -50.53903108 </i>
    <i name="e_wo_entrp">    -50.53903108 </i>
    <i name="e_0_energy">    -50.53903108 </i>
   </energy>
  </scstep>
  <structure>
   <crystal>
    <varray name="basis" >
     <v>      20.73795020       0.00000000       0.00000000 </v>
     <v>       0.00000000      20.73795020       0.00000000 </v>
     <v>       0.00000000       0.00000000      20.73795020 </v>
    </varray>
    <i name="volume">   8918.61633006 </i>
    <varray name="rec_basis" >
     <v>       0.04822077       0.00000000       0.00000000 </v>
     <v>       0.00000000       0.04822077       0.00000000 </v>
     <v>       0.00000000       0.00000000       0.04822077 </v>
    </varray>
   </crystal>
   <varray name="positions" >
    <v>       0.64255286       0.66080339       0.38364520 </v>
    <v>       0.51904043       0.48999234       0.46067046 </v>
    <v>       0.51638062       0.62263447       0.42264309 </v>
    <v>       0.72945994       0.65153323       0.49337011 </v>
    <v>       0.59464863       0.70171454       0.49926989 </v>
    <v>       0.52716286       0.35484830       0.47738314 </v>
    <v>       0.41004971       0.42318632       0.49638545 </v>
    <v>       0.63562635       0.31394736       0.54591694 </v>
    <v>       0.40723039       0.56534580       0.47568594 </v>
    <v>       0.62872685       0.56722089       0.47900418 </v>
    <v>       0.45294296       0.68557946       0.52360953 </v>
    <v>       0.63166157       0.44053118       0.51496947 </v>
    <v>       0.73039419       0.53158421       0.56267892 </v>
    <v>       0.52565185       0.58029321       0.56896791 </v>
    <v>       0.70528097       0.40726981       0.61798077 </v>
    <v>       0.40815610       0.51424232       0.59782331 </v>
    <v>       0.51492246       0.42943799       0.58851909 </v>
    <v>       0.54191684       0.72210474       0.61493769 </v>
    <v>       0.66074174       0.64312347       0.60772639 </v>
    <v>       0.44333511       0.63889337       0.65983514 </v>
    <v>       0.62269370       0.51213770       0.63816822 </v>
    <v>       0.50128006       0.51515404       0.69193182 </v>
    <v>       0.63945724       0.74210514       0.70171949 </v>
    <v>       0.57497404       0.62282222       0.70840259 </v>
    <v>       0.50702713       0.73480911       0.74006987 </v>
   </varray>
  </structure>
  <varray name="forces" >
   <v>      -0.05801620       0.03327183       0.02343117 </v>
   <v>       0.00190811      -0.00554676       0.02972524 </v>
   <v>      -0.04432147       0.02305739      -0.03875817 </v>
   <v>       0.00692673      -0.06060602      -0.00537008 </v>
   <v>       0.04763929      -0.01124121      -0.03075991 </v>
   <v>      -0.00581155      -0.02064296      -0.01152254 </v>
   <v>       0.03528164      -0.01456624       0.01643657 </v>
   <v>      -0.00157919       0.02286740       0.03169689 </v>
   <v>      -0.03300076       0.03182655      -0.01483716 </v>
   <v>      -0.00227858       0.03585954      -0.07683742 </v>
   <v>      -0.01963097      -0.00840859       0.01073376 </v>
   <v>       0.03065945      -0.06300938       0.00396099 </v>
   <v>      -0.00299390       0.03383427      -0.00300195 </v>
   <v>       0.00608801      -0.01353659       0.02150038 </v>
   <v>       0.03381289       0.03770433      -0.03388610 </v>
   <v>      -0.02928972       0.00456004      -0.00907022 </v>
   <v>      -0.00553077      -0.04931851       0.01109048 </v>
   <v>      -0.05196529       0.05769598       0.04569334 </v>
   <v>       0.03006456       0.02311959       0.03628905 </v>
   <v>      -0.01149047      -0.00484411       0.02323973 </v>
   <v>       0.05123409      -0.01989572       0.03143908 </v>
   <v>       0.00844968      -0.03878047      -0.02902794 </v>
   <v>      -0.03822867      -0.00728771      -0.02694342 </v>
   <v>       0.02491629      -0.00585824       0.04072157 </v>
   <v>       0.02715680       0.01974561      -0.04594337 </v>
  </varray>
  <varray name="stress" >
   <v>      -1.41174522       0.01111075       0.05370774 </v>
   <v>       0.01111076      -1.39628168      -0.01204734 </v>
   <v>       0.05370774      -0.01204735      -1.32963895 </v>
  </varray>
  <energy>
   <i name="e_fr_energy">    -50.53903108 </i>
   <i name="e_wo_entrp">    -50.53903108 </i>
   <i name="e_0_energy">      0.00000000 </i>
  </energy>
  <time name="totalsc">   14.09   15.63</time>
 </calculation>
 <calculation>
  <scstep>
   <time name="dav">    2.76    2.76</time>
   <time name="total">    3.12    3.12</time>
   <energy>
    <i name="alphaZ">     59.60692482 </i>
    <i name="ewald">  46445.59291510 </i>
    <i name="hartreedc"> -71309.09065163 </i>
    <i name="XCdc">   -284.67038085 </i>
    <i name="pawpsdc">  26951.15565334 </i>
    <i name="pawaedc"> -25841.62707220 </i>
    <i name="eentropy">      0.00000000 </i>
    <i name="bandstr">  -2001.47386525 </i>
    <i name="atom">  25929.96575216 </i>
    <i name="e_fr_energy">    -50.54072451 </i>
    <i name="e_wo_entrp">    -50.54072451 </i>
    <i name="e_0_energy">    -50.54072451 </i>
   </energy>
  </scstep>
  <scstep>
   <time name="dav">    2.76    2.76</time>
   <time name="total">    3.10    3.11</time>
   <energy>
    <i name="e_fr_energy">    -50.54093547 </i>
    <i name="e_wo_entrp">    -50.54093547 </i>
    <i name="e_0_energy">    -50.54093547 </i>
   </energy>
  </scstep>
  <scstep>
   <time name="dav">    1.96    1.97</time>
   <time name="total">    2.20    2.99</time>
   <energy>
    <i name="alphaZ">     59.60692482 </i>
    <i name="ewald">  46445.59291510 </i>
    <i name="hartreedc"> -71309.13433584 </i>
    <i name="XCdc">   -284.66780210 </i>
    <i name="pawpsdc">  26950.16960995 </i>
    <i name="pawaedc"> -25840.62316203 </i>
    <i name="eentropy">      0.00000000 </i>
    <i name="bandstr">  -2001.45083791 </i>
    <i name="atom">  25929.96575216 </i>
    <i name="e_fr_energy">    -50.54093585 </i>
    <i name="e_wo_entrp">    -50.54093585 </i>
    <i name="e_0_energy">    -50.54093585 </i>
   </energy>
  </scstep>
  <structure>
   <crystal>
    <varray name="basis" >
     <v>      20.73795020       0.00000000       0.00000000 </v>
     <v>       0.00000000      20.73795020       0.00000000 </v>
     <v>       0.00000000       0.00000000      20.73795020 </v>
    </varray>
    <i name="volume">   8918.61633006 </i>
    <varray name="rec_basis" >
     <v>       0.04822077       0.00000000       0.00000000 </v>
     <v>       0.00000000       0.04822077       0.00000000 </v>
     <v>       0.00000000       0.00000000       0.04822077 </v>
    </varray>
   </crystal>
   <varray name="positions" >
    <v>       0.64247002       0.66085661       0.38367028 </v>
    <v>       0.51905752       0.48999459       0.46071508 </v>
    <v>       0.51630746       0.62266054       0.42258160 </v>
    <v>       0.72948415       0.65145003       0.49336204 </v>
    <v>       0.59471425       0.70170988       0.49923768 </v>
    <v>       0.52715014       0.35481180       0.47735872 </v>
    <v>       0.41009624       0.42315969       0.49640955 </v>
    <v>       0.63562671       0.31396919       0.54596618 </v>
    <v>       0.40718158       0.56539889       0.47565675 </v>
    <v>       0.62870763       0.56724435       0.47889624 </v>
    <v>       0.45291501       0.68557302       0.52363010 </v>
    <v>       0.63170322       0.44046113       0.51496075 </v>
    <v>       0.73039400       0.53163384       0.56267317 </v>
    <v>       0.52566856       0.58026694       0.56899612 </v>
    <v>       0.70533506       0.40732247       0.61793699 </v>
    <v>       0.40811217       0.51424601       0.59781660 </v>
    <v>       0.51491063       0.42937163       0.58854739 </v>
    <v>       0.54183625       0.72219314       0.61497238 </v>
    <v>       0.66078680       0.64315657       0.60778565 </v>
    <v>       0.44331018       0.63888645       0.65987134 </v>
    <v>       0.62275778       0.51211316       0.63822080 </v>
    <v>       0.50129930       0.51509314       0.69188359 </v>
    <v>       0.63941198       0.74209897       0.70168499 </v>
    <v>       0.57501821       0.62279510       0.70846555 </v>
    <v>       0.50705976       0.73484748       0.74001507 </v>
   </varray>
  </structure>
  <varray name="forces" >
   <v>      -0.05263335       0.03159062       0.01163821 </v>
   <v>       0.00376951      -0.00302077       0.02806211 </v>
   <v>      -0.04065236       0.02073511      -0.03148948 </v>
   <v>       0.00775049      -0.05280849      -0.00515644 </v>
   <v>       0.03455040      -0.00879974      -0.01049206 </v>
   <v>      -0.00368561      -0.01945888      -0.00927343 </v>
   <v>       0.03014998      -0.01296532       0.01527553 </v>
   <v>      -0.00270938       0.01595433       0.03089913 </v>
   <v>      -0.02992876       0.02711908      -0.01233972 </v>
   <v>      -0.00426856       0.02150654      -0.06351019 </v>
   <v>      -0.01393235      -0.00892158       0.01148504 </v>
   <v>       0.02422023      -0.04255328      -0.00102540 </v>
   <v>      -0.00451989       0.03051721      -0.00441085 </v>
   <v>       0.00766505      -0.01154853       0.01947290 </v>
   <v>       0.03820282       0.03392212      -0.02957961 </v>
   <v>      -0.02419173       0.00442278      -0.00995877 </v>
   <v>      -0.00331224      -0.04532407       0.00867113 </v>
   <v>      -0.04268507       0.04365784       0.02379261 </v>
   <v>       0.02358778       0.02106244       0.03036655 </v>
   <v>      -0.00857484      -0.00628949       0.02017077 </v>
   <v>       0.04358805      -0.01551378       0.02777358 </v>
   <v>       0.00913192      -0.03168133      -0.02661010 </v>
   <v>      -0.03079174      -0.00374808      -0.02336958 </v>
   <v>       0.01821954      -0.00682666       0.03270890 </v>
   <v>       0.02105011       0.01897194      -0.03310079 </v>
  </varray>
  <varray name="stress" >
   <v>      -1.41458924       0.01307037       0.05033003 </v>
   <v>       0.01307037      -1.39850245      -0.01249008 </v>
   <v>       0.05033003      -0.01249008      -1.32703920 </v>
  </varray>
  <energy>
   <i name="e_fr_energy">    -50.54093585 </i>
   <i name="e_wo_entrp">    -50.54093585 </i>
   <i name="e_0_energy">      0.00000000 </i>
  </energy>
  <time name="totalsc">   13.30   14.10</time>
 </calculation>
 <calculation>
  <scstep>
   <time name="dav">    2.68    2.68</time>
   <time name="total">    3.02    3.04</time>
   <energy>
    <i name="alphaZ">     59.60692482 </i>
    <i name="ewald">  46403.18214611 </i>
    <i name="hartreedc"> -71266.98600202 </i>
    <i name="XCdc">   -284.70512135 </i>
    <i name="pawpsdc">  26949.61488854 </i>
    <i name="pawaedc"> -25840.05828958 </i>
    <i name="eentropy">      0.00000000 </i>
    <i name="bandstr">  -2001.16391013 </i>
    <i name="atom">  25929.96575216 </i>
    <i name="e_fr_energy">    -50.54361144 </i>
    <i name="e_wo_entrp">    -50.54361144 </i>
    <i name="e_0_energy">    -50.54361144 </i>
   </energy>
  </scstep>
  <scstep>
   <time name="dav">    2.81    2.81</time>
   <time name="total">    3.15    3.16</time>
   <energy>
    <i name="e_fr_energy">    -50.54544529 </i>
    <i name="e_wo_entrp">    -50.54544529 </i>
    <i name="e_0_energy">    -50.54544529 </i>
   </energy>
  </scstep>
  <scstep>
   <time name="dav">    2.07    2.07</time>
   <time name="total">    2.32    2.32</time>
   <energy>
    <i name="alphaZ">     59.60692482 </i>
    <i name="ewald">  46403.18214611 </i>
    <i name="hartreedc"> -71267.20810204 </i>
    <i name="XCdc">   -284.69825856 </i>
    <i name="pawpsdc">  26947.44683301 </i>
    <i name="pawaedc"> -25837.85293990 </i>
    <i name="eentropy">      0.00000000 </i>
    <i name="bandstr">  -2000.98776937 </i>
    <i name="atom">  25929.96575216 </i>
    <i name="e_fr_energy">    -50.54541376 </i>
    <i name="e_wo_entrp">    -50.54541376 </i>
    <i name="e_0_energy">    -50.54541376 </i>
   </energy>
  </scstep>
  <structure>
   <crystal>
    <varray name="basis" >
     <v>      20.73795020       0.00000000       0.00000000 </v>
     <v>       0.00000000      20.73795020       0.00000000 </v>
     <v>       0.00000000       0.00000000      20.73795020 </v>
    </varray>
    <i name="volume">   8918.61633006 </i>
    <varray name="rec_basis" >
     <v>       0.04822077       0.00000000       0.00000000 </v>
     <v>       0.00000000       0.04822077       0.00000000 </v>
     <v>       0.00000000       0.00000000       0.04822077 </v>
    </varray>
   </crystal>
   <varray name="positions" >
    <v>       0.64222149       0.66101625       0.38374551 </v>
    <v>       0.51910881       0.49000135       0.46084894 </v>
    <v>       0.51608797       0.62273874       0.42239712 </v>
    <v>       0.72955676       0.65120042       0.49333783 </v>
    <v>       0.59491112       0.70169591       0.49914107 </v>
    <v>       0.52711196       0.35470230       0.47728546 </v>
    <v>       0.41023583       0.42307983       0.49648187 </v>
    <v>       0.63562781       0.31403466       0.54611390 </v>
    <v>       0.40703515       0.56555817       0.47556919 </v>
    <v>       0.62864998       0.56731473       0.47857240 </v>
    <v>       0.45283115       0.68555367       0.52369181 </v>
    <v>       0.63182815       0.44025097       0.51493459 </v>
    <v>       0.73039342       0.53178274       0.56265592 </v>
    <v>       0.52571868       0.58018814       0.56908073 </v>
    <v>       0.70549735       0.40748045       0.61780565 </v>
    <v>       0.40798037       0.51425707       0.59779646 </v>
    <v>       0.51487515       0.42917256       0.58863230 </v>
    <v>       0.54159446       0.72245833       0.61507646 </v>
    <v>       0.66092199       0.64325586       0.60796342 </v>
    <v>       0.44323538       0.63886571       0.65997992 </v>
    <v>       0.62295003       0.51203957       0.63837856 </v>
    <v>       0.50135701       0.51491043       0.69173889 </v>
    <v>       0.63927620       0.74208043       0.70158148 </v>
    <v>       0.57515071       0.62271372       0.70865444 </v>
    <v>       0.50715768       0.73496259       0.73985067 </v>
   </varray>
  </structure>
  <varray name="forces" >
   <v>      -0.03678314       0.02609749      -0.01918461 </v>
   <v>      -0.00061960       0.00040954       0.02554534 </v>
   <v>      -0.02844021       0.01812354      -0.01027365 </v>
   <v>       0.00585109      -0.03303307      -0.00544254 </v>
   <v>       0.00037488      -0.00539542       0.04384719 </v>
   <v>       0.00511877      -0.01306698      -0.00098002 </v>
   <v>       0.01711170      -0.00597391       0.01227389 </v>
   <v>      -0.00710926      -0.00021597       0.02842734 </v>
   <v>      -0.01999866       0.00933718      -0.00107006 </v>
   <v>      -0.00764612      -0.01145204      -0.03271757 </v>
   <v>       0.00186828      -0.01329475       0.01168264 </v>
   <v>       0.00745800       0.00841456      -0.01191976 </v>
   <v>      -0.01188689       0.02173354      -0.00755261 </v>
   <v>       0.00967803      -0.00312105       0.01718679 </v>
   <v>       0.04862988       0.02428909      -0.01997084 </v>
   <v>      -0.00986005       0.00525868      -0.01485566 </v>
   <v>       0.00503309      -0.03713728      -0.00321719 </v>
   <v>      -0.01844105       0.00845560      -0.03444334 </v>
   <v>       0.00636894       0.01617979       0.01293358 </v>
   <v>       0.00550335      -0.01056734       0.01195140 </v>
   <v>       0.02775601      -0.00584400       0.01719827 </v>
   <v>       0.00813598      -0.00981643      -0.01809576 </v>
   <v>      -0.01396214       0.00508685      -0.01456962 </v>
   <v>      -0.00095329      -0.00735544       0.01375533 </v>
   <v>       0.00681243       0.01288783      -0.00050854 </v>
  </varray>
  <varray name="stress" >
   <v>      -1.44209211       0.01889647       0.04495555 </v>
   <v>       0.01889647      -1.42141224      -0.01095977 </v>
   <v>       0.04495556      -0.01095977      -1.33630709 </v>
  </varray>
  <energy>
   <i name="e_fr_energy">    -50.54541376 </i>
   <i name="e_wo_entrp">    -50.54541376 </i>
   <i name="e_0_energy">      0.00000000 </i>
  </energy>
  <time name="totalsc">   13.38   13.47</time>
 </calculation>
 <calculation>
  <scstep>
   <time name="dav">    2.78    2.79</time>
   <time name="total">    3.13    3.15</time>
   <energy>
    <i name="alphaZ">     59.60692482 </i>
    <i name="ewald">  46399.83879678 </i>
    <i name="hartreedc"> -71263.94833285 </i>
    <i name="XCdc">   -284.70152325 </i>
    <i name="pawpsdc">  26945.74908804 </i>
    <i name="pawaedc"> -25836.13025079 </i>
    <i name="eentropy">      0.00000000 </i>
    <i name="bandstr">  -2000.92673289 </i>
    <i name="atom">  25929.96575216 </i>
    <i name="e_fr_energy">    -50.54627797 </i>
    <i name="e_wo_entrp">    -50.54627797 </i>
    <i name="e_0_energy">    -50.54627797 </i>
   </energy>
  </scstep>
  <scstep>
   <time name="dav">    2.83    2.83</time>
   <time name="total">    3.17    3.18</time>
   <energy>
    <i name="e_fr_energy">    -50.54640609 </i>
    <i name="e_wo_entrp">    -50.54640609 </i>
    <i name="e_0_energy">    -50.54640609 </i>
   </energy>
  </scstep>
  <scstep>
   <time name="dav">    1.96    1.96</time>
   <time name="total">    2.20    2.23</time>
   <energy>
    <i name="alphaZ">     59.60692482 </i>
    <i name="ewald">  46399.83879678 </i>
    <i name="hartreedc"> -71263.94595737 </i>
    <i name="XCdc">   -284.70019356 </i>
    <i name="pawpsdc">  26945.14348705 </i>
    <i name="pawaedc"> -25835.51551618 </i>
    <i name="eentropy">      0.00000000 </i>
    <i name="bandstr">  -2000.93969922 </i>
    <i name="atom">  25929.96575216 </i>
    <i name="e_fr_energy">    -50.54640551 </i>
    <i name="e_wo_entrp">    -50.54640551 </i>
    <i name="e_0_energy">    -50.54640551 </i>
   </energy>
  </scstep>
  <structure>
   <crystal>
    <varray name="basis" >
     <v>      20.73795020       0.00000000       0.00000000 </v>
     <v>       0.00000000      20.73795020       0.00000000 </v>
     <v>       0.00000000       0.00000000      20.73795020 </v>
    </varray>
    <i name="volume">   8918.61633006 </i>
    <varray name="rec_basis" >
     <v>       0.04822077       0.00000000       0.00000000 </v>
     <v>       0.00000000       0.04822077       0.00000000 </v>
     <v>       0.00000000       0.00000000       0.04822077 </v>
    </varray>
   </crystal>
   <varray name="positions" >
    <v>       0.64214813       0.66106852       0.38370452 </v>
    <v>       0.51910683       0.49000211       0.46090041 </v>
    <v>       0.51603161       0.62277547       0.42237817 </v>
    <v>       0.72956799       0.65113489       0.49332681 </v>
    <v>       0.59490928       0.70168485       0.49923375 </v>
    <v>       0.52712314       0.35467652       0.47728439 </v>
    <v>       0.41026964       0.42306844       0.49650649 </v>
    <v>       0.63561297       0.31403333       0.54617118 </v>
    <v>       0.40699542       0.56557551       0.47556813 </v>
    <v>       0.62863481       0.56728993       0.47850852 </v>
    <v>       0.45283616       0.68552622       0.52371534 </v>
    <v>       0.63184203       0.44027131       0.51491009 </v>
    <v>       0.73036865       0.53182606       0.56264041 </v>
    <v>       0.52573818       0.58018269       0.56911542 </v>
    <v>       0.70559655       0.40752897       0.61776577 </v>
    <v>       0.40796158       0.51426789       0.59776577 </v>
    <v>       0.51488611       0.42909780       0.58862446 </v>
    <v>       0.54155924       0.72247242       0.61500328 </v>
    <v>       0.66093346       0.64328826       0.60798801 </v>
    <v>       0.44324785       0.63884396       0.66000339 </v>
    <v>       0.62300533       0.51202836       0.63841230 </v>
    <v>       0.50137320       0.51489241       0.69170309 </v>
    <v>       0.63924890       0.74209128       0.70155250 </v>
    <v>       0.57514696       0.62269947       0.70868060 </v>
    <v>       0.50717058       0.73498792       0.73985180 </v>
   </varray>
  </structure>
  <varray name="forces" >
   <v>      -0.04720459       0.02890737      -0.00590308 </v>
   <v>      -0.00008537       0.00290500       0.02586011 </v>
   <v>      -0.03051296       0.01787189      -0.01457198 </v>
   <v>       0.00564810      -0.03720782      -0.00747219 </v>
   <v>       0.01480180      -0.01105056       0.01782663 </v>
   <v>       0.00359532      -0.01660479      -0.00412419 </v>
   <v>       0.01823334      -0.01010538       0.01302041 </v>
   <v>      -0.00588905       0.00701802       0.03118583 </v>
   <v>      -0.02366429       0.01536696      -0.00589823 </v>
   <v>      -0.01051669      -0.00167227      -0.04288481 </v>
   <v>      -0.00673572      -0.01292643       0.01041307 </v>
   <v>       0.01376268      -0.00720869      -0.00712274 </v>
   <v>      -0.00851132       0.02551467      -0.00725196 </v>
   <v>       0.01251274      -0.00877315       0.01832862 </v>
   <v>       0.05110089       0.02887668      -0.02715716 </v>
   <v>      -0.01112252       0.00379718      -0.01127378 </v>
   <v>       0.00290784      -0.03787418       0.00406921 </v>
   <v>      -0.02724613       0.01951577      -0.00593288 </v>
   <v>       0.01130292       0.01721651       0.01925376 </v>
   <v>       0.00156458      -0.00871723       0.01495778 </v>
   <v>       0.02933045      -0.00774222       0.02155784 </v>
   <v>       0.00910012      -0.01830652      -0.02364888 </v>
   <v>      -0.01951666       0.00356259      -0.01799040 </v>
   <v>       0.00501639      -0.00675913       0.01701163 </v>
   <v>       0.01212817       0.01439575      -0.01225262 </v>
  </varray>
  <varray name="stress" >
   <v>      -1.43784922       0.01959234       0.04238302 </v>
   <v>       0.01959235      -1.42075979      -0.01107029 </v>
   <v>       0.04238302      -0.01107028      -1.33198355 </v>
  </varray>
  <energy>
   <i name="e_fr_energy">    -50.54640551 </i>
   <i name="e_wo_entrp">    -50.54640551 </i>
   <i name="e_0_energy">      0.00000000 </i>
  </energy>
  <time name="totalsc">   13.38   13.49</time>
 </calculation>
 <calculation>
  <scstep>
   <time name="dav">    2.72    2.72</time>
   <time name="total">    3.06    3.07</time>
   <energy>
    <i name="alphaZ">     59.60692482 </i>
    <i name="ewald">  46389.77552273 </i>
    <i name="hartreedc"> -71253.98938437 </i>
    <i name="XCdc">   -284.71171082 </i>
    <i name="pawpsdc">  26944.79434709 </i>
    <i name="pawaedc"> -25835.16104253 </i>
    <i name="eentropy">      0.00000000 </i>
    <i name="bandstr">  -2000.82816798 </i>
    <i name="atom">  25929.96575216 </i>
    <i name="e_fr_energy">    -50.54775888 </i>
    <i name="e_wo_entrp">    -50.54775888 </i>
    <i name="e_0_energy">    -50.54775888 </i>
   </energy>
  </scstep>
  <scstep>
   <time name="dav">    2.78    2.79</time>
   <time name="total">    3.13    3.13</time>
   <energy>
    <i name="e_fr_energy">    -50.54892799 </i>
    <i name="e_wo_entrp">    -50.54892799 </i>
    <i name="e_0_energy">    -50.54892799 </i>
   </energy>
  </scstep>
  <scstep>
   <time name="dav">    1.98    1.98</time>
   <time name="total">    2.22    2.24</time>
   <energy>
    <i name="alphaZ">     59.60692482 </i>
    <i name="ewald">  46389.77552273 </i>
    <i name="hartreedc"> -71254.02960382 </i>
    <i name="XCdc">   -284.70894416 </i>
    <i name="pawpsdc">  26944.09377182 </i>
    <i name="pawaedc"> -25834.45029552 </i>
    <i name="eentropy">      0.00000000 </i>
    <i name="bandstr">  -2000.80204304 </i>
    <i name="atom">  25929.96575216 </i>
    <i name="e_fr_energy">    -50.54891500 </i>
    <i name="e_wo_entrp">    -50.54891500 </i>
    <i name="e_0_energy">    -50.54891500 </i>
   </energy>
  </scstep>
  <structure>
   <crystal>
    <varray name="basis" >
     <v>      20.73795020       0.00000000       0.00000000 </v>
     <v>       0.00000000      20.73795020       0.00000000 </v>
     <v>       0.00000000       0.00000000      20.73795020 </v>
    </varray>
    <i name="volume">   8918.61633006 </i>
    <varray name="rec_basis" >
     <v>       0.04822077       0.00000000       0.00000000 </v>
     <v>       0.00000000       0.04822077       0.00000000 </v>
     <v>       0.00000000       0.00000000       0.04822077 </v>
    </varray>
   </crystal>
   <varray name="positions" >
    <v>       0.64192805       0.66122533       0.38358156 </v>
    <v>       0.51910091       0.49000440       0.46105479 </v>
    <v>       0.51586254       0.62288568       0.42232130 </v>
    <v>       0.72960168       0.65093830       0.49329375 </v>
    <v>       0.59490376       0.70165167       0.49951179 </v>
    <v>       0.52715667       0.35459919       0.47728119 </v>
    <v>       0.41037106       0.42303427       0.49658035 </v>
    <v>       0.63556848       0.31402937       0.54634304 </v>
    <v>       0.40687622       0.56562753       0.47556493 </v>
    <v>       0.62858930       0.56721550       0.47831687 </v>
    <v>       0.45285119       0.68544386       0.52378593 </v>
    <v>       0.63188367       0.44033232       0.51483660 </v>
    <v>       0.73029434       0.53195601       0.56259387 </v>
    <v>       0.52579670       0.58016632       0.56921951 </v>
    <v>       0.70589415       0.40767454       0.61764614 </v>
    <v>       0.40790519       0.51430033       0.59767368 </v>
    <v>       0.51491900       0.42887354       0.58860095 </v>
    <v>       0.54145359       0.72251470       0.61478375 </v>
    <v>       0.66096789       0.64338547       0.60806179 </v>
    <v>       0.44328525       0.63877871       0.66007378 </v>
    <v>       0.62317121       0.51199476       0.63851354 </v>
    <v>       0.50142177       0.51483832       0.69159572 </v>
    <v>       0.63916702       0.74212383       0.70146553 </v>
    <v>       0.57513570       0.62265673       0.70875906 </v>
    <v>       0.50720926       0.73506391       0.73985519 </v>
   </varray>
  </structure>
  <varray name="forces" >
   <v>      -0.04496159       0.02193546       0.01959220 </v>
   <v>      -0.00700736       0.00959747       0.01516673 </v>
   <v>      -0.01371909       0.00972288      -0.00602479 </v>
   <v>      -0.00310291      -0.02098179      -0.01268948 </v>
   <v>       0.03142870      -0.02680479      -0.04062149 </v>
   <v>       0.00525160      -0.01570413      -0.00621893 </v>
   <v>       0.00657183      -0.01241218       0.00790352 </v>
   <v>      -0.00406938       0.02010355       0.02644156 </v>
   <v>      -0.01721433       0.01129814      -0.00971882 </v>
   <v>      -0.01362505       0.01691684      -0.04152995 </v>
   <v>      -0.02070915      -0.01140592       0.00042642 </v>
   <v>       0.01655004      -0.02576949       0.00781987 </v>
   <v>      -0.00200908       0.01897946      -0.00549413 </v>
   <v>       0.01657487      -0.01383270       0.01196038 </v>
   <v>       0.04365286       0.02353450      -0.03252811 </v>
   <v>       0.00082103      -0.00142228      -0.00004616 </v>
   <v>       0.00226422      -0.01963302       0.01477508 </v>
   <v>      -0.02668991       0.02444251       0.06113045 </v>
   <v>       0.01029447       0.00956412       0.01639662 </v>
   <v>       0.00125909      -0.00304760       0.01330491 </v>
   <v>       0.01414815      -0.00594187       0.01787304 </v>
   <v>       0.00540745      -0.02160108      -0.02400628 </v>
   <v>      -0.02111076       0.00363694      -0.01703489 </v>
   <v>       0.00598481       0.00269643       0.00767132 </v>
   <v>       0.01400951       0.00612858      -0.02454907 </v>
  </varray>
  <varray name="stress" >
   <v>      -1.44362832       0.02344607       0.03704233 </v>
   <v>       0.02344607      -1.42863310      -0.01207012 </v>
   <v>       0.03704233      -0.01207011      -1.32856750 </v>
  </varray>
  <energy>
   <i name="e_fr_energy">    -50.54891500 </i>
   <i name="e_wo_entrp">    -50.54891500 </i>
   <i name="e_0_energy">      0.00000000 </i>
  </energy>
  <time name="totalsc">   13.30   13.37</time>
 </calculation>
 <calculation>
  <scstep>
   <time name="dav">    2.74    2.74</time>
   <time name="total">    3.08    3.09</time>
   <energy>
    <i name="alphaZ">     59.60692482 </i>
    <i name="ewald">  46385.14644288 </i>
    <i name="hartreedc"> -71249.42092248 </i>
    <i name="XCdc">   -284.70692686 </i>
    <i name="pawpsdc">  26943.60049441 </i>
    <i name="pawaedc"> -25833.95077893 </i>
    <i name="eentropy">      0.00000000 </i>
    <i name="bandstr">  -2000.79093010 </i>
    <i name="atom">  25929.96575216 </i>
    <i name="e_fr_energy">    -50.54994410 </i>
    <i name="e_wo_entrp">    -50.54994410 </i>
    <i name="e_0_energy">    -50.54994410 </i>
   </energy>
  </scstep>
  <scstep>
   <time name="dav">    2.77    2.77</time>
   <time name="total">    3.11    3.12</time>
   <energy>
    <i name="e_fr_energy">    -50.55018614 </i>
    <i name="e_wo_entrp">    -50.55018614 </i>
    <i name="e_0_energy">    -50.55018614 </i>
   </energy>
  </scstep>
  <scstep>
   <time name="dav">    1.95    1.95</time>
   <time name="total">    2.19    2.19</time>
   <energy>
    <i name="alphaZ">     59.60692482 </i>
    <i name="ewald">  46385.14644288 </i>
    <i name="hartreedc"> -71249.43309230 </i>
    <i name="XCdc">   -284.70687644 </i>
    <i name="pawpsdc">  26943.76519099 </i>
    <i name="pawaedc"> -25834.11710719 </i>
    <i name="eentropy">      0.00000000 </i>
    <i name="bandstr">  -2000.77741735 </i>
    <i name="atom">  25929.96575216 </i>
    <i name="e_fr_energy">    -50.55018242 </i>
    <i name="e_wo_entrp">    -50.55018242 </i>
    <i name="e_0_energy">    -50.55018242 </i>
   </energy>
  </scstep>
  <structure>
   <crystal>
    <varray name="basis" >
     <v>      20.73795020       0.00000000       0.00000000 </v>
     <v>       0.00000000      20.73795020       0.00000000 </v>
     <v>       0.00000000       0.00000000      20.73795020 </v>
    </varray>
    <i name="volume">   8918.61633006 </i>
    <varray name="rec_basis" >
     <v>       0.04822077       0.00000000       0.00000000 </v>
     <v>       0.00000000       0.04822077       0.00000000 </v>
     <v>       0.00000000       0.00000000       0.04822077 </v>
    </varray>
   </crystal>
   <varray name="positions" >
    <v>       0.64181477       0.66128060       0.38363092 </v>
    <v>       0.51908325       0.49002859       0.46109301 </v>
    <v>       0.51582798       0.62291017       0.42230612 </v>
    <v>       0.72959386       0.65088544       0.49326177 </v>
    <v>       0.59498295       0.70158413       0.49940945 </v>
    <v>       0.52716990       0.35455962       0.47726552 </v>
    <v>       0.41038762       0.42300300       0.49660026 </v>
    <v>       0.63555822       0.31408002       0.54640966 </v>
    <v>       0.40683284       0.56565600       0.47554045 </v>
    <v>       0.62855497       0.56725813       0.47821224 </v>
    <v>       0.45279901       0.68541512       0.52378700 </v>
    <v>       0.63192537       0.44026739       0.51485631 </v>
    <v>       0.73028928       0.53200383       0.56258003 </v>
    <v>       0.52583846       0.58013147       0.56924965 </v>
    <v>       0.70600414       0.40773384       0.61756418 </v>
    <v>       0.40790726       0.51429674       0.59767356 </v>
    <v>       0.51492470       0.42882407       0.58863818 </v>
    <v>       0.54138634       0.72257628       0.61493777 </v>
    <v>       0.66099383       0.64340957       0.60810310 </v>
    <v>       0.44328842       0.63877103       0.66010730 </v>
    <v>       0.62320685       0.51197979       0.63855858 </v>
    <v>       0.50143539       0.51478390       0.69153524 </v>
    <v>       0.63911383       0.74213300       0.70142260 </v>
    <v>       0.57515078       0.62266352       0.70877839 </v>
    <v>       0.50724456       0.73507935       0.73979333 </v>
   </varray>
  </structure>
  <varray name="forces" >
   <v>      -0.04126192       0.02449460      -0.00817608 </v>
   <v>      -0.00430319       0.00434985       0.02129720 </v>
   <v>      -0.02455868       0.01084616      -0.00740760 </v>
   <v>       0.00163442      -0.02377175      -0.01143030 </v>
   <v>       0.00846260      -0.01221716       0.01637844 </v>
   <v>       0.00490590      -0.01334420      -0.00310526 </v>
   <v>       0.01039010      -0.01177532       0.01025392 </v>
   <v>      -0.00562209       0.00976589       0.03101781 </v>
   <v>      -0.02062715       0.00949114      -0.00661191 </v>
   <v>      -0.01208880      -0.00637706      -0.03356333 </v>
   <v>      -0.00720130      -0.01215938       0.01043505 </v>
   <v>       0.00905405      -0.00073129      -0.00433320 </v>
   <v>      -0.00808591       0.02178902      -0.00796818 </v>
   <v>       0.01560194      -0.00783818       0.01455738 </v>
   <v>       0.05775691       0.02734322      -0.03020523 </v>
   <v>      -0.00240837       0.00056682      -0.00769063 </v>
   <v>       0.00412260      -0.02854760       0.00613207 </v>
   <v>      -0.02131216       0.01209388      -0.00768444 </v>
   <v>       0.00749043       0.01266245       0.01282787 </v>
   <v>       0.00239463      -0.00839302       0.01223130 </v>
   <v>       0.02068826      -0.00630203       0.01778750 </v>
   <v>       0.00772643      -0.01541856      -0.01910920 </v>
   <v>      -0.01156935       0.00850440      -0.01303930 </v>
   <v>       0.00275336      -0.00665538       0.00947677 </v>
   <v>       0.00605729       0.01162349      -0.00207067 </v>
  </varray>
  <varray name="stress" >
   <v>      -1.44218946       0.02546872       0.03740388 </v>
   <v>       0.02546872      -1.42659665      -0.01123853 </v>
   <v>       0.03740387      -0.01123853      -1.32318374 </v>
  </varray>
  <energy>
   <i name="e_fr_energy">    -50.55018242 </i>
   <i name="e_wo_entrp">    -50.55018242 </i>
   <i name="e_0_energy">      0.00000000 </i>
  </energy>
  <time name="totalsc">   13.26   13.43</time>
 </calculation>
 <calculation>
  <scstep>
   <time name="dav">    2.70    2.70</time>
   <time name="total">    3.04    3.06</time>
   <energy>
    <i name="alphaZ">     59.60692482 </i>
    <i name="ewald">  46378.06192032 </i>
    <i name="hartreedc"> -71242.34711982 </i>
    <i name="XCdc">   -284.70420721 </i>
    <i name="pawpsdc">  26943.75892447 </i>
    <i name="pawaedc"> -25834.11168404 </i>
    <i name="eentropy">      0.00000000 </i>
    <i name="bandstr">  -2000.78108063 </i>
    <i name="atom">  25929.96575216 </i>
    <i name="e_fr_energy">    -50.55056993 </i>
    <i name="e_wo_entrp">    -50.55056993 </i>
    <i name="e_0_energy">    -50.55056993 </i>
   </energy>
  </scstep>
  <scstep>
   <time name="dav">    2.78    2.78</time>
   <time name="total">    3.12    3.15</time>
   <energy>
    <i name="e_fr_energy">    -50.55115098 </i>
    <i name="e_wo_entrp">    -50.55115098 </i>
    <i name="e_0_energy">    -50.55115098 </i>
   </energy>
  </scstep>
  <scstep>
   <time name="dav">    1.90    1.90</time>
   <time name="total">    2.14    2.17</time>
   <energy>
    <i name="alphaZ">     59.60692482 </i>
    <i name="ewald">  46378.06192032 </i>
    <i name="hartreedc"> -71242.36655330 </i>
    <i name="XCdc">   -284.70423720 </i>
    <i name="pawpsdc">  26944.28743338 </i>
    <i name="pawaedc"> -25834.64679590 </i>
    <i name="eentropy">      0.00000000 </i>
    <i name="bandstr">  -2000.75558679 </i>
    <i name="atom">  25929.96575216 </i>
    <i name="e_fr_energy">    -50.55114250 </i>
    <i name="e_wo_entrp">    -50.55114250 </i>
    <i name="e_0_energy">    -50.55114250 </i>
   </energy>
  </scstep>
  <structure>
   <crystal>
    <varray name="basis" >
     <v>      20.73795020       0.00000000       0.00000000 </v>
     <v>       0.00000000      20.73795020       0.00000000 </v>
     <v>       0.00000000       0.00000000      20.73795020 </v>
    </varray>
    <i name="volume">   8918.61633006 </i>
    <varray name="rec_basis" >
     <v>       0.04822077       0.00000000       0.00000000 </v>
     <v>       0.00000000       0.04822077       0.00000000 </v>
     <v>       0.00000000       0.00000000       0.04822077 </v>
    </varray>
   </crystal>
   <varray name="positions" >
    <v>       0.64164090       0.66136542       0.38370668 </v>
    <v>       0.51905615       0.49006570       0.46115166 </v>
    <v>       0.51577493       0.62294777       0.42228282 </v>
    <v>       0.72958186       0.65080430       0.49321270 </v>
    <v>       0.59510448       0.70148048       0.49925236 </v>
    <v>       0.52719021       0.35449889       0.47724147 </v>
    <v>       0.41041304       0.42295500       0.49663082 </v>
    <v>       0.63554249       0.31415776       0.54651191 </v>
    <v>       0.40676628       0.56569969       0.47550286 </v>
    <v>       0.62850229       0.56732354       0.47805164 </v>
[...]
       <r>    -0.6206     0.0000   156.0000 </r>
       <r>    -0.5817     0.0000   157.0000 </r>
       <r>    -0.5429     0.0000   157.0000 </r>
       <r>    -0.5040     0.0000   157.0000 </r>
       <r>    -0.4652     0.0000   157.0000 </r>
       <r>    -0.4264     0.0000   158.0000 </r>
       <r>    -0.3875     0.0000   158.0000 </r>
       <r>    -0.3487     0.0000   159.0000 </r>
       <r>    -0.3098     0.0000   159.0000 </r>
       <r>    -0.2710     0.0000   159.0000 </r>
       <r>    -0.2322     0.0000   160.0000 </r>
       <r>    -0.1933     0.0000   160.0000 </r>
       <r>    -0.1545     0.0000   160.0000 </r>
       <r>    -0.1157     0.0000   161.0000 </r>
       <r>    -0.0768     0.0000   161.0000 </r>
       <r>    -0.0380     0.0000   161.0000 </r>
       <r>     0.0009     0.0000   161.0000 </r>
       <r>     0.0397     0.0000   161.0000 </r>
       <r>     0.0785     0.0000   161.0000 </r>
       <r>     0.1174     0.0000   162.0000 </r>
       <r>     0.1562     0.0000   162.0000 </r>
       <r>     0.1951     0.0000   162.0000 </r>
       <r>     0.2339     0.0000   163.0000 </r>
       <r>     0.2727     0.0000   163.0000 </r>
       <r>     0.3116     0.0000   163.0000 </r>
       <r>     0.3504     0.0000   163.0000 </r>
       <r>     0.3893     0.0000   164.0000 </r>
       <r>     0.4281    25.7474   165.0000 </r>
       <r>     0.4669     0.0000   165.0000 </r>
       <r>     0.5058     0.0000   166.0000 </r>
       <r>     0.5446     0.0000   166.0000 </r>
       <r>     0.5834     0.0000   166.0000 </r>
       <r>     0.6223     0.0000   167.0000 </r>
       <r>     0.6611     0.0000   167.0000 </r>
       <r>     0.7000     0.0000   169.0000 </r>
       <r>     0.7388     0.0000   169.0000 </r>
       <r>     0.7776     0.0000   171.0000 </r>
       <r>     0.8165     0.0000   172.0000 </r>
       <r>     0.8553     0.0000   173.0000 </r>
       <r>     0.8942    25.7441   173.9999 </r>
       <r>     0.9330     0.0000   174.0000 </r>
       <r>     0.9718     0.0000   175.0000 </r>
       <r>     1.0107     0.0000   176.0000 </r>
       <r>     1.0495    25.7474   178.0000 </r>
       <r>     1.0884     0.0000   180.0000 </r>
       <r>     1.1272     0.0000   180.0000 </r>
       <r>     1.1660     0.0000   180.0000 </r>
       <r>     1.2049     0.0000   180.0000 </r>
       <r>     1.2437     0.0000   180.0000 </r>
       <r>     1.2825     0.0000   180.0000 </r>
       <r>     1.3214     0.0000   180.0000 </r>
       <r>     1.3602     0.0000   180.0000 </r>
       <r>     1.3991     0.0000   180.0000 </r>
       <r>     1.4379     0.0000   180.0000 </r>
       <r>     1.4767     0.0000   180.0000 </r>
       <r>     1.5156     0.0000   180.0000 </r>
       <r>     1.5544     0.0000   180.0000 </r>
       <r>     1.5933     0.0000   180.0000 </r>
       <r>     1.6321     0.0000   180.0000 </r>
      </set>
      <set comment="spin 2">
       <r>   -10.0196     0.0000     0.0000 </r>
       <r>    -9.9807     0.0000     0.0000 </r>
       <r>    -9.9419     0.0000     0.0000 </r>
       <r>    -9.9030     0.0000     0.0000 </r>
       <r>    -9.8642     0.0000     0.0000 </r>
       <r>    -9.8254     0.0000     0.0000 </r>
       <r>    -9.7865     0.0000     0.0000 </r>
       <r>    -9.7477     0.0000     0.0000 </r>
       <r>    -9.7089     0.0000     0.0000 </r>
       <r>    -9.6700     0.0000     0.0000 </r>
       <r>    -9.6312     0.0000     0.0000 </r>
       <r>    -9.5923     0.0000     0.0000 </r>
       <r>    -9.5535     0.0000     0.0000 </r>
       <r>    -9.5147     0.0000     0.0000 </r>
       <r>    -9.4758     0.0000     0.0000 </r>
       <r>    -9.4370     0.0000     1.0000 </r>
       <r>    -9.3981     0.0000     1.0000 </r>
       <r>    -9.3593     0.0000     1.0000 </r>
       <r>    -9.3205     0.0000     1.0000 </r>
       <r>    -9.2816     0.0000     1.0000 </r>
       <r>    -9.2428     0.0000     1.0000 </r>
       <r>    -9.2039     0.0000     1.0000 </r>
       <r>    -9.1651     0.0000     2.0000 </r>
       <r>    -9.1263     0.0000     2.0000 </r>
       <r>    -9.0874     0.0000     2.0000 </r>
       <r>    -9.0486     0.0000     3.0000 </r>
       <r>    -9.0098     0.0000     4.0000 </r>
       <r>    -8.9709     0.0000     5.0000 </r>
       <r>    -8.9321     0.0000     6.0000 </r>
       <r>    -8.8932    25.7474     7.0000 </r>
       <r>    -8.8544     0.0000     8.0000 </r>
       <r>    -8.8156     0.0000     9.0000 </r>
       <r>    -8.7767     0.0000    11.0000 </r>
       <r>    -8.7379     0.0000    11.0000 </r>
       <r>    -8.6990     0.0000    12.0000 </r>
       <r>    -8.6602     0.0000    13.0000 </r>
       <r>    -8.6214     0.0000    14.0000 </r>
       <r>    -8.5825     0.0000    16.0000 </r>
       <r>    -8.5437    25.6836    16.9975 </r>
       <r>    -8.5049     0.0000    18.0000 </r>
       <r>    -8.4660    25.7474    20.0000 </r>
       <r>    -8.4272     0.0000    21.0000 </r>
       <r>    -8.3883     0.0000    23.0000 </r>
       <r>    -8.3495     0.0000    25.0000 </r>
       <r>    -8.3107     0.0000    25.0000 </r>
       <r>    -8.2718    22.2832    27.8655 </r>
       <r>    -8.2330     0.0000    30.0000 </r>
       <r>    -8.1941     0.0000    31.0000 </r>
       <r>    -8.1553     0.0000    31.0000 </r>
       <r>    -8.1165     0.0000    33.0000 </r>
       <r>    -8.0776    15.3979    33.5980 </r>
       <r>    -8.0388     0.0000    36.0000 </r>
       <r>    -7.9999     0.0000    37.0000 </r>
       <r>    -7.9611     0.0000    39.0000 </r>
       <r>    -7.9223     0.0000    40.0000 </r>
       <r>    -7.8834     0.0000    42.0000 </r>
       <r>    -7.8446     0.0000    43.0000 </r>
       <r>    -7.8058     0.0000    45.0000 </r>
       <r>    -7.7669     0.0000    46.0000 </r>
       <r>    -7.7281     0.0000    48.0000 </r>
       <r>    -7.6892     0.0000    49.0000 </r>
       <r>    -7.6504     0.0000    50.0000 </r>
       <r>    -7.6116     0.0000    51.0000 </r>
       <r>    -7.5727     0.0000    53.0000 </r>
       <r>    -7.5339     0.0000    53.0000 </r>
       <r>    -7.4950     0.0000    55.0000 </r>
       <r>    -7.4562     0.0000    57.0000 </r>
       <r>    -7.4174     0.0000    59.0000 </r>
       <r>    -7.3785     0.0000    60.0000 </r>
       <r>    -7.3397     0.0000    62.0000 </r>
       <r>    -7.3008     0.0000    65.0000 </r>
       <r>    -7.2620     0.0000    67.0000 </r>
       <r>    -7.2232     0.0000    68.0000 </r>
       <r>    -7.1843     0.0000    69.0000 </r>
       <r>    -7.1455     0.0000    71.0000 </r>
       <r>    -7.1067     0.0000    74.0000 </r>
       <r>    -7.0678     0.0000    76.0000 </r>
       <r>    -7.0290     0.0000    78.0000 </r>
       <r>    -6.9901     0.0000    80.0000 </r>
       <r>    -6.9513    25.7369    82.9996 </r>
       <r>    -6.9125     0.0000    86.0000 </r>
       <r>    -6.8736     0.0000    87.0000 </r>
       <r>    -6.8348     0.0000    90.0000 </r>
       <r>    -6.7959     0.0000    92.0000 </r>
       <r>    -6.7571     0.0000    96.0000 </r>
       <r>    -6.7183     0.0000    99.0000 </r>
       <r>    -6.6794     0.0000   101.0000 </r>
       <r>    -6.6406     0.0000   104.0000 </r>
       <r>    -6.6017     0.0000   106.0000 </r>
       <r>    -6.5629     0.0000   109.0000 </r>
       <r>    -6.5241     0.0000   111.0000 </r>
       <r>    -6.4852     0.0000   113.0000 </r>
       <r>    -6.4464     0.0000   115.0000 </r>
       <r>    -6.4076    25.7474   118.0000 </r>
       <r>    -6.3687     0.0000   120.0000 </r>
       <r>    -6.3299     0.0000   121.0000 </r>
       <r>    -6.2910     0.0000   123.0000 </r>
       <r>    -6.2522     0.0000   124.0000 </r>
       <r>    -6.2134     0.0000   126.0000 </r>
       <r>    -6.1745     0.0000   128.0000 </r>
       <r>    -6.1357     0.0000   128.0000 </r>
       <r>    -6.0968     0.0000   129.0000 </r>
       <r>    -6.0580     0.0000   129.0000 </r>
       <r>    -6.0192     0.0000   129.0000 </r>
       <r>    -5.9803     0.0000   129.0000 </r>
       <r>    -5.9415     0.0000   129.0000 </r>
       <r>    -5.9026     0.0000   129.0000 </r>
       <r>    -5.8638     0.0000   129.0000 </r>
       <r>    -5.8250     0.0000   129.0000 </r>
       <r>    -5.7861     0.0000   129.0000 </r>
       <r>    -5.7473     0.0000   129.0000 </r>
       <r>    -5.7085     0.0000   129.0000 </r>
       <r>    -5.6696     0.0000   129.0000 </r>
       <r>    -5.6308     0.0000   129.0000 </r>
       <r>    -5.5919     0.0000   129.0000 </r>
       <r>    -5.5531     0.0000   130.0000 </r>
       <r>    -5.5143     0.0000   130.0000 </r>
       <r>    -5.4754     0.0000   130.0000 </r>
       <r>    -5.4366     0.0000   130.0000 </r>
       <r>    -5.3977     0.0000   130.0000 </r>
       <r>    -5.3589     0.0000   130.0000 </r>
       <r>    -5.3201     0.0000   130.0000 </r>
       <r>    -5.2812     0.0000   130.0000 </r>
       <r>    -5.2424     0.0000   130.0000 </r>
       <r>    -5.2035     0.0000   131.0000 </r>
       <r>    -5.1647     0.0000   131.0000 </r>
       <r>    -5.1259     0.0000   131.0000 </r>
       <r>    -5.0870     0.0000   131.0000 </r>
       <r>    -5.0482     0.0000   131.0000 </r>
       <r>    -5.0094     0.0000   131.0000 </r>
       <r>    -4.9705     0.0000   132.0000 </r>
       <r>    -4.9317     0.0000   132.0000 </r>
       <r>    -4.8928     0.0000   132.0000 </r>
       <r>    -4.8540     0.0000   132.0000 </r>
       <r>    -4.8152     0.0000   132.0000 </r>
       <r>    -4.7763     0.0000   132.0000 </r>
       <r>    -4.7375     1.4492   132.0563 </r>
       <r>    -4.6986     0.0000   133.0000 </r>
       <r>    -4.6598     0.0000   133.0000 </r>
       <r>    -4.6210     0.0000   133.0000 </r>
       <r>    -4.5821     0.0000   133.0000 </r>
       <r>    -4.5433     0.0000   134.0000 </r>
       <r>    -4.5044     0.0000   134.0000 </r>
       <r>    -4.4656     0.0000   134.0000 </r>
       <r>    -4.4268     0.0000   134.0000 </r>
       <r>    -4.3879     0.0000   134.0000 </r>
       <r>    -4.3491     0.0000   134.0000 </r>
       <r>    -4.3103     0.0000   135.0000 </r>
       <r>    -4.2714     0.0000   135.0000 </r>
       <r>    -4.2326     0.0000   135.0000 </r>
       <r>    -4.1937     0.0000   135.0000 </r>
       <r>    -4.1549     0.0000   135.0000 </r>
       <r>    -4.1161     0.0000   135.0000 </r>
       <r>    -4.0772     0.0000   135.0000 </r>
       <r>    -4.0384     0.0000   135.0000 </r>
       <r>    -3.9995     0.0000   135.0000 </r>
       <r>    -3.9607     0.0000   135.0000 </r>
       <r>    -3.9219     0.0000   135.0000 </r>
       <r>    -3.8830     0.0000   135.0000 </r>
       <r>    -3.8442     0.0000   135.0000 </r>
       <r>    -3.8053     0.0000   135.0000 </r>
       <r>    -3.7665     0.0000   136.0000 </r>
       <r>    -3.7277     0.0000   136.0000 </r>
       <r>    -3.6888     0.0000   136.0000 </r>
       <r>    -3.6500     0.0000   136.0000 </r>
       <r>    -3.6112     0.0000   137.0000 </r>
       <r>    -3.5723     0.0000   137.0000 </r>
       <r>    -3.5335     0.0000   137.0000 </r>
       <r>    -3.4946     0.0000   137.0000 </r>
       <r>    -3.4558     0.0000   137.0000 </r>
       <r>    -3.4170     0.0000   137.0000 </r>
       <r>    -3.3781     0.0000   137.0000 </r>
       <r>    -3.3393     0.0000   137.0000 </r>
       <r>    -3.3004     0.0000   137.0000 </r>
       <r>    -3.2616     0.0000   137.0000 </r>
       <r>    -3.2228     0.0000   137.0000 </r>
       <r>    -3.1839     0.0000   137.0000 </r>
       <r>    -3.1451     0.0000   138.0000 </r>
       <r>    -3.1062     0.0000   138.0000 </r>
       <r>    -3.0674     0.0000   138.0000 </r>
       <r>    -3.0286     0.0000   138.0000 </r>
       <r>    -2.9897     0.0000   139.0000 </r>
       <r>    -2.9509     0.0000   139.0000 </r>
       <r>    -2.9121     0.0000   139.0000 </r>
       <r>    -2.8732     0.0000   139.0000 </r>
       <r>    -2.8344     0.0000   140.0000 </r>
       <r>    -2.7955     0.0000   140.0000 </r>
       <r>    -2.7567     0.0000   141.0000 </r>
       <r>    -2.7179     0.0000   141.0000 </r>
       <r>    -2.6790     0.0000   141.0000 </r>
       <r>    -2.6402     0.0000   141.0000 </r>
       <r>    -2.6013     0.0000   141.0000 </r>
       <r>    -2.5625     0.0000   141.0000 </r>
       <r>    -2.5237     0.0000   142.0000 </r>
       <r>    -2.4848     0.0000   142.0000 </r>
       <r>    -2.4460     0.0000   142.0000 </r>
       <r>    -2.4071     0.0000   143.0000 </r>
       <r>    -2.3683     0.0000   143.0000 </r>
       <r>    -2.3295     0.0000   143.0000 </r>
       <r>    -2.2906     0.0000   143.0000 </r>
       <r>    -2.2518     0.0000   144.0000 </r>
       <r>    -2.2130     0.0000   144.0000 </r>
       <r>    -2.1741     0.0000   144.0000 </r>
       <r>    -2.1353     0.0000   144.0000 </r>
       <r>    -2.0964     0.0000   144.0000 </r>
       <r>    -2.0576     0.0000   144.0000 </r>
       <r>    -2.0188     0.0000   145.0000 </r>
       <r>    -1.9799     0.0000   145.0000 </r>
       <r>    -1.9411     0.0000   146.0000 </r>
       <r>    -1.9022     0.0000   146.0000 </r>
       <r>    -1.8634     0.0000   146.0000 </r>
       <r>    -1.8246     0.0000   147.0000 </r>
       <r>    -1.7857     0.0000   147.0000 </r>
       <r>    -1.7469     0.0000   147.0000 </r>
       <r>    -1.7080     0.0000   147.0000 </r>
       <r>    -1.6692     0.0000   147.0000 </r>
       <r>    -1.6304     0.0000   147.0000 </r>
       <r>    -1.5915     0.0000   147.0000 </r>
       <r>    -1.5527     0.0000   147.0000 </r>
       <r>    -1.5139     0.0000   148.0000 </r>
       <r>    -1.4750     0.0000   148.0000 </r>
       <r>    -1.4362     0.0000   148.0000 </r>
       <r>    -1.3973     0.0000   148.0000 </r>
       <r>    -1.3585     0.0000   148.0000 </r>
       <r>    -1.3197     0.0000   148.0000 </r>
       <r>    -1.2808     0.0000   149.0000 </r>
       <r>    -1.2420     0.0000   149.0000 </r>
       <r>    -1.2031     0.0000   149.0000 </r>
       <r>    -1.1643     0.0000   149.0000 </r>
       <r>    -1.1255     0.0000   150.0000 </r>
       <r>    -1.0866     0.0000   151.0000 </r>
       <r>    -1.0478     0.0000   151.0000 </r>
       <r>    -1.0089     0.0000   151.0000 </r>
       <r>    -0.9701     0.0000   152.0000 </r>
       <r>    -0.9313     0.0000   152.0000 </r>
       <r>    -0.8924     0.0000   153.0000 </r>
       <r>    -0.8536     0.0000   154.0000 </r>
       <r>    -0.8148     0.0000   154.0000 </r>
       <r>    -0.7759     0.0000   154.0000 </r>
       <r>    -0.7371     0.0000   154.0000 </r>
       <r>    -0.6982     0.0000   154.0000 </r>
       <r>    -0.6594     0.0000   154.0000 </r>
       <r>    -0.6206     0.0000   155.0000 </r>
       <r>    -0.5817     0.0000   156.0000 </r>
       <r>    -0.5429     0.0000   157.0000 </r>
       <r>    -0.5040     0.0000   157.0000 </r>
       <r>    -0.4652     0.0000   157.0000 </r>
       <r>    -0.4264     0.0000   157.0000 </r>
       <r>    -0.3875     0.0000   158.0000 </r>
       <r>    -0.3487     0.0000   158.0000 </r>
       <r>    -0.3098     0.0000   159.0000 </r>
       <r>    -0.2710     0.0000   159.0000 </r>
       <r>    -0.2322     0.0000   159.0000 </r>
       <r>    -0.1933     0.0000   160.0000 </r>
       <r>    -0.1545     0.0000   160.0000 </r>
       <r>    -0.1157     0.0000   160.0000 </r>
       <r>    -0.0768     0.0000   160.0000 </r>
       <r>    -0.0380     0.0000   161.0000 </r>
       <r>     0.0009     0.0000   161.0000 </r>
       <r>     0.0397     0.0000   161.0000 </r>
       <r>     0.0785     0.0000   161.0000 </r>
       <r>     0.1174     0.0000   161.0000 </r>
       <r>     0.1562     0.0000   162.0000 </r>
       <r>     0.1951     0.0000   162.0000 </r>
       <r>     0.2339     0.0000   162.0000 </r>
       <r>     0.2727     0.0000   162.0000 </r>
       <r>     0.3116     0.0000   163.0000 </r>
       <r>     0.3504     0.0000   163.0000 </r>
       <r>     0.3893     0.0000   163.0000 </r>
       <r>     0.4281     0.0000   164.0000 </r>
       <r>     0.4669     0.0000   164.0000 </r>
       <r>     0.5058     0.0000   166.0000 </r>
       <r>     0.5446     0.0000   166.0000 </r>
       <r>     0.5834     0.0000   166.0000 </r>
       <r>     0.6223     0.0000   166.0000 </r>
       <r>     0.6611     0.0000   166.0000 </r>
       <r>     0.7000     0.0000   168.0000 </r>
       <r>     0.7388     0.0000   169.0000 </r>
       <r>     0.7776     0.0000   170.0000 </r>
       <r>     0.8165     0.0000   171.0000 </r>
       <r>     0.8553     0.0000   172.0000 </r>
       <r>     0.8942     0.0000   173.0000 </r>
       <r>     0.9330     0.0000   174.0000 </r>
       <r>     0.9718     0.0000   175.0000 </r>
       <r>     1.0107     0.0000   175.0000 </r>
       <r>     1.0495     0.0000   177.0000 </r>
       <r>     1.0884     0.0000   178.0000 </r>
       <r>     1.1272     0.0000   180.0000 </r>
       <r>     1.1660     0.0000   180.0000 </r>
       <r>     1.2049     0.0000   180.0000 </r>
       <r>     1.2437     0.0000   180.0000 </r>
       <r>     1.2825     0.0000   180.0000 </r>
       <r>     1.3214     0.0000   180.0000 </r>
       <r>     1.3602     0.0000   180.0000 </r>
       <r>     1.3991     0.0000   180.0000 </r>
       <r>     1.4379     0.0000   180.0000 </r>
       <r>     1.4767     0.0000   180.0000 </r>
       <r>     1.5156     0.0000   180.0000 </r>
       <r>     1.5544     0.0000   180.0000 </r>
       <r>     1.5933     0.0000   180.0000 </r>
       <r>     1.6321     0.0000   180.0000 </r>
      </set>
     </set>
    </array>
   </total>
  </dos>
 </calculation>
 <structure name="finalpos" >
  <crystal>
   <varray name="basis" >
    <v>      20.73795020       0.00000000       0.00000000 </v>
    <v>       0.00000000      20.73795020       0.00000000 </v>
    <v>       0.00000000       0.00000000      20.73795020 </v>
   </varray>
   <i name="volume">   8918.61633006 </i>
   <varray name="rec_basis" >
    <v>       0.04822077       0.00000000       0.00000000 </v>
    <v>       0.00000000       0.04822077       0.00000000 </v>
    <v>       0.00000000       0.00000000       0.04822077 </v>
   </varray>
  </crystal>
  <varray name="positions" >
   <v>       0.63902740       0.66263943       0.38262086 </v>
   <v>       0.51746013       0.49015367       0.46271051 </v>
   <v>       0.51425107       0.62299272       0.42243409 </v>
   <v>       0.72840420       0.65085010       0.49129785 </v>
   <v>       0.59460335       0.70047746       0.50001877 </v>
   <v>       0.52778697       0.35401109       0.47735474 </v>
   <v>       0.41041286       0.42127890       0.49737602 </v>
   <v>       0.63529115       0.31527646       0.54879267 </v>
   <v>       0.40490278       0.56546526       0.47507376 </v>
   <v>       0.62764343       0.56686605       0.47585905 </v>
   <v>       0.45210314       0.68381890       0.52494321 </v>
   <v>       0.63189731       0.44075162       0.51496986 </v>
   <v>       0.72953067       0.53401458       0.56146116 </v>
   <v>       0.52765605       0.57967405       0.57051457 </v>
   <v>       0.71088543       0.40967110       0.61468142 </v>
   <v>       0.40914328       0.51404535       0.59702120 </v>
   <v>       0.51551170       0.42724753       0.58921134 </v>
   <v>       0.54052850       0.72289411       0.61508638 </v>
   <v>       0.66145263       0.64448883       0.60836066 </v>
   <v>       0.44397767       0.63794607       0.66093569 </v>
   <v>       0.62484117       0.51122261       0.63976270 </v>
   <v>       0.50229209       0.51396515       0.69118483 </v>
   <v>       0.63844285       0.74371832       0.70066888 </v>
   <v>       0.57561771       0.62264932       0.70882207 </v>
   <v>       0.50765108       0.73519594       0.74015230 </v>
  </varray>
 </structure>
</modeling>
