  14  14   0   0
  0.5614519E+03  0.1988292E-08  0.1988292E-08  0.1988292E-08  0.1000000E-15
  1.000000000000000E-004
  CAR 
 unknown system                          
      1.20412501    -10.24036270  301     -3.50718910      1.00000000
    -10.240  0.0000E+00  0.0000E+00  0.0000E+00  0.0000E+00
    -10.202  0.0000E+00  0.0000E+00  0.0000E+00  0.0000E+00
    -10.164  0.0000E+00  0.0000E+00  0.0000E+00  0.0000E+00
    -10.126  0.0000E+00  0.0000E+00  0.0000E+00  0.0000E+00
    -10.088  0.0000E+00  0.0000E+00  0.0000E+00  0.0000E+00
    -10.050  0.0000E+00  0.0000E+00  0.0000E+00  0.0000E+00
    -10.011  0.0000E+00  0.0000E+00  0.0000E+00  0.0000E+00
     -9.973  0.0000E+00  0.0000E+00  0.0000E+00  0.0000E+00
     -9.935  0.0000E+00  0.0000E+00  0.0000E+00  0.0000E+00
     -9.897  0.0000E+00  0.0000E+00  0.0000E+00  0.0000E+00
     -9.859  0.0000E+00  0.0000E+00  0.0000E+00  0.0000E+00
     -9.821  0.0000E+00  0.0000E+00  0.0000E+00  0.0000E+00
     -9.783  0.0000E+00  0.0000E+00  0.0000E+00  0.0000E+00
     -9.744  0.0000E+00  0.0000E+00  0.0000E+00  0.0000E+00
     -9.706  0.0000E+00  0.0000E+00  0.1000E-02  0.0000E+00
     -9.668  0.0000E+00  0.0000E+00  0.1000E-02  0.1000E-02
     -9.630  0.0000E+00  0.0000E+00  0.1000E-02  0.1000E-02
     -9.592  0.0000E+00  0.0000E+00  0.1000E-02  0.1000E-02
     -9.554  0.0000E+00  0.0000E+00  0.1000E-02  0.1000E-02
     -9.516  0.0000E+00  0.0000E+00  0.1000E-02  0.1000E-02
     -9.477  0.0000E+00  0.0000E+00  0.1000E-02  0.1000E-02
     -9.439  0.0000E+00  0.0000E+00  0.1000E-02  0.1000E-02
     -9.401  0.0000E+00  0.2621E-01  0.2000E-02  0.2000E-02
     -9.363  0.0000E+00  0.0000E+00  0.3000E-02  0.2000E-02
     -9.325  0.0000E+00  0.0000E+00  0.3000E-02  0.3000E-02
     -9.287  0.0000E+00  0.0000E+00  0.5000E-02  0.3000E-02
     -9.249  0.0000E+00  0.0000E+00  0.5000E-02  0.4000E-02
     -9.210  0.0000E+00  0.0000E+00  0.5000E-02  0.5000E-02
     -9.172  0.0000E+00  0.0000E+00  0.5000E-02  0.5000E-02
     -9.134  0.0000E+00  0.0000E+00  0.6000E-02  0.5000E-02
     -9.096  0.0000E+00  0.0000E+00  0.6000E-02  0.6000E-02
     -9.058  0.0000E+00  0.0000E+00  0.6000E-02  0.6000E-02
     -9.020  0.0000E+00  0.0000E+00  0.6000E-02  0.6000E-02
     -8.981  0.0000E+00  0.0000E+00  0.6000E-02  0.6000E-02
     -8.943  0.0000E+00  0.0000E+00  0.6000E-02  0.6000E-02
     -8.905  0.0000E+00  0.0000E+00  0.6000E-02  0.6000E-02
     -8.867  0.0000E+00  0.0000E+00  0.6000E-02  0.6000E-02
     -8.829  0.0000E+00  0.0000E+00  0.6000E-02  0.6000E-02
     -8.791  0.0000E+00  0.0000E+00  0.6000E-02  0.6000E-02
     -8.753  0.0000E+00  0.0000E+00  0.7000E-02  0.6000E-02
     -8.714  0.0000E+00  0.0000E+00  0.7000E-02  0.7000E-02
     -8.676  0.0000E+00  0.0000E+00  0.7000E-02  0.7000E-02
     -8.638  0.0000E+00  0.0000E+00  0.7000E-02  0.7000E-02
     -8.600  0.0000E+00  0.0000E+00  0.8000E-02  0.8000E-02
     -8.562  0.0000E+00  0.0000E+00  0.9000E-02  0.9000E-02
     -8.524  0.7322E-11  0.0000E+00  0.1000E-01  0.9000E-02
     -8.486  0.0000E+00  0.0000E+00  0.1100E-01  0.1000E-01
     -8.447  0.0000E+00  0.0000E+00  0.1200E-01  0.1100E-01
     -8.409  0.0000E+00  0.0000E+00  0.1300E-01  0.1100E-01
     -8.371  0.0000E+00  0.0000E+00  0.1400E-01  0.1300E-01
     -8.333  0.0000E+00  0.0000E+00  0.1500E-01  0.1400E-01
     -8.295  0.0000E+00  0.9370E-06  0.1600E-01  0.1400E-01
     -8.257  0.0000E+00  0.0000E+00  0.1800E-01  0.1600E-01
     -8.219  0.0000E+00  0.0000E+00  0.1900E-01  0.1800E-01
     -8.180  0.0000E+00  0.0000E+00  0.1900E-01  0.1800E-01
     -8.142  0.0000E+00  0.0000E+00  0.2100E-01  0.1900E-01
     -8.104  0.0000E+00  0.0000E+00  0.2100E-01  0.2100E-01
     -8.066  0.0000E+00  0.0000E+00  0.2200E-01  0.2100E-01
     -8.028  0.0000E+00  0.0000E+00  0.2300E-01  0.2200E-01
     -7.990  0.0000E+00  0.0000E+00  0.2400E-01  0.2300E-01
     -7.951  0.0000E+00  0.0000E+00  0.2400E-01  0.2400E-01
     -7.913  0.0000E+00  0.0000E+00  0.2400E-01  0.2400E-01
     -7.875  0.0000E+00  0.0000E+00  0.2600E-01  0.2400E-01
     -7.837  0.0000E+00  0.0000E+00  0.2900E-01  0.2600E-01
     -7.799  0.0000E+00  0.0000E+00  0.2900E-01  0.2800E-01
     -7.761  0.0000E+00  0.0000E+00  0.2900E-01  0.2900E-01
     -7.723  0.0000E+00  0.4153E-14  0.3200E-01  0.3000E-01
     -7.684  0.0000E+00  0.0000E+00  0.3200E-01  0.3200E-01
     -7.646  0.0000E+00  0.0000E+00  0.3300E-01  0.3300E-01
     -7.608  0.0000E+00  0.0000E+00  0.3400E-01  0.3300E-01
     -7.570  0.0000E+00  0.0000E+00  0.3400E-01  0.3300E-01
     -7.532  0.0000E+00  0.0000E+00  0.3400E-01  0.3400E-01
     -7.494  0.0000E+00  0.0000E+00  0.3800E-01  0.3600E-01
     -7.456  0.0000E+00  0.0000E+00  0.3900E-01  0.3800E-01
     -7.417  0.0000E+00  0.0000E+00  0.4000E-01  0.4000E-01
     -7.379  0.0000E+00  0.0000E+00  0.4000E-01  0.4000E-01
     -7.341  0.0000E+00  0.0000E+00  0.4000E-01  0.4000E-01
     -7.303  0.0000E+00  0.0000E+00  0.4100E-01  0.4000E-01
     -7.265  0.0000E+00  0.0000E+00  0.4200E-01  0.4100E-01
     -7.227  0.0000E+00  0.0000E+00  0.4300E-01  0.4200E-01
     -7.188  0.0000E+00  0.0000E+00  0.4300E-01  0.4300E-01
     -7.150  0.0000E+00  0.0000E+00  0.4400E-01  0.4300E-01
     -7.112  0.0000E+00  0.0000E+00  0.4600E-01  0.4500E-01
     -7.074  0.0000E+00  0.0000E+00  0.4700E-01  0.4600E-01
     -7.036  0.0000E+00  0.0000E+00  0.4800E-01  0.4700E-01
     -6.998  0.0000E+00  0.0000E+00  0.5000E-01  0.4800E-01
     -6.960  0.0000E+00  0.0000E+00  0.5200E-01  0.5000E-01
     -6.921  0.0000E+00  0.0000E+00  0.5300E-01  0.5200E-01
     -6.883  0.0000E+00  0.0000E+00  0.5500E-01  0.5300E-01
     -6.845  0.0000E+00  0.2621E-01  0.5800E-01  0.5700E-01
     -6.807  0.0000E+00  0.0000E+00  0.5800E-01  0.5800E-01
     -6.769  0.0000E+00  0.0000E+00  0.6100E-01  0.5900E-01
     -6.731  0.0000E+00  0.0000E+00  0.6200E-01  0.6100E-01
     -6.693  0.0000E+00  0.0000E+00  0.6200E-01  0.6200E-01
     -6.654  0.0000E+00  0.0000E+00  0.6500E-01  0.6300E-01
     -6.616  0.0000E+00  0.0000E+00  0.6600E-01  0.6500E-01
     -6.578  0.0000E+00  0.0000E+00  0.6600E-01  0.6600E-01
     -6.540  0.0000E+00  0.0000E+00  0.6800E-01  0.6600E-01
     -6.502  0.0000E+00  0.0000E+00  0.7000E-01  0.6800E-01
     -6.464  0.0000E+00  0.0000E+00  0.7000E-01  0.7000E-01
     -6.426  0.0000E+00  0.0000E+00  0.7100E-01  0.7000E-01
     -6.387  0.0000E+00  0.0000E+00  0.7100E-01  0.7100E-01
     -6.349  0.0000E+00  0.0000E+00  0.7100E-01  0.7100E-01
     -6.311  0.0000E+00  0.0000E+00  0.7100E-01  0.7100E-01
     -6.273  0.0000E+00  0.0000E+00  0.7200E-01  0.7100E-01
     -6.235  0.0000E+00  0.0000E+00  0.7200E-01  0.7100E-01
     -6.197  0.0000E+00  0.0000E+00  0.7200E-01  0.7200E-01
     -6.158  0.0000E+00  0.0000E+00  0.7200E-01  0.7200E-01
     -6.120  0.0000E+00  0.0000E+00  0.7200E-01  0.7200E-01
     -6.082  0.0000E+00  0.0000E+00  0.7200E-01  0.7200E-01
     -6.044  0.0000E+00  0.0000E+00  0.7200E-01  0.7200E-01
     -6.006  0.0000E+00  0.0000E+00  0.7300E-01  0.7200E-01
     -5.968  0.0000E+00  0.0000E+00  0.7300E-01  0.7200E-01
     -5.930  0.0000E+00  0.0000E+00  0.7300E-01  0.7200E-01
     -5.891  0.0000E+00  0.0000E+00  0.7300E-01  0.7300E-01
     -5.853  0.0000E+00  0.0000E+00  0.7300E-01  0.7300E-01
     -5.815  0.0000E+00  0.0000E+00  0.7300E-01  0.7300E-01
     -5.777  0.0000E+00  0.0000E+00  0.7300E-01  0.7300E-01
     -5.739  0.0000E+00  0.0000E+00  0.7300E-01  0.7300E-01
     -5.701  0.0000E+00  0.0000E+00  0.7300E-01  0.7300E-01
     -5.663  0.0000E+00  0.0000E+00  0.7300E-01  0.7300E-01
     -5.624  0.0000E+00  0.0000E+00  0.7300E-01  0.7300E-01
     -5.586  0.0000E+00  0.0000E+00  0.7300E-01  0.7300E-01
     -5.548  0.0000E+00  0.0000E+00  0.7300E-01  0.7300E-01
     -5.510  0.0000E+00  0.0000E+00  0.7300E-01  0.7300E-01
     -5.472  0.0000E+00  0.0000E+00  0.7300E-01  0.7300E-01
     -5.434  0.0000E+00  0.0000E+00  0.7300E-01  0.7300E-01
     -5.396  0.0000E+00  0.0000E+00  0.7300E-01  0.7300E-01
     -5.357  0.0000E+00  0.0000E+00  0.7400E-01  0.7300E-01
     -5.319  0.0000E+00  0.0000E+00  0.7400E-01  0.7300E-01
     -5.281  0.0000E+00  0.0000E+00  0.7400E-01  0.7300E-01
     -5.243  0.0000E+00  0.0000E+00  0.7400E-01  0.7400E-01
     -5.205  0.0000E+00  0.0000E+00  0.7400E-01  0.7400E-01
     -5.167  0.0000E+00  0.0000E+00  0.7400E-01  0.7400E-01
     -5.128  0.0000E+00  0.0000E+00  0.7400E-01  0.7400E-01
     -5.090  0.0000E+00  0.0000E+00  0.7400E-01  0.7400E-01
     -5.052  0.0000E+00  0.0000E+00  0.7400E-01  0.7400E-01
     -5.014  0.0000E+00  0.0000E+00  0.7400E-01  0.7400E-01
     -4.976  0.0000E+00  0.0000E+00  0.7400E-01  0.7400E-01
     -4.938  0.0000E+00  0.0000E+00  0.7400E-01  0.7400E-01
     -4.900  0.0000E+00  0.0000E+00  0.7400E-01  0.7400E-01
     -4.861  0.0000E+00  0.0000E+00  0.7400E-01  0.7400E-01
     -4.823  0.0000E+00  0.0000E+00  0.7400E-01  0.7400E-01
     -4.785  0.0000E+00  0.0000E+00  0.7400E-01  0.7400E-01
     -4.747  0.0000E+00  0.0000E+00  0.7400E-01  0.7400E-01
     -4.709  0.0000E+00  0.0000E+00  0.7400E-01  0.7400E-01
     -4.671  0.0000E+00  0.0000E+00  0.7400E-01  0.7400E-01
     -4.633  0.0000E+00  0.0000E+00  0.7400E-01  0.7400E-01
     -4.594  0.0000E+00  0.0000E+00  0.7400E-01  0.7400E-01
     -4.556  0.0000E+00  0.0000E+00  0.7400E-01  0.7400E-01
     -4.518  0.0000E+00  0.0000E+00  0.7400E-01  0.7400E-01
     -4.480  0.0000E+00  0.0000E+00  0.7400E-01  0.7400E-01
     -4.442  0.0000E+00  0.0000E+00  0.7400E-01  0.7400E-01
     -4.404  0.0000E+00  0.0000E+00  0.7500E-01  0.7400E-01
     -4.366  0.0000E+00  0.0000E+00  0.7500E-01  0.7400E-01
     -4.327  0.0000E+00  0.0000E+00  0.7500E-01  0.7400E-01
     -4.289  0.0000E+00  0.0000E+00  0.7600E-01  0.7500E-01
     -4.251  0.0000E+00  0.0000E+00  0.7600E-01  0.7500E-01
     -4.213  0.0000E+00  0.0000E+00  0.7600E-01  0.7500E-01
     -4.175  0.0000E+00  0.0000E+00  0.7600E-01  0.7600E-01
     -4.137  0.0000E+00  0.0000E+00  0.7600E-01  0.7600E-01
     -4.098  0.0000E+00  0.0000E+00  0.7600E-01  0.7600E-01
     -4.060  0.0000E+00  0.0000E+00  0.7600E-01  0.7600E-01
     -4.022  0.0000E+00  0.0000E+00  0.7600E-01  0.7600E-01
     -3.984  0.0000E+00  0.0000E+00  0.7600E-01  0.7600E-01
     -3.946  0.0000E+00  0.0000E+00  0.7600E-01  0.7600E-01
     -3.908  0.0000E+00  0.0000E+00  0.7600E-01  0.7600E-01
     -3.870  0.0000E+00  0.0000E+00  0.7600E-01  0.7600E-01
     -3.831  0.0000E+00  0.0000E+00  0.7600E-01  0.7600E-01
     -3.793  0.0000E+00  0.0000E+00  0.7600E-01  0.7600E-01
     -3.755  0.0000E+00  0.0000E+00  0.7600E-01  0.7600E-01
     -3.717  0.0000E+00  0.0000E+00  0.7600E-01  0.7600E-01
     -3.679  0.0000E+00  0.0000E+00  0.7600E-01  0.7600E-01
     -3.641  0.0000E+00  0.0000E+00  0.7700E-01  0.7600E-01
     -3.603  0.0000E+00  0.0000E+00  0.7700E-01  0.7600E-01
     -3.564  0.0000E+00  0.0000E+00  0.7700E-01  0.7600E-01
     -3.526  0.0000E+00  0.0000E+00  0.7700E-01  0.7600E-01
     -3.488  0.0000E+00  0.0000E+00  0.7800E-01  0.7600E-01
     -3.450  0.0000E+00  0.0000E+00  0.7900E-01  0.7600E-01
     -3.412  0.0000E+00  0.0000E+00  0.7900E-01  0.7700E-01
     -3.374  0.0000E+00  0.0000E+00  0.7900E-01  0.7700E-01
     -3.336  0.0000E+00  0.0000E+00  0.7900E-01  0.7800E-01
     -3.297  0.0000E+00  0.0000E+00  0.7900E-01  0.7900E-01
     -3.259  0.0000E+00  0.0000E+00  0.7900E-01  0.7900E-01
     -3.221  0.0000E+00  0.0000E+00  0.7900E-01  0.7900E-01
     -3.183  0.0000E+00  0.0000E+00  0.7900E-01  0.7900E-01
     -3.145  0.0000E+00  0.0000E+00  0.7900E-01  0.7900E-01
     -3.107  0.0000E+00  0.0000E+00  0.7900E-01  0.7900E-01
     -3.068  0.0000E+00  0.0000E+00  0.7900E-01  0.7900E-01
     -3.030  0.0000E+00  0.0000E+00  0.7900E-01  0.7900E-01
     -2.992  0.0000E+00  0.0000E+00  0.7900E-01  0.7900E-01
     -2.954  0.0000E+00  0.0000E+00  0.7900E-01  0.7900E-01
     -2.916  0.0000E+00  0.0000E+00  0.7900E-01  0.7900E-01
     -2.878  0.0000E+00  0.0000E+00  0.7900E-01  0.7900E-01
     -2.840  0.0000E+00  0.0000E+00  0.7900E-01  0.7900E-01
     -2.801  0.0000E+00  0.0000E+00  0.7900E-01  0.7900E-01
     -2.763  0.0000E+00  0.0000E+00  0.7900E-01  0.7900E-01
     -2.725  0.0000E+00  0.0000E+00  0.7900E-01  0.7900E-01
     -2.687  0.0000E+00  0.0000E+00  0.7900E-01  0.7900E-01
     -2.649  0.0000E+00  0.0000E+00  0.7900E-01  0.7900E-01
     -2.611  0.0000E+00  0.0000E+00  0.7900E-01  0.7900E-01
     -2.573  0.0000E+00  0.0000E+00  0.8000E-01  0.7900E-01
     -2.534  0.0000E+00  0.0000E+00  0.8000E-01  0.7900E-01
     -2.496  0.0000E+00  0.0000E+00  0.8000E-01  0.7900E-01
     -2.458  0.0000E+00  0.0000E+00  0.8000E-01  0.7900E-01
     -2.420  0.0000E+00  0.0000E+00  0.8000E-01  0.8000E-01
     -2.382  0.0000E+00  0.0000E+00  0.8000E-01  0.8000E-01
     -2.344  0.0000E+00  0.0000E+00  0.8000E-01  0.8000E-01
     -2.306  0.0000E+00  0.0000E+00  0.8000E-01  0.8000E-01
     -2.267  0.0000E+00  0.0000E+00  0.8100E-01  0.8000E-01
     -2.229  0.0000E+00  0.0000E+00  0.8200E-01  0.8000E-01
     -2.191  0.0000E+00  0.0000E+00  0.8200E-01  0.8000E-01
     -2.153  0.0000E+00  0.0000E+00  0.8200E-01  0.8200E-01
     -2.115  0.0000E+00  0.0000E+00  0.8200E-01  0.8200E-01
     -2.077  0.0000E+00  0.0000E+00  0.8200E-01  0.8200E-01
     -2.038  0.0000E+00  0.0000E+00  0.8200E-01  0.8200E-01
     -2.000  0.0000E+00  0.0000E+00  0.8200E-01  0.8200E-01
     -1.962  0.0000E+00  0.0000E+00  0.8200E-01  0.8200E-01
     -1.924  0.0000E+00  0.0000E+00  0.8200E-01  0.8200E-01
     -1.886  0.0000E+00  0.0000E+00  0.8200E-01  0.8200E-01
     -1.848  0.0000E+00  0.0000E+00  0.8300E-01  0.8200E-01
     -1.810  0.0000E+00  0.0000E+00  0.8300E-01  0.8200E-01
     -1.771  0.0000E+00  0.0000E+00  0.8400E-01  0.8200E-01
     -1.733  0.0000E+00  0.0000E+00  0.8400E-01  0.8200E-01
     -1.695  0.0000E+00  0.0000E+00  0.8400E-01  0.8300E-01
     -1.657  0.0000E+00  0.0000E+00  0.8400E-01  0.8300E-01
     -1.619  0.0000E+00  0.0000E+00  0.8500E-01  0.8300E-01
     -1.581  0.0000E+00  0.0000E+00  0.8500E-01  0.8400E-01
     -1.543  0.0000E+00  0.0000E+00  0.8500E-01  0.8400E-01
     -1.504  0.0000E+00  0.0000E+00  0.8500E-01  0.8400E-01
     -1.466  0.0000E+00  0.0000E+00  0.8500E-01  0.8500E-01
     -1.428  0.0000E+00  0.0000E+00  0.8600E-01  0.8500E-01
     -1.390  0.0000E+00  0.0000E+00  0.8600E-01  0.8500E-01
     -1.352  0.0000E+00  0.0000E+00  0.8600E-01  0.8500E-01
     -1.314  0.0000E+00  0.0000E+00  0.8600E-01  0.8500E-01
     -1.276  0.0000E+00  0.0000E+00  0.8600E-01  0.8500E-01
     -1.237  0.0000E+00  0.0000E+00  0.8700E-01  0.8600E-01
     -1.199  0.0000E+00  0.0000E+00  0.8700E-01  0.8600E-01
     -1.161  0.0000E+00  0.0000E+00  0.8800E-01  0.8600E-01
     -1.123  0.0000E+00  0.0000E+00  0.8800E-01  0.8600E-01
     -1.085  0.0000E+00  0.0000E+00  0.8800E-01  0.8700E-01
     -1.047  0.0000E+00  0.0000E+00  0.8800E-01  0.8700E-01
     -1.008  0.0000E+00  0.0000E+00  0.8800E-01  0.8700E-01
     -0.970  0.0000E+00  0.0000E+00  0.8800E-01  0.8700E-01
     -0.932  0.0000E+00  0.0000E+00  0.8800E-01  0.8800E-01
     -0.894  0.9210E-02  0.0000E+00  0.8835E-01  0.8800E-01
     -0.856  0.0000E+00  0.0000E+00  0.8900E-01  0.8800E-01
     -0.818  0.0000E+00  0.0000E+00  0.8900E-01  0.8800E-01
     -0.780  0.0000E+00  0.0000E+00  0.8900E-01  0.8900E-01
     -0.741  0.0000E+00  0.0000E+00  0.8900E-01  0.8900E-01
     -0.703  0.0000E+00  0.0000E+00  0.8900E-01  0.8900E-01
     -0.665  0.0000E+00  0.0000E+00  0.8900E-01  0.8900E-01
     -0.627  0.0000E+00  0.0000E+00  0.8900E-01  0.8900E-01
     -0.589  0.0000E+00  0.0000E+00  0.8900E-01  0.8900E-01
     -0.551  0.0000E+00  0.0000E+00  0.9000E-01  0.8900E-01
     -0.513  0.0000E+00  0.0000E+00  0.9000E-01  0.8900E-01
     -0.474  0.0000E+00  0.0000E+00  0.9000E-01  0.9000E-01
     -0.436  0.0000E+00  0.0000E+00  0.9000E-01  0.9000E-01
     -0.398  0.0000E+00  0.0000E+00  0.9100E-01  0.9000E-01
     -0.360  0.0000E+00  0.0000E+00  0.9100E-01  0.9000E-01
     -0.322  0.0000E+00  0.0000E+00  0.9100E-01  0.9100E-01
     -0.284  0.0000E+00  0.0000E+00  0.9100E-01  0.9100E-01
     -0.246  0.0000E+00  0.0000E+00  0.9200E-01  0.9100E-01
     -0.207  0.0000E+00  0.0000E+00  0.9200E-01  0.9100E-01
     -0.169  0.0000E+00  0.0000E+00  0.9300E-01  0.9100E-01
     -0.131  0.0000E+00  0.0000E+00  0.9300E-01  0.9100E-01
     -0.093  0.0000E+00  0.0000E+00  0.9300E-01  0.9200E-01
     -0.055  0.0000E+00  0.0000E+00  0.9300E-01  0.9200E-01
     -0.017  0.0000E+00  0.0000E+00  0.9300E-01  0.9300E-01
      0.022  0.0000E+00  0.0000E+00  0.9300E-01  0.9300E-01
      0.060  0.0000E+00  0.0000E+00  0.9300E-01  0.9300E-01
      0.098  0.0000E+00  0.0000E+00  0.9300E-01  0.9300E-01
      0.136  0.0000E+00  0.0000E+00  0.9300E-01  0.9300E-01
      0.174  0.0000E+00  0.0000E+00  0.9300E-01  0.9300E-01
      0.212  0.0000E+00  0.0000E+00  0.9300E-01  0.9300E-01
      0.250  0.0000E+00  0.0000E+00  0.9300E-01  0.9300E-01
      0.289  0.0000E+00  0.0000E+00  0.9400E-01  0.9300E-01
      0.327  0.1176E-02  0.0000E+00  0.9404E-01  0.9400E-01
      0.365  0.0000E+00  0.0000E+00  0.9500E-01  0.9400E-01
      0.403  0.0000E+00  0.0000E+00  0.9500E-01  0.9400E-01
      0.441  0.0000E+00  0.0000E+00  0.9700E-01  0.9400E-01
      0.479  0.0000E+00  0.0000E+00  0.9700E-01  0.9400E-01
      0.517  0.0000E+00  0.0000E+00  0.9800E-01  0.9500E-01
      0.556  0.0000E+00  0.0000E+00  0.9800E-01  0.9700E-01
      0.594  0.0000E+00  0.0000E+00  0.9900E-01  0.9700E-01
      0.632  0.0000E+00  0.4470E-07  0.9900E-01  0.9700E-01
      0.670  0.0000E+00  0.0000E+00  0.1000E+00  0.9900E-01
      0.708  0.0000E+00  0.0000E+00  0.1000E+00  0.1000E+00
      0.746  0.0000E+00  0.0000E+00  0.1000E+00  0.1000E+00
      0.784  0.0000E+00  0.0000E+00  0.1000E+00  0.1000E+00
      0.823  0.0000E+00  0.0000E+00  0.1000E+00  0.1000E+00
      0.861  0.0000E+00  0.0000E+00  0.1000E+00  0.1000E+00
      0.899  0.0000E+00  0.0000E+00  0.1000E+00  0.1000E+00
      0.937  0.0000E+00  0.0000E+00  0.1000E+00  0.1000E+00
      0.975  0.0000E+00  0.0000E+00  0.1000E+00  0.1000E+00
      1.013  0.0000E+00  0.0000E+00  0.1000E+00  0.1000E+00
      1.052  0.0000E+00  0.0000E+00  0.1000E+00  0.1000E+00
      1.090  0.0000E+00  0.0000E+00  0.1000E+00  0.1000E+00
      1.128  0.0000E+00  0.0000E+00  0.1000E+00  0.1000E+00
      1.166  0.0000E+00  0.0000E+00  0.1000E+00  0.1000E+00
      1.204  0.0000E+00  0.0000E+00  0.1000E+00  0.1000E+00
