11
Energy = -60.91922561 eV
B 7.983730002723318 8.609663940479043 7.774116737267279
B 7.2609195764445795 7.921964452724403 9.257497886946902
B 8.967456349786312 8.54700652017348 9.202632189396919
B 10.382178405270109 9.33080312093859 8.252375097193665
B 9.605579962241485 8.30009266286977 10.778250416196013
B 8.17783021383733 9.168421594524636 6.160208519375945
B 10.562331776728183 8.949901243956202 9.739054823595763
B 6.799257785891795 8.556696289314484 6.55269444215111
B 6.37204681532713 7.997254031218301 7.944078657430423
B 8.138024375503674 7.84066888184936 10.569060676544243
B 9.47816655852214 9.390243724155278 6.978243696659514
