11
Energy = -59.19365812 eV
B 8.22986687807045 8.008051368666047 6.8100374662183345
B 8.349175072532585 6.399067202253354 6.141172186017849
B 7.715906966975511 7.5787403841144485 5.249411235333162
B 6.7642967774383225 8.584047260227551 6.072007793486629
B 7.9563427753549805 7.830071938931062 8.439742743511442
B 6.68102818089046 6.872748062269643 6.39160995567735
B 8.091416066340825 6.121747325102461 7.72542299041964
B 7.462529873743161 6.445986593724851 9.181380365730412
B 6.465558047827746 7.818131254702445 9.140229205446579
B 6.3984686767046055 8.468224256817178 7.655693195659542
B 6.332116461318586 6.639281003129894 7.9989342899796485
