15
Energy = -80.1111467 eV
B 12.676614405579734 15.070322643953304 9.819034361567475
B 12.028330110705168 13.645090693792353 10.213245480562806
B 11.36564547950017 12.299682627095054 10.73060593678203
B 13.667114367208022 15.895437694051983 10.740768937050342
B 10.774844795578677 10.830708128801211 11.065120259383919
B 13.893080443983353 15.498883802624537 12.235881719168574
B 10.291405074171958 9.365745073141426 11.411306427115028
B 10.47031585961885 6.226540994438659 14.808803804414259
B 13.007234927832812 14.335870376867677 12.852398107059699
B 10.579065503700724 7.39932082525203 13.793845668887071
B 10.64483617775842 8.554410728695107 12.700451615564823
B 13.319992702977318 14.298202867753544 11.184282466865533
B 11.344202496763634 10.081891122870987 12.508049108469306
B 12.261126044771112 13.15239588456296 11.953694127673154
B 11.873962346531126 11.543267272779964 12.180282716116558
