15
Energy = -81.77679349 eV
B 8.997074171906428 8.909772114218379 4.964274209394165
B 8.413955923366832 10.121658445586151 5.769678736248742
B 9.448909635321087 8.042943592564152 6.23858727069761
B 8.650754682403946 7.464926185230254 7.520017145835538
B 8.033780074582069 9.050778736212134 6.973566978889321
B 9.67832143148051 9.808448766624636 6.6939157514303895
B 9.969745248511218 8.737491257644963 7.804337949482447
B 8.07902961730087 6.856603615893012 8.896489452232759
B 7.3911407708889545 8.541319664654933 8.48985341612931
B 7.975354031240699 9.11991492432592 10.002791624076409
B 9.278529596892325 8.280449685885923 9.256699238798095
B 8.484434796288953 7.353222579562184 10.45078280606776
B 6.809079331034993 7.601889670629322 9.767903775599732
B 7.363215870095417 8.611325764144409 11.388221510384088
B 7.031320729987436 7.103900908124626 11.38752604603495
