17
Energy = -90.45454111 eV
B 13.11990701927968 7.451090144871575 8.921662322062252
B 13.569956218829875 6.942757348960143 10.41204137368361
B 12.821473664657322 5.94612643615195 9.504892344536787
B 12.700629352250179 8.342112249630054 10.369492136087267
B 11.84399590988687 8.453259902442355 8.839160127629903
B 11.519077101888849 6.729012682502484 8.860689589667784
B 11.19642014929167 9.01741713955268 10.28386012556239
B 10.324515204848044 7.815008617085821 9.168206332887264
B 8.220237959157043 11.741902425760575 8.669981626339206
B 9.696676096490702 9.196954676176476 9.722503693737876
B 7.2756442571077 10.466412211082758 8.085716497385775
B 7.32064906717565 11.33400954230994 10.034950945612872
B 6.696091018226015 9.733646380548356 9.41541960914412
B 8.501505704790146 10.262932531992634 9.350322493739082
B 6.619613157668274 12.003009470237336 8.499375114722895
B 5.575193422268078 11.689336276196839 9.652598186884093
B 5.890736410989505 10.484844457839017 10.592413813440926
