23
Energy = -129.13270824 eV
B 7.799802192859454 9.924628492028091 8.168938256249112
B 8.28744553364375 6.574052390374852 7.884031594152904
B 7.02220812320308 7.669841771423915 8.378337623761686
B 9.05591223044813 9.811957374255925 6.694201525668287
B 11.031708718217066 7.6086374738107825 8.725291866233984
B 7.532153937796646 8.031793238396965 6.663000067494626
B 10.654786684062701 9.574499603678717 6.890627387900545
B 7.335989477170751 9.214403751830998 11.460292650859774
B 8.244976285982146 7.192697428335024 9.446327721386897
B 8.776863482608238 8.897512610105144 10.814285323904308
B 10.514644022321143 9.237374676814758 8.6033430820051
B 9.140844152369207 9.827397833282275 9.244861178916205
B 7.519058094445138 9.745070483504824 6.4926447249037675
B 7.724759362570868 5.282340096255083 5.304305555743941
B 9.652423557213899 6.707701446715526 8.842836521775803
B 9.8707211779374 8.112051413864084 9.84350619573764
B 7.045254791091754 8.175372439525713 10.071691081360534
B 6.096817902191861 9.553142198017685 10.574044200073049
B 7.676190907538331 10.017332633835577 9.888881538093766
B 6.037102586108701 9.26176554158825 9.000061870956548
B 7.870482933552634 6.47474144777383 6.2907669391940875
B 6.4003273848526625 9.033466540008684 7.4539824803529875
B 11.557273390418844 8.483032060331212 7.484330367518341
