24
Energy = -139.97193107 eV
B 9.788584547630139 9.957997995808391 6.548996351358998
B 10.870963422060129 10.734353740667903 7.413052333416075
B 12.180807065563869 11.047315074027829 8.352524027252018
B 8.539213831548983 9.204475504816841 7.087831557648035
B 13.439102193773737 11.021793929465863 9.269829959874041
B 9.495906832759234 10.028114663041054 8.181319897774118
B 10.533604846319326 10.969945044429867 9.210124441131764
B 12.059197293082223 10.40425886685962 9.9248255730069
B 7.916445642538693 9.35133746828485 8.55471091972622
B 13.504075365089765 10.795352262836117 10.841359294641487
B 9.14363398786614 9.821073356855733 9.896505390344783
B 9.660817007556155 11.454291236226252 10.617038192392902
B 7.402273556830507 10.100937829825677 9.845545736461244
B 10.631802497152472 9.914354451688196 10.719153692191423
B 13.472666918922517 10.596874496578032 12.451876584056643
B 12.003491166981712 10.334432661971366 11.66720428553902
B 8.00790621548366 10.989445346170534 10.960315618838578
B 10.460009319400768 10.9515074289691 12.140835600331034
B 13.442501698237702 10.909229662888936 13.984629719509448
B 8.90983886230923 11.66482601360611 12.14134639959392
B 11.894599975887301 11.10305274834276 13.236965017030077
B 9.643917268946822 11.72752612177188 13.522325750102993
B 12.2657358870581 11.360112666769288 14.886583748156175
B 10.783882403380458 11.608369234478056 14.596077716002368
