25
Energy = -143.89566496 eV
B 5.4170607837161855 8.899370158185242 7.813924949260724
B 5.006641147162086 6.432218253841746 7.799972137760293
B 6.085946152271858 5.372347773199208 7.222593517637618
B 7.000917863235281 7.920556758999995 6.119289801762964
B 6.768027517672414 5.638726065207974 5.576162778829962
B 7.351444402351251 8.25969679650863 7.860045036520377
B 5.506138959816015 7.183560091121932 9.363306727285082
B 9.08513117860476 6.809799763051549 7.622278019648517
B 8.566628362763465 8.126075142819625 5.304331286759287
B 7.329082696886305 4.493237999300859 6.695459077132986
B 9.518364620080966 6.755546724478711 5.9294771840003
B 8.683288568705052 7.681992929070376 9.149156617342392
B 5.448567035285741 8.566779878850658 6.069560073337156
B 4.298989175390736 7.81137676041927 8.591301759977021
B 8.484158394392539 5.558883231903513 6.291274998280894
B 4.387730399251149 7.75568037614975 6.967599411040476
B 7.834216229121883 5.337875411442164 8.009871263412677
B 5.6341955206438525 6.809835206827304 6.16987019981017
B 8.180260613857604 9.20811689220075 6.611118546489485
B 9.108398225070529 8.69582642808222 8.018575761540063
B 8.611895728004098 6.09298360261028 9.175704051191346
B 9.764249458879275 8.171522897403808 6.628881212485875
B 7.906416879523159 6.715256794719746 5.022121803360956
B 7.016650858173005 6.850347398893783 8.881329608903146
B 6.563690523890988 9.60037680128428 6.832422237433008
