25
Energy = -138.30147393 eV
B 8.060880857015833 6.525519772315218 5.137234550434745
B 8.47904979202117 8.077058121668438 5.0420409089384055
B 9.583153736485306 7.222034210300635 6.074567738766443
B 7.021838238096488 5.683260126512394 6.123197529635049
B 5.976209555791964 6.8203438917625405 6.50996846125646
B 9.124895756419086 8.81681376649573 6.3092336993038804
B 6.3699367231248285 9.769494607605711 6.917997687981155
B 7.583137490255084 9.163535512745627 5.916364047379662
B 5.368310356685211 8.291746823946978 6.772823955638054
B 8.145582736971544 9.38730496401591 7.579836662767493
B 8.551936826511952 6.065667622899339 6.689510024655166
B 5.719150912541979 7.558268374626141 8.235351589876059
B 9.640164753502317 6.860807489782257 7.686172353239898
B 5.282748084012767 9.19039533053561 8.12760746888514
B 9.002834481005175 8.186405523852697 9.162769272836995
B 7.73476718054759 7.485706832681814 8.26708801517459
B 7.724088259721938 10.797677583057016 8.95751188667929
B 6.632564184155097 6.458355448217474 8.995562905138113
B 7.227779104741918 5.799749985630318 7.623825541061583
B 10.04448948793782 6.443227653809352 9.20906785030588
B 8.890565292844443 9.795507685677537 9.129833320129176
B 6.294923791331105 10.374989920274766 8.47601958017629
B 7.772555175942812 7.210832093726692 10.00201774549986
B 9.898595815237854 6.032699498290897 10.677775194894645
B 8.669067137350215 6.781822889820918 11.175847739598174
