29
Energy = -210.4933927 eV
B 8.179114611495752 3.1337621364846493 4.047484807182786
B 5.661367380246519 4.242627068488579 3.462501864072827
B 9.998633944717639 4.652825579689124 5.265911165895646
B 7.9250728515708495 6.143046835846823 3.4016336017122892
B 8.5022835040522 2.890752021255689 7.154205638852478
B 9.734457357705603 5.757654372310028 7.886537098220034
B 7.251513724939132 8.943338032389141 4.332189279923251
B 4.905716416203897 6.959149705556194 3.9296956343866594
B 9.319519926476666 10.132804216309795 6.030991281306749
B 10.747175040143645 8.837681535927318 8.404626836083818
B 5.979265748539891 2.2907831050869523 5.530493992873446
B 9.68304343444557 7.438274522436339 5.529408237783388
B 7.098313505389741 5.176379218046294 6.115866491874477
B 5.819971966826329 7.74596864502944 6.742647779073603
B 7.1463431400433155 5.376291930460309 9.381504704978791
B 5.6807088327254185 3.197546468808793 8.032007512882938
B 6.540613266873029 10.99568962324012 6.636419319894023
B 3.9978191153831193 4.621519149390349 5.750664108674268
B 9.503618943938204 6.933326697978381 10.49138183902212
B 8.005456094732931 8.298890333070574 8.275743839099913
B 4.470937747860632 7.9021487372153985 9.51609804575723
B 8.817387373453489 11.22152347506251 8.486941455404535
B 4.471166900634123 9.644590550754378 4.969956386878863
B 3.969328613289227 10.007783760077096 7.7157999083675275
B 9.004983523814289 9.721456263876469 10.787454473040857
B 4.222840473714041 5.4142575252966 8.521788894943198
B 3.047790640466656 7.410869641946424 6.545363682952744
B 6.18722375048694 10.344278632613173 9.62846155200798
B 6.87355594757193 7.867659912857922 11.170597496682872
