38
Energy = -208.77442114 eV
B 12.208461980529998 13.434302964306802 13.303988580589017
B 8.460399641161596 11.089488554965055 8.266343679495037
B 13.209246609572041 13.183764616598502 14.504785918102849
B 9.241971323258623 8.420287979428513 9.537166440415294
B 7.819609478364529 10.055478308026546 6.939221309467556
B 10.548725845585109 9.646909041702179 13.218044038659372
B 14.971003888579444 8.554440213084227 8.218427591946543
B 8.104234696837235 7.710865991447228 8.482257015466585
B 13.948883292533221 11.37085926911181 7.13575701321392
B 9.353310252649571 13.717818974417474 10.090790183836425
B 14.592354873084734 10.254586046441492 8.116326675657078
B 10.54744308602874 8.068848556078128 12.396929754882384
B 11.838991445133653 8.66454170808681 13.04464235967457
B 8.140810218927273 11.54418022237117 6.631544840027398
B 14.478520692777714 11.98853552937327 8.66926410624135
B 8.60042582358356 9.335541895047738 8.35717505556653
B 8.843749543139065 12.353343271103594 9.218372298762171
B 11.931113459035442 9.97865542099959 14.074731757014034
B 15.33602749460267 9.399931963897506 9.469077160716257
B 9.653508491825773 7.646402234256533 10.927253111141015
B 9.578805034824523 6.801889614179365 12.389751291304663
B 11.499421901051766 13.737163534303466 11.952708298998848
B 8.584078085094026 12.72138766748652 7.563868720225407
B 13.776450471430433 12.885460690054174 7.4584835152523805
B 8.80963278006597 6.183490044268088 11.200007810941385
B 8.78694550501451 13.587716454572378 12.855498646865016
B 8.577892471707532 6.867409839790712 9.821906464243824
B 15.108593835612867 10.938109285466252 9.651996397641938
B 13.136524987819158 10.490826841944973 15.034555863860403
B 7.544686867747696 8.530760979260972 7.291806052111271
B 9.885515583705569 13.84392140088503 11.621150054424785
B 9.530983789684226 12.339884181156629 14.111046502792941
B 10.411638796593106 13.639442042300791 13.180269316295002
B 13.649641411688792 11.917375306309198 15.2605166009278
B 10.625794147468733 11.123131175603755 13.828088228885868
B 8.319358443253133 13.307238468747922 14.313001326777126
B 12.310444222091949 11.73777967769045 14.197875558064657
B 8.98270944606857 13.876139953367854 8.613280377643077
