6
Energy = -28.60262877 eV
B 6.366370408784445 6.122408911397103 6.00492763062001
B 7.651874467974284 7.033993880858668 6.5560062325699855
B 6.9180284361801885 8.3323648044389 7.299416945972111
B 7.40004594509593 7.082563436685763 8.208207156922116
B 6.264776782980174 7.736125327833739 5.942774492508347
B 7.079478010854647 5.71813945085808 7.4009285150709125
